# vtk DataFile Version 3.0
MachLine results file. Generated by MachLine, USU AeroLab (c) 2022.
ASCII
DATASET POLYDATA
POINTS                1127 float
  0.100000000000E+01  0.000000000000E+00  0.000000000000E+00
  0.973034464140E+00  0.105263157890E+00 -0.235917869390E-02
  0.100000000000E+01  0.105263157890E+00  0.000000000000E+00
  0.973034464140E+00  0.000000000000E+00 -0.235917869390E-02
  0.929717765040E+00  0.105263157890E+00 -0.614889880620E-02
  0.929717765040E+00  0.000000000000E+00 -0.614889880620E-02
  0.863184801440E+00  0.105263157890E+00 -0.119697788720E-01
  0.863184801440E+00  0.000000000000E+00 -0.119697788720E-01
  0.767714243180E+00  0.105263157890E+00 -0.203223704200E-01
  0.767714243180E+00  0.000000000000E+00 -0.203223704200E-01
  0.643290544900E+00  0.105263157890E+00 -0.312080334940E-01
  0.643290544900E+00  0.000000000000E+00 -0.312080334940E-01
  0.500000000000E+00  0.105263157890E+00 -0.437443317630E-01
  0.500000000000E+00  0.000000000000E+00 -0.437443317630E-01
  0.356709455100E+00  0.000000000000E+00 -0.312080334940E-01
  0.356709455100E+00  0.105263157890E+00 -0.312080334940E-01
  0.232285756820E+00  0.000000000000E+00 -0.203223704200E-01
  0.232285756820E+00  0.105263157890E+00 -0.203223704200E-01
  0.136815198560E+00  0.000000000000E+00 -0.119697788720E-01
  0.136815198560E+00  0.105263157890E+00 -0.119697788720E-01
  0.702822349590E-01  0.000000000000E+00 -0.614889880620E-02
  0.702822349590E-01  0.105263157890E+00 -0.614889880620E-02
  0.269655358630E-01  0.000000000000E+00 -0.235917869390E-02
  0.269655358630E-01  0.105263157890E+00 -0.235917869390E-02
  0.000000000000E+00  0.000000000000E+00  0.000000000000E+00
  0.000000000000E+00  0.105263157890E+00  0.000000000000E+00
  0.269655358630E-01  0.105263157890E+00  0.235917869390E-02
  0.269655358630E-01  0.000000000000E+00  0.235917869390E-02
  0.702822349590E-01  0.105263157890E+00  0.614889880620E-02
  0.702822349590E-01  0.000000000000E+00  0.614889880620E-02
  0.136815198560E+00  0.105263157890E+00  0.119697788720E-01
  0.136815198560E+00  0.000000000000E+00  0.119697788720E-01
  0.232285756820E+00  0.105263157890E+00  0.203223704200E-01
  0.232285756820E+00  0.000000000000E+00  0.203223704200E-01
  0.356709455100E+00  0.105263157890E+00  0.312080334940E-01
  0.356709455100E+00  0.000000000000E+00  0.312080334940E-01
  0.500000000000E+00  0.105263157890E+00  0.437443317630E-01
  0.500000000000E+00  0.000000000000E+00  0.437443317630E-01
  0.643290544900E+00  0.000000000000E+00  0.312080334940E-01
  0.643290544900E+00  0.105263157890E+00  0.312080334940E-01
  0.767714243180E+00  0.000000000000E+00  0.203223704200E-01
  0.767714243180E+00  0.105263157890E+00  0.203223704200E-01
  0.863184801440E+00  0.000000000000E+00  0.119697788720E-01
  0.863184801440E+00  0.105263157890E+00  0.119697788720E-01
  0.929717765040E+00  0.000000000000E+00  0.614889880620E-02
  0.929717765040E+00  0.105263157890E+00  0.614889880620E-02
  0.973034464140E+00  0.000000000000E+00  0.235917869390E-02
  0.973034464140E+00  0.105263157890E+00  0.235917869390E-02
  0.973034464140E+00  0.210526315790E+00 -0.235917869390E-02
  0.100000000000E+01  0.210526315790E+00  0.000000000000E+00
  0.929717765040E+00  0.210526315790E+00 -0.614889880620E-02
  0.863184801440E+00  0.210526315790E+00 -0.119697788720E-01
  0.767714243180E+00  0.210526315790E+00 -0.203223704200E-01
  0.643290544900E+00  0.210526315790E+00 -0.312080334940E-01
  0.500000000000E+00  0.210526315790E+00 -0.437443317630E-01
  0.356709455100E+00  0.210526315790E+00 -0.312080334940E-01
  0.232285756820E+00  0.210526315790E+00 -0.203223704200E-01
  0.136815198560E+00  0.210526315790E+00 -0.119697788720E-01
  0.702822349590E-01  0.210526315790E+00 -0.614889880620E-02
  0.269655358630E-01  0.210526315790E+00 -0.235917869390E-02
  0.000000000000E+00  0.210526315790E+00  0.000000000000E+00
  0.269655358630E-01  0.210526315790E+00  0.235917869390E-02
  0.702822349590E-01  0.210526315790E+00  0.614889880620E-02
  0.136815198560E+00  0.210526315790E+00  0.119697788720E-01
  0.232285756820E+00  0.210526315790E+00  0.203223704200E-01
  0.356709455100E+00  0.210526315790E+00  0.312080334940E-01
  0.500000000000E+00  0.210526315790E+00  0.437443317630E-01
  0.643290544900E+00  0.210526315790E+00  0.312080334940E-01
  0.767714243180E+00  0.210526315790E+00  0.203223704200E-01
  0.863184801440E+00  0.210526315790E+00  0.119697788720E-01
  0.929717765040E+00  0.210526315790E+00  0.614889880620E-02
  0.973034464140E+00  0.210526315790E+00  0.235917869390E-02
  0.973034464140E+00  0.315789473680E+00 -0.235917869390E-02
  0.100000000000E+01  0.315789473680E+00  0.000000000000E+00
  0.929717765040E+00  0.315789473680E+00 -0.614889880620E-02
  0.863184801440E+00  0.315789473680E+00 -0.119697788720E-01
  0.767714243180E+00  0.315789473680E+00 -0.203223704200E-01
  0.643290544900E+00  0.315789473680E+00 -0.312080334940E-01
  0.500000000000E+00  0.315789473680E+00 -0.437443317630E-01
  0.356709455100E+00  0.315789473680E+00 -0.312080334940E-01
  0.232285756820E+00  0.315789473680E+00 -0.203223704200E-01
  0.136815198560E+00  0.315789473680E+00 -0.119697788720E-01
  0.702822349590E-01  0.315789473680E+00 -0.614889880620E-02
  0.269655358630E-01  0.315789473680E+00 -0.235917869390E-02
  0.000000000000E+00  0.315789473680E+00  0.000000000000E+00
  0.269655358630E-01  0.315789473680E+00  0.235917869390E-02
  0.702822349590E-01  0.315789473680E+00  0.614889880620E-02
  0.136815198560E+00  0.315789473680E+00  0.119697788720E-01
  0.232285756820E+00  0.315789473680E+00  0.203223704200E-01
  0.356709455100E+00  0.315789473680E+00  0.312080334940E-01
  0.500000000000E+00  0.315789473680E+00  0.437443317630E-01
  0.643290544900E+00  0.315789473680E+00  0.312080334940E-01
  0.767714243180E+00  0.315789473680E+00  0.203223704200E-01
  0.863184801440E+00  0.315789473680E+00  0.119697788720E-01
  0.929717765040E+00  0.315789473680E+00  0.614889880620E-02
  0.973034464140E+00  0.315789473680E+00  0.235917869390E-02
  0.973034464140E+00  0.421052631580E+00 -0.235917869390E-02
  0.100000000000E+01  0.421052631580E+00  0.000000000000E+00
  0.929717765040E+00  0.421052631580E+00 -0.614889880620E-02
  0.863184801440E+00  0.421052631580E+00 -0.119697788720E-01
  0.767714243180E+00  0.421052631580E+00 -0.203223704200E-01
  0.643290544900E+00  0.421052631580E+00 -0.312080334940E-01
  0.500000000000E+00  0.421052631580E+00 -0.437443317630E-01
  0.356709455100E+00  0.421052631580E+00 -0.312080334940E-01
  0.232285756820E+00  0.421052631580E+00 -0.203223704200E-01
  0.136815198560E+00  0.421052631580E+00 -0.119697788720E-01
  0.702822349590E-01  0.421052631580E+00 -0.614889880620E-02
  0.269655358630E-01  0.421052631580E+00 -0.235917869390E-02
  0.000000000000E+00  0.421052631580E+00  0.000000000000E+00
  0.269655358630E-01  0.421052631580E+00  0.235917869390E-02
  0.702822349590E-01  0.421052631580E+00  0.614889880620E-02
  0.136815198560E+00  0.421052631580E+00  0.119697788720E-01
  0.232285756820E+00  0.421052631580E+00  0.203223704200E-01
  0.356709455100E+00  0.421052631580E+00  0.312080334940E-01
  0.500000000000E+00  0.421052631580E+00  0.437443317630E-01
  0.643290544900E+00  0.421052631580E+00  0.312080334940E-01
  0.767714243180E+00  0.421052631580E+00  0.203223704200E-01
  0.863184801440E+00  0.421052631580E+00  0.119697788720E-01
  0.929717765040E+00  0.421052631580E+00  0.614889880620E-02
  0.973034464140E+00  0.421052631580E+00  0.235917869390E-02
  0.973034464140E+00  0.526315789470E+00 -0.235917869390E-02
  0.100000000000E+01  0.526315789470E+00  0.000000000000E+00
  0.929717765040E+00  0.526315789470E+00 -0.614889880620E-02
  0.863184801440E+00  0.526315789470E+00 -0.119697788720E-01
  0.767714243180E+00  0.526315789470E+00 -0.203223704200E-01
  0.643290544900E+00  0.526315789470E+00 -0.312080334940E-01
  0.500000000000E+00  0.526315789470E+00 -0.437443317630E-01
  0.356709455100E+00  0.526315789470E+00 -0.312080334940E-01
  0.232285756820E+00  0.526315789470E+00 -0.203223704200E-01
  0.136815198560E+00  0.526315789470E+00 -0.119697788720E-01
  0.702822349590E-01  0.526315789470E+00 -0.614889880620E-02
  0.269655358630E-01  0.526315789470E+00 -0.235917869390E-02
  0.000000000000E+00  0.526315789470E+00  0.000000000000E+00
  0.269655358630E-01  0.526315789470E+00  0.235917869390E-02
  0.702822349590E-01  0.526315789470E+00  0.614889880620E-02
  0.136815198560E+00  0.526315789470E+00  0.119697788720E-01
  0.232285756820E+00  0.526315789470E+00  0.203223704200E-01
  0.356709455100E+00  0.526315789470E+00  0.312080334940E-01
  0.500000000000E+00  0.526315789470E+00  0.437443317630E-01
  0.643290544900E+00  0.526315789470E+00  0.312080334940E-01
  0.767714243180E+00  0.526315789470E+00  0.203223704200E-01
  0.863184801440E+00  0.526315789470E+00  0.119697788720E-01
  0.929717765040E+00  0.526315789470E+00  0.614889880620E-02
  0.973034464140E+00  0.526315789470E+00  0.235917869390E-02
  0.973034464140E+00  0.631578947370E+00 -0.235917869390E-02
  0.100000000000E+01  0.631578947370E+00  0.000000000000E+00
  0.929717765040E+00  0.631578947370E+00 -0.614889880620E-02
  0.863184801440E+00  0.631578947370E+00 -0.119697788720E-01
  0.767714243180E+00  0.631578947370E+00 -0.203223704200E-01
  0.643290544900E+00  0.631578947370E+00 -0.312080334940E-01
  0.500000000000E+00  0.631578947370E+00 -0.437443317630E-01
  0.356709455100E+00  0.631578947370E+00 -0.312080334940E-01
  0.232285756820E+00  0.631578947370E+00 -0.203223704200E-01
  0.136815198560E+00  0.631578947370E+00 -0.119697788720E-01
  0.702822349590E-01  0.631578947370E+00 -0.614889880620E-02
  0.269655358630E-01  0.631578947370E+00 -0.235917869390E-02
  0.000000000000E+00  0.631578947370E+00  0.000000000000E+00
  0.269655358630E-01  0.631578947370E+00  0.235917869390E-02
  0.702822349590E-01  0.631578947370E+00  0.614889880620E-02
  0.136815198560E+00  0.631578947370E+00  0.119697788720E-01
  0.232285756820E+00  0.631578947370E+00  0.203223704200E-01
[...]
CELL_DATA                2176
SCALARS C_p_ise float 1
LOOKUP_TABLE default
 -0.882132235901E-01
 -0.882129197510E-01
 -0.882117335219E-01
 -0.882116237100E-01
 -0.882115819620E-01
 -0.882115424618E-01
 -0.882115027503E-01
 -0.882114917004E-01
 -0.882114833228E-01
 -0.882114806152E-01
 -0.882114847871E-01
 -0.882114658503E-01
  0.246228156362E+00
  0.246228155758E+00
  0.246228157038E+00
  0.246228161864E+00
  0.246228156664E+00
  0.246228156662E+00
  0.246228156669E+00
  0.246228156669E+00
  0.246228156673E+00
  0.246228156673E+00
  0.246228156670E+00
  0.246228156670E+00
  0.990831683514E-01
  0.990831683514E-01
  0.990831683541E-01
  0.990831683541E-01
  0.990831683505E-01
  0.990831683504E-01
  0.990831683511E-01
  0.990831683488E-01
  0.990831649758E-01
  0.990831677193E-01
  0.990831744829E-01
  0.990831683327E-01
 -0.189552149928E+00
 -0.189552146509E+00
 -0.189552140098E+00
 -0.189552134243E+00
 -0.189552134582E+00
 -0.189552118265E+00
 -0.189552080768E+00
 -0.189552043979E+00
 -0.189552012340E+00
 -0.189551914169E+00
 -0.189550827344E+00
 -0.189550553091E+00
 -0.882150535919E-01
 -0.882132235901E-01
 -0.882122873458E-01
 -0.882117335219E-01
 -0.882118261023E-01
 -0.882115819620E-01
 -0.882116006166E-01
 -0.882115027503E-01
 -0.882115002302E-01
 -0.882114833228E-01
 -0.882114923624E-01
 -0.882114847871E-01
  0.246228155758E+00
  0.246228154048E+00
  0.246228161864E+00
  0.246228156984E+00
  0.246228156662E+00
  0.246228156649E+00
  0.246228156669E+00
  0.246228156668E+00
  0.246228156673E+00
  0.246228156673E+00
  0.246228156670E+00
  0.246228156670E+00
  0.990831683514E-01
  0.990831683514E-01
  0.990831683541E-01
  0.990831683541E-01
  0.990831683511E-01
  0.990831683505E-01
  0.990831683637E-01
  0.990831683511E-01
  0.990831640726E-01
  0.990831649758E-01
  0.990831764802E-01
  0.990831744829E-01
 -0.189552146509E+00
 -0.189552135745E+00
 -0.189552134243E+00
 -0.189552113950E+00
 -0.189552118265E+00
 -0.189552040207E+00
 -0.189552043979E+00
 -0.189551817837E+00
 -0.189551914169E+00
 -0.189551422313E+00
 -0.189550553091E+00
 -0.189548898233E+00
 -0.882236827404E-01
 -0.882150535925E-01
 -0.882142217997E-01
 -0.882122873460E-01
 -0.882126960490E-01
 -0.882118261023E-01
 -0.882119100407E-01
 -0.882116006166E-01
 -0.882115931284E-01
 -0.882115002302E-01
 -0.882115233297E-01
 -0.882114923624E-01
  0.246228154048E+00
  0.246228144157E+00
  0.246228156984E+00
  0.246228155669E+00
  0.246228156649E+00
  0.246228156593E+00
  0.246228156668E+00
  0.246228156665E+00
  0.246228156673E+00
  0.246228156673E+00
  0.246228156670E+00
  0.246228156670E+00
  0.990831683514E-01
  0.990831683514E-01
  0.990831683542E-01
  0.990831683541E-01
  0.990831683542E-01
  0.990831683511E-01
  0.990831684195E-01
  0.990831683637E-01
  0.990831651050E-01
  0.990831640726E-01
  0.990831861268E-01
  0.990831764802E-01
 -0.189552135745E+00
 -0.189552109551E+00
 -0.189552113950E+00
 -0.189552034488E+00
 -0.189552040207E+00
 -0.189551766542E+00
 -0.189551817837E+00
 -0.189551007302E+00
 -0.189551422313E+00
 -0.189549702273E+00
 -0.189548898234E+00
 -0.189541066446E+00
 -0.882510277899E-01
 -0.882236827455E-01
 -0.882205473402E-01
 -0.882142218019E-01
 -0.882156158491E-01
 -0.882126960494E-01
 -0.882130139449E-01
 -0.882119100407E-01
 -0.882118932892E-01
 -0.882115931284E-01
 -0.882116276468E-01
 -0.882115233297E-01
  0.246228144157E+00
  0.246228106468E+00
  0.246228155669E+00
  0.246228152033E+00
  0.246228156593E+00
  0.246228156346E+00
  0.246228156665E+00
  0.246228156649E+00
  0.246228156673E+00
  0.246228156672E+00
  0.246228156670E+00
  0.246228156670E+00
  0.990831683514E-01
  0.990831683514E-01
  0.990831683548E-01
  0.990831683542E-01
  0.990831683697E-01
  0.990831683542E-01
  0.990831686654E-01
  0.990831684195E-01
  0.990831705565E-01
  0.990831651050E-01
  0.990832278211E-01
  0.990831861268E-01
 -0.189552109551E+00
 -0.189552023822E+00
 -0.189552034488E+00
 -0.189551756274E+00
 -0.189551766542E+00
 -0.189550820797E+00
 -0.189551007302E+00
 -0.189548288645E+00
 -0.189549702275E+00
 -0.189544063347E+00
 -0.189541066450E+00
 -0.189516232490E+00
 -0.883325475907E-01
 -0.882510278428E-01
 -0.882404584311E-01
 -0.882205473631E-01
 -0.882250525608E-01
 -0.882156158532E-01
 -0.882166551990E-01
 -0.882130139452E-01
 -0.882129321041E-01
 -0.882118932893E-01
 -0.882120135475E-01
 -0.882116276468E-01
  0.246228106468E+00
  0.246227972962E+00
  0.246228152033E+00
  0.246228144759E+00
  0.246228156346E+00
  0.246228155265E+00
  0.246228156649E+00
  0.246228156572E+00
  0.246228156672E+00
  0.246228156669E+00
  0.246228156670E+00
  0.246228156670E+00
  0.990831683515E-01
  0.990831683514E-01
  0.990831683584E-01
  0.990831683548E-01
  0.990831684457E-01
  0.990831683697E-01
  0.990831697395E-01
  0.990831686654E-01
  0.990831820207E-01
  0.990831705565E-01
  0.990833713839E-01
  0.990832278211E-01
 -0.189552023822E+00
 -0.189551708421E+00
 -0.189551756274E+00
 -0.189550800524E+00
 -0.189550820797E+00
 -0.189547661731E+00
 -0.189548288648E+00
 -0.189539490984E+00
 -0.189544063367E+00
 -0.189526374966E+00
 -0.189516232534E+00
 -0.189442265986E+00
 -0.885668113673E-01
 -0.883325480990E-01
 -0.882996661048E-01
 -0.882404586611E-01
 -0.882544508758E-01
 -0.882250526036E-01
 -0.882283701306E-01
 -0.882166552027E-01
 -0.882164001336E-01
 -0.882129321046E-01
 -0.882133153450E-01
 -0.882120135475E-01
  0.246227972962E+00
  0.246227502829E+00
  0.246228144759E+00
  0.246228090371E+00
  0.246228155265E+00
  0.246228150590E+00
  0.246228156572E+00
  0.246228156194E+00
  0.246228156669E+00
  0.246228156647E+00
  0.246228156670E+00
  0.246228156669E+00
  0.990831683522E-01
  0.990831683515E-01
  0.990831683791E-01
  0.990831683584E-01
  0.990831688179E-01
  0.990831684457E-01
  0.990831743866E-01
  0.990831697395E-01
  0.990832327766E-01
  0.990831820207E-01
  0.990838749684E-01
  0.990833713838E-01
 -0.189551708421E+00
 -0.189550630214E+00
 -0.189550800525E+00
 -0.189547594351E+00
 -0.189547661734E+00
 -0.189537495991E+00
 -0.189539491017E+00
 -0.189512234282E+00
 -0.189526375161E+00
 -0.189472992123E+00
 -0.189442266414E+00
 -0.189228820024E+00
 -0.891958542996E-01
 -0.885668158475E-01
 -0.884706891934E-01
 -0.882996681833E-01
 -0.883405843779E-01
 -0.882544512915E-01
 -0.882643257571E-01
 -0.882283701708E-01
 -0.882275865238E-01
 -0.882164001392E-01
 -0.882176430785E-01
 -0.882133153447E-01
  0.246227502828E+00
  0.246225875804E+00
  0.246228090371E+00
  0.246227903489E+00
  0.246228150590E+00
  0.246228130581E+00
  0.246228156194E+00
  0.246228154357E+00
  0.246228156647E+00
  0.246228156526E+00
  0.246228156669E+00
  0.246228156664E+00
  0.990831683570E-01
  0.990831683522E-01
  0.990831684980E-01
  0.990831683791E-01
  0.990831706267E-01
  0.990831688179E-01
  0.990831942710E-01
  0.990831743866E-01
  0.990834200610E-01
  0.990832327766E-01
  0.990856140262E-01
  0.990838749666E-01
 -0.189550630214E+00
 -0.189547032826E+00
 -0.189547594355E+00
 -0.189537270109E+00
 -0.189537496029E+00
 -0.189505855416E+00
 -0.189512234612E+00
 -0.189431076562E+00
 -0.189472993943E+00
 -0.189324648395E+00
 -0.189228823670E+00
 -0.188661466503E+00
 -0.907312574058E-01
 -0.891958865810E-01
 -0.888906257139E-01
 -0.884707070419E-01
 -0.885865279429E-01
 -0.883405882058E-01
 -0.883708274951E-01
 -0.882643261548E-01
 -0.882620104173E-01
 -0.882275865819E-01
 -0.882315190245E-01
 -0.882176430752E-01
  0.246225875786E+00
  0.246220406289E+00
  0.246227903489E+00
  0.246227198555E+00
  0.246228130581E+00
  0.246228046058E+00
  0.246228154357E+00
  0.246228145498E+00
  0.246228156526E+00
  0.246228155830E+00
  0.246228156664E+00
  0.246228156631E+00
  0.990831683892E-01
  0.990831683570E-01
  0.990831691774E-01
  0.990831684980E-01
  0.990831793468E-01
  0.990831706267E-01
  0.990832782422E-01
  0.990831942710E-01
  0.990841261712E-01
  0.990834200608E-01
  0.990914456989E-01
  0.990856140066E-01
 -0.189547032827E+00
 -0.189535483179E+00
 -0.189537270150E+00
 -0.189505029523E+00
 -0.189505855793E+00
 -0.189414158069E+00
 -0.189431079454E+00
 -0.189210531731E+00
 -0.189324662846E+00
 -0.188912730638E+00
 -0.188661496076E+00
 -0.187220987713E+00
 -0.938470345755E-01
 -0.907315057387E-01
 -0.901078949682E-01
 -0.888907376796E-01
 -0.891644758748E-01
 -0.885865557997E-01
 -0.886534733387E-01
 -0.883708311503E-01
 -0.883644576871E-01
 -0.882620109681E-01
 -0.882739259550E-01
 -0.882315189927E-01
  0.246220406090E+00
  0.246202634925E+00
  0.246227198552E+00
  0.246224600945E+00
  0.246228046058E+00
  0.246227694600E+00
  0.246228145498E+00
  0.246228103204E+00
  0.246228155830E+00
  0.246228151874E+00
  0.246228156631E+00
  0.246228156406E+00
  0.990831686073E-01
  0.990831683892E-01
  0.990831730406E-01
  0.990831691774E-01
  0.990832209664E-01
  0.990831793468E-01
  0.990836273290E-01
  0.990832782422E-01
  0.990867277389E-01
  0.990841261683E-01
  0.991103385927E-01
  0.990914454859E-01
 -0.189535483189E+00
 -0.189499648502E+00
 -0.189505029929E+00
 -0.189412057276E+00
 -0.189414161365E+00
 -0.189149994196E+00
 -0.189210557516E+00
 -0.188605997964E+00
 -0.188912847146E+00
 -0.188069905113E+00
 -0.187221159568E+00
 -0.184675908175E+00
 -0.966867456250E-01
 -0.938476981469E-01
 -0.907915534027E-01
 -0.901089042319E-01
 -0.909315944637E-01
 -0.891647154331E-01
 -0.894308855914E-01
 -0.886535014219E-01
 -0.886357598851E-01
 -0.883644625875E-01
 -0.883987892550E-01
 -0.882739257102E-01
  0.246202632895E+00
  0.246146974866E+00
  0.246224600905E+00
  0.246215270877E+00
  0.246227694599E+00
  0.246226260491E+00
  0.246228103204E+00
  0.246227903770E+00
  0.246228151874E+00
  0.246228129533E+00
  0.246228156406E+00
  0.246228154881E+00
  0.990831700823E-01
  0.990831686073E-01
  0.990831948580E-01
  0.990831730406E-01
  0.990834171670E-01
  0.990832209664E-01
  0.990850508115E-01
  0.990836273285E-01
  0.990960868956E-01
  0.990867276998E-01
  0.991689903513E-01
  0.991103364554E-01
 -0.189499648611E+00
 -0.189396165483E+00
 -0.189412060827E+00
 -0.189138944126E+00
 -0.189150023888E+00
 -0.188555634661E+00
 -0.188606134219E+00
 -0.187485722643E+00
 -0.188070398057E+00
 -0.185563617398E+00
 -0.184677152847E+00
 -0.179467411606E+00
 -0.118307414565E+00
 -0.966905026211E-01
 -0.973484044855E-01
 -0.907912396995E-01
 -0.903505734111E-01
 -0.909321349303E-01
 -0.907728885445E-01
 -0.894311104978E-01
 -0.893997278868E-01
 -0.886357951166E-01
 -0.887284415801E-01
 -0.883987871611E-01
  0.246146956213E+00
  0.245982877224E+00
  0.246215270368E+00
  0.246182818709E+00
  0.246226260483E+00
  0.246220547663E+00
  0.246227903769E+00
  0.246226977680E+00
  0.246228129533E+00
  0.246228004398E+00
  0.246228154881E+00
  0.246228144570E+00
  0.990831800598E-01
  0.990831700823E-01
  0.990833170416E-01
  0.990831948580E-01
  0.990843278602E-01
  0.990834171669E-01
  0.990907235883E-01
  0.990850508032E-01
  0.991283118334E-01
  0.990960864131E-01
  0.993432794878E-01
  0.991689705504E-01
 -0.189396167033E+00
 -0.189100003257E+00
 -0.189138973055E+00
 -0.188560922407E+00
 -0.188555785094E+00
 -0.186594733596E+00
 -0.187487410802E+00
 -0.183817619968E+00
 -0.185569274854E+00
 -0.186337694871E+00
 -0.179469765604E+00
 -0.181318374660E+00
 -0.137769374569E+00
 -0.118472560687E+00
 -0.118824982386E+00
 -0.974345509223E-01
 -0.111908094588E+00
 -0.903566254349E-01
 -0.932040146266E-01
 -0.907735600901E-01
 -0.905362778102E-01
 -0.894000037379E-01
 -0.896237807220E-01
 -0.887284398993E-01
  0.245982715246E+00
  0.245512478351E+00
  0.246182812959E+00
  0.246076679893E+00
  0.246220547524E+00
  0.246198409642E+00
  0.246226977678E+00
  0.246222761081E+00
  0.246228004398E+00
  0.246227310951E+00
  0.246228144570E+00
  0.246228074823E+00
  0.990832475517E-01
  0.990831800598E-01
  0.990839940593E-01
  0.990833170416E-01
  0.990884730522E-01
  0.990843278581E-01
  0.991126332466E-01
  0.990907234580E-01
  0.992365322793E-01
  0.991283061396E-01
  0.998181308838E-01
  0.993431204685E-01
 -0.189100009289E+00
 -0.188434593484E+00
 -0.188561104870E+00
 -0.186307511644E+00
 -0.186596916860E+00
 -0.186730020005E+00
 -0.183814310021E+00
 -0.193500236193E+00
 -0.186331904059E+00
 -0.195846418509E+00
 -0.181322093753E+00
 -0.185438210636E+00
 -0.153289080418E+00
 -0.138044095645E+00
 -0.132599696780E+00
 -0.119058942373E+00
 -0.127283479761E+00
 -0.112070291184E+00
 -0.115775238823E+00
 -0.932297052138E-01
 -0.971128730382E-01
 -0.905370157627E-01
 -0.910545403982E-01
 -0.896236106098E-01
  0.245511437113E+00
  0.244405955766E+00
  0.246076615721E+00
  0.245731286214E+00
  0.246198407622E+00
  0.246116280220E+00
  0.246222761033E+00
  0.246204037180E+00
  0.246227310951E+00
  0.246223520440E+00
  0.246228074823E+00
  0.246227603025E+00
  0.990837040909E-01
  0.990832475517E-01
  0.990876933488E-01
  0.990839940586E-01
  0.991068582421E-01
  0.990884730080E-01
  0.991945763662E-01
  0.991126313230E-01
  0.995627511395E-01
  0.992364762012E-01
  0.101100453793E+00
  0.998169009687E-01
 -0.188434819075E+00
 -0.186295590507E+00
 -0.186308704698E+00
 -0.188747601526E+00
 -0.186726464697E+00
 -0.197068542577E+00
 -0.193514115652E+00
 -0.199827239744E+00
 -0.195872102909E+00
 -0.200855085308E+00
 -0.185474539801E+00
 -0.186979594429E+00
 -0.174056589848E+00
 -0.153692052730E+00
 -0.145377792704E+00
 -0.132950742832E+00
 -0.139616147169E+00
 -0.127544968405E+00
 -0.131086459341E+00
 -0.115902023519E+00
 -0.120685432499E+00
 -0.971118310174E-01
 -0.956269064122E-01
 -0.910576007546E-01
  0.244396906930E+00
  0.241083087957E+00
  0.245730787361E+00
  0.244837020272E+00
  0.246116252181E+00
  0.245820730344E+00
  0.246204036243E+00
  0.246123778707E+00
  0.246223520418E+00
  0.246203191740E+00
  0.246227603025E+00
  0.246224411721E+00
  0.990867924153E-01
  0.990837040907E-01
  0.991075472677E-01
  0.990876933286E-01
  0.991857745416E-01
  0.991068573735E-01
  0.994805119646E-01
  0.991945509954E-01
  0.100613453594E+00
  0.995621421374E-01
  0.103447790882E+00
  0.101094832139E+00
 -0.186293663043E+00
 -0.186283436366E+00
 -0.188750707435E+00
 -0.199983122972E+00
 -0.197076863330E+00
 -0.203144611127E+00
 -0.199850675466E+00
 -0.204930217507E+00
 -0.200892826614E+00
 -0.204445120491E+00
 -0.187030201544E+00
 -0.181754912876E+00
 -0.197222567471E+00
 -0.174723933949E+00
 -0.162979248894E+00
 -0.145957077636E+00
 -0.153960801105E+00
 -0.140022917732E+00
 -0.143962601425E+00
 -0.131333092952E+00
 -0.134467599514E+00
 -0.120823118941E+00
 -0.125270932779E+00
 -0.956021005668E-01
  0.241073311530E+00
  0.240033239391E+00
  0.244830880880E+00
  0.241654509643E+00
  0.245820416368E+00
  0.244894272268E+00
  0.246123761360E+00
  0.245793898715E+00
  0.246203191103E+00
  0.246096598100E+00
  0.246224411713E+00
  0.246202817628E+00
  0.991076764910E-01
  0.990867924082E-01
  0.992110836576E-01
  0.991075466905E-01
  0.995072110105E-01
  0.991857587303E-01
  0.100476505659E+00
  0.994801783128E-01
  0.102488972244E+00
  0.100610625486E+00
  0.111776817372E+00
  0.103394178986E+00
 -0.186317408817E+00
 -0.203049513271E+00
 -0.199991111240E+00
 -0.205357086042E+00
 -0.203164226736E+00
 -0.208634817186E+00
 -0.204973172250E+00
 -0.207102472640E+00
 -0.204489813845E+00
 -0.204299971171E+00
 -0.181813895044E+00
 -0.167595428833E+00
 -0.182336484901E+00
 -0.197063683240E+00
 -0.132614748810E+00
 -0.163681472285E+00
 -0.162562615098E+00
 -0.154720736588E+00
 -0.159925089663E+00
 -0.144438245327E+00
 -0.147806880201E+00
 -0.134745184245E+00
 -0.141945105530E+00
 -0.125322514331E+00
  0.239212666061E+00
  0.202293339199E+00
  0.241649082370E+00
  0.241144628030E+00
  0.244889906939E+00
  0.241523459077E+00
  0.245793617179E+00
  0.244553083104E+00
  0.246096581099E+00
  0.245567094587E+00
  0.246202817265E+00
  0.246057151519E+00
  0.992493342777E-01
  0.991076761604E-01
  0.997395530715E-01
  0.992110675010E-01
  0.100752020273E+00
  0.995069398474E-01
  0.102872559992E+00
  0.100473929522E+00
  0.112796952742E+00
  0.102429957312E+00
  0.914415905993E-01
  0.111741726916E+00
 -0.203044291025E+00
 -0.209459328301E+00
 -0.205370604761E+00
 -0.211541430023E+00
 -0.208681844412E+00
 -0.209625360347E+00
 -0.207145337401E+00
 -0.195835989922E+00
 -0.204257433161E+00
 -0.155422476490E+00
 -0.167485929135E+00
 -0.837055362148E-01
 -0.213377751151E+00
 -0.181663312929E+00
 -0.119951920313E+00
 -0.131883553834E+00
 -0.119869461467E+00
 -0.162368925945E+00
 -0.146344788270E+00
 -0.160629537515E+00
 -0.163186534915E+00
 -0.148272419269E+00
 -0.151273747084E+00
 -0.142476907224E+00
  0.199791601430E+00
  0.168828707133E+00
  0.240376806832E+00
  0.200494380066E+00
  0.241513970744E+00
  0.239397106643E+00
  0.244548498161E+00
  0.240081646840E+00
  0.245566603566E+00
  0.242861855857E+00
  0.246057134090E+00
  0.245048758545E+00
  0.100185585775E+00
  0.992493198415E-01
  0.102061870285E+00
  0.997391948698E-01
  0.104779733038E+00
  0.100748525978E+00
  0.115401093661E+00
  0.102815758832E+00
  0.907065946351E-01
  0.112768981901E+00
  0.746777946859E-01
  0.912122288257E-01
 -0.209565915392E+00
 -0.210037352760E+00
 -0.211572959021E+00
 -0.212884820178E+00
 -0.209668543183E+00
 -0.172093156345E+00
 -0.195737753647E+00
 -0.130812946839E+00
 -0.155968523919E+00
 -0.109228117505E+00
 -0.847885954255E-01
  0.783556726092E-02
 -0.303037142238E+00
 -0.213124856710E+00
 -0.121760217664E+00
 -0.119956475044E+00
 -0.107543075844E+00
 -0.119980250678E+00
 -0.110045925750E+00
 -0.146779703333E+00
 -0.135799091185E+00
 -0.164942939347E+00
 -0.169801716876E+00
 -0.152501021749E+00
  0.164630534753E+00
  0.148044115618E+00
  0.197094898214E+00
  0.157030574507E+00
  0.238291845059E+00
  0.179777138602E+00
  0.240051897042E+00
  0.229760053075E+00
  0.242857174296E+00
  0.235963489452E+00
  0.245048244025E+00
  0.239572038303E+00
  0.107817366262E+00
  0.100184629478E+00
  0.116436663935E+00
  0.102046413030E+00
  0.117829287457E+00
  0.104715058250E+00
  0.828660659078E-01
  0.115358830210E+00
  0.708162129147E-01
  0.904195827162E-01
  0.681947770259E-01
  0.741964572563E-01
 -0.210185901380E+00
 -0.210519782974E+00
 -0.213018153807E+00
 -0.158744051334E+00
 -0.172272313339E+00
 -0.110252335223E+00
 -0.132147269485E+00
 -0.795448939035E-01
 -0.111857185302E+00
 -0.535193996198E-01
  0.394484664188E-02
  0.178433045257E+00
 -0.172044006758E+00
 -0.302516154006E+00
 -0.132518078201E+00
 -0.121994440406E+00
 -0.109897380054E+00
 -0.107757182297E+00
 -0.901384056069E-01
 -0.110735178298E+00
 -0.785665593532E-01
 -0.139109766533E+00
 -0.137071754798E+00
 -0.175125936719E+00
  0.136738959856E+00
  0.120748370832E+00
  0.146420539351E+00
  0.123328125545E+00
  0.171149620926E+00
  0.123682848021E+00
  0.224760788577E+00
  0.127569662187E+00
  0.234529095473E+00
  0.128160609135E+00
  0.239348603448E+00
  0.127189946711E+00
  0.852285156017E-01
  0.107808866906E+00
  0.803092152509E-01
  0.116328633031E+00
  0.729464197442E-01
  0.117230676285E+00
  0.661727969120E-01
  0.819221688340E-01
  0.670926546667E-01
  0.697582891946E-01
  0.653232736883E-01
  0.673339864010E-01
 -0.210991621855E+00
 -0.142518433573E+00
 -0.158879194854E+00
 -0.606852249829E-01
 -0.114886781863E+00
 -0.444895889384E-01
 -0.896087749567E-01
 -0.264025869388E-01
 -0.679301572281E-01
  0.158920103740E-02
  0.158994825456E+00
  0.665242803174E-01
 -0.189661563460E+00
 -0.153364355066E+00
 -0.142941625420E+00
 -0.123999593410E+00
 -0.116362978350E+00
 -0.982913288194E-01
 -0.953769237032E-01
 -0.811607683351E-01
 -0.848514731135E-01
 -0.122545034079E+00
 -0.155090234081E+00
  0.850400746676E-01
  0.858685778021E-01
  0.864205058581E-01
  0.874831040706E-01
  0.851808976970E-01
  0.858611652850E-01
  0.869174313344E-01
  0.877720899409E-01
  0.877302700383E-01
  0.887471375446E-01
  0.880045711658E-01
  0.762046817416E-01
  0.724487186293E-01
  0.731191053231E-01
  0.679031104402E-01
  0.680815917871E-01
  0.638651361941E-01
  0.633761601951E-01
  0.657443740176E-01
  0.652843279198E-01
  0.661303175894E-01
  0.646114396571E-01
 -0.142202742953E+00
 -0.126977718532E+00
 -0.727136077756E-01