# vtk DataFile Version 3.0
MachLine results file. Generated by MachLine, USU AeroLab (c) 2022.
ASCII
DATASET POLYDATA
POINTS                 419 float
  0.100000000000E+01  0.000000000000E+00  0.000000000000E+00
  0.953837434700E+00  0.222222222220E+00 -0.403870114270E-02
  0.100000000000E+01  0.222222222220E+00  0.000000000000E+00
  0.953837434700E+00  0.000000000000E+00 -0.403870114270E-02
  0.863184801440E+00  0.222222222220E+00 -0.119697788720E-01
  0.863184801440E+00  0.000000000000E+00 -0.119697788720E-01
  0.708754398800E+00  0.222222222220E+00 -0.254806884070E-01
  0.708754398800E+00  0.000000000000E+00 -0.254806884070E-01
  0.500000000000E+00  0.222222222220E+00 -0.437443317630E-01
  0.500000000000E+00  0.000000000000E+00 -0.437443317630E-01
  0.291245601200E+00  0.000000000000E+00 -0.254806884070E-01
  0.291245601200E+00  0.222222222220E+00 -0.254806884070E-01
  0.136815198560E+00  0.000000000000E+00 -0.119697788720E-01
  0.136815198560E+00  0.222222222220E+00 -0.119697788720E-01
  0.461625652960E-01  0.000000000000E+00 -0.403870114270E-02
  0.461625652960E-01  0.222222222220E+00 -0.403870114270E-02
  0.000000000000E+00  0.000000000000E+00  0.000000000000E+00
  0.000000000000E+00  0.222222222220E+00  0.000000000000E+00
  0.461625652960E-01  0.222222222220E+00  0.403870114270E-02
  0.461625652960E-01  0.000000000000E+00  0.403870114270E-02
  0.136815198560E+00  0.222222222220E+00  0.119697788720E-01
  0.136815198560E+00  0.000000000000E+00  0.119697788720E-01
  0.291245601200E+00  0.222222222220E+00  0.254806884070E-01
  0.291245601200E+00  0.000000000000E+00  0.254806884070E-01
  0.500000000000E+00  0.222222222220E+00  0.437443317630E-01
  0.500000000000E+00  0.000000000000E+00  0.437443317630E-01
  0.708754398800E+00  0.000000000000E+00  0.254806884070E-01
  0.708754398800E+00  0.222222222220E+00  0.254806884070E-01
  0.863184801440E+00  0.000000000000E+00  0.119697788720E-01
  0.863184801440E+00  0.222222222220E+00  0.119697788720E-01
  0.953837434700E+00  0.000000000000E+00  0.403870114270E-02
  0.953837434700E+00  0.222222222220E+00  0.403870114270E-02
  0.953837434700E+00  0.444444444440E+00 -0.403870114270E-02
  0.100000000000E+01  0.444444444440E+00  0.000000000000E+00
  0.863184801440E+00  0.444444444440E+00 -0.119697788720E-01
  0.708754398800E+00  0.444444444440E+00 -0.254806884070E-01
  0.500000000000E+00  0.444444444440E+00 -0.437443317630E-01
  0.291245601200E+00  0.444444444440E+00 -0.254806884070E-01
  0.136815198560E+00  0.444444444440E+00 -0.119697788720E-01
  0.461625652960E-01  0.444444444440E+00 -0.403870114270E-02
  0.000000000000E+00  0.444444444440E+00  0.000000000000E+00
  0.461625652960E-01  0.444444444440E+00  0.403870114270E-02
  0.136815198560E+00  0.444444444440E+00  0.119697788720E-01
  0.291245601200E+00  0.444444444440E+00  0.254806884070E-01
  0.500000000000E+00  0.444444444440E+00  0.437443317630E-01
  0.708754398800E+00  0.444444444440E+00  0.254806884070E-01
  0.863184801440E+00  0.444444444440E+00  0.119697788720E-01
  0.953837434700E+00  0.444444444440E+00  0.403870114270E-02
  0.953837434700E+00  0.666666666670E+00 -0.403870114270E-02
  0.100000000000E+01  0.666666666670E+00  0.000000000000E+00
  0.863184801440E+00  0.666666666670E+00 -0.119697788720E-01
  0.708754398800E+00  0.666666666670E+00 -0.254806884070E-01
  0.500000000000E+00  0.666666666670E+00 -0.437443317630E-01
  0.291245601200E+00  0.666666666670E+00 -0.254806884070E-01
  0.136815198560E+00  0.666666666670E+00 -0.119697788720E-01
  0.461625652960E-01  0.666666666670E+00 -0.403870114270E-02
  0.000000000000E+00  0.666666666670E+00  0.000000000000E+00
  0.461625652960E-01  0.666666666670E+00  0.403870114270E-02
  0.136815198560E+00  0.666666666670E+00  0.119697788720E-01
  0.291245601200E+00  0.666666666670E+00  0.254806884070E-01
  0.500000000000E+00  0.666666666670E+00  0.437443317630E-01
  0.708754398800E+00  0.666666666670E+00  0.254806884070E-01
  0.863184801440E+00  0.666666666670E+00  0.119697788720E-01
  0.953837434700E+00  0.666666666670E+00  0.403870114270E-02
  0.953837434700E+00  0.888888888890E+00 -0.403870114270E-02
  0.100000000000E+01  0.888888888890E+00  0.000000000000E+00
  0.863184801440E+00  0.888888888890E+00 -0.119697788720E-01
  0.708754398800E+00  0.888888888890E+00 -0.254806884070E-01
  0.500000000000E+00  0.888888888890E+00 -0.437443317630E-01
  0.291245601200E+00  0.888888888890E+00 -0.254806884070E-01
  0.136815198560E+00  0.888888888890E+00 -0.119697788720E-01
  0.461625652960E-01  0.888888888890E+00 -0.403870114270E-02
  0.000000000000E+00  0.888888888890E+00  0.000000000000E+00
  0.461625652960E-01  0.888888888890E+00  0.403870114270E-02
  0.136815198560E+00  0.888888888890E+00  0.119697788720E-01
  0.291245601200E+00  0.888888888890E+00  0.254806884070E-01
  0.500000000000E+00  0.888888888890E+00  0.437443317630E-01
  0.708754398800E+00  0.888888888890E+00  0.254806884070E-01
  0.863184801440E+00  0.888888888890E+00  0.119697788720E-01
  0.953837434700E+00  0.888888888890E+00  0.403870114270E-02
  0.953837434700E+00  0.111111111110E+01 -0.403870114270E-02
  0.100000000000E+01  0.111111111110E+01  0.000000000000E+00
  0.863184801440E+00  0.111111111110E+01 -0.119697788720E-01
  0.708754398800E+00  0.111111111110E+01 -0.254806884070E-01
  0.500000000000E+00  0.111111111110E+01 -0.437443317630E-01
  0.291245601200E+00  0.111111111110E+01 -0.254806884070E-01
  0.136815198560E+00  0.111111111110E+01 -0.119697788720E-01
  0.461625652960E-01  0.111111111110E+01 -0.403870114270E-02
  0.000000000000E+00  0.111111111110E+01  0.000000000000E+00
  0.461625652960E-01  0.111111111110E+01  0.403870114270E-02
  0.136815198560E+00  0.111111111110E+01  0.119697788720E-01
  0.291245601200E+00  0.111111111110E+01  0.254806884070E-01
  0.500000000000E+00  0.111111111110E+01  0.437443317630E-01
  0.708754398800E+00  0.111111111110E+01  0.254806884070E-01
  0.863184801440E+00  0.111111111110E+01  0.119697788720E-01
  0.953837434700E+00  0.111111111110E+01  0.403870114270E-02
  0.953837434700E+00  0.133333333330E+01 -0.403870114270E-02
  0.100000000000E+01  0.133333333330E+01  0.000000000000E+00
  0.863184801440E+00  0.133333333330E+01 -0.119697788720E-01
  0.708754398800E+00  0.133333333330E+01 -0.254806884070E-01
  0.500000000000E+00  0.133333333330E+01 -0.437443317630E-01
  0.291245601200E+00  0.133333333330E+01 -0.254806884070E-01
  0.136815198560E+00  0.133333333330E+01 -0.119697788720E-01
  0.461625652960E-01  0.133333333330E+01 -0.403870114270E-02
  0.000000000000E+00  0.133333333330E+01  0.000000000000E+00
  0.461625652960E-01  0.133333333330E+01  0.403870114270E-02
  0.136815198560E+00  0.133333333330E+01  0.119697788720E-01
  0.291245601200E+00  0.133333333330E+01  0.254806884070E-01
  0.500000000000E+00  0.133333333330E+01  0.437443317630E-01
  0.708754398800E+00  0.133333333330E+01  0.254806884070E-01
  0.863184801440E+00  0.133333333330E+01  0.119697788720E-01
  0.953837434700E+00  0.133333333330E+01  0.403870114270E-02
  0.953837434700E+00  0.155555555560E+01 -0.403870114270E-02
  0.100000000000E+01  0.155555555560E+01  0.000000000000E+00
  0.863184801440E+00  0.155555555560E+01 -0.119697788720E-01
  0.708754398800E+00  0.155555555560E+01 -0.254806884070E-01
  0.500000000000E+00  0.155555555560E+01 -0.437443317630E-01
  0.291245601200E+00  0.155555555560E+01 -0.254806884070E-01
  0.136815198560E+00  0.155555555560E+01 -0.119697788720E-01
  0.461625652960E-01  0.155555555560E+01 -0.403870114270E-02
  0.000000000000E+00  0.155555555560E+01  0.000000000000E+00
  0.461625652960E-01  0.155555555560E+01  0.403870114270E-02
  0.136815198560E+00  0.155555555560E+01  0.119697788720E-01
  0.291245601200E+00  0.155555555560E+01  0.254806884070E-01
  0.500000000000E+00  0.155555555560E+01  0.437443317630E-01
  0.708754398800E+00  0.155555555560E+01  0.254806884070E-01
  0.863184801440E+00  0.155555555560E+01  0.119697788720E-01
  0.953837434700E+00  0.155555555560E+01  0.403870114270E-02
  0.953837434700E+00  0.177777777780E+01 -0.403870114270E-02
  0.100000000000E+01  0.177777777780E+01  0.000000000000E+00
  0.863184801440E+00  0.177777777780E+01 -0.119697788720E-01
  0.708754398800E+00  0.177777777780E+01 -0.254806884070E-01
  0.500000000000E+00  0.177777777780E+01 -0.437443317630E-01
  0.291245601200E+00  0.177777777780E+01 -0.254806884070E-01
  0.136815198560E+00  0.177777777780E+01 -0.119697788720E-01
  0.461625652960E-01  0.177777777780E+01 -0.403870114270E-02
  0.000000000000E+00  0.177777777780E+01  0.000000000000E+00
  0.461625652960E-01  0.177777777780E+01  0.403870114270E-02
  0.136815198560E+00  0.177777777780E+01  0.119697788720E-01
  0.291245601200E+00  0.177777777780E+01  0.254806884070E-01
  0.500000000000E+00  0.177777777780E+01  0.437443317630E-01
  0.708754398800E+00  0.177777777780E+01  0.254806884070E-01
  0.863184801440E+00  0.177777777780E+01  0.119697788720E-01
  0.953837434700E+00  0.177777777780E+01  0.403870114270E-02
  0.953837434700E+00  0.200000000000E+01 -0.403870114270E-02
  0.100000000000E+01  0.200000000000E+01  0.000000000000E+00
  0.863184801440E+00  0.200000000000E+01 -0.119697788720E-01
  0.708754398800E+00  0.200000000000E+01 -0.254806884070E-01
  0.500000000000E+00  0.200000000000E+01 -0.437443317630E-01
  0.291245601200E+00  0.200000000000E+01 -0.254806884070E-01
  0.136815198560E+00  0.200000000000E+01 -0.119697788720E-01
  0.461625652960E-01  0.200000000000E+01 -0.403870114270E-02
  0.000000000000E+00  0.200000000000E+01  0.000000000000E+00
  0.461625652960E-01  0.200000000000E+01  0.403870114270E-02
  0.136815198560E+00  0.200000000000E+01  0.119697788720E-01
  0.291245601200E+00  0.200000000000E+01  0.254806884070E-01
  0.500000000000E+00  0.200000000000E+01  0.437443317630E-01
  0.708754398800E+00  0.200000000000E+01  0.254806884070E-01
  0.863184801440E+00  0.200000000000E+01  0.119697788720E-01
  0.953837434700E+00  0.200000000000E+01  0.403870114270E-02
  0.953837434700E+00  0.200157141480E+01 -0.372111000410E-02
[...]
CELL_DATA                 800
SCALARS C_p_ise float 1
LOOKUP_TABLE default
 -0.319305324656E-01
 -0.315035050211E-01
 -0.308172994386E-01
 -0.307269013155E-01
 -0.306950296697E-01
 -0.306590147554E-01
 -0.306407634404E-01
 -0.306288888843E-01
  0.323710533584E+00
  0.323700296494E+00
  0.323717033934E+00
  0.323715121455E+00
  0.323718112899E+00
  0.323717950153E+00
  0.323718181449E+00
  0.323718176848E+00
  0.318296856489E-01
  0.318296813061E-01
  0.318299029878E-01
  0.318297470227E-01
  0.318326516843E-01
  0.318307956670E-01
  0.318474118787E-01
  0.318372649275E-01
 -0.233809774051E+00
 -0.233800109752E+00
 -0.233784495827E+00
 -0.233754029070E+00
 -0.233727916611E+00
 -0.233651973360E+00
 -0.233077873856E+00
 -0.232720897279E+00
 -0.339864799318E-01
 -0.319305668303E-01
 -0.312494549581E-01
 -0.308173111369E-01
 -0.308734218687E-01
 -0.306950320031E-01
 -0.307036808697E-01
 -0.306407638970E-01
  0.323700295706E+00
  0.323651324822E+00
  0.323715121440E+00
  0.323704969705E+00
  0.323717950153E+00
  0.323716870765E+00
  0.323718176848E+00
  0.323718135139E+00
  0.318297250124E-01
  0.318296856489E-01
  0.318309372849E-01
  0.318299029877E-01
  0.318424988602E-01
  0.318326516710E-01
  0.318958349985E-01
  0.318474111800E-01
 -0.233800110153E+00
 -0.233748254652E+00
 -0.233754030895E+00
 -0.233603599925E+00
 -0.233651982316E+00
 -0.233291033359E+00
 -0.232720923267E+00
 -0.231000602855E+00
 -0.406457723975E-01
 -0.339868026009E-01
 -0.326605757293E-01
 -0.312495872832E-01
 -0.314997828947E-01
 -0.308734478199E-01
 -0.309366018202E-01
 -0.307036858187E-01
  0.323651313970E+00
  0.323474308821E+00
  0.323704969416E+00
  0.323662055937E+00
  0.323716870763E+00
  0.323710839354E+00
  0.323718135139E+00
  0.323717798795E+00
  0.318300424422E-01
  0.318297250124E-01
  0.318367150311E-01
  0.318309372834E-01
  0.318840794603E-01
  0.318424986139E-01
  0.320714088931E-01
  0.318958253403E-01
 -0.233748259147E+00
 -0.233557471871E+00
 -0.233603620195E+00
 -0.233074414778E+00
 -0.233291135112E+00
 -0.232091174011E+00
 -0.231000854854E+00
 -0.225368642595E+00
 -0.571066298502E-01
 -0.406489783982E-01
 -0.370883082870E-01
 -0.326619622896E-01
 -0.334796532225E-01
 -0.315000739355E-01
 -0.317085049053E-01
 -0.309366632864E-01
  0.323474168864E+00
  0.322860159058E+00
  0.323662050795E+00
  0.323485745477E+00
  0.323710839299E+00
  0.323677575608E+00
  0.323717798795E+00
  0.323715086540E+00
  0.318326022610E-01
  0.318300424421E-01
  0.318685831064E-01
  0.318367149851E-01
  0.320548618962E-01
  0.318840750722E-01
  0.326703363971E-01
  0.320712879230E-01
 -0.233557525663E+00
 -0.232906363474E+00
 -0.233074650009E+00
 -0.231422703162E+00
 -0.232092235162E+00
 -0.228575966046E+00
 -0.225370951232E+00
 -0.211448817147E+00
 -0.864864530540E-01
 -0.571226007535E-01
 -0.442575398721E-01
 -0.371009864013E-01
 -0.391939028338E-01
 -0.334827812608E-01
 -0.342213005363E-01
 -0.317091520281E-01
  0.322858616835E+00
  0.320935755211E+00
  0.323485658294E+00
  0.322788184161E+00
  0.323677573931E+00
  0.323497432806E+00
  0.323715086534E+00
  0.323693211596E+00
  0.318532420248E-01
  0.318326022563E-01
  0.320407073098E-01
  0.318685817126E-01
  0.327273389515E-01
  0.320547882389E-01
  0.346483530043E-01
  0.326688954588E-01
 -0.232907000885E+00
 -0.231018777824E+00
 -0.231424956102E+00
 -0.226348234337E+00
 -0.228586268245E+00
 -0.219039137326E+00
 -0.211470894391E+00
 -0.184334371576E+00
 -0.173864209249E+00
 -0.869277054785E-01
 -0.908008016272E-01
 -0.444122995219E-01
 -0.608931703576E-01
 -0.392135751563E-01
 -0.396537355867E-01
 -0.342291344909E-01
  0.320917948433E+00
  0.314702880706E+00
  0.322786841415E+00
  0.320212382428E+00
  0.323497384331E+00
  0.322558710734E+00
  0.323693211227E+00
  0.323517035796E+00
  0.320198974263E-01
  0.318532417238E-01
  0.329482154164E-01
  0.320406661780E-01
  0.352376190304E-01
  0.327261815608E-01
  0.398164761229E-01
  0.346361263140E-01
 -0.231023649383E+00
 -0.224111064152E+00
 -0.226373922353E+00
 -0.226389838679E+00
 -0.219045686210E+00
 -0.228194257626E+00
 -0.184275701105E+00
 -0.156227617395E+00
 -0.295598267083E+00
 -0.175431798756E+00
 -0.144153247066E+00
 -0.920547015737E-01
 -0.106861828131E+00
 -0.614388968635E-01
 -0.818476955420E-01
 -0.396713059085E-01
  0.314627386804E+00
  0.305821686612E+00
  0.320192967502E+00
  0.311373072714E+00
  0.322557294256E+00
  0.317730204620E+00
  0.323517011276E+00
  0.322080778186E+00
  0.333498767954E-01
  0.320198782724E-01
  0.373105828664E-01
  0.329471566206E-01
  0.434801063965E-01
  0.352224954490E-01
  0.590808947627E-01
  0.396504991441E-01
 -0.224188336182E+00
 -0.237732994088E+00
 -0.226367343794E+00
 -0.232180739493E+00
 -0.228179348553E+00
 -0.213696015217E+00
 -0.156198282465E+00
 -0.519181140033E-01
 -0.398435674517E+00
 -0.296847124911E+00
 -0.142681516276E+00
 -0.147545982806E+00
 -0.160192410610E+00
 -0.108945861146E+00
 -0.128901249779E+00
 -0.828594395546E-01
  0.303326182634E+00
  0.230704908084E+00
  0.311201381696E+00
  0.288587117284E+00
  0.317706441182E+00
  0.300266500592E+00
  0.322079475055E+00
  0.311612936008E+00
  0.451407130701E-01
  0.333483803494E-01
  0.609222959382E-01
  0.372743515068E-01
  0.675910687789E-01
  0.432740687593E-01
  0.381841506591E-01
  0.590742213863E-01
 -0.237730981919E+00
 -0.241484664223E+00
 -0.232180691729E+00
 -0.191662406470E+00
 -0.213946067883E+00
 -0.101833981569E+00
 -0.535621717388E-01
  0.274114236276E+00
 -0.215864934867E+00
 -0.397849391920E+00
 -0.157613980390E+00
 -0.143559042035E+00
 -0.111202110007E+00
 -0.164008770349E+00
 -0.126758144283E+00
 -0.136143849266E+00
  0.214857306971E+00
  0.154275481129E+00
  0.279462608402E+00
  0.157840733870E+00
  0.297882775924E+00
  0.155102380432E+00
  0.311302335899E+00
  0.152019225032E+00
  0.681834505724E-01
  0.451350348891E-01
  0.618525390198E-01
  0.609171107984E-01
  0.504839630818E-01
  0.676170004164E-01
  0.394776302485E-01
  0.383821945398E-01
 -0.241486003347E+00
 -0.120876934941E+00
 -0.194585520773E+00
 -0.223854232487E-01
 -0.115809847092E+00
  0.271398748499E-01
  0.246439748953E+00
  0.120276636550E+00
 -0.279000805627E+00
 -0.230321222172E+00
 -0.194322668876E+00
 -0.156590785911E+00
 -0.133969769047E+00
 -0.139144440204E+00
 -0.161505581366E+00
  0.825925993692E-01
  0.867043666296E-01
  0.860076251294E-01
  0.909082075699E-01
  0.881241470155E-01
  0.916139359957E-01
  0.893072906366E-01
  0.662438696691E-01
  0.614084072555E-01
  0.609705396560E-01
  0.526873662414E-01
  0.504524572341E-01
  0.430039824512E-01
  0.392593932366E-01
 -0.119461353790E+00
 -0.158997068813E+00
 -0.936110036467E-01
 -0.196832418182E+00
 -0.169017996840E+00
 -0.317023652070E+00
 -0.276595134615E+00
 -0.359180300628E+00
 -0.327540087532E+00
 -0.243567946460E+00
 -0.216342049925E+00
 -0.159687626620E+00
 -0.165486992696E+00
 -0.151275328079E+00
  0.526927062191E-01
  0.588250650936E-01
  0.596600966194E-01
  0.662323320631E-01
  0.650635035610E-01
  0.694153252671E-01
  0.681282203293E-01
  0.654674829704E-01
  0.620504393415E-01
  0.596255144398E-01
  0.537641019038E-01
  0.483709250151E-01
  0.427931363539E-01
  0.364352282887E-01
 -0.108476770401E+00
 -0.173824993784E+00
 -0.134838039256E+00
 -0.269005753956E+00
 -0.258436088450E+00
 -0.431414940530E+00
 -0.412293078120E+00
 -0.430528685176E+00
 -0.414680612707E+00
 -0.287903533985E+00
 -0.272239021293E+00
 -0.177326632941E+00
 -0.189693335247E+00
 -0.136859821888E+00
  0.351131853542E-01
  0.416395201610E-01
  0.440584761878E-01
  0.508343506324E-01
  0.513393573544E-01
  0.556838945489E-01
  0.554331708127E-01
  0.597890784007E-01
  0.576932118056E-01
  0.537289032251E-01
  0.500838403690E-01
  0.424140943495E-01
  0.385975390340E-01
  0.302321319854E-01
 -0.109553409441E+00
 -0.184839919704E+00
 -0.165341791366E+00
 -0.305998705022E+00
 -0.308690218188E+00
 -0.481072463589E+00
 -0.474778972808E+00
 -0.476376358949E+00
 -0.472839621524E+00
 -0.316322331251E+00
 -0.312616514240E+00
 -0.182663671395E+00
 -0.206671293300E+00
 -0.119697743865E+00
  0.270962616309E-01
  0.331650765449E-01
  0.373628485108E-01
  0.436539483786E-01
  0.460156171435E-01
  0.499621022035E-01
  0.508214374264E-01
  0.532903641413E-01
  0.524219832324E-01
  0.475175217270E-01
  0.459116084034E-01
  0.369729791601E-01
  0.348964711782E-01
  0.252197131529E-01
 -0.119027501742E+00
 -0.190034256329E+00
 -0.184726968237E+00
 -0.314097192360E+00
 -0.328031698115E+00
 -0.488894404261E+00
 -0.492091987669E+00
 -0.319307679523E-01
 -0.315035050211E-01
 -0.308172994386E-01
 -0.307269013155E-01
 -0.306950296697E-01
 -0.306590147554E-01
 -0.306407634404E-01
 -0.306288888843E-01
  0.323710533584E+00
  0.323700296494E+00
  0.323717033934E+00
  0.323715121455E+00
  0.323718112899E+00
  0.323717950153E+00
  0.323718181449E+00
  0.323718176848E+00
  0.318296856489E-01
  0.318296813061E-01
  0.318299029878E-01
  0.318297470227E-01
  0.318326516843E-01
  0.318307956670E-01
  0.318474118787E-01
  0.318372649275E-01
 -0.233809774051E+00
 -0.233800109752E+00
 -0.233784495827E+00
 -0.233754029070E+00
 -0.233727916611E+00
 -0.233651973359E+00
 -0.233077873856E+00
 -0.232720699034E+00
 -0.339864819292E-01
 -0.319308023128E-01
 -0.312494549582E-01
 -0.308173111369E-01
 -0.308734218688E-01
 -0.306950320031E-01
 -0.307036808697E-01
 -0.306407638970E-01
  0.323700295706E+00
  0.323651324822E+00
  0.323715121440E+00
  0.323704969705E+00
  0.323717950153E+00
  0.323716870765E+00
  0.323718176848E+00
  0.323718135139E+00
  0.318297250124E-01
  0.318296856489E-01
  0.318309372849E-01
  0.318299029877E-01
  0.318424988602E-01
  0.318326516710E-01
  0.318958349985E-01
  0.318474111800E-01
 -0.233800110153E+00
 -0.233748254652E+00
 -0.233754030895E+00
 -0.233603599925E+00
 -0.233651982316E+00
 -0.233291033359E+00
 -0.232720725019E+00
 -0.231000601135E+00
 -0.406455311216E-01
 -0.339868046188E-01
 -0.326605757295E-01
 -0.312495872833E-01
 -0.314997828948E-01
 -0.308734478200E-01
 -0.309366018202E-01
 -0.307036858187E-01
  0.323651313970E+00
  0.323474308821E+00
  0.323704969416E+00
  0.323662055937E+00
  0.323716870763E+00
  0.323710839354E+00
  0.323718135139E+00
  0.323717798795E+00
  0.318300424422E-01
  0.318297250124E-01
  0.318367150311E-01
  0.318309372834E-01
  0.318840794603E-01
  0.318424986139E-01
  0.320714088931E-01
  0.318958253403E-01
 -0.233748259147E+00
 -0.233557471871E+00
 -0.233603620195E+00
 -0.233074414778E+00
 -0.233291135112E+00
 -0.232091174011E+00
 -0.231000853149E+00
 -0.225368848578E+00
 -0.571066923950E-01
 -0.406487371943E-01
 -0.370883082885E-01
 -0.326619622897E-01
 -0.334796532227E-01
 -0.315000739356E-01
 -0.317085049054E-01
 -0.309366632864E-01
  0.323474168864E+00
  0.322860159058E+00
  0.323662050795E+00
  0.323485745477E+00
  0.323710839299E+00
  0.323677575608E+00
  0.323717798795E+00
  0.323715086540E+00
  0.318326022610E-01
  0.318300424421E-01
  0.318685831064E-01
  0.318367149851E-01
  0.320548618962E-01
  0.318840750722E-01
  0.326703363972E-01
  0.320712879230E-01
 -0.233557525663E+00
 -0.232906363474E+00
 -0.233074650009E+00
 -0.231422703162E+00
 -0.232092235161E+00
 -0.228575966046E+00
 -0.225371157268E+00
 -0.211448762658E+00
 -0.864861504342E-01
 -0.571226630474E-01
 -0.442575398631E-01
 -0.371009864028E-01
 -0.391939028353E-01
 -0.334827812610E-01
 -0.342213005371E-01
 -0.317091520282E-01
  0.322858616835E+00
  0.320935755211E+00
  0.323485658294E+00
  0.322788184161E+00
  0.323677573931E+00
  0.323497432806E+00
  0.323715086534E+00
  0.323693211596E+00
  0.318532420248E-01
  0.318326022563E-01
  0.320407073098E-01
  0.318685817126E-01
  0.327273389516E-01
  0.320547882389E-01
  0.346483530048E-01
  0.326688954589E-01
 -0.232907000885E+00
 -0.231018777824E+00
 -0.231424956101E+00
 -0.226348234336E+00
 -0.228586268245E+00
 -0.219039137325E+00
 -0.211470839709E+00
 -0.184334649768E+00
 -0.173864074499E+00
 -0.869274036905E-01
 -0.908008021059E-01
 -0.444122995126E-01
 -0.608931703255E-01
 -0.392135751578E-01
 -0.396537355829E-01
 -0.342291344917E-01
  0.320917948433E+00
  0.314702880703E+00
  0.322786841415E+00
  0.320212382427E+00
  0.323497384331E+00
  0.322558710734E+00
  0.323693211227E+00
  0.323517035796E+00
  0.320198974263E-01
  0.318532417238E-01
  0.329482154165E-01
  0.320406661780E-01
  0.352376190311E-01
  0.327261815609E-01
  0.398164761214E-01
  0.346361263145E-01
 -0.231023649383E+00
 -0.224111064146E+00
 -0.226373922352E+00
 -0.226389838665E+00
 -0.219045686208E+00
 -0.228194257976E+00
 -0.184275979957E+00
 -0.156227757440E+00
 -0.295598003839E+00
 -0.175431663394E+00
 -0.144153246709E+00
 -0.920547020523E-01
 -0.106861828052E+00
 -0.614388968358E-01
 -0.818476957194E-01
 -0.396713059046E-01
  0.314627386801E+00
  0.305821686637E+00
  0.320192967502E+00
  0.311373072709E+00
  0.322557294256E+00
  0.317730204619E+00
  0.323517011276E+00
  0.322080778186E+00
  0.333498767954E-01
  0.320198782724E-01
  0.373105828670E-01
  0.329471566207E-01
  0.434801063967E-01
  0.352224954497E-01
  0.590808947895E-01
  0.396504991422E-01
 -0.224188336176E+00
 -0.237732994254E+00
 -0.226367343779E+00
 -0.232180739353E+00
 -0.228179348903E+00
 -0.213696014902E+00
 -0.156198422283E+00
 -0.519184521729E-01
 -0.398435571558E+00
 -0.296846864222E+00
 -0.142681516488E+00
 -0.147545982458E+00
 -0.160192410760E+00
 -0.108945861049E+00
 -0.128901249465E+00
 -0.828594397372E-01
  0.303326182646E+00
  0.230704907812E+00
  0.311201381691E+00
  0.288587117312E+00
  0.317706441182E+00
  0.300266500589E+00
  0.322079475055E+00
  0.311612936008E+00
  0.451407130697E-01
  0.333483803494E-01
  0.609222959424E-01
  0.372743515074E-01
  0.675910688225E-01
  0.432740687590E-01
  0.381841503715E-01
  0.590742214143E-01
 -0.237730982084E+00
 -0.241484663950E+00
 -0.232180691590E+00
 -0.191662406517E+00
 -0.213946067567E+00
 -0.101833981575E+00
 -0.535625098899E-01
  0.274114045739E+00
 -0.215864936616E+00
 -0.397849286927E+00
 -0.157613980028E+00
 -0.143559042244E+00
 -0.111202109936E+00
 -0.164008770531E+00
 -0.126758144533E+00
 -0.136143848948E+00
  0.214857306732E+00
  0.154275481540E+00
  0.279462608384E+00
  0.157840733271E+00
  0.297882775921E+00
  0.155102380389E+00
  0.311302335899E+00
  0.152019225040E+00
  0.681834505757E-01
  0.451350348887E-01
  0.618525390204E-01
  0.609171108026E-01
  0.504839625463E-01
  0.676170004586E-01
  0.394776306441E-01
  0.383821942532E-01
 -0.241486003072E+00
 -0.120876935006E+00
 -0.194585520811E+00
 -0.223854228711E-01
 -0.115809847120E+00
  0.271398743917E-01
  0.246439566302E+00
  0.120276630234E+00
 -0.279000805794E+00
 -0.230321221500E+00
 -0.194322671223E+00
 -0.156590791533E+00
 -0.133969763321E+00
 -0.139144432197E+00
 -0.161505581541E+00
  0.825925998460E-01
  0.867043746643E-01
  0.860076353619E-01
  0.909082096390E-01
  0.881241470991E-01
  0.916139357236E-01
  0.893072903242E-01
  0.662438696676E-01
  0.614084072696E-01
  0.609705396637E-01
  0.526873657493E-01
  0.504524567036E-01
  0.430039829003E-01
  0.392593936129E-01
 -0.119461353921E+00
 -0.158997068998E+00
 -0.936110033121E-01
 -0.196832417706E+00
 -0.169017996999E+00
 -0.317023652396E+00
 -0.276595134769E+00
 -0.359180299580E+00
 -0.327540086203E+00
 -0.243567940514E+00
 -0.216342045864E+00
 -0.159687628466E+00
 -0.165486990919E+00
 -0.151275326628E+00
  0.526927050813E-01
  0.588250719380E-01
  0.596601098178E-01
  0.662323364851E-01
  0.650635036167E-01
  0.694153254714E-01
  0.681282205280E-01
  0.654674829897E-01
  0.620504394663E-01
  0.596255144065E-01
  0.537641011666E-01
  0.483709246609E-01
  0.427931370694E-01
  0.364352288096E-01
 -0.108476770508E+00
 -0.173824993835E+00
 -0.134838038841E+00
 -0.269005751396E+00
 -0.258436086129E+00
 -0.431414939287E+00
 -0.412293076716E+00
 -0.430528686411E+00
 -0.414680614031E+00
 -0.287903532940E+00
 -0.272239020481E+00
 -0.177326643108E+00
 -0.189693344128E+00
 -0.136859820772E+00
  0.351131819829E-01
  0.416395196752E-01
  0.440584842946E-01
  0.508343558875E-01
  0.513393574194E-01
  0.556838945931E-01
  0.554331708471E-01
  0.597890783975E-01
  0.576932118801E-01
  0.537289033883E-01
  0.500838399119E-01
  0.424140935778E-01
  0.385975391446E-01
  0.302321328486E-01
 -0.109553409204E+00
 -0.184839920040E+00
 -0.165341791673E+00
 -0.305998705290E+00
 -0.308690218672E+00
 -0.481072463728E+00
 -0.474778972873E+00
 -0.476376358063E+00
 -0.472839620605E+00
 -0.316322330794E+00
 -0.312616513721E+00
 -0.182663672764E+00
 -0.206671294714E+00
 -0.119697743421E+00
  0.270962582870E-01
  0.331650646705E-01
  0.373628416420E-01
  0.436539508002E-01
  0.460156174720E-01
  0.499621021597E-01
  0.508214372687E-01
  0.532903640904E-01
  0.524219832966E-01
  0.475175216295E-01
  0.459116103999E-01
  0.369729708273E-01
  0.348964604841E-01
  0.252197127751E-01
 -0.119027502280E+00
 -0.190034256186E+00
 -0.184726967781E+00
 -0.314097190764E+00
 -0.328031696658E+00
 -0.488894404411E+00
 -0.492091987832E+00
SCALARS C_p_2nd float 1
LOOKUP_TABLE default
 -0.319460747940E-01
 -0.315187090961E-01
 -0.308319715210E-01
 -0.307415042899E-01
 -0.307096083497E-01
 -0.306735660028E-01
 -0.306553008075E-01
 -0.306434172228E-01
  0.344285508208E+00
  0.344274140294E+00
  0.344292726612E+00
  0.344290602867E+00
  0.344293924766E+00
  0.344293744042E+00
  0.344294000889E+00
  0.344293995779E+00
  0.318460620887E-01
  0.318460577422E-01
  0.318462796088E-01
  0.318461235137E-01
  0.318490305977E-01
  0.318471730325E-01
  0.318638031057E-01
  0.318536476899E-01
 -0.240688523370E+00
 -0.240678428488E+00
 -0.240662118916E+00
 -0.240630295062E+00
 -0.240603019555E+00
 -0.240523695091E+00
 -0.239924080082E+00
 -0.239551281448E+00
 -0.340037341073E-01
 -0.319461104490E-01
 -0.312644619171E-01
 -0.308319836426E-01
 -0.308881373629E-01
 -0.307096107672E-01
 -0.307182662236E-01
 -0.306553012806E-01
  0.344274139707E+00
  0.344219759690E+00
  0.344290602856E+00
  0.344279329713E+00
  0.344293744042E+00
  0.344292545416E+00
  0.344293995779E+00
  0.344293949463E+00
  0.318461014850E-01
  0.318460620887E-01
  0.318473147685E-01
  0.318462796088E-01
  0.318588859878E-01
  0.318490305849E-01
  0.319122666679E-01
  0.318638024311E-01
 -0.240678429045E+00
 -0.240624264063E+00
 -0.240630297595E+00
 -0.240473171573E+00
 -0.240523707522E+00
 -0.240146713917E+00
 -0.239551317456E+00
 -0.237755224042E+00
 -0.406696086953E-01
 -0.340040697086E-01
 -0.326767271433E-01
 -0.312645990996E-01
 -0.315149902922E-01
 -0.308881642547E-01
 -0.309513667501E-01
 -0.307182713510E-01
  0.344219751604E+00
  0.344023200320E+00
  0.344279329499E+00
  0.344231675973E+00
  0.344292545415E+00
  0.344285847742E+00
  0.344293949463E+00
  0.344293575964E+00
  0.318464191795E-01
  0.318461014850E-01
  0.318530973336E-01
  0.318473147670E-01
  0.319005013049E-01
  0.318588857500E-01
  0.320879877887E-01
  0.319122573420E-01
 -0.240624270303E+00
 -0.240424997816E+00
 -0.240473199703E+00
 -0.239920512679E+00
 -0.240146855046E+00
 -0.238893851357E+00
 -0.237755572141E+00
 -0.231880619562E+00
 -0.571555290793E-01
 -0.406729698412E-01
 -0.371086095325E-01
 -0.326781670075E-01
 -0.334965406528E-01
 -0.315152921059E-01
 -0.317238874882E-01
 -0.309514304490E-01
  0.344023096025E+00
  0.343341344309E+00
  0.344231672142E+00
  0.344035899177E+00
  0.344285847701E+00
  0.344248909759E+00
  0.344293575964E+00
  0.344290564095E+00
  0.318489811331E-01
  0.318464191794E-01
  0.318849920067E-01
  0.318530972892E-01
  0.320714268711E-01
  0.319004970678E-01
  0.326874245638E-01
  0.320878710025E-01
 -0.240425072458E+00
 -0.239745088754E+00
 -0.239920838811E+00
 -0.238196300714E+00
 -0.238895320009E+00
 -0.235226207135E+00
 -0.231883777212E+00
 -0.217394379116E+00
 -0.866262044447E-01
 -0.571726123281E-01
 -0.442871707332E-01
 -0.371218446991E-01
 -0.392169050053E-01
 -0.334997921056E-01
 -0.342389488015E-01
 -0.317245587305E-01
  0.343340194530E+00
  0.341205786344E+00
  0.344035834209E+00
  0.343261443026E+00
  0.344248908509E+00
  0.344048876495E+00
  0.344290564091E+00
  0.344266272807E+00
  0.318696381174E-01
  0.318489811287E-01