# vtk DataFile Version 3.0
MachLine results file. Generated by MachLine, USU AeroLab (c) 2022.
ASCII
DATASET POLYDATA
POINTS                3924 float
  0.100000000000E+01  0.000000000000E+00  0.000000000000E+00
  0.986936852140E+00  0.512820512820E-01 -0.114287734800E-02
  0.100000000000E+01  0.512820512820E-01  0.000000000000E+00
  0.986936852140E+00  0.000000000000E+00 -0.114287734800E-02
  0.969870673510E+00  0.512820512820E-01 -0.263597450740E-02
  0.969870673510E+00  0.000000000000E+00 -0.263597450740E-02
  0.947785033200E+00  0.512820512820E-01 -0.456821766120E-02
  0.947785033200E+00  0.000000000000E+00 -0.456821766120E-02
  0.919551441300E+00  0.512820512820E-01 -0.703833688330E-02
  0.919551441300E+00  0.000000000000E+00 -0.703833688330E-02
  0.884018106510E+00  0.512820512820E-01 -0.101471008550E-01
  0.884018106510E+00  0.000000000000E+00 -0.101471008550E-01
  0.840166851150E+00  0.512820512820E-01 -0.139835885800E-01
  0.840166851150E+00  0.000000000000E+00 -0.139835885800E-01
  0.787342649140E+00  0.512820512820E-01 -0.186051074160E-01
  0.787342649140E+00  0.000000000000E+00 -0.186051074160E-01
  0.725530751590E+00  0.512820512820E-01 -0.240129477220E-01
  0.725530751590E+00  0.000000000000E+00 -0.240129477220E-01
  0.655612654280E+00  0.512820512820E-01 -0.301299886120E-01
  0.655612654280E+00  0.000000000000E+00 -0.301299886120E-01
  0.579493951800E+00  0.512820512820E-01 -0.367895121620E-01
  0.579493951800E+00  0.000000000000E+00 -0.367895121620E-01
  0.500000000000E+00  0.512820512820E-01 -0.437443317630E-01
  0.500000000000E+00  0.000000000000E+00 -0.437443317630E-01
  0.420506048200E+00  0.000000000000E+00 -0.367895121620E-01
  0.420506048200E+00  0.512820512820E-01 -0.367895121620E-01
  0.344387345720E+00  0.000000000000E+00 -0.301299886120E-01
  0.344387345720E+00  0.512820512820E-01 -0.301299886120E-01
  0.274469248410E+00  0.000000000000E+00 -0.240129477220E-01
  0.274469248410E+00  0.512820512820E-01 -0.240129477220E-01
  0.212657350860E+00  0.000000000000E+00 -0.186051074160E-01
  0.212657350860E+00  0.512820512820E-01 -0.186051074160E-01
  0.159833148850E+00  0.000000000000E+00 -0.139835885800E-01
  0.159833148850E+00  0.512820512820E-01 -0.139835885800E-01
  0.115981893490E+00  0.000000000000E+00 -0.101471008550E-01
  0.115981893490E+00  0.512820512820E-01 -0.101471008550E-01
  0.804485587010E-01  0.000000000000E+00 -0.703833688330E-02
  0.804485587010E-01  0.512820512820E-01 -0.703833688330E-02
  0.522149667970E-01  0.000000000000E+00 -0.456821766120E-02
  0.522149667970E-01  0.512820512820E-01 -0.456821766120E-02
  0.301293264890E-01  0.000000000000E+00 -0.263597450740E-02
  0.301293264890E-01  0.512820512820E-01 -0.263597450740E-02
  0.130631478640E-01  0.000000000000E+00 -0.114287734800E-02
  0.130631478640E-01  0.512820512820E-01 -0.114287734800E-02
  0.000000000000E+00  0.000000000000E+00  0.000000000000E+00
  0.000000000000E+00  0.512820512820E-01  0.000000000000E+00
  0.130631478640E-01  0.512820512820E-01  0.114287734800E-02
  0.130631478640E-01  0.000000000000E+00  0.114287734800E-02
  0.301293264890E-01  0.512820512820E-01  0.263597450740E-02
  0.301293264890E-01  0.000000000000E+00  0.263597450740E-02
  0.522149667970E-01  0.512820512820E-01  0.456821766120E-02
  0.522149667970E-01  0.000000000000E+00  0.456821766120E-02
  0.804485587010E-01  0.512820512820E-01  0.703833688330E-02
  0.804485587010E-01  0.000000000000E+00  0.703833688330E-02
  0.115981893490E+00  0.512820512820E-01  0.101471008550E-01
  0.115981893490E+00  0.000000000000E+00  0.101471008550E-01
  0.159833148850E+00  0.512820512820E-01  0.139835885800E-01
  0.159833148850E+00  0.000000000000E+00  0.139835885800E-01
  0.212657350860E+00  0.512820512820E-01  0.186051074160E-01
  0.212657350860E+00  0.000000000000E+00  0.186051074160E-01
  0.274469248410E+00  0.512820512820E-01  0.240129477220E-01
  0.274469248410E+00  0.000000000000E+00  0.240129477220E-01
  0.344387345720E+00  0.512820512820E-01  0.301299886120E-01
  0.344387345720E+00  0.000000000000E+00  0.301299886120E-01
  0.420506048200E+00  0.512820512820E-01  0.367895121620E-01
  0.420506048200E+00  0.000000000000E+00  0.367895121620E-01
  0.500000000000E+00  0.512820512820E-01  0.437443317630E-01
  0.500000000000E+00  0.000000000000E+00  0.437443317630E-01
  0.579493951800E+00  0.000000000000E+00  0.367895121620E-01
  0.579493951800E+00  0.512820512820E-01  0.367895121620E-01
  0.655612654280E+00  0.000000000000E+00  0.301299886120E-01
  0.655612654280E+00  0.512820512820E-01  0.301299886120E-01
  0.725530751590E+00  0.000000000000E+00  0.240129477220E-01
  0.725530751590E+00  0.512820512820E-01  0.240129477220E-01
  0.787342649140E+00  0.000000000000E+00  0.186051074160E-01
  0.787342649140E+00  0.512820512820E-01  0.186051074160E-01
  0.840166851150E+00  0.000000000000E+00  0.139835885800E-01
  0.840166851150E+00  0.512820512820E-01  0.139835885800E-01
  0.884018106510E+00  0.000000000000E+00  0.101471008550E-01
  0.884018106510E+00  0.512820512820E-01  0.101471008550E-01
  0.919551441300E+00  0.000000000000E+00  0.703833688330E-02
  0.919551441300E+00  0.512820512820E-01  0.703833688330E-02
  0.947785033200E+00  0.000000000000E+00  0.456821766120E-02
  0.947785033200E+00  0.512820512820E-01  0.456821766120E-02
  0.969870673510E+00  0.000000000000E+00  0.263597450740E-02
  0.969870673510E+00  0.512820512820E-01  0.263597450740E-02
  0.986936852140E+00  0.000000000000E+00  0.114287734800E-02
  0.986936852140E+00  0.512820512820E-01  0.114287734800E-02
  0.986936852140E+00  0.102564102560E+00 -0.114287734800E-02
  0.100000000000E+01  0.102564102560E+00  0.000000000000E+00
  0.969870673510E+00  0.102564102560E+00 -0.263597450740E-02
  0.947785033200E+00  0.102564102560E+00 -0.456821766120E-02
  0.919551441300E+00  0.102564102560E+00 -0.703833688330E-02
  0.884018106510E+00  0.102564102560E+00 -0.101471008550E-01
  0.840166851150E+00  0.102564102560E+00 -0.139835885800E-01
  0.787342649140E+00  0.102564102560E+00 -0.186051074160E-01
  0.725530751590E+00  0.102564102560E+00 -0.240129477220E-01
  0.655612654280E+00  0.102564102560E+00 -0.301299886120E-01
  0.579493951800E+00  0.102564102560E+00 -0.367895121620E-01
  0.500000000000E+00  0.102564102560E+00 -0.437443317630E-01
  0.420506048200E+00  0.102564102560E+00 -0.367895121620E-01
  0.344387345720E+00  0.102564102560E+00 -0.301299886120E-01
  0.274469248410E+00  0.102564102560E+00 -0.240129477220E-01
  0.212657350860E+00  0.102564102560E+00 -0.186051074160E-01
  0.159833148850E+00  0.102564102560E+00 -0.139835885800E-01
  0.115981893490E+00  0.102564102560E+00 -0.101471008550E-01
  0.804485587010E-01  0.102564102560E+00 -0.703833688330E-02
  0.522149667970E-01  0.102564102560E+00 -0.456821766120E-02
  0.301293264890E-01  0.102564102560E+00 -0.263597450740E-02
  0.130631478640E-01  0.102564102560E+00 -0.114287734800E-02
  0.000000000000E+00  0.102564102560E+00  0.000000000000E+00
  0.130631478640E-01  0.102564102560E+00  0.114287734800E-02
  0.301293264890E-01  0.102564102560E+00  0.263597450740E-02
  0.522149667970E-01  0.102564102560E+00  0.456821766120E-02
  0.804485587010E-01  0.102564102560E+00  0.703833688330E-02
  0.115981893490E+00  0.102564102560E+00  0.101471008550E-01
  0.159833148850E+00  0.102564102560E+00  0.139835885800E-01
  0.212657350860E+00  0.102564102560E+00  0.186051074160E-01
  0.274469248410E+00  0.102564102560E+00  0.240129477220E-01
  0.344387345720E+00  0.102564102560E+00  0.301299886120E-01
  0.420506048200E+00  0.102564102560E+00  0.367895121620E-01
  0.500000000000E+00  0.102564102560E+00  0.437443317630E-01
  0.579493951800E+00  0.102564102560E+00  0.367895121620E-01
  0.655612654280E+00  0.102564102560E+00  0.301299886120E-01
  0.725530751590E+00  0.102564102560E+00  0.240129477220E-01
  0.787342649140E+00  0.102564102560E+00  0.186051074160E-01
  0.840166851150E+00  0.102564102560E+00  0.139835885800E-01
  0.884018106510E+00  0.102564102560E+00  0.101471008550E-01
  0.919551441300E+00  0.102564102560E+00  0.703833688330E-02
  0.947785033200E+00  0.102564102560E+00  0.456821766120E-02
  0.969870673510E+00  0.102564102560E+00  0.263597450740E-02
  0.986936852140E+00  0.102564102560E+00  0.114287734800E-02
  0.986936852140E+00  0.153846153850E+00 -0.114287734800E-02
  0.100000000000E+01  0.153846153850E+00  0.000000000000E+00
  0.969870673510E+00  0.153846153850E+00 -0.263597450740E-02
  0.947785033200E+00  0.153846153850E+00 -0.456821766120E-02
  0.919551441300E+00  0.153846153850E+00 -0.703833688330E-02
  0.884018106510E+00  0.153846153850E+00 -0.101471008550E-01
  0.840166851150E+00  0.153846153850E+00 -0.139835885800E-01
  0.787342649140E+00  0.153846153850E+00 -0.186051074160E-01
  0.725530751590E+00  0.153846153850E+00 -0.240129477220E-01
  0.655612654280E+00  0.153846153850E+00 -0.301299886120E-01
  0.579493951800E+00  0.153846153850E+00 -0.367895121620E-01
  0.500000000000E+00  0.153846153850E+00 -0.437443317630E-01
  0.420506048200E+00  0.153846153850E+00 -0.367895121620E-01
  0.344387345720E+00  0.153846153850E+00 -0.301299886120E-01
  0.274469248410E+00  0.153846153850E+00 -0.240129477220E-01
  0.212657350860E+00  0.153846153850E+00 -0.186051074160E-01
  0.159833148850E+00  0.153846153850E+00 -0.139835885800E-01
  0.115981893490E+00  0.153846153850E+00 -0.101471008550E-01
  0.804485587010E-01  0.153846153850E+00 -0.703833688330E-02
  0.522149667970E-01  0.153846153850E+00 -0.456821766120E-02
  0.301293264890E-01  0.153846153850E+00 -0.263597450740E-02
  0.130631478640E-01  0.153846153850E+00 -0.114287734800E-02
  0.000000000000E+00  0.153846153850E+00  0.000000000000E+00
  0.130631478640E-01  0.153846153850E+00  0.114287734800E-02
  0.301293264890E-01  0.153846153850E+00  0.263597450740E-02
  0.522149667970E-01  0.153846153850E+00  0.456821766120E-02
  0.804485587010E-01  0.153846153850E+00  0.703833688330E-02
  0.115981893490E+00  0.153846153850E+00  0.101471008550E-01
  0.159833148850E+00  0.153846153850E+00  0.139835885800E-01
[...]
CELL_DATA                7536
SCALARS C_p_ise float 1
LOOKUP_TABLE default
 -0.155125200227E-05
  0.113595080559E-05
 -0.147143592549E-07
 -0.243485477988E-07
 -0.130639355418E-07
 -0.176570549363E-07
 -0.169174689777E-07
 -0.111012258292E-07
 -0.409308312111E-08
 -0.100784188050E-07
 -0.159948107669E-07
 -0.176903571862E-07
 -0.233862037319E-08
  0.138293046855E-07
  0.311129450246E-08
 -0.114873759182E-07
  0.516160898855E-08
  0.196064184993E-07
 -0.814134904113E-08
 -0.204747231515E-07
  0.441596389085E-08
  0.660010318004E-08
  0.362430452076E+00
  0.362430435319E+00
  0.362430449661E+00
  0.362430470740E+00
  0.362430450050E+00
  0.362430446759E+00
  0.362430451241E+00
  0.362430454850E+00
  0.362430453879E+00
  0.362430456613E+00
  0.362430455502E+00
  0.362430458403E+00
  0.362430454239E+00
  0.362430461981E+00
  0.362430454787E+00
  0.362430461556E+00
  0.362430456876E+00
  0.362430458939E+00
  0.362430459319E+00
  0.362430456563E+00
  0.362430463042E+00
  0.362430452252E+00
 -0.225074280201E-09
 -0.104122381969E-07
 -0.440166887066E-08
 -0.675708575512E-08
 -0.661847219005E-08
 -0.440365444286E-08
 -0.930688013429E-08
 -0.242064315682E-08
 -0.925063750469E-08
 -0.213302581947E-08
 -0.556397369095E-08
 -0.341239481116E-08
 -0.418131652759E-08
 -0.121926095322E-08
 -0.929434025334E-09
  0.741544110067E-09
  0.152288354766E-08
  0.302800803831E-08
 -0.144406610127E-08
  0.399507164564E-09
 -0.885390646161E-08
 -0.455500328813E-08
 -0.254491941061E+00
 -0.254491938447E+00
 -0.254491945733E+00
 -0.254491940455E+00
 -0.254491953774E+00
 -0.254491941815E+00
 -0.254491929905E+00
 -0.254491961025E+00
 -0.254491952229E+00
 -0.254491920951E+00
 -0.254491930397E+00
 -0.254491950281E+00
 -0.254491935732E+00
 -0.254491935363E+00
 -0.254491936700E+00
 -0.254491934524E+00
 -0.254491930269E+00
 -0.254491933798E+00
 -0.254491926408E+00
 -0.254491931440E+00
 -0.254492861068E+00
 -0.254490694321E+00
 -0.433430040585E-05
 -0.155125188532E-05
 -0.212659948910E-07
 -0.147143594663E-07
 -0.121364830707E-07
 -0.130639355418E-07
 -0.818715754803E-08
 -0.169174689777E-07
 -0.545957501430E-08
 -0.409308312111E-08
 -0.152207400828E-07
 -0.159948112603E-07
  0.289459833880E-07
 -0.233862086662E-08
 -0.499200099247E-07
  0.311129450246E-08
  0.212768328529E-07
  0.516160941149E-08
 -0.456291794472E-10
 -0.814134904113E-08
 -0.121558646041E-07
  0.441596389085E-08
  0.362430435319E+00
  0.362430451670E+00
  0.362430470740E+00
  0.362430465188E+00
  0.362430446759E+00
  0.362430457220E+00
  0.362430454850E+00
  0.362430448689E+00
  0.362430456613E+00
  0.362430457966E+00
  0.362430458403E+00
  0.362430459724E+00
  0.362430461981E+00
  0.362430459072E+00
  0.362430461556E+00
  0.362430460702E+00
  0.362430458939E+00
  0.362430466517E+00
  0.362430456563E+00
  0.362430474014E+00
  0.362430452252E+00
  0.362430483879E+00
 -0.300083930192E-07
 -0.225074280201E-09
 -0.204006162933E-07
 -0.440166887066E-08
 -0.131966762738E-07
 -0.661847219005E-08
 -0.773965286922E-08
 -0.930688013429E-08
 -0.657508664798E-08
 -0.925063750469E-08
 -0.731608227263E-08
 -0.556397369095E-08
 -0.532556785267E-08
 -0.418131652759E-08
 -0.237804393461E-08
 -0.929434025334E-09
 -0.194416532256E-08
  0.152288354766E-08
 -0.387466157924E-08
 -0.144406610127E-08
 -0.989515425506E-08
 -0.885390646161E-08
 -0.254491938447E+00
 -0.254491936842E+00
 -0.254491940455E+00
 -0.254491945779E+00
 -0.254491941815E+00
 -0.254491936063E+00
 -0.254491961025E+00
 -0.254491943886E+00
 -0.254491920951E+00
 -0.254491939881E+00
 -0.254491950281E+00
 -0.254491941941E+00
 -0.254491935363E+00
 -0.254491935106E+00
 -0.254491934524E+00
 -0.254491939709E+00
 -0.254491933798E+00
 -0.254491935192E+00
 -0.254491931440E+00
 -0.254491927103E+00
 -0.254490694321E+00
 -0.254488452765E+00
 -0.249627579736E-05
 -0.433430027728E-05
 -0.365828184676E-07
 -0.212659951024E-07
 -0.293009856237E-07
 -0.121364825773E-07
 -0.165507855040E-07
 -0.818715782999E-08
  0.264387030787E-09
 -0.545957571920E-08
 -0.899087217375E-08
 -0.152207400828E-07
  0.132033056798E-07
  0.289459828241E-07
 -0.370021876983E-07
 -0.499200097132E-07
  0.157986977997E-07
  0.212768334168E-07
 -0.222697825612E-07
 -0.456293909182E-10
  0.291389727162E-08
 -0.121558646041E-07
  0.362430451670E+00
  0.362430443293E+00
  0.362430465188E+00
  0.362430476093E+00
  0.362430457220E+00
  0.362430453143E+00
  0.362430448689E+00
  0.362430458169E+00
  0.362430457966E+00
  0.362430457580E+00
  0.362430459724E+00
  0.362430456553E+00
  0.362430459072E+00
  0.362430456300E+00
  0.362430460702E+00
  0.362430453946E+00
  0.362430466517E+00
  0.362430447867E+00
  0.362430474014E+00
  0.362430440789E+00
  0.362430483879E+00
  0.362430431788E+00
  0.190094751932E-07
 -0.300083928077E-07
  0.102963904774E-07
 -0.204006162933E-07
  0.354993762781E-08
 -0.131966762738E-07
 -0.230003275684E-08
 -0.773965286922E-08
 -0.399627540936E-08
 -0.657508664798E-08
 -0.434720428967E-08
 -0.731608227263E-08
 -0.525140721032E-08
 -0.532556785267E-08
 -0.609267965885E-08
 -0.237804393461E-08
 -0.448835853845E-08
 -0.194416532256E-08
 -0.511460870129E-08
 -0.387466157924E-08
 -0.472070481471E-08
 -0.989515425506E-08
 -0.254491936842E+00
 -0.254491945064E+00
 -0.254491945779E+00
 -0.254491943415E+00
 -0.254491936063E+00
 -0.254491932914E+00
 -0.254491943886E+00
 -0.254491937835E+00
 -0.254491939881E+00
 -0.254491932192E+00
 -0.254491941941E+00
 -0.254491950629E+00
 -0.254491935106E+00
 -0.254491936284E+00
 -0.254491939709E+00
 -0.254491931377E+00
 -0.254491935192E+00
 -0.254491922820E+00
 -0.254491927103E+00
 -0.254491915247E+00
 -0.254488452765E+00
 -0.254489936089E+00
 -0.339782685579E-05
 -0.249627574801E-05
 -0.622236672769E-07
 -0.365828184676E-07
 -0.473115670098E-07
 -0.293009846368E-07
 -0.319904149026E-07
 -0.165507857860E-07
 -0.171061938512E-07
  0.264387030787E-09
 -0.162149603092E-07
 -0.899087168032E-08
  0.109097304030E-07
  0.132033056798E-07
 -0.355010335062E-07
 -0.370021876983E-07
  0.761624104172E-08
  0.157986977997E-07
 -0.173933623765E-07
 -0.222697825612E-07
  0.710738698935E-09
  0.291389727162E-08
  0.362430443293E+00
  0.362430457487E+00
  0.362430476093E+00
  0.362430449393E+00
  0.362430453143E+00
  0.362430463689E+00
  0.362430458169E+00
  0.362430467104E+00
  0.362430457580E+00
  0.362430455053E+00
  0.362430456553E+00
  0.362430452808E+00
  0.362430456300E+00
  0.362430449577E+00
  0.362430453946E+00
  0.362430447551E+00
  0.362430447867E+00
  0.362430447726E+00
  0.362430440789E+00
  0.362430448353E+00
  0.362430431788E+00
  0.362430449838E+00
  0.203382058990E-08
  0.190094756162E-07
  0.348604757054E-08
  0.102963904774E-07
  0.408191068248E-08
  0.354993762781E-08
  0.418788559386E-08
 -0.230003275684E-08
  0.209223312396E-08
 -0.399627540936E-08
 -0.106355932879E-08
 -0.434720428967E-08
 -0.311281124333E-08
 -0.525140721032E-08
 -0.846582500751E-08
 -0.609267965885E-08
 -0.939445776903E-08
 -0.448835853845E-08
 -0.182034584937E-08
 -0.511460870129E-08
 -0.430208412104E-08
 -0.472070481471E-08
 -0.254491945064E+00
 -0.254491947730E+00
 -0.254491943415E+00
 -0.254491933428E+00
 -0.254491932914E+00
 -0.254491949436E+00
 -0.254491937835E+00
 -0.254491925664E+00
 -0.254491932192E+00
 -0.254491928646E+00
 -0.254491950629E+00
 -0.254491944844E+00
 -0.254491936284E+00
 -0.254491927146E+00
 -0.254491931377E+00
 -0.254491919014E+00
 -0.254491922820E+00
 -0.254491908800E+00
 -0.254491915247E+00
 -0.254491893799E+00
 -0.254489936089E+00
 -0.254489209374E+00
 -0.495440602491E-05
 -0.339782683802E-05
 -0.107274726315E-06
 -0.622236682638E-07
 -0.841926264155E-07
 -0.473115672213E-07
 -0.581126853869E-07
 -0.319904141977E-07
 -0.467165017781E-07
 -0.171061928643E-07
 -0.358472572966E-07
 -0.162149610846E-07
  0.644105566061E-08
  0.109097304030E-07
 -0.349180820413E-07
 -0.355010335062E-07
 -0.658174030268E-08
  0.761624104172E-08
  0.947223111235E-09
 -0.173933623765E-07
 -0.933691487442E-08
  0.710738698935E-09
  0.362430457487E+00
  0.362430459673E+00
  0.362430449393E+00
  0.362430449848E+00
  0.362430463689E+00
  0.362430464546E+00
  0.362430467104E+00
  0.362430464974E+00
  0.362430455053E+00
  0.362430453268E+00
  0.362430452808E+00
  0.362430449219E+00
  0.362430449577E+00
  0.362430448246E+00
  0.362430447551E+00
  0.362430450082E+00
  0.362430447726E+00
  0.362430453195E+00
  0.362430448353E+00
  0.362430456257E+00
  0.362430449838E+00
  0.362430460201E+00
 -0.773130941983E-08
  0.203382058990E-08
 -0.387384050763E-08
  0.348604757054E-08
 -0.914952769633E-09
  0.408191068248E-08
  0.208971069725E-08
  0.418788559386E-08
  0.364743692040E-08
  0.209223312396E-08
  0.232578161315E-08
 -0.106355961075E-08
 -0.169174127969E-08
 -0.311281124333E-08
 -0.655679383803E-08
 -0.846582500751E-08
 -0.107194321849E-07
 -0.939445776903E-08
 -0.436100756917E-08
 -0.182034584937E-08
  0.250473081429E-08
 -0.430208412104E-08
 -0.254491947730E+00
 -0.254491952396E+00
 -0.254491933428E+00
 -0.254491934116E+00
 -0.254491949436E+00
 -0.254491932457E+00
 -0.254491925664E+00
 -0.254491939010E+00
 -0.254491928646E+00
 -0.254491932590E+00
 -0.254491944844E+00
 -0.254491916377E+00
 -0.254491927146E+00
 -0.254491908502E+00
 -0.254491919014E+00
 -0.254491897959E+00
 -0.254491908800E+00
 -0.254491883697E+00
 -0.254491893799E+00
 -0.254491857523E+00
 -0.254489209374E+00
 -0.254487956465E+00
 -0.167824716952E-05
 -0.495440597162E-05
 -0.193591731640E-06
 -0.107274729276E-06
 -0.156763421715E-06
 -0.841926283893E-07
 -0.110609026911E-06
 -0.581126855984E-07
 -0.765398886423E-07
 -0.467165012847E-07
 -0.672944084936E-07
 -0.358472572966E-07
 -0.411830745168E-07
  0.644105566061E-08
 -0.267917553398E-07
 -0.349180820413E-07
  0.341657862495E-08
 -0.658174030268E-08
 -0.379019989997E-09
  0.947223534177E-09
 -0.964759305953E-08
 -0.933691487442E-08
  0.362430459673E+00
  0.362430460573E+00
  0.362430449848E+00
  0.362430457684E+00
  0.362430464546E+00
  0.362430453400E+00
  0.362430464974E+00
  0.362430462877E+00
  0.362430453268E+00
  0.362430451272E+00
  0.362430449219E+00
  0.362430451964E+00
  0.362430448246E+00
  0.362430452967E+00
  0.362430450082E+00
  0.362430451188E+00
  0.362430453195E+00
  0.362430446361E+00
  0.362430456257E+00
  0.362430440651E+00
  0.362430460201E+00
  0.362430433161E+00
  0.177277468895E-07
 -0.773130941983E-08
  0.104693843718E-07
 -0.387384050763E-08
  0.502713976267E-08
 -0.914952769633E-09
  0.354478915357E-09
  0.208971069725E-08
 -0.893021177288E-09
  0.364743692040E-08
  0.107649762120E-09
  0.232578161315E-08
  0.775832308450E-09
 -0.169174127969E-08
 -0.441941298372E-08
 -0.655679383803E-08
 -0.704944124239E-08
 -0.107194321849E-07
 -0.538272361428E-08
 -0.436100756917E-08
 -0.119602571233E-08
  0.250473081429E-08
 -0.254491952396E+00
 -0.254491949034E+00
 -0.254491934116E+00
 -0.254491933393E+00
 -0.254491932457E+00
 -0.254491943504E+00
 -0.254491939010E+00
 -0.254491927136E+00
 -0.254491932590E+00
 -0.254491901528E+00
 -0.254491916377E+00
 -0.254491911059E+00
 -0.254491908502E+00
 -0.254491875142E+00
 -0.254491897959E+00
 -0.254491855845E+00
 -0.254491883697E+00
 -0.254491831414E+00
 -0.254491857523E+00
 -0.254491787753E+00
 -0.254487956465E+00
 -0.254490599020E+00
 -0.374477401962E-05
 -0.167824707845E-05
 -0.347876934173E-06
 -0.193591739042E-06
 -0.278272328989E-06
 -0.156763425662E-06
 -0.189930675843E-06
 -0.110609029378E-06
 -0.142082889158E-06
 -0.765398886423E-07
 -0.107247431888E-06
 -0.672944087051E-07
 -0.455444049317E-08
 -0.411830769839E-07
 -0.102257632767E-06
 -0.267917553398E-07
  0.767604110785E-08
  0.341657862495E-08
 -0.181160218396E-07
 -0.379019989997E-09
  0.931980982688E-09
 -0.964759305953E-08
  0.362430460573E+00
  0.362430459070E+00
  0.362430457684E+00
  0.362430454855E+00
  0.362430453400E+00
  0.362430451981E+00
  0.362430462877E+00
  0.362430459759E+00
  0.362430451272E+00
  0.362430452771E+00
  0.362430451964E+00
  0.362430454240E+00
  0.362430452967E+00
  0.362430453532E+00
  0.362430451188E+00
  0.362430454195E+00
  0.362430446361E+00
  0.362430457972E+00
  0.362430440651E+00
  0.362430462812E+00
  0.362430433161E+00
  0.362430469057E+00
 -0.160502538244E-07
  0.177277468895E-07
 -0.997166370639E-08
  0.104693843718E-07
 -0.532122888962E-08
  0.502713976267E-08
 -0.180301029838E-08
  0.354478915357E-09
 -0.145895218305E-08
 -0.893020965817E-09
 -0.215501267624E-08
  0.107649762120E-09
 -0.389312779545E-09
  0.775832308450E-09
 -0.361774525681E-09
 -0.441941298372E-08
 -0.590868045849E-08
 -0.704944124239E-08
 -0.228398753173E-08
 -0.538272361428E-08
 -0.428373040743E-08
 -0.119602571233E-08
 -0.254491949034E+00
 -0.254491942548E+00
 -0.254491933393E+00
 -0.254491941335E+00
 -0.254491943504E+00
 -0.254491929284E+00
 -0.254491927136E+00
 -0.254491912090E+00
 -0.254491901528E+00
 -0.254491884580E+00
 -0.254491911059E+00
 -0.254491879909E+00
 -0.254491875142E+00
 -0.254491828552E+00
 -0.254491855845E+00
 -0.254491786796E+00
 -0.254491831414E+00
 -0.254491742706E+00
 -0.254491787753E+00
 -0.254491662139E+00
 -0.254490599020E+00
 -0.254488937844E+00
 -0.668181823233E-05
 -0.374477392044E-05
 -0.635317624400E-06
 -0.347876960818E-06
 -0.504406246647E-06
 -0.278272342312E-06
 -0.334569344504E-06
 -0.189930682962E-06
 -0.254705425146E-06
 -0.142082891836E-06
 -0.168385916921E-06
 -0.107247432875E-06
 -0.880412156583E-07
 -0.455443999974E-08
 -0.839589777596E-07
 -0.102257630793E-06
 -0.223495900446E-07
  0.767604110785E-08
 -0.117716236053E-07
 -0.181160218396E-07
 -0.314169283181E-08
  0.931980982688E-09
  0.362430459070E+00
  0.362430446976E+00
  0.362430454855E+00
  0.362430458564E+00
  0.362430451981E+00
  0.362430449017E+00
  0.362430459759E+00
  0.362430453599E+00
  0.362430452771E+00
  0.362430452662E+00
  0.362430454240E+00
  0.362430453318E+00
  0.362430453532E+00
  0.362430456035E+00
  0.362430454195E+00
  0.362430457469E+00
  0.362430457972E+00
  0.362430457424E+00
  0.362430462812E+00
  0.362430457206E+00
  0.362430469057E+00
  0.362430456192E+00
 -0.395018536400E-08
 -0.160502538244E-07
 -0.491042416605E-08
 -0.997166370639E-08
 -0.506591925375E-08
 -0.532122888962E-08
 -0.516445158243E-08
 -0.180301029838E-08
 -0.352066376053E-08
 -0.145895218305E-08
 -0.965883387381E-09
 -0.215501267624E-08
 -0.585598941472E-09
 -0.389312779545E-09
 -0.195572447126E-08
 -0.361774525681E-09
 -0.232916352871E-08
 -0.590868045849E-08
  0.195753113895E-09
 -0.228398753173E-08
 -0.170613794697E-08
 -0.428373040743E-08
 -0.254491942548E+00
 -0.254491942400E+00
 -0.254491941335E+00
 -0.254491928344E+00
 -0.254491929284E+00
 -0.254491918494E+00
 -0.254491912090E+00
 -0.254491892106E+00
 -0.254491884580E+00
 -0.254491858932E+00
 -0.254491879909E+00
 -0.254491817827E+00
 -0.254491828552E+00
 -0.254491745012E+00
 -0.254491786796E+00
 -0.254491664055E+00
 -0.254491742706E+00
 -0.254491581529E+00
 -0.254491662139E+00
 -0.254491427775E+00
 -0.254488937844E+00
 -0.254486579729E+00
 -0.729712607785E-05
 -0.668181805963E-05
 -0.117795026312E-05
 -0.635317711244E-06
 -0.926940469566E-06
 -0.504406292255E-06
 -0.605372470318E-06
 -0.334569369458E-06
 -0.466205416846E-06
 -0.254705434028E-06
 -0.294289606159E-06
 -0.168385919106E-06
 -0.153936819552E-06
 -0.880412163632E-07
 -0.122590969897E-06
 -0.839589792399E-07
 -0.572754679663E-07
 -0.223495895512E-07
 -0.316818957665E-07
 -0.117716236053E-07
 -0.111059057541E-07
 -0.314169254985E-08
  0.362430446976E+00
  0.362430451324E+00
  0.362430458564E+00
  0.362430446682E+00
  0.362430449017E+00
  0.362430449290E+00
  0.362430453599E+00
  0.362430462902E+00
  0.362430452662E+00
  0.362430453256E+00
  0.362430453318E+00
  0.362430453275E+00
  0.362430456035E+00
  0.362430453202E+00
  0.362430457469E+00
  0.362430452382E+00
  0.362430457424E+00
  0.362430451743E+00
  0.362430457206E+00
  0.362430451209E+00
  0.362430456192E+00
  0.362430450823E+00
  0.110122281664E-08
 -0.395018536400E-08
  0.746237216641E-09
 -0.491042416605E-08
  0.254214427287E-09
 -0.506591925375E-08
 -0.410339910199E-09
 -0.516445158243E-08
 -0.109972426227E-08
 -0.352066376053E-08
 -0.118563134619E-08
 -0.965883387381E-09
 -0.131039644744E-08
 -0.585598941472E-09
 -0.318934085491E-08
 -0.195572447126E-08
 -0.765009783916E-09
 -0.232916352871E-08
  0.341759016149E-08
  0.195753113895E-09
  0.375145501965E-08
 -0.170613794697E-08
 -0.254491942400E+00
 -0.254491935725E+00
 -0.254491928344E+00
 -0.254491921492E+00
 -0.254491918494E+00
 -0.254491900358E+00
 -0.254491892106E+00
 -0.254491853180E+00
 -0.254491858932E+00
 -0.254491794884E+00
 -0.254491817827E+00
 -0.254491718872E+00
 -0.254491745012E+00
 -0.254491584102E+00
 -0.254491664055E+00
 -0.254491427199E+00
 -0.254491581529E+00
 -0.254491284275E+00
 -0.254491427775E+00
 -0.254490987996E+00
 -0.254486579729E+00
 -0.254486103890E+00
 -0.986937805597E-05
 -0.729712659891E-05
 -0.223811970988E-05
 -0.117795057497E-05
 -0.174638463704E-05
 -0.926940629438E-06
 -0.112748806157E-05
 -0.605372552440E-06
 -0.865696145457E-06
 -0.466205441306E-06
 -0.519466098496E-06
 -0.294289615534E-06
 -0.306560569240E-06
 -0.153936819834E-06
 -0.196914255695E-06
 -0.122590968911E-06
 -0.867145584262E-07
 -0.572754676843E-07
 -0.584165267129E-07
 -0.316818952730E-07
 -0.246605502861E-07
 -0.111059057541E-07
  0.362430451324E+00
  0.362430442933E+00
  0.362430446682E+00
  0.362430444642E+00
  0.362430449290E+00
  0.362430455120E+00
  0.362430462902E+00
  0.362430453238E+00
  0.362430453256E+00
  0.362430454383E+00
  0.362430453275E+00
  0.362430452814E+00
  0.362430453202E+00
  0.362430448847E+00
  0.362430452382E+00
  0.362430447774E+00
  0.362430451743E+00
  0.362430448165E+00
  0.362430451209E+00
  0.362430448458E+00
  0.362430450823E+00
  0.362430449878E+00
  0.197874958041E-08
  0.110122281664E-08
  0.338780460475E-08
  0.746237216641E-09
  0.366298793766E-08
  0.254214427287E-09
  0.406103651589E-08
 -0.410339910199E-09
  0.281310875828E-08
 -0.109972426227E-08
 -0.132749515084E-08
 -0.118563134619E-08
 -0.208060997003E-08
 -0.131039644744E-08
 -0.149163644399E-09
 -0.318934085491E-08
 -0.161892101136E-08
 -0.765009783916E-09
  0.577988521242E-08
  0.341759016149E-08
  0.141905737954E-07
  0.375145501965E-08
 -0.254491935725E+00
 -0.254491924851E+00
 -0.254491921492E+00
 -0.254491902579E+00
 -0.254491900358E+00
 -0.254491848022E+00
 -0.254491853180E+00
 -0.254491800657E+00
 -0.254491794884E+00
 -0.254491703330E+00
 -0.254491718872E+00
 -0.254491516518E+00
 -0.254491584102E+00
 -0.254491292823E+00
 -0.254491427199E+00
 -0.254490989208E+00
 -0.254491284275E+00
 -0.254490691837E+00
 -0.254490987996E+00
 -0.254490123555E+00
 -0.254486103890E+00
 -0.254484057688E+00
 -0.124589556225E-04
 -0.986937949080E-05
 -0.420771940070E-05
 -0.223812082680E-05
 -0.331231214153E-05
 -0.174638521485E-05
 -0.213981205975E-05
 -0.112748835467E-05
 -0.161578599037E-05
 -0.865696240971E-06
 -0.971442819590E-06
 -0.519466126833E-06
 -0.565270658077E-06
 -0.306560572694E-06
 -0.325583807674E-06
 -0.196914258374E-06
 -0.150511768340E-06
 -0.867145592016E-07
 -0.108902309393E-06
 -0.584165252326E-07
 -0.496942717664E-07
 -0.246605500747E-07
  0.362430442933E+00
  0.362430424398E+00
  0.362430444642E+00
  0.362430447693E+00
  0.362430455120E+00
  0.362430451604E+00
  0.362430453238E+00
  0.362430451797E+00
  0.362430454383E+00
  0.362430451086E+00
  0.362430452814E+00
  0.362430451107E+00
  0.362430448847E+00
  0.362430452604E+00
  0.362430447774E+00
  0.362430450486E+00
  0.362430448165E+00
  0.362430444779E+00
  0.362430448458E+00
  0.362430438146E+00
  0.362430449878E+00
  0.362430428883E+00
  0.217657760598E-07
  0.197874958041E-08
  0.127725707259E-07
  0.338780460475E-08
  0.645465367222E-08
  0.366298793766E-08
  0.903104751476E-09
  0.406103651589E-08
 -0.537709347947E-09
  0.281310932221E-08
  0.105853992238E-08
 -0.132749515084E-08
  0.102949606512E-08
 -0.208060997003E-08
  0.108678695672E-08
 -0.149163644399E-09
  0.327932841376E-08
 -0.161892101136E-08
  0.698743877573E-08
  0.577988521242E-08
  0.262812555492E-07
  0.141905737954E-07
 -0.254491924851E+00
 -0.254491899496E+00