# vtk DataFile Version 3.0
MachLine results file. Generated by MachLine, USU AeroLab (c) 2022.
ASCII
DATASET POLYDATA
POINTS                 419 float
  0.100000000000E+01  0.000000000000E+00  0.000000000000E+00
  0.953837434700E+00  0.222222222220E+00 -0.403870114270E-02
  0.100000000000E+01  0.222222222220E+00  0.000000000000E+00
  0.953837434700E+00  0.000000000000E+00 -0.403870114270E-02
  0.863184801440E+00  0.222222222220E+00 -0.119697788720E-01
  0.863184801440E+00  0.000000000000E+00 -0.119697788720E-01
  0.708754398800E+00  0.222222222220E+00 -0.254806884070E-01
  0.708754398800E+00  0.000000000000E+00 -0.254806884070E-01
  0.500000000000E+00  0.222222222220E+00 -0.437443317630E-01
  0.500000000000E+00  0.000000000000E+00 -0.437443317630E-01
  0.291245601200E+00  0.000000000000E+00 -0.254806884070E-01
  0.291245601200E+00  0.222222222220E+00 -0.254806884070E-01
  0.136815198560E+00  0.000000000000E+00 -0.119697788720E-01
  0.136815198560E+00  0.222222222220E+00 -0.119697788720E-01
  0.461625652960E-01  0.000000000000E+00 -0.403870114270E-02
  0.461625652960E-01  0.222222222220E+00 -0.403870114270E-02
  0.000000000000E+00  0.000000000000E+00  0.000000000000E+00
  0.000000000000E+00  0.222222222220E+00  0.000000000000E+00
  0.461625652960E-01  0.222222222220E+00  0.403870114270E-02
  0.461625652960E-01  0.000000000000E+00  0.403870114270E-02
  0.136815198560E+00  0.222222222220E+00  0.119697788720E-01
  0.136815198560E+00  0.000000000000E+00  0.119697788720E-01
  0.291245601200E+00  0.222222222220E+00  0.254806884070E-01
  0.291245601200E+00  0.000000000000E+00  0.254806884070E-01
  0.500000000000E+00  0.222222222220E+00  0.437443317630E-01
  0.500000000000E+00  0.000000000000E+00  0.437443317630E-01
  0.708754398800E+00  0.000000000000E+00  0.254806884070E-01
  0.708754398800E+00  0.222222222220E+00  0.254806884070E-01
  0.863184801440E+00  0.000000000000E+00  0.119697788720E-01
  0.863184801440E+00  0.222222222220E+00  0.119697788720E-01
  0.953837434700E+00  0.000000000000E+00  0.403870114270E-02
  0.953837434700E+00  0.222222222220E+00  0.403870114270E-02
  0.953837434700E+00  0.444444444440E+00 -0.403870114270E-02
  0.100000000000E+01  0.444444444440E+00  0.000000000000E+00
  0.863184801440E+00  0.444444444440E+00 -0.119697788720E-01
  0.708754398800E+00  0.444444444440E+00 -0.254806884070E-01
  0.500000000000E+00  0.444444444440E+00 -0.437443317630E-01
  0.291245601200E+00  0.444444444440E+00 -0.254806884070E-01
  0.136815198560E+00  0.444444444440E+00 -0.119697788720E-01
  0.461625652960E-01  0.444444444440E+00 -0.403870114270E-02
  0.000000000000E+00  0.444444444440E+00  0.000000000000E+00
  0.461625652960E-01  0.444444444440E+00  0.403870114270E-02
  0.136815198560E+00  0.444444444440E+00  0.119697788720E-01
  0.291245601200E+00  0.444444444440E+00  0.254806884070E-01
  0.500000000000E+00  0.444444444440E+00  0.437443317630E-01
  0.708754398800E+00  0.444444444440E+00  0.254806884070E-01
  0.863184801440E+00  0.444444444440E+00  0.119697788720E-01
  0.953837434700E+00  0.444444444440E+00  0.403870114270E-02
  0.953837434700E+00  0.666666666670E+00 -0.403870114270E-02
  0.100000000000E+01  0.666666666670E+00  0.000000000000E+00
  0.863184801440E+00  0.666666666670E+00 -0.119697788720E-01
  0.708754398800E+00  0.666666666670E+00 -0.254806884070E-01
  0.500000000000E+00  0.666666666670E+00 -0.437443317630E-01
  0.291245601200E+00  0.666666666670E+00 -0.254806884070E-01
  0.136815198560E+00  0.666666666670E+00 -0.119697788720E-01
  0.461625652960E-01  0.666666666670E+00 -0.403870114270E-02
  0.000000000000E+00  0.666666666670E+00  0.000000000000E+00
  0.461625652960E-01  0.666666666670E+00  0.403870114270E-02
  0.136815198560E+00  0.666666666670E+00  0.119697788720E-01
  0.291245601200E+00  0.666666666670E+00  0.254806884070E-01
  0.500000000000E+00  0.666666666670E+00  0.437443317630E-01
  0.708754398800E+00  0.666666666670E+00  0.254806884070E-01
  0.863184801440E+00  0.666666666670E+00  0.119697788720E-01
  0.953837434700E+00  0.666666666670E+00  0.403870114270E-02
  0.953837434700E+00  0.888888888890E+00 -0.403870114270E-02
  0.100000000000E+01  0.888888888890E+00  0.000000000000E+00
  0.863184801440E+00  0.888888888890E+00 -0.119697788720E-01
  0.708754398800E+00  0.888888888890E+00 -0.254806884070E-01
  0.500000000000E+00  0.888888888890E+00 -0.437443317630E-01
  0.291245601200E+00  0.888888888890E+00 -0.254806884070E-01
  0.136815198560E+00  0.888888888890E+00 -0.119697788720E-01
  0.461625652960E-01  0.888888888890E+00 -0.403870114270E-02
  0.000000000000E+00  0.888888888890E+00  0.000000000000E+00
  0.461625652960E-01  0.888888888890E+00  0.403870114270E-02
  0.136815198560E+00  0.888888888890E+00  0.119697788720E-01
  0.291245601200E+00  0.888888888890E+00  0.254806884070E-01
  0.500000000000E+00  0.888888888890E+00  0.437443317630E-01
  0.708754398800E+00  0.888888888890E+00  0.254806884070E-01
  0.863184801440E+00  0.888888888890E+00  0.119697788720E-01
  0.953837434700E+00  0.888888888890E+00  0.403870114270E-02
  0.953837434700E+00  0.111111111110E+01 -0.403870114270E-02
  0.100000000000E+01  0.111111111110E+01  0.000000000000E+00
  0.863184801440E+00  0.111111111110E+01 -0.119697788720E-01
  0.708754398800E+00  0.111111111110E+01 -0.254806884070E-01
  0.500000000000E+00  0.111111111110E+01 -0.437443317630E-01
  0.291245601200E+00  0.111111111110E+01 -0.254806884070E-01
  0.136815198560E+00  0.111111111110E+01 -0.119697788720E-01
  0.461625652960E-01  0.111111111110E+01 -0.403870114270E-02
  0.000000000000E+00  0.111111111110E+01  0.000000000000E+00
  0.461625652960E-01  0.111111111110E+01  0.403870114270E-02
  0.136815198560E+00  0.111111111110E+01  0.119697788720E-01
  0.291245601200E+00  0.111111111110E+01  0.254806884070E-01
  0.500000000000E+00  0.111111111110E+01  0.437443317630E-01
  0.708754398800E+00  0.111111111110E+01  0.254806884070E-01
  0.863184801440E+00  0.111111111110E+01  0.119697788720E-01
  0.953837434700E+00  0.111111111110E+01  0.403870114270E-02
  0.953837434700E+00  0.133333333330E+01 -0.403870114270E-02
  0.100000000000E+01  0.133333333330E+01  0.000000000000E+00
  0.863184801440E+00  0.133333333330E+01 -0.119697788720E-01
  0.708754398800E+00  0.133333333330E+01 -0.254806884070E-01
  0.500000000000E+00  0.133333333330E+01 -0.437443317630E-01
  0.291245601200E+00  0.133333333330E+01 -0.254806884070E-01
  0.136815198560E+00  0.133333333330E+01 -0.119697788720E-01
  0.461625652960E-01  0.133333333330E+01 -0.403870114270E-02
  0.000000000000E+00  0.133333333330E+01  0.000000000000E+00
  0.461625652960E-01  0.133333333330E+01  0.403870114270E-02
  0.136815198560E+00  0.133333333330E+01  0.119697788720E-01
  0.291245601200E+00  0.133333333330E+01  0.254806884070E-01
  0.500000000000E+00  0.133333333330E+01  0.437443317630E-01
  0.708754398800E+00  0.133333333330E+01  0.254806884070E-01
  0.863184801440E+00  0.133333333330E+01  0.119697788720E-01
  0.953837434700E+00  0.133333333330E+01  0.403870114270E-02
  0.953837434700E+00  0.155555555560E+01 -0.403870114270E-02
  0.100000000000E+01  0.155555555560E+01  0.000000000000E+00
  0.863184801440E+00  0.155555555560E+01 -0.119697788720E-01
  0.708754398800E+00  0.155555555560E+01 -0.254806884070E-01
  0.500000000000E+00  0.155555555560E+01 -0.437443317630E-01
  0.291245601200E+00  0.155555555560E+01 -0.254806884070E-01
  0.136815198560E+00  0.155555555560E+01 -0.119697788720E-01
  0.461625652960E-01  0.155555555560E+01 -0.403870114270E-02
  0.000000000000E+00  0.155555555560E+01  0.000000000000E+00
  0.461625652960E-01  0.155555555560E+01  0.403870114270E-02
  0.136815198560E+00  0.155555555560E+01  0.119697788720E-01
  0.291245601200E+00  0.155555555560E+01  0.254806884070E-01
  0.500000000000E+00  0.155555555560E+01  0.437443317630E-01
  0.708754398800E+00  0.155555555560E+01  0.254806884070E-01
  0.863184801440E+00  0.155555555560E+01  0.119697788720E-01
  0.953837434700E+00  0.155555555560E+01  0.403870114270E-02
  0.953837434700E+00  0.177777777780E+01 -0.403870114270E-02
  0.100000000000E+01  0.177777777780E+01  0.000000000000E+00
  0.863184801440E+00  0.177777777780E+01 -0.119697788720E-01
  0.708754398800E+00  0.177777777780E+01 -0.254806884070E-01
  0.500000000000E+00  0.177777777780E+01 -0.437443317630E-01
  0.291245601200E+00  0.177777777780E+01 -0.254806884070E-01
  0.136815198560E+00  0.177777777780E+01 -0.119697788720E-01
  0.461625652960E-01  0.177777777780E+01 -0.403870114270E-02
  0.000000000000E+00  0.177777777780E+01  0.000000000000E+00
  0.461625652960E-01  0.177777777780E+01  0.403870114270E-02
  0.136815198560E+00  0.177777777780E+01  0.119697788720E-01
  0.291245601200E+00  0.177777777780E+01  0.254806884070E-01
  0.500000000000E+00  0.177777777780E+01  0.437443317630E-01
  0.708754398800E+00  0.177777777780E+01  0.254806884070E-01
  0.863184801440E+00  0.177777777780E+01  0.119697788720E-01
  0.953837434700E+00  0.177777777780E+01  0.403870114270E-02
  0.953837434700E+00  0.200000000000E+01 -0.403870114270E-02
  0.100000000000E+01  0.200000000000E+01  0.000000000000E+00
  0.863184801440E+00  0.200000000000E+01 -0.119697788720E-01
  0.708754398800E+00  0.200000000000E+01 -0.254806884070E-01
  0.500000000000E+00  0.200000000000E+01 -0.437443317630E-01
  0.291245601200E+00  0.200000000000E+01 -0.254806884070E-01
  0.136815198560E+00  0.200000000000E+01 -0.119697788720E-01
  0.461625652960E-01  0.200000000000E+01 -0.403870114270E-02
  0.000000000000E+00  0.200000000000E+01  0.000000000000E+00
  0.461625652960E-01  0.200000000000E+01  0.403870114270E-02
  0.136815198560E+00  0.200000000000E+01  0.119697788720E-01
  0.291245601200E+00  0.200000000000E+01  0.254806884070E-01
  0.500000000000E+00  0.200000000000E+01  0.437443317630E-01
  0.708754398800E+00  0.200000000000E+01  0.254806884070E-01
  0.863184801440E+00  0.200000000000E+01  0.119697788720E-01
  0.953837434700E+00  0.200000000000E+01  0.403870114270E-02
  0.953837434700E+00  0.200157141480E+01 -0.372111000410E-02
[...]
CELL_DATA                 800
SCALARS C_p_ise float 1
LOOKUP_TABLE default
 -0.162028973015E-02
 -0.109054861906E-02
 -0.250910525537E-03
 -0.139454756407E-03
 -0.100842302999E-03
 -0.565878125753E-04
 -0.345738442407E-04
 -0.199311663461E-04
  0.362421556760E+00
  0.362409533773E+00
  0.362429104170E+00
  0.362426842100E+00
  0.362430369633E+00
  0.362430176420E+00
  0.362430450468E+00
  0.362430444973E+00
  0.660316640872E-08
  0.145181644484E-08
  0.263396386747E-06
  0.787414676672E-07
  0.350622454640E-05
  0.130975850934E-05
  0.208639101789E-04
  0.887590305423E-05
 -0.254475681940E+00
 -0.254464334389E+00
 -0.254446189557E+00
 -0.254410234087E+00
 -0.254380081767E+00
 -0.254290354994E+00
 -0.253617383883E+00
 -0.253193325036E+00
 -0.418011800986E-02
 -0.162034176833E-02
 -0.785905202634E-03
 -0.250928166496E-03
 -0.321091832500E-03
 -0.100845793895E-03
 -0.112343578917E-03
 -0.345745109507E-04
  0.362409532627E+00
  0.362351698490E+00
  0.362426842077E+00
  0.362414774227E+00
  0.362430176420E+00
  0.362428889023E+00
  0.362430444973E+00
  0.362430394963E+00
  0.534859891121E-07
  0.660316640872E-08
  0.149358503103E-05
  0.263396320627E-06
  0.152164706984E-04
  0.350620570165E-05
  0.783929590639E-04
  0.208629207659E-04
 -0.254464334957E+00
 -0.254403202828E+00
 -0.254410236654E+00
 -0.254231907968E+00
 -0.254290367634E+00
 -0.253861758852E+00
 -0.253193361808E+00
 -0.251140894098E+00
 -0.125216149743E-01
 -0.418061422815E-02
 -0.254648421512E-02
 -0.786107573113E-03
 -0.109957965528E-02
 -0.321131186440E-03
 -0.401594181997E-03
 -0.112350910070E-03
  0.362351682469E+00
  0.362141053347E+00
  0.362414773798E+00
  0.362363447788E+00
  0.362428889020E+00
  0.362421656229E+00
  0.362430394963E+00
  0.362429989833E+00
  0.433286694989E-06
  0.534859875613E-07
  0.840264065269E-05
  0.149358291660E-05
  0.649584008063E-04
  0.152161171844E-04
  0.288322694757E-03
  0.783791063362E-04
 -0.254403209313E+00
 -0.254176755103E+00
 -0.254231936966E+00
 -0.253601035357E+00
 -0.253861904484E+00
 -0.252430935063E+00
 -0.251141255220E+00
 -0.244375350262E+00
 -0.332958578963E-01
 -0.125265563169E-01
 -0.807061976883E-02
 -0.254862897408E-02
 -0.357214483914E-02
 -0.110002844175E-02
 -0.136925888947E-02
 -0.401686294842E-03
  0.362140844266E+00
  0.361406016719E+00
  0.362363440034E+00
  0.362151265106E+00
  0.362421656146E+00
  0.362381549198E+00
  0.362429989832E+00
  0.362426707884E+00
  0.351012515280E-05
  0.433286591791E-06
  0.467126288861E-04
  0.840257399377E-05
  0.270428002848E-03
  0.649520305907E-04
  0.101027007473E-02
  0.288146523235E-03
 -0.254176834092E+00
 -0.253401168850E+00
 -0.253601375691E+00
 -0.251617004512E+00
 -0.252432476108E+00
 -0.248177268871E+00
 -0.244378747998E+00
 -0.227404007532E+00
 -0.716827611313E-01
 -0.333225315469E-01
 -0.176709499429E-01
 -0.809060206540E-02
 -0.108109548357E-01
 -0.357697229092E-02
 -0.450557501486E-02
 -0.137025446233E-02
  0.361403661876E+00
  0.359074213856E+00
  0.362151132151E+00
  0.361307000916E+00
  0.362381546633E+00
  0.362163214143E+00
  0.362426707875E+00
  0.362400117410E+00
  0.284331353860E-04
  0.351011840067E-05
  0.254765305930E-03
  0.467105864950E-04
  0.108437834511E-02
  0.270319811546E-03
  0.339786249326E-02
  0.100816223994E-02
 -0.253402105777E+00
 -0.251112857608E+00
 -0.251620347955E+00
 -0.245515898649E+00
 -0.248192365759E+00
 -0.236941341151E+00
 -0.227435649885E+00
 -0.192342143140E+00
 -0.174747329141E+00
 -0.722788894898E-01
 -0.707682425349E-01
 -0.178979647379E-01
 -0.366099719319E-01
 -0.108435380969E-01
 -0.117386164406E-01
 -0.451730328645E-02
  0.359047413747E+00
  0.351613209026E+00
  0.361304923064E+00
  0.358165793579E+00
  0.362163139058E+00
  0.361018048202E+00
  0.362400116837E+00
  0.362184931342E+00
  0.230555044042E-03
  0.284326913408E-04
  0.135629192995E-02
  0.254704536162E-03
  0.413520741712E-02
  0.108266507535E-02
  0.981273657566E-02
  0.337922129637E-02
 -0.251120455159E+00
 -0.243024296712E+00
 -0.245552840454E+00
 -0.243969566232E+00
 -0.236960357857E+00
 -0.243050604640E+00
 -0.192271969469E+00
 -0.152421855658E+00
 -0.320514093653E+00
 -0.176738448909E+00
 -0.133614128512E+00
 -0.724044523941E-01
 -0.885666199056E-01
 -0.373465190995E-01
 -0.594731045738E-01
 -0.117742950463E-01
  0.351481865368E+00
  0.339469471306E+00
  0.358135759208E+00
  0.347381591908E+00
  0.361015855438E+00
  0.355130880784E+00
  0.362184893074E+00
  0.360426021153E+00
  0.185450316130E-02
  0.230526405663E-03
  0.671491231928E-02
  0.135469317694E-02
  0.142711226464E-01
  0.411231857234E-02
  0.321870836256E-01
  0.958073796073E-02
 -0.243130153803E+00
 -0.254557777045E+00
 -0.243953757635E+00
 -0.245620196318E+00
 -0.243045880124E+00
 -0.221216705295E+00
 -0.152427807091E+00
 -0.170914340708E-01
 -0.451550032685E+00
 -0.322431373724E+00
 -0.147242740944E+00
 -0.138257945993E+00
 -0.155068600195E+00
 -0.912830570531E-01
 -0.113166454124E+00
 -0.608086310201E-01
  0.336125534194E+00
  0.257050268818E+00
  0.347097002169E+00
  0.318705507104E+00
  0.355090808566E+00
  0.332772693127E+00
  0.360423888089E+00
  0.347291220782E+00
  0.160917150043E-01
  0.185231935757E-02
  0.349718928848E-01
  0.666285950334E-02
  0.434468477347E-01
  0.139718790440E-01
  0.170887467770E-01
  0.321002930309E-01
 -0.254581639255E+00
 -0.253985871306E+00
 -0.245657890106E+00
 -0.194853191720E+00
 -0.221846998356E+00
 -0.967139065087E-01
 -0.200107291081E-01
  0.373396597233E+00
 -0.256611461278E+00
 -0.451914701371E+00
 -0.184643091527E+00
 -0.150318538629E+00
 -0.125194371151E+00
 -0.161041805179E+00
 -0.127867951289E+00
 -0.122380365562E+00
  0.236756140913E+00
  0.169946532809E+00
  0.306988074306E+00
  0.173448746191E+00
  0.329641001676E+00
  0.169407043315E+00
  0.346874972846E+00
  0.165296124635E+00
  0.606203041055E-01
  0.160707420355E-01
  0.530388480235E-01
  0.349051878132E-01
  0.395785314252E-01
  0.434520498790E-01
  0.268779348920E-01
  0.172611208013E-01
 -0.253994927391E+00
 -0.120940868440E+00
 -0.199873798069E+00
 -0.154671217182E-01
 -0.116828446899E+00
  0.431699738179E-01
  0.332290653752E+00
  0.158476145296E+00
 -0.367242199399E+00
 -0.314772791652E+00
 -0.251109138493E+00
 -0.208015488685E+00
 -0.163863865155E+00
 -0.160803212158E+00
 -0.172507191968E+00
  0.778462986101E-01
  0.844802887325E-01
  0.828433800188E-01
  0.904229910343E-01
  0.864684588862E-01
  0.916395510879E-01
  0.885772018641E-01
  0.602749600398E-01
  0.545042197640E-01
  0.530584364641E-01
  0.433240082212E-01
  0.389450412107E-01
  0.304523821428E-01
  0.242652455477E-01
 -0.120835884304E+00
 -0.187693605957E+00
 -0.118520290177E+00
 -0.256185439822E+00
 -0.224585779146E+00
 -0.401893559971E+00
 -0.362371730577E+00
 -0.470339672729E+00
 -0.442161903448E+00
 -0.324257396650E+00
 -0.296331669557E+00
 -0.204993887095E+00
 -0.205558817281E+00
 -0.168762422623E+00
  0.369932730360E-01
  0.464924466857E-01
  0.467824125774E-01
  0.567437835226E-01
  0.548495190658E-01
  0.612835450625E-01
  0.595114763357E-01
  0.562616396827E-01
  0.522447276147E-01
  0.480117020366E-01
  0.412592438524E-01
  0.324527610122E-01
  0.262958711227E-01
  0.163921329449E-01
 -0.117075711576E+00
 -0.218932350456E+00
 -0.179767305797E+00
 -0.354042618514E+00
 -0.341955208928E+00
 -0.527950487006E+00
 -0.512711254955E+00
 -0.542013572401E+00
 -0.530844107811E+00
 -0.383092631641E+00
 -0.369023826096E+00
 -0.233706197167E+00
 -0.243074989422E+00
 -0.158303605341E+00
  0.117806391272E-01
  0.219473280309E-01
  0.241844925473E-01
  0.345441881047E-01
  0.347244749767E-01
  0.412542242515E-01
  0.407633906547E-01
  0.459965007270E-01
  0.436146215277E-01
  0.373657325556E-01
  0.333444310221E-01
  0.215779433999E-01
  0.176101519006E-01
  0.504663249783E-02
 -0.125895339815E+00
 -0.240449154861E+00
 -0.223042680155E+00
 -0.403774693961E+00
 -0.404936953328E+00
 -0.575202015709E+00
 -0.570908153123E+00
 -0.577828310617E+00
 -0.576025492330E+00
 -0.417568904734E+00
 -0.415559604824E+00
 -0.245034397889E+00
 -0.267551277912E+00
 -0.141831388743E+00
 -0.337100046535E-03
  0.938671115137E-02
  0.137845067559E-01
  0.236740906724E-01
  0.261179664783E-01
  0.322413858514E-01
  0.331052650071E-01
  0.360576695894E-01
  0.351825718344E-01
  0.278119239280E-01
  0.262874265539E-01
  0.130413930630E-01
  0.112163831106E-01
 -0.296242634626E-02
 -0.141374196037E+00
 -0.249852677712E+00
 -0.248402492201E+00
 -0.417351300937E+00
 -0.429055310537E+00
 -0.585120924901E+00
 -0.586669476354E+00
 -0.162019925572E-02
 -0.109054861906E-02
 -0.250910525559E-03
 -0.139454756407E-03
 -0.100842303010E-03
 -0.565878125753E-04
 -0.345738442447E-04
 -0.199311663461E-04
  0.362421556760E+00
  0.362409533773E+00
  0.362429104170E+00
  0.362426842100E+00
  0.362430369633E+00
  0.362430176420E+00
  0.362430450468E+00
  0.362430444973E+00
  0.660316640872E-08
  0.145181644484E-08
  0.263396386747E-06
  0.787414676672E-07
  0.350622454795E-05
  0.130975850934E-05
  0.208639101809E-04
  0.887590305423E-05
 -0.254475681940E+00
 -0.254464334389E+00
 -0.254446189557E+00
 -0.254410234087E+00
 -0.254380081767E+00
 -0.254290354994E+00
 -0.253617383883E+00
 -0.253193398105E+00
 -0.418007759321E-02
 -0.162025129591E-02
 -0.785905202751E-03
 -0.250928166519E-03
 -0.321091832541E-03
 -0.100845793907E-03
 -0.112343578930E-03
 -0.345745109546E-04
  0.362409532627E+00
  0.362351698490E+00
  0.362426842077E+00
  0.362414774227E+00
  0.362430176420E+00
  0.362428889023E+00
  0.362430444973E+00
  0.362430394963E+00
  0.534859891121E-07
  0.660316640872E-08
  0.149358503103E-05
  0.263396320627E-06
  0.152164706998E-04
  0.350620570264E-05
  0.783929590747E-04
  0.208629207679E-04
 -0.254464334957E+00
 -0.254403202828E+00
 -0.254410236654E+00
 -0.254231907968E+00
 -0.254290367634E+00
 -0.253861758851E+00
 -0.253193434879E+00
 -0.251140926885E+00
 -0.125214185698E-01
 -0.418057380613E-02
 -0.254648421538E-02
 -0.786107573230E-03
 -0.109957965544E-02
 -0.321131186482E-03
 -0.401594182053E-03
 -0.112350910083E-03
  0.362351682469E+00
  0.362141053347E+00
  0.362414773798E+00
  0.362363447788E+00
  0.362428889020E+00
  0.362421656229E+00
  0.362430394963E+00
  0.362429989833E+00
  0.433286694425E-06
  0.534859875613E-07
  0.840264065311E-05
  0.149358291660E-05
  0.649584008147E-04
  0.152161171864E-04
  0.288322694797E-03
  0.783791063471E-04
 -0.254403209313E+00
 -0.254176755103E+00
 -0.254231936966E+00
 -0.253601035357E+00
 -0.253861904484E+00
 -0.252430935063E+00
 -0.251141288003E+00
 -0.244375511644E+00
 -0.332956273574E-01
 -0.125263599701E-01
 -0.807061977120E-02
 -0.254862897434E-02
 -0.357214483957E-02
 -0.110002844191E-02
 -0.136925888963E-02
 -0.401686294898E-03
  0.362140844266E+00
  0.361406016718E+00
  0.362363440034E+00
  0.362151265106E+00
  0.362421656146E+00
  0.362381549198E+00
  0.362429989832E+00
  0.362426707884E+00
  0.351012515280E-05
  0.433286591368E-06
  0.467126288887E-04
  0.840257399419E-05
  0.270428002880E-03
  0.649520305986E-04
  0.101027007485E-02
  0.288146523276E-03
 -0.254176834092E+00
 -0.253401168849E+00
 -0.253601375690E+00
 -0.251617004512E+00
 -0.252432476108E+00
 -0.248177268870E+00
 -0.244378909420E+00
 -0.227404203503E+00
 -0.716824900645E-01
 -0.333223010534E-01
 -0.176709499338E-01
 -0.809060206779E-02
 -0.108109548385E-01
 -0.357697229136E-02
 -0.450557501597E-02
 -0.137025446248E-02
  0.361403661876E+00
  0.359074213856E+00
  0.362151132151E+00
  0.361307000916E+00
  0.362381546633E+00
  0.362163214143E+00
  0.362426707875E+00
  0.362400117410E+00
  0.284331353856E-04
  0.351011840067E-05
  0.254765305946E-03
  0.467105864974E-04
  0.108437834524E-02
  0.270319811578E-03
  0.339786249397E-02
  0.100816224006E-02
 -0.253402105777E+00
 -0.251112857608E+00
 -0.251620347955E+00
 -0.245515898647E+00
 -0.248192365758E+00
 -0.236941341148E+00
 -0.227435845874E+00
 -0.192342388956E+00
 -0.174747227758E+00
 -0.722786187410E-01
 -0.707682431228E-01
 -0.178979647284E-01
 -0.366099718925E-01
 -0.108435380997E-01
 -0.117386164376E-01
 -0.451730328757E-02
  0.359047413746E+00
  0.351613209022E+00
  0.361304923064E+00
  0.358165793578E+00
  0.362163139058E+00
  0.361018048202E+00
  0.362400116837E+00
  0.362184931342E+00
  0.230555044036E-03
  0.284326913408E-04
  0.135629193005E-02
  0.254704536177E-03
  0.413520741783E-02
  0.108266507548E-02
  0.981273657466E-02
  0.337922129709E-02
 -0.251120455159E+00
 -0.243024296704E+00
 -0.245552840452E+00
 -0.243969566215E+00
 -0.236960357855E+00
 -0.243050605034E+00
 -0.192272215411E+00
 -0.152421962523E+00
 -0.320514126658E+00
 -0.176738346727E+00
 -0.133614128074E+00
 -0.724044529822E-01
 -0.885666198326E-01
 -0.373465190664E-01
 -0.594731047889E-01
 -0.117742950431E-01
  0.351481865365E+00
  0.339469471331E+00
  0.358135759208E+00
  0.347381591903E+00
  0.361015855437E+00
  0.355130880784E+00
  0.362184893074E+00
  0.360426021153E+00
  0.185450316126E-02
  0.230526405658E-03
  0.671491231985E-02
  0.135469317704E-02
  0.142711226465E-01
  0.411231857306E-02
  0.321870836595E-01
  0.958073795924E-02
 -0.243130153796E+00
 -0.254557777235E+00
 -0.243953757616E+00
 -0.245620196153E+00
 -0.243045880519E+00
 -0.221216704931E+00
 -0.152427913593E+00
 -0.170913913118E-01
 -0.451549931234E+00
 -0.322431404934E+00
 -0.147242741188E+00
 -0.138257945567E+00
 -0.155068600381E+00
 -0.912830569539E-01
 -0.113166453749E+00
 -0.608086312423E-01
  0.336125534200E+00
  0.257050268493E+00
  0.347097002165E+00
  0.318705507134E+00
  0.355090808566E+00
  0.332772693124E+00
  0.360423888089E+00
  0.347291220782E+00
  0.160917150040E-01
  0.185231935753E-02
  0.349718928886E-01
  0.666285950390E-02
  0.434468477809E-01
  0.139718790436E-01
  0.170887464633E-01
  0.321002930680E-01
 -0.254581639443E+00
 -0.253985871000E+00
 -0.245657889944E+00
 -0.194853191753E+00
 -0.221846997992E+00
 -0.967139065299E-01
 -0.200106855441E-01
  0.373396400263E+00
 -0.256611463613E+00
 -0.451914602450E+00
 -0.184643091117E+00
 -0.150318538872E+00
 -0.125194371020E+00
 -0.161041805417E+00
 -0.127867951640E+00
 -0.122380365185E+00
  0.236756140630E+00
  0.169946533192E+00
  0.306988074281E+00
  0.173448745561E+00
  0.329641001672E+00
  0.169407043287E+00
  0.346874972846E+00
  0.165296124636E+00
  0.606203041004E-01
  0.160707420352E-01
  0.530388480402E-01
  0.349051878169E-01
  0.395785308596E-01
  0.434520499282E-01
  0.268779353261E-01
  0.172611204849E-01
 -0.253994927085E+00
 -0.120940868495E+00
 -0.199873798088E+00
 -0.154671213079E-01
 -0.116828446950E+00
  0.431699732585E-01
  0.332290455975E+00
  0.158476136848E+00
 -0.367242197186E+00
 -0.314772788205E+00
 -0.251109141321E+00
 -0.208015495329E+00
 -0.163863855076E+00
 -0.160803198964E+00
 -0.172507192080E+00
  0.778462992656E-01
  0.844802985738E-01
  0.828433921151E-01
  0.904229926854E-01
  0.864684583515E-01
  0.916395508736E-01
  0.885772017443E-01
  0.602749600372E-01
  0.545042197810E-01
  0.530584364809E-01
  0.433240077107E-01
  0.389450406205E-01
  0.304523823625E-01
  0.242652460445E-01
 -0.120835884274E+00
 -0.187693605778E+00
 -0.118520289569E+00
 -0.256185440241E+00
 -0.224585780448E+00
 -0.401893560236E+00
 -0.362371730579E+00
 -0.470339672935E+00
 -0.442161903588E+00
 -0.324257388976E+00
 -0.296331663554E+00
 -0.204993890920E+00
 -0.205558817016E+00
 -0.168762420673E+00
  0.369932719847E-01
  0.464924559319E-01
  0.467824284918E-01
  0.567437887119E-01
  0.548495196100E-01
  0.612835452729E-01
  0.595114765771E-01
  0.562616396595E-01
  0.522447275920E-01
  0.480117020581E-01
  0.412592432930E-01
  0.324527606142E-01
  0.262958715590E-01
  0.163921332413E-01
 -0.117075711549E+00
 -0.218932350507E+00
 -0.179767305434E+00
 -0.354042613851E+00
 -0.341955204384E+00
 -0.527950487581E+00
 -0.512711255634E+00
 -0.542013573598E+00
 -0.530844109234E+00
 -0.383092629404E+00
 -0.369023823534E+00
 -0.233706212746E+00
 -0.243075004207E+00
 -0.158303603548E+00
  0.117806363650E-01
  0.219473268995E-01
  0.241844996947E-01
  0.345441935014E-01
  0.347244753687E-01
  0.412542239064E-01
  0.407633901972E-01
  0.459965004925E-01
  0.436146211711E-01
  0.373657326794E-01
  0.333444307455E-01
  0.215779425024E-01
  0.176101521266E-01
  0.504663170411E-02
 -0.125895340871E+00
 -0.240449155181E+00
 -0.223042680046E+00
 -0.403774693890E+00
 -0.404936953362E+00
 -0.575202015036E+00
 -0.570908152412E+00
 -0.577828309883E+00
 -0.576025491583E+00
 -0.417568906069E+00
 -0.415559606100E+00
 -0.245034396362E+00
 -0.267551276476E+00
 -0.141831390292E+00
 -0.337105116371E-03
  0.938669653924E-02
  0.137844971714E-01
  0.236740923493E-01
  0.261179661125E-01
  0.322413864615E-01
  0.331052657226E-01
  0.360576697309E-01
  0.351825718697E-01
  0.278119238937E-01
  0.262874286666E-01
  0.130413835395E-01
  0.112163709881E-01
 -0.296242409301E-02
 -0.141374194825E+00
 -0.249852677998E+00
 -0.248402492530E+00
 -0.417351299935E+00
 -0.429055309575E+00
 -0.585120924413E+00
 -0.586669475874E+00
SCALARS C_p_2nd float 1
LOOKUP_TABLE default
 -0.162029040940E-02
 -0.109054882301E-02
 -0.250910528717E-03
 -0.139454756952E-03
 -0.100842303248E-03
 -0.565878126138E-04
 -0.345738442536E-04
 -0.199311663479E-04
  0.392864158513E+00
  0.392850353828E+00
  0.392872824386E+00
  0.392870227087E+00
  0.392874277386E+00
  0.392874055539E+00
  0.392874370200E+00
  0.392874363891E+00
  0.660316628016E-08
  0.145181654084E-08
  0.263396386273E-06
  0.787414678539E-07
  0.350622454632E-05
  0.130975850915E-05
  0.208639101805E-04
  0.887590305461E-05
 -0.263463678871E+00
 -0.263451730146E+00
 -0.263432624050E+00
 -0.263394764210E+00
 -0.263363015019E+00
 -0.263268538327E+00
 -0.262560010960E+00
 -0.262113615233E+00
 -0.418013060353E-02
 -0.162034254265E-02
 -0.785905333837E-03
 -0.250928174658E-03
 -0.321091844937E-03
 -0.100845794541E-03
 -0.112343579678E-03
 -0.345745109894E-04
  0.392850352998E+00
  0.392783948983E+00
  0.392870227071E+00
  0.392856370854E+00
  0.392874055539E+00
  0.392872577354E+00
  0.392874363891E+00
  0.392874306470E+00
  0.534859889870E-07
  0.660316625626E-08
  0.149358503100E-05
  0.263396320347E-06
  0.152164706985E-04
  0.350620570155E-05
  0.783929591401E-04
  0.208629207906E-04
 -0.263451730964E+00
 -0.263387361548E+00
 -0.263394767910E+00
 -0.263207003075E+00
 -0.263268556544E+00
 -0.262817299111E+00
 -0.262113668121E+00
 -0.259953844281E+00
 -0.125219640381E-01
 -0.418062916874E-02
 -0.254648897261E-02
 -0.786107883454E-03
 -0.109958019000E-02
 -0.321131213100E-03
 -0.401594218951E-03
 -0.112350911758E-03
  0.392783937378E+00
  0.392542106280E+00
  0.392856370543E+00
  0.392797439056E+00
  0.392872577352E+00
  0.392864272703E+00
  0.392874306470E+00
  0.392873841300E+00
  0.433286694768E-06
  0.534859874189E-07
  0.840264065259E-05
  0.149358291631E-05
  0.649584008489E-04
  0.152161171912E-04
  0.288322698578E-03
  0.783791076337E-04
 -0.263387370897E+00
 -0.263148943553E+00
 -0.263207044863E+00
 -0.262542873120E+00
 -0.262817508830E+00
 -0.261311397277E+00
 -0.259954361678E+00
 -0.252843101685E+00
 -0.333026313503E-01
 -0.125269762008E-01
 -0.807077466378E-02
 -0.254863989967E-02
 -0.357216362338E-02
 -0.110002953257E-02
 -0.136926038825E-02
 -0.401686373439E-03
  0.392541954815E+00
  0.391698381478E+00
  0.392797433440E+00
  0.392553829806E+00
  0.392864272643E+00
  0.392818222514E+00
  0.392873841300E+00
  0.392870072981E+00
  0.351012515284E-05
  0.433286591854E-06
  0.467126289019E-04
  0.840257399444E-05
  0.270428005927E-03
  0.649520310986E-04
  0.101027024138E-02
  0.288146584161E-03
 -0.263149057367E+00
 -0.262332603745E+00
 -0.262543362978E+00
 -0.260455493282E+00
 -0.261313610525E+00
 -0.256839173492E+00
 -0.252847909410E+00
 -0.235059820961E+00
 -0.717528240042E-01
 -0.333303517279E-01
 -0.176728634218E-01
 -0.809094061787E-02
 -0.108114939372E-01
 -0.357701058233E-02
 -0.450562849913E-02
 -0.137025749810E-02
  0.391696674653E+00
  0.389023585696E+00
  0.392553733490E+00
  0.391584742220E+00
  0.392818220657E+00
  0.392567548004E+00
  0.392870072975E+00
  0.392839542111E+00
  0.284331353894E-04
  0.351011840059E-05