# vtk DataFile Version 3.0
MachLine results file. Generated by MachLine, USU AeroLab (c) 2022.
ASCII
DATASET POLYDATA
POINTS                3847 float
  0.100000000000E+01  0.000000000000E+00  0.000000000000E+00
  0.986936852140E+00  0.512820512820E-01 -0.114287734800E-02
  0.100000000000E+01  0.512820512820E-01  0.000000000000E+00
  0.986936852140E+00  0.000000000000E+00 -0.114287734800E-02
  0.969870673510E+00  0.512820512820E-01 -0.263597450740E-02
  0.969870673510E+00  0.000000000000E+00 -0.263597450740E-02
  0.947785033200E+00  0.512820512820E-01 -0.456821766120E-02
  0.947785033200E+00  0.000000000000E+00 -0.456821766120E-02
  0.919551441300E+00  0.512820512820E-01 -0.703833688330E-02
  0.919551441300E+00  0.000000000000E+00 -0.703833688330E-02
  0.884018106510E+00  0.512820512820E-01 -0.101471008550E-01
  0.884018106510E+00  0.000000000000E+00 -0.101471008550E-01
  0.840166851150E+00  0.512820512820E-01 -0.139835885800E-01
  0.840166851150E+00  0.000000000000E+00 -0.139835885800E-01
  0.787342649140E+00  0.512820512820E-01 -0.186051074160E-01
  0.787342649140E+00  0.000000000000E+00 -0.186051074160E-01
  0.725530751590E+00  0.512820512820E-01 -0.240129477220E-01
  0.725530751590E+00  0.000000000000E+00 -0.240129477220E-01
  0.655612654280E+00  0.512820512820E-01 -0.301299886120E-01
  0.655612654280E+00  0.000000000000E+00 -0.301299886120E-01
  0.579493951800E+00  0.512820512820E-01 -0.367895121620E-01
  0.579493951800E+00  0.000000000000E+00 -0.367895121620E-01
  0.500000000000E+00  0.512820512820E-01 -0.437443317630E-01
  0.500000000000E+00  0.000000000000E+00 -0.437443317630E-01
  0.420506048200E+00  0.000000000000E+00 -0.367895121620E-01
  0.420506048200E+00  0.512820512820E-01 -0.367895121620E-01
  0.344387345720E+00  0.000000000000E+00 -0.301299886120E-01
  0.344387345720E+00  0.512820512820E-01 -0.301299886120E-01
  0.274469248410E+00  0.000000000000E+00 -0.240129477220E-01
  0.274469248410E+00  0.512820512820E-01 -0.240129477220E-01
  0.212657350860E+00  0.000000000000E+00 -0.186051074160E-01
  0.212657350860E+00  0.512820512820E-01 -0.186051074160E-01
  0.159833148850E+00  0.000000000000E+00 -0.139835885800E-01
  0.159833148850E+00  0.512820512820E-01 -0.139835885800E-01
  0.115981893490E+00  0.000000000000E+00 -0.101471008550E-01
  0.115981893490E+00  0.512820512820E-01 -0.101471008550E-01
  0.804485587010E-01  0.000000000000E+00 -0.703833688330E-02
  0.804485587010E-01  0.512820512820E-01 -0.703833688330E-02
  0.522149667970E-01  0.000000000000E+00 -0.456821766120E-02
  0.522149667970E-01  0.512820512820E-01 -0.456821766120E-02
  0.301293264890E-01  0.000000000000E+00 -0.263597450740E-02
  0.301293264890E-01  0.512820512820E-01 -0.263597450740E-02
  0.130631478640E-01  0.000000000000E+00 -0.114287734800E-02
  0.130631478640E-01  0.512820512820E-01 -0.114287734800E-02
  0.000000000000E+00  0.000000000000E+00  0.000000000000E+00
  0.000000000000E+00  0.512820512820E-01  0.000000000000E+00
  0.130631478640E-01  0.512820512820E-01  0.114287734800E-02
  0.130631478640E-01  0.000000000000E+00  0.114287734800E-02
  0.301293264890E-01  0.512820512820E-01  0.263597450740E-02
  0.301293264890E-01  0.000000000000E+00  0.263597450740E-02
  0.522149667970E-01  0.512820512820E-01  0.456821766120E-02
  0.522149667970E-01  0.000000000000E+00  0.456821766120E-02
  0.804485587010E-01  0.512820512820E-01  0.703833688330E-02
  0.804485587010E-01  0.000000000000E+00  0.703833688330E-02
  0.115981893490E+00  0.512820512820E-01  0.101471008550E-01
  0.115981893490E+00  0.000000000000E+00  0.101471008550E-01
  0.159833148850E+00  0.512820512820E-01  0.139835885800E-01
  0.159833148850E+00  0.000000000000E+00  0.139835885800E-01
  0.212657350860E+00  0.512820512820E-01  0.186051074160E-01
  0.212657350860E+00  0.000000000000E+00  0.186051074160E-01
  0.274469248410E+00  0.512820512820E-01  0.240129477220E-01
  0.274469248410E+00  0.000000000000E+00  0.240129477220E-01
  0.344387345720E+00  0.512820512820E-01  0.301299886120E-01
  0.344387345720E+00  0.000000000000E+00  0.301299886120E-01
  0.420506048200E+00  0.512820512820E-01  0.367895121620E-01
  0.420506048200E+00  0.000000000000E+00  0.367895121620E-01
  0.500000000000E+00  0.512820512820E-01  0.437443317630E-01
  0.500000000000E+00  0.000000000000E+00  0.437443317630E-01
  0.579493951800E+00  0.000000000000E+00  0.367895121620E-01
  0.579493951800E+00  0.512820512820E-01  0.367895121620E-01
  0.655612654280E+00  0.000000000000E+00  0.301299886120E-01
  0.655612654280E+00  0.512820512820E-01  0.301299886120E-01
  0.725530751590E+00  0.000000000000E+00  0.240129477220E-01
  0.725530751590E+00  0.512820512820E-01  0.240129477220E-01
  0.787342649140E+00  0.000000000000E+00  0.186051074160E-01
  0.787342649140E+00  0.512820512820E-01  0.186051074160E-01
  0.840166851150E+00  0.000000000000E+00  0.139835885800E-01
  0.840166851150E+00  0.512820512820E-01  0.139835885800E-01
  0.884018106510E+00  0.000000000000E+00  0.101471008550E-01
  0.884018106510E+00  0.512820512820E-01  0.101471008550E-01
  0.919551441300E+00  0.000000000000E+00  0.703833688330E-02
  0.919551441300E+00  0.512820512820E-01  0.703833688330E-02
  0.947785033200E+00  0.000000000000E+00  0.456821766120E-02
  0.947785033200E+00  0.512820512820E-01  0.456821766120E-02
  0.969870673510E+00  0.000000000000E+00  0.263597450740E-02
  0.969870673510E+00  0.512820512820E-01  0.263597450740E-02
  0.986936852140E+00  0.000000000000E+00  0.114287734800E-02
  0.986936852140E+00  0.512820512820E-01  0.114287734800E-02
  0.986936852140E+00  0.102564102560E+00 -0.114287734800E-02
  0.100000000000E+01  0.102564102560E+00  0.000000000000E+00
  0.969870673510E+00  0.102564102560E+00 -0.263597450740E-02
  0.947785033200E+00  0.102564102560E+00 -0.456821766120E-02
  0.919551441300E+00  0.102564102560E+00 -0.703833688330E-02
  0.884018106510E+00  0.102564102560E+00 -0.101471008550E-01
  0.840166851150E+00  0.102564102560E+00 -0.139835885800E-01
  0.787342649140E+00  0.102564102560E+00 -0.186051074160E-01
  0.725530751590E+00  0.102564102560E+00 -0.240129477220E-01
  0.655612654280E+00  0.102564102560E+00 -0.301299886120E-01
  0.579493951800E+00  0.102564102560E+00 -0.367895121620E-01
  0.500000000000E+00  0.102564102560E+00 -0.437443317630E-01
  0.420506048200E+00  0.102564102560E+00 -0.367895121620E-01
  0.344387345720E+00  0.102564102560E+00 -0.301299886120E-01
  0.274469248410E+00  0.102564102560E+00 -0.240129477220E-01
  0.212657350860E+00  0.102564102560E+00 -0.186051074160E-01
  0.159833148850E+00  0.102564102560E+00 -0.139835885800E-01
  0.115981893490E+00  0.102564102560E+00 -0.101471008550E-01
  0.804485587010E-01  0.102564102560E+00 -0.703833688330E-02
  0.522149667970E-01  0.102564102560E+00 -0.456821766120E-02
  0.301293264890E-01  0.102564102560E+00 -0.263597450740E-02
  0.130631478640E-01  0.102564102560E+00 -0.114287734800E-02
  0.000000000000E+00  0.102564102560E+00  0.000000000000E+00
  0.130631478640E-01  0.102564102560E+00  0.114287734800E-02
  0.301293264890E-01  0.102564102560E+00  0.263597450740E-02
  0.522149667970E-01  0.102564102560E+00  0.456821766120E-02
  0.804485587010E-01  0.102564102560E+00  0.703833688330E-02
  0.115981893490E+00  0.102564102560E+00  0.101471008550E-01
  0.159833148850E+00  0.102564102560E+00  0.139835885800E-01
  0.212657350860E+00  0.102564102560E+00  0.186051074160E-01
  0.274469248410E+00  0.102564102560E+00  0.240129477220E-01
  0.344387345720E+00  0.102564102560E+00  0.301299886120E-01
  0.420506048200E+00  0.102564102560E+00  0.367895121620E-01
  0.500000000000E+00  0.102564102560E+00  0.437443317630E-01
  0.579493951800E+00  0.102564102560E+00  0.367895121620E-01
  0.655612654280E+00  0.102564102560E+00  0.301299886120E-01
  0.725530751590E+00  0.102564102560E+00  0.240129477220E-01
  0.787342649140E+00  0.102564102560E+00  0.186051074160E-01
  0.840166851150E+00  0.102564102560E+00  0.139835885800E-01
  0.884018106510E+00  0.102564102560E+00  0.101471008550E-01
  0.919551441300E+00  0.102564102560E+00  0.703833688330E-02
  0.947785033200E+00  0.102564102560E+00  0.456821766120E-02
  0.969870673510E+00  0.102564102560E+00  0.263597450740E-02
  0.986936852140E+00  0.102564102560E+00  0.114287734800E-02
  0.986936852140E+00  0.153846153850E+00 -0.114287734800E-02
  0.100000000000E+01  0.153846153850E+00  0.000000000000E+00
  0.969870673510E+00  0.153846153850E+00 -0.263597450740E-02
  0.947785033200E+00  0.153846153850E+00 -0.456821766120E-02
  0.919551441300E+00  0.153846153850E+00 -0.703833688330E-02
  0.884018106510E+00  0.153846153850E+00 -0.101471008550E-01
  0.840166851150E+00  0.153846153850E+00 -0.139835885800E-01
  0.787342649140E+00  0.153846153850E+00 -0.186051074160E-01
  0.725530751590E+00  0.153846153850E+00 -0.240129477220E-01
  0.655612654280E+00  0.153846153850E+00 -0.301299886120E-01
  0.579493951800E+00  0.153846153850E+00 -0.367895121620E-01
  0.500000000000E+00  0.153846153850E+00 -0.437443317630E-01
  0.420506048200E+00  0.153846153850E+00 -0.367895121620E-01
  0.344387345720E+00  0.153846153850E+00 -0.301299886120E-01
  0.274469248410E+00  0.153846153850E+00 -0.240129477220E-01
  0.212657350860E+00  0.153846153850E+00 -0.186051074160E-01
  0.159833148850E+00  0.153846153850E+00 -0.139835885800E-01
  0.115981893490E+00  0.153846153850E+00 -0.101471008550E-01
  0.804485587010E-01  0.153846153850E+00 -0.703833688330E-02
  0.522149667970E-01  0.153846153850E+00 -0.456821766120E-02
  0.301293264890E-01  0.153846153850E+00 -0.263597450740E-02
  0.130631478640E-01  0.153846153850E+00 -0.114287734800E-02
  0.000000000000E+00  0.153846153850E+00  0.000000000000E+00
  0.130631478640E-01  0.153846153850E+00  0.114287734800E-02
  0.301293264890E-01  0.153846153850E+00  0.263597450740E-02
  0.522149667970E-01  0.153846153850E+00  0.456821766120E-02
  0.804485587010E-01  0.153846153850E+00  0.703833688330E-02
  0.115981893490E+00  0.153846153850E+00  0.101471008550E-01
  0.159833148850E+00  0.153846153850E+00  0.139835885800E-01
[...]
CELL_DATA                7536
SCALARS C_p_ise float 1
LOOKUP_TABLE default
 -0.600095674071E-01
 -0.600105302344E-01
 -0.600113359236E-01
 -0.600113385454E-01
 -0.600113369875E-01
 -0.600113387870E-01
 -0.600113392613E-01
 -0.600113384197E-01
 -0.600113399207E-01
 -0.600113370154E-01
 -0.600113302767E-01
 -0.600113379060E-01
 -0.600113377680E-01
 -0.600113254425E-01
 -0.600113065782E-01
 -0.600113327883E-01
 -0.600113628584E-01
 -0.600113378221E-01
 -0.600113291684E-01
 -0.600113433245E-01
 -0.600113384491E-01
 -0.600113333297E-01
  0.284853301890E+00
  0.284853299096E+00
  0.284853302316E+00
  0.284853303326E+00
  0.284853303618E+00
  0.284853303783E+00
  0.284853303369E+00
  0.284853303727E+00
  0.284853303248E+00
  0.284853303248E+00
  0.284853303215E+00
  0.284853303215E+00
  0.284853303259E+00
  0.284853303259E+00
  0.284853303225E+00
  0.284853303225E+00
  0.284853303248E+00
  0.284853303248E+00
  0.284853303235E+00
  0.284853303235E+00
  0.284853303224E+00
  0.284853303224E+00
  0.648667251176E-01
  0.648667251176E-01
  0.648667251273E-01
  0.648667251273E-01
  0.648667251388E-01
  0.648667251388E-01
  0.648667251189E-01
  0.648667251189E-01
  0.648667251479E-01
  0.648667251479E-01
  0.648667251102E-01
  0.648667251102E-01
  0.648667251385E-01
  0.648667251384E-01
  0.648667231519E-01
  0.648667244555E-01
  0.648667259937E-01
  0.648667267282E-01
  0.648667237588E-01
  0.648667262480E-01
  0.648667239840E-01
  0.648667217380E-01
 -0.212190105364E+00
 -0.212190105436E+00
 -0.212190113826E+00
 -0.212190107555E+00
 -0.212190097013E+00
 -0.212190113652E+00
 -0.212190130695E+00
 -0.212190107006E+00
 -0.212190108206E+00
 -0.212190118269E+00
 -0.212190109229E+00
 -0.212190112896E+00
 -0.212190107557E+00
 -0.212190108759E+00
 -0.212190110164E+00
 -0.212190106844E+00
 -0.212190108145E+00
 -0.212190109552E+00
 -0.212190108306E+00
 -0.212190109817E+00
 -0.212190816742E+00
 -0.212191659969E+00
 -0.600102973165E-01
 -0.600095674071E-01
 -0.600113392294E-01
 -0.600113359236E-01
 -0.600113372114E-01
 -0.600113369875E-01
 -0.600113326209E-01
 -0.600113392613E-01
 -0.600113356870E-01
 -0.600113399207E-01
 -0.600113351587E-01
 -0.600113302767E-01
 -0.600113416538E-01
 -0.600113377680E-01
 -0.600113282866E-01
 -0.600113065782E-01
 -0.600113411769E-01
 -0.600113628584E-01
 -0.600113286770E-01
 -0.600113291684E-01
 -0.600113458999E-01
 -0.600113384491E-01
  0.284853299096E+00
  0.284853300491E+00
  0.284853303326E+00
  0.284853304710E+00
  0.284853303783E+00
  0.284853310461E+00
  0.284853303727E+00
  0.284853304015E+00
  0.284853303248E+00
  0.284853303248E+00
  0.284853303215E+00
  0.284853303215E+00
  0.284853303259E+00
  0.284853303259E+00
  0.284853303225E+00
  0.284853303225E+00
  0.284853303248E+00
  0.284853303248E+00
  0.284853303235E+00
  0.284853303235E+00
  0.284853303224E+00
  0.284853303224E+00
  0.648667251176E-01
  0.648667251176E-01
  0.648667251273E-01
  0.648667251273E-01
  0.648667251388E-01
  0.648667251388E-01
  0.648667251189E-01
  0.648667251189E-01
  0.648667251479E-01
  0.648667251479E-01
  0.648667251102E-01
  0.648667251102E-01
  0.648667251384E-01
  0.648667251384E-01
  0.648667249452E-01
  0.648667231519E-01
  0.648667227677E-01
  0.648667259937E-01
  0.648667238901E-01
  0.648667237588E-01
  0.648667243474E-01
  0.648667239840E-01
 -0.212190105436E+00
 -0.212190105962E+00
 -0.212190107555E+00
 -0.212190109247E+00
 -0.212190113652E+00
 -0.212190108842E+00
 -0.212190107006E+00
 -0.212190115194E+00
 -0.212190118269E+00
 -0.212190114077E+00
 -0.212190112896E+00
 -0.212190104912E+00
 -0.212190108759E+00
 -0.212190112925E+00
 -0.212190106844E+00
 -0.212190110760E+00
 -0.212190109552E+00
 -0.212190107916E+00
 -0.212190109817E+00
 -0.212190107399E+00
 -0.212191659969E+00
 -0.212191021271E+00
 -0.600112869627E-01
 -0.600102973165E-01
 -0.600113358623E-01
 -0.600113392294E-01
 -0.600113360070E-01
 -0.600113372114E-01
 -0.600113348550E-01
 -0.600113326209E-01
 -0.600113379282E-01
 -0.600113356870E-01
 -0.600113332392E-01
 -0.600113351587E-01
 -0.600113474306E-01
 -0.600113416538E-01
 -0.600113118047E-01
 -0.600113282866E-01
 -0.600113516423E-01
 -0.600113411769E-01
 -0.600113305176E-01
 -0.600113286770E-01
 -0.600113385341E-01
 -0.600113458999E-01
  0.284853300491E+00
  0.284853293035E+00
  0.284853304710E+00
  0.284853311254E+00
  0.284853310461E+00
  0.284853296829E+00
  0.284853304015E+00
  0.284853312273E+00
  0.284853303248E+00
  0.284853303248E+00
  0.284853303215E+00
  0.284853303215E+00
  0.284853303259E+00
  0.284853303259E+00
  0.284853303225E+00
  0.284853303225E+00
  0.284853303248E+00
  0.284853303248E+00
  0.284853303235E+00
  0.284853303235E+00
  0.284853303224E+00
  0.284853303224E+00
  0.648667251176E-01
  0.648667251176E-01
  0.648667251273E-01
  0.648667251273E-01
  0.648667251388E-01
  0.648667251388E-01
  0.648667251189E-01
  0.648667251189E-01
  0.648667251479E-01
  0.648667251479E-01
  0.648667251102E-01
  0.648667251102E-01
  0.648667251385E-01
  0.648667251384E-01
  0.648667218549E-01
  0.648667249452E-01
  0.648667267382E-01
  0.648667227677E-01
  0.648667216218E-01
  0.648667238901E-01
  0.648667245588E-01
  0.648667243474E-01
 -0.212190105962E+00
 -0.212190106530E+00
 -0.212190109247E+00
 -0.212190107075E+00
 -0.212190108842E+00
 -0.212190115318E+00
 -0.212190115194E+00
 -0.212190111921E+00
 -0.212190114077E+00
 -0.212190107904E+00
 -0.212190104912E+00
 -0.212190107838E+00
 -0.212190112925E+00
 -0.212190111246E+00
 -0.212190110760E+00
 -0.212190109999E+00
 -0.212190107916E+00
 -0.212190110803E+00
 -0.212190107399E+00
 -0.212190110220E+00
 -0.212191021271E+00
 -0.212190153940E+00
 -0.600115017450E-01
 -0.600112869627E-01
 -0.600113370240E-01
 -0.600113358623E-01
 -0.600113385275E-01
 -0.600113360070E-01
 -0.600113369916E-01
 -0.600113348550E-01
 -0.600113405032E-01
 -0.600113379282E-01
 -0.600113356787E-01
 -0.600113332392E-01
 -0.600113439246E-01
 -0.600113474306E-01
 -0.600113313483E-01
 -0.600113118047E-01
 -0.600113376529E-01
 -0.600113516423E-01
 -0.600113268289E-01
 -0.600113305176E-01
 -0.600113454180E-01
 -0.600113385341E-01
  0.284853293035E+00
  0.284853306611E+00
  0.284853311254E+00
  0.284853299009E+00
  0.284853296829E+00
  0.284853310748E+00
  0.284853312273E+00
  0.284853303850E+00
  0.284853303248E+00
  0.284853303248E+00
  0.284853303215E+00
  0.284853303215E+00
  0.284853303259E+00
  0.284853303259E+00
  0.284853303225E+00
  0.284853303225E+00
  0.284853303248E+00
  0.284853303248E+00
  0.284853303235E+00
  0.284853303235E+00
  0.284853303224E+00
  0.284853303224E+00
  0.648667251176E-01
  0.648667251176E-01
  0.648667251273E-01
  0.648667251273E-01
  0.648667251388E-01
  0.648667251388E-01
  0.648667251189E-01
  0.648667251189E-01
  0.648667251479E-01
  0.648667251479E-01
  0.648667251102E-01
  0.648667251102E-01
  0.648667251385E-01
  0.648667251384E-01
  0.648667232128E-01
  0.648667218549E-01
  0.648667204216E-01
  0.648667267382E-01
  0.648667291313E-01
  0.648667216218E-01
  0.648667224144E-01
  0.648667245588E-01
 -0.212190106530E+00
 -0.212190108326E+00
 -0.212190107075E+00
 -0.212190105793E+00
 -0.212190115318E+00
 -0.212190116200E+00
 -0.212190111921E+00
 -0.212190107533E+00
 -0.212190107904E+00
 -0.212190116292E+00
 -0.212190107838E+00
 -0.212190103493E+00
 -0.212190111246E+00
 -0.212190109979E+00
 -0.212190109999E+00
 -0.212190108523E+00
 -0.212190110803E+00
 -0.212190110705E+00
 -0.212190110220E+00
 -0.212190110226E+00
 -0.212190153940E+00
 -0.212189964534E+00
 -0.600093950731E-01
 -0.600115017450E-01
 -0.600113377213E-01
 -0.600113370240E-01
 -0.600113381887E-01
 -0.600113385275E-01
 -0.600113388771E-01
 -0.600113369916E-01
 -0.600113426911E-01
 -0.600113405032E-01
 -0.600113331894E-01
 -0.600113356787E-01
 -0.600113479136E-01
 -0.600113439246E-01
 -0.600113054738E-01
 -0.600113313483E-01
 -0.600113610136E-01
 -0.600113376529E-01
 -0.600113291884E-01
 -0.600113268289E-01
 -0.600113407796E-01
 -0.600113454180E-01
  0.284853306611E+00
  0.284853307393E+00
  0.284853299009E+00
  0.284853299648E+00
  0.284853310748E+00
  0.284853310313E+00
  0.284853303850E+00
  0.284853303572E+00
  0.284853303248E+00
  0.284853303248E+00
  0.284853303215E+00
  0.284853303215E+00
  0.284853303259E+00
  0.284853303259E+00
  0.284853303225E+00
  0.284853303225E+00
  0.284853303248E+00
  0.284853303248E+00
  0.284853303235E+00
  0.284853303235E+00
  0.284853303224E+00
  0.284853303224E+00
  0.648667251176E-01
  0.648667251176E-01
  0.648667251273E-01
  0.648667251273E-01
  0.648667251388E-01
  0.648667251388E-01
  0.648667251189E-01
  0.648667251189E-01
  0.648667251479E-01
  0.648667251479E-01
  0.648667251102E-01
  0.648667251102E-01
  0.648667251384E-01
  0.648667251384E-01
  0.648667258591E-01
  0.648667232128E-01
  0.648667229058E-01
  0.648667204216E-01
  0.648667211536E-01
  0.648667291313E-01
  0.648667300065E-01
  0.648667224144E-01
 -0.212190108326E+00
 -0.212190115718E+00
 -0.212190105793E+00
 -0.212190103602E+00
 -0.212190116200E+00
 -0.212190114993E+00
 -0.212190107533E+00
 -0.212190108542E+00
 -0.212190116292E+00
 -0.212190112701E+00
 -0.212190103493E+00
 -0.212190106079E+00
 -0.212190109979E+00
 -0.212190111002E+00
 -0.212190108523E+00
 -0.212190106698E+00
 -0.212190110705E+00
 -0.212190107068E+00
 -0.212190110226E+00
 -0.212190108025E+00
 -0.212189964534E+00
 -0.212191812639E+00
 -0.600068266669E-01
 -0.600093950730E-01
 -0.600113360806E-01
 -0.600113377213E-01
 -0.600113374131E-01
 -0.600113381887E-01
 -0.600113381018E-01
 -0.600113388771E-01
 -0.600113414711E-01
 -0.600113426911E-01
 -0.600113340080E-01
 -0.600113331894E-01
 -0.600113454594E-01
 -0.600113479136E-01
 -0.600113205908E-01
 -0.600113054738E-01
 -0.600113495549E-01
 -0.600113610136E-01
 -0.600113273669E-01
 -0.600113291884E-01
 -0.600113442477E-01
 -0.600113407796E-01
  0.284853307393E+00
  0.284853317922E+00
  0.284853299648E+00
  0.284853290950E+00
  0.284853310313E+00
  0.284853310092E+00
  0.284853303572E+00
  0.284853304047E+00
  0.284853303248E+00
  0.284853303248E+00
  0.284853303215E+00
  0.284853303215E+00
  0.284853303259E+00
  0.284853303259E+00
  0.284853303225E+00
  0.284853303225E+00
  0.284853303248E+00
  0.284853303248E+00
  0.284853303235E+00
  0.284853303235E+00
  0.284853303224E+00
  0.284853303224E+00
  0.648667251176E-01
  0.648667251176E-01
  0.648667251273E-01
  0.648667251273E-01
  0.648667251388E-01
  0.648667251388E-01
  0.648667251189E-01
  0.648667251189E-01
  0.648667251479E-01
  0.648667251479E-01
  0.648667251102E-01
  0.648667251102E-01
  0.648667251384E-01
  0.648667251384E-01
  0.648667231520E-01
  0.648667258591E-01
  0.648667263154E-01
  0.648667229058E-01
  0.648667187670E-01
  0.648667211536E-01
  0.648667298564E-01
  0.648667300065E-01
 -0.212190115718E+00
 -0.212190114436E+00
 -0.212190103602E+00
 -0.212190100374E+00
 -0.212190114993E+00
 -0.212190118868E+00
 -0.212190108542E+00
 -0.212190106507E+00
 -0.212190112701E+00
 -0.212190116975E+00
 -0.212190106079E+00
 -0.212190104340E+00
 -0.212190111002E+00
 -0.212190107992E+00
 -0.212190106698E+00
 -0.212190107637E+00
 -0.212190107068E+00
 -0.212190111234E+00
 -0.212190108025E+00
 -0.212190110070E+00
 -0.212191812639E+00
 -0.212194064131E+00
 -0.600046371029E-01
 -0.600068266668E-01
 -0.600113393885E-01
 -0.600113360806E-01
 -0.600113391939E-01
 -0.600113374130E-01
 -0.600113342192E-01
 -0.600113381018E-01
 -0.600113382355E-01
 -0.600113414711E-01
 -0.600113319183E-01
 -0.600113340080E-01
 -0.600113491923E-01
 -0.600113454594E-01
 -0.600113113380E-01
 -0.600113205908E-01
 -0.600113558499E-01
 -0.600113495549E-01
 -0.600113168640E-01
 -0.600113273669E-01
 -0.600113540524E-01
 -0.600113442477E-01
  0.284853317922E+00
  0.284853304596E+00
  0.284853290950E+00
  0.284853302468E+00
  0.284853310092E+00
  0.284853311148E+00
  0.284853304047E+00
  0.284853303853E+00
  0.284853303248E+00
  0.284853303248E+00
  0.284853303215E+00
  0.284853303215E+00
  0.284853303259E+00
  0.284853303259E+00
  0.284853303225E+00
  0.284853303225E+00
  0.284853303248E+00
  0.284853303248E+00
  0.284853303235E+00
  0.284853303235E+00
  0.284853303224E+00
  0.284853303224E+00
  0.648667251176E-01
  0.648667251176E-01
  0.648667251273E-01
  0.648667251273E-01
  0.648667251388E-01
  0.648667251388E-01
  0.648667251189E-01
  0.648667251189E-01
  0.648667251479E-01
  0.648667251479E-01
  0.648667251102E-01
  0.648667251102E-01
  0.648667251384E-01
  0.648667251384E-01
  0.648667231456E-01
  0.648667231520E-01
  0.648667267154E-01
  0.648667263154E-01
  0.648667195301E-01
  0.648667187670E-01
  0.648667293055E-01
  0.648667298564E-01
 -0.212190114436E+00
 -0.212190112017E+00
 -0.212190100374E+00
 -0.212190107825E+00
 -0.212190118868E+00
 -0.212190110954E+00
 -0.212190106507E+00
 -0.212190112046E+00
 -0.212190116975E+00
 -0.212190114342E+00
 -0.212190104340E+00
 -0.212190103116E+00
 -0.212190107992E+00
 -0.212190112054E+00
 -0.212190107637E+00
 -0.212190109280E+00
 -0.212190111234E+00
 -0.212190108630E+00
 -0.212190110070E+00
 -0.212190108053E+00
 -0.212194064131E+00
 -0.212195984794E+00
 -0.600075182586E-01
 -0.600046371029E-01
 -0.600113376996E-01
 -0.600113393885E-01
 -0.600113381736E-01
 -0.600113391939E-01
 -0.600113353172E-01
 -0.600113342192E-01
 -0.600113413834E-01
 -0.600113382355E-01
 -0.600113258326E-01
 -0.600113319183E-01
 -0.600113531516E-01
 -0.600113491923E-01
 -0.600113062724E-01
 -0.600113113380E-01
 -0.600113607085E-01
 -0.600113558499E-01
 -0.600113291204E-01
 -0.600113168640E-01
 -0.600113341832E-01
 -0.600113540524E-01
  0.284853304596E+00
  0.284853307874E+00
  0.284853302468E+00
  0.284853290467E+00
  0.284853311148E+00
  0.284853311001E+00
  0.284853303853E+00
  0.284853303970E+00
  0.284853303248E+00
  0.284853303248E+00
  0.284853303215E+00
  0.284853303215E+00
  0.284853303259E+00
  0.284853303259E+00
  0.284853303225E+00
  0.284853303225E+00
  0.284853303248E+00
  0.284853303248E+00
  0.284853303235E+00
  0.284853303235E+00
  0.284853303224E+00
  0.284853303224E+00
  0.648667251176E-01
  0.648667251176E-01
  0.648667251273E-01
  0.648667251273E-01
  0.648667251388E-01
  0.648667251388E-01
  0.648667251189E-01
  0.648667251189E-01
  0.648667251479E-01
  0.648667251479E-01
  0.648667251102E-01
  0.648667251102E-01
  0.648667251385E-01
  0.648667251384E-01
  0.648667231255E-01
  0.648667231456E-01
  0.648667249938E-01
  0.648667267154E-01
  0.648667215244E-01
  0.648667195301E-01
  0.648667305720E-01
  0.648667293055E-01
 -0.212190112017E+00
 -0.212190113811E+00
 -0.212190107825E+00
 -0.212190102183E+00
 -0.212190110954E+00
 -0.212190122145E+00
 -0.212190112046E+00
 -0.212190099415E+00
 -0.212190114342E+00
 -0.212190118726E+00
 -0.212190103116E+00
 -0.212190107572E+00
 -0.212190112054E+00
 -0.212190113419E+00
 -0.212190109280E+00
 -0.212190107125E+00
 -0.212190108630E+00
 -0.212190107709E+00
 -0.212190108053E+00
 -0.212190107929E+00
 -0.212195984794E+00
 -0.212193457941E+00
 -0.600090144531E-01
 -0.600075182584E-01
 -0.600113354823E-01
 -0.600113376996E-01
 -0.600113374826E-01
 -0.600113381736E-01
 -0.600113366064E-01
 -0.600113353172E-01
 -0.600113432222E-01
 -0.600113413834E-01
 -0.600113276197E-01
 -0.600113258326E-01
 -0.600113504789E-01
 -0.600113531516E-01
 -0.600113035156E-01
 -0.600113062724E-01
 -0.600113647845E-01
 -0.600113607085E-01
 -0.600113150264E-01
 -0.600113291204E-01
 -0.600113525971E-01
 -0.600113341832E-01
  0.284853307874E+00
  0.284853314728E+00
  0.284853290467E+00
  0.284853290617E+00
  0.284853311001E+00
  0.284853310905E+00
  0.284853303970E+00
  0.284853304047E+00
  0.284853303248E+00
  0.284853303248E+00
  0.284853303215E+00
  0.284853303215E+00
  0.284853303259E+00
  0.284853303259E+00
  0.284853303225E+00
  0.284853303225E+00
  0.284853303248E+00
  0.284853303248E+00
  0.284853303235E+00
  0.284853303235E+00
  0.284853303224E+00
  0.284853303224E+00
  0.648667251176E-01
  0.648667251176E-01
  0.648667251273E-01
  0.648667251273E-01
  0.648667251388E-01
  0.648667251388E-01
  0.648667251189E-01
  0.648667251189E-01
  0.648667251479E-01
  0.648667251479E-01
  0.648667251102E-01
  0.648667251102E-01
  0.648667251385E-01
  0.648667251385E-01
  0.648667231521E-01
  0.648667231255E-01
  0.648667268703E-01
  0.648667249938E-01
  0.648667202783E-01
  0.648667215244E-01
  0.648667300576E-01
  0.648667305720E-01
 -0.212190113811E+00
 -0.212190113106E+00
 -0.212190102183E+00
 -0.212190101829E+00
 -0.212190122145E+00
 -0.212190122606E+00
 -0.212190099415E+00
 -0.212190096500E+00
 -0.212190118726E+00
 -0.212190127443E+00
 -0.212190107572E+00
 -0.212190101569E+00
 -0.212190113419E+00
 -0.212190112134E+00
 -0.212190107125E+00
 -0.212190108052E+00
 -0.212190107709E+00
 -0.212190111207E+00
 -0.212190107929E+00
 -0.212190109542E+00
 -0.212193457941E+00
 -0.212192144655E+00
 -0.600100364769E-01
 -0.600090144531E-01
 -0.600113406790E-01
 -0.600113354823E-01
 -0.600113385800E-01
 -0.600113374826E-01
 -0.600113351747E-01
 -0.600113366064E-01
 -0.600113395197E-01
 -0.600113432222E-01
 -0.600113299007E-01
 -0.600113276197E-01
 -0.600113510411E-01
 -0.600113504789E-01
 -0.600113039353E-01
 -0.600113035156E-01
 -0.600113612538E-01
 -0.600113647845E-01
 -0.600113192304E-01
 -0.600113150264E-01
 -0.600113450962E-01
 -0.600113525971E-01
  0.284853314728E+00
  0.284853307805E+00
  0.284853290617E+00
  0.284853296703E+00
  0.284853310905E+00
  0.284853304461E+00
  0.284853304047E+00
  0.284853303851E+00
  0.284853303248E+00
  0.284853303248E+00
  0.284853303215E+00
  0.284853303215E+00
  0.284853303259E+00
  0.284853303259E+00
  0.284853303225E+00
  0.284853303225E+00
  0.284853303248E+00
  0.284853303248E+00
  0.284853303235E+00
  0.284853303235E+00
  0.284853303224E+00
  0.284853303224E+00
  0.648667251176E-01
  0.648667251176E-01
  0.648667251273E-01
  0.648667251273E-01
  0.648667251388E-01
  0.648667251388E-01
  0.648667251189E-01
  0.648667251189E-01
  0.648667251479E-01
  0.648667251479E-01
  0.648667251102E-01
  0.648667251102E-01
  0.648667251384E-01
  0.648667251385E-01
  0.648667231455E-01
  0.648667231521E-01
  0.648667249310E-01
  0.648667268703E-01
  0.648667222703E-01
  0.648667202783E-01
  0.648667262707E-01
  0.648667300576E-01
 -0.212190113106E+00
 -0.212190109429E+00
 -0.212190101829E+00
 -0.212190101311E+00
 -0.212190122606E+00
 -0.212190122056E+00
 -0.212190096500E+00
 -0.212190108689E+00
 -0.212190127443E+00
 -0.212190115102E+00
 -0.212190101569E+00
 -0.212190101910E+00
 -0.212190112134E+00
 -0.212190112193E+00
 -0.212190108052E+00
 -0.212190109678E+00
 -0.212190111207E+00
 -0.212190110545E+00
 -0.212190109542E+00
 -0.212190107786E+00
 -0.212192144655E+00
 -0.212191247670E+00
 -0.600097885106E-01
 -0.600100364769E-01
 -0.600113544603E-01
 -0.600113406790E-01
 -0.600113460557E-01
 -0.600113385800E-01
 -0.600113361910E-01
 -0.600113351747E-01
 -0.600113383601E-01
 -0.600113395197E-01
 -0.600113300705E-01
 -0.600113299007E-01
 -0.600113511193E-01
 -0.600113510411E-01
 -0.600113268048E-01
 -0.600113039353E-01
 -0.600113375229E-01
 -0.600113612538E-01
 -0.600113228125E-01
 -0.600113192304E-01
 -0.600113508760E-01
 -0.600113450962E-01
  0.284853307805E+00
  0.284853301703E+00
  0.284853296703E+00
  0.284853303988E+00
  0.284853304461E+00
  0.284853310809E+00
  0.284853303851E+00
  0.284853304046E+00
  0.284853303248E+00
  0.284853303248E+00
  0.284853303215E+00
  0.284853303215E+00
  0.284853303259E+00
  0.284853303259E+00
  0.284853303225E+00
  0.284853303225E+00
  0.284853303248E+00
  0.284853303248E+00
  0.284853303235E+00
  0.284853303235E+00
  0.284853303224E+00
  0.284853303224E+00
  0.648667251176E-01
  0.648667251176E-01
  0.648667251273E-01
  0.648667251273E-01
  0.648667251388E-01
  0.648667251388E-01
  0.648667251189E-01
  0.648667251189E-01
  0.648667251479E-01
  0.648667251479E-01
  0.648667251102E-01
  0.648667251102E-01
  0.648667251384E-01
  0.648667251384E-01
  0.648667231441E-01
  0.648667231455E-01
  0.648667257286E-01
  0.648667249310E-01
  0.648667217776E-01
  0.648667222703E-01
  0.648667230089E-01
  0.648667262707E-01
 -0.212190109429E+00
 -0.212190104440E+00