# vtk DataFile Version 3.0
MachLine results file. Generated by MachLine, USU AeroLab (c) 2022.
ASCII
DATASET POLYDATA
POINTS                1127 float
  0.100000000000E+01  0.000000000000E+00  0.000000000000E+00
  0.973034464140E+00  0.105263157890E+00 -0.235917869390E-02
  0.100000000000E+01  0.105263157890E+00  0.000000000000E+00
  0.973034464140E+00  0.000000000000E+00 -0.235917869390E-02
  0.929717765040E+00  0.105263157890E+00 -0.614889880620E-02
  0.929717765040E+00  0.000000000000E+00 -0.614889880620E-02
  0.863184801440E+00  0.105263157890E+00 -0.119697788720E-01
  0.863184801440E+00  0.000000000000E+00 -0.119697788720E-01
  0.767714243180E+00  0.105263157890E+00 -0.203223704200E-01
  0.767714243180E+00  0.000000000000E+00 -0.203223704200E-01
  0.643290544900E+00  0.105263157890E+00 -0.312080334940E-01
  0.643290544900E+00  0.000000000000E+00 -0.312080334940E-01
  0.500000000000E+00  0.105263157890E+00 -0.437443317630E-01
  0.500000000000E+00  0.000000000000E+00 -0.437443317630E-01
  0.356709455100E+00  0.000000000000E+00 -0.312080334940E-01
  0.356709455100E+00  0.105263157890E+00 -0.312080334940E-01
  0.232285756820E+00  0.000000000000E+00 -0.203223704200E-01
  0.232285756820E+00  0.105263157890E+00 -0.203223704200E-01
  0.136815198560E+00  0.000000000000E+00 -0.119697788720E-01
  0.136815198560E+00  0.105263157890E+00 -0.119697788720E-01
  0.702822349590E-01  0.000000000000E+00 -0.614889880620E-02
  0.702822349590E-01  0.105263157890E+00 -0.614889880620E-02
  0.269655358630E-01  0.000000000000E+00 -0.235917869390E-02
  0.269655358630E-01  0.105263157890E+00 -0.235917869390E-02
  0.000000000000E+00  0.000000000000E+00  0.000000000000E+00
  0.000000000000E+00  0.105263157890E+00  0.000000000000E+00
  0.269655358630E-01  0.105263157890E+00  0.235917869390E-02
  0.269655358630E-01  0.000000000000E+00  0.235917869390E-02
  0.702822349590E-01  0.105263157890E+00  0.614889880620E-02
  0.702822349590E-01  0.000000000000E+00  0.614889880620E-02
  0.136815198560E+00  0.105263157890E+00  0.119697788720E-01
  0.136815198560E+00  0.000000000000E+00  0.119697788720E-01
  0.232285756820E+00  0.105263157890E+00  0.203223704200E-01
  0.232285756820E+00  0.000000000000E+00  0.203223704200E-01
  0.356709455100E+00  0.105263157890E+00  0.312080334940E-01
  0.356709455100E+00  0.000000000000E+00  0.312080334940E-01
  0.500000000000E+00  0.105263157890E+00  0.437443317630E-01
  0.500000000000E+00  0.000000000000E+00  0.437443317630E-01
  0.643290544900E+00  0.000000000000E+00  0.312080334940E-01
  0.643290544900E+00  0.105263157890E+00  0.312080334940E-01
  0.767714243180E+00  0.000000000000E+00  0.203223704200E-01
  0.767714243180E+00  0.105263157890E+00  0.203223704200E-01
  0.863184801440E+00  0.000000000000E+00  0.119697788720E-01
  0.863184801440E+00  0.105263157890E+00  0.119697788720E-01
  0.929717765040E+00  0.000000000000E+00  0.614889880620E-02
  0.929717765040E+00  0.105263157890E+00  0.614889880620E-02
  0.973034464140E+00  0.000000000000E+00  0.235917869390E-02
  0.973034464140E+00  0.105263157890E+00  0.235917869390E-02
  0.973034464140E+00  0.210526315790E+00 -0.235917869390E-02
  0.100000000000E+01  0.210526315790E+00  0.000000000000E+00
  0.929717765040E+00  0.210526315790E+00 -0.614889880620E-02
  0.863184801440E+00  0.210526315790E+00 -0.119697788720E-01
  0.767714243180E+00  0.210526315790E+00 -0.203223704200E-01
  0.643290544900E+00  0.210526315790E+00 -0.312080334940E-01
  0.500000000000E+00  0.210526315790E+00 -0.437443317630E-01
  0.356709455100E+00  0.210526315790E+00 -0.312080334940E-01
  0.232285756820E+00  0.210526315790E+00 -0.203223704200E-01
  0.136815198560E+00  0.210526315790E+00 -0.119697788720E-01
  0.702822349590E-01  0.210526315790E+00 -0.614889880620E-02
  0.269655358630E-01  0.210526315790E+00 -0.235917869390E-02
  0.000000000000E+00  0.210526315790E+00  0.000000000000E+00
  0.269655358630E-01  0.210526315790E+00  0.235917869390E-02
  0.702822349590E-01  0.210526315790E+00  0.614889880620E-02
  0.136815198560E+00  0.210526315790E+00  0.119697788720E-01
  0.232285756820E+00  0.210526315790E+00  0.203223704200E-01
  0.356709455100E+00  0.210526315790E+00  0.312080334940E-01
  0.500000000000E+00  0.210526315790E+00  0.437443317630E-01
  0.643290544900E+00  0.210526315790E+00  0.312080334940E-01
  0.767714243180E+00  0.210526315790E+00  0.203223704200E-01
  0.863184801440E+00  0.210526315790E+00  0.119697788720E-01
  0.929717765040E+00  0.210526315790E+00  0.614889880620E-02
  0.973034464140E+00  0.210526315790E+00  0.235917869390E-02
  0.973034464140E+00  0.315789473680E+00 -0.235917869390E-02
  0.100000000000E+01  0.315789473680E+00  0.000000000000E+00
  0.929717765040E+00  0.315789473680E+00 -0.614889880620E-02
  0.863184801440E+00  0.315789473680E+00 -0.119697788720E-01
  0.767714243180E+00  0.315789473680E+00 -0.203223704200E-01
  0.643290544900E+00  0.315789473680E+00 -0.312080334940E-01
  0.500000000000E+00  0.315789473680E+00 -0.437443317630E-01
  0.356709455100E+00  0.315789473680E+00 -0.312080334940E-01
  0.232285756820E+00  0.315789473680E+00 -0.203223704200E-01
  0.136815198560E+00  0.315789473680E+00 -0.119697788720E-01
  0.702822349590E-01  0.315789473680E+00 -0.614889880620E-02
  0.269655358630E-01  0.315789473680E+00 -0.235917869390E-02
  0.000000000000E+00  0.315789473680E+00  0.000000000000E+00
  0.269655358630E-01  0.315789473680E+00  0.235917869390E-02
  0.702822349590E-01  0.315789473680E+00  0.614889880620E-02
  0.136815198560E+00  0.315789473680E+00  0.119697788720E-01
  0.232285756820E+00  0.315789473680E+00  0.203223704200E-01
  0.356709455100E+00  0.315789473680E+00  0.312080334940E-01
  0.500000000000E+00  0.315789473680E+00  0.437443317630E-01
  0.643290544900E+00  0.315789473680E+00  0.312080334940E-01
  0.767714243180E+00  0.315789473680E+00  0.203223704200E-01
  0.863184801440E+00  0.315789473680E+00  0.119697788720E-01
  0.929717765040E+00  0.315789473680E+00  0.614889880620E-02
  0.973034464140E+00  0.315789473680E+00  0.235917869390E-02
  0.973034464140E+00  0.421052631580E+00 -0.235917869390E-02
  0.100000000000E+01  0.421052631580E+00  0.000000000000E+00
  0.929717765040E+00  0.421052631580E+00 -0.614889880620E-02
  0.863184801440E+00  0.421052631580E+00 -0.119697788720E-01
  0.767714243180E+00  0.421052631580E+00 -0.203223704200E-01
  0.643290544900E+00  0.421052631580E+00 -0.312080334940E-01
  0.500000000000E+00  0.421052631580E+00 -0.437443317630E-01
  0.356709455100E+00  0.421052631580E+00 -0.312080334940E-01
  0.232285756820E+00  0.421052631580E+00 -0.203223704200E-01
  0.136815198560E+00  0.421052631580E+00 -0.119697788720E-01
  0.702822349590E-01  0.421052631580E+00 -0.614889880620E-02
  0.269655358630E-01  0.421052631580E+00 -0.235917869390E-02
  0.000000000000E+00  0.421052631580E+00  0.000000000000E+00
  0.269655358630E-01  0.421052631580E+00  0.235917869390E-02
  0.702822349590E-01  0.421052631580E+00  0.614889880620E-02
  0.136815198560E+00  0.421052631580E+00  0.119697788720E-01
  0.232285756820E+00  0.421052631580E+00  0.203223704200E-01
  0.356709455100E+00  0.421052631580E+00  0.312080334940E-01
  0.500000000000E+00  0.421052631580E+00  0.437443317630E-01
  0.643290544900E+00  0.421052631580E+00  0.312080334940E-01
  0.767714243180E+00  0.421052631580E+00  0.203223704200E-01
  0.863184801440E+00  0.421052631580E+00  0.119697788720E-01
  0.929717765040E+00  0.421052631580E+00  0.614889880620E-02
  0.973034464140E+00  0.421052631580E+00  0.235917869390E-02
  0.973034464140E+00  0.526315789470E+00 -0.235917869390E-02
  0.100000000000E+01  0.526315789470E+00  0.000000000000E+00
  0.929717765040E+00  0.526315789470E+00 -0.614889880620E-02
  0.863184801440E+00  0.526315789470E+00 -0.119697788720E-01
  0.767714243180E+00  0.526315789470E+00 -0.203223704200E-01
  0.643290544900E+00  0.526315789470E+00 -0.312080334940E-01
  0.500000000000E+00  0.526315789470E+00 -0.437443317630E-01
  0.356709455100E+00  0.526315789470E+00 -0.312080334940E-01
  0.232285756820E+00  0.526315789470E+00 -0.203223704200E-01
  0.136815198560E+00  0.526315789470E+00 -0.119697788720E-01
  0.702822349590E-01  0.526315789470E+00 -0.614889880620E-02
  0.269655358630E-01  0.526315789470E+00 -0.235917869390E-02
  0.000000000000E+00  0.526315789470E+00  0.000000000000E+00
  0.269655358630E-01  0.526315789470E+00  0.235917869390E-02
  0.702822349590E-01  0.526315789470E+00  0.614889880620E-02
  0.136815198560E+00  0.526315789470E+00  0.119697788720E-01
  0.232285756820E+00  0.526315789470E+00  0.203223704200E-01
  0.356709455100E+00  0.526315789470E+00  0.312080334940E-01
  0.500000000000E+00  0.526315789470E+00  0.437443317630E-01
  0.643290544900E+00  0.526315789470E+00  0.312080334940E-01
  0.767714243180E+00  0.526315789470E+00  0.203223704200E-01
  0.863184801440E+00  0.526315789470E+00  0.119697788720E-01
  0.929717765040E+00  0.526315789470E+00  0.614889880620E-02
  0.973034464140E+00  0.526315789470E+00  0.235917869390E-02
  0.973034464140E+00  0.631578947370E+00 -0.235917869390E-02
  0.100000000000E+01  0.631578947370E+00  0.000000000000E+00
  0.929717765040E+00  0.631578947370E+00 -0.614889880620E-02
  0.863184801440E+00  0.631578947370E+00 -0.119697788720E-01
  0.767714243180E+00  0.631578947370E+00 -0.203223704200E-01
  0.643290544900E+00  0.631578947370E+00 -0.312080334940E-01
  0.500000000000E+00  0.631578947370E+00 -0.437443317630E-01
  0.356709455100E+00  0.631578947370E+00 -0.312080334940E-01
  0.232285756820E+00  0.631578947370E+00 -0.203223704200E-01
  0.136815198560E+00  0.631578947370E+00 -0.119697788720E-01
  0.702822349590E-01  0.631578947370E+00 -0.614889880620E-02
  0.269655358630E-01  0.631578947370E+00 -0.235917869390E-02
  0.000000000000E+00  0.631578947370E+00  0.000000000000E+00
  0.269655358630E-01  0.631578947370E+00  0.235917869390E-02
  0.702822349590E-01  0.631578947370E+00  0.614889880620E-02
  0.136815198560E+00  0.631578947370E+00  0.119697788720E-01
  0.232285756820E+00  0.631578947370E+00  0.203223704200E-01
[...]
CELL_DATA                2176
SCALARS C_p_ise float 1
LOOKUP_TABLE default
 -0.141111172697E+00
 -0.141110856441E+00
 -0.141111114833E+00
 -0.141111115298E+00
 -0.141111116029E+00
 -0.141111116212E+00
 -0.141111116738E+00
 -0.141111116610E+00
 -0.141111119558E+00
 -0.141111111783E+00
 -0.141111110774E+00
 -0.141111115318E+00
  0.170820272099E+00
  0.170820272516E+00
  0.170820271633E+00
  0.170820276353E+00
  0.170820272334E+00
  0.170820272334E+00
  0.170820272337E+00
  0.170820272337E+00
  0.170820272341E+00
  0.170820272341E+00
  0.170820272338E+00
  0.170820272338E+00
  0.170820272338E+00
  0.170820272338E+00
  0.170820272341E+00
  0.170820272341E+00
  0.170820272337E+00
  0.170820272337E+00
  0.170820272334E+00
  0.170820272334E+00
  0.170820272265E+00
  0.170820272257E+00
  0.170820268905E+00
  0.170820272526E+00
 -0.141111115196E+00
 -0.141111119133E+00
 -0.141111118459E+00
 -0.141111113767E+00
 -0.141111113111E+00
 -0.141111111604E+00
 -0.141111115476E+00
 -0.141111114477E+00
 -0.141111115113E+00
 -0.141111115634E+00
 -0.141111373859E+00
 -0.141111058148E+00
 -0.141111070100E+00
 -0.141111172697E+00
 -0.141111115929E+00
 -0.141111114833E+00
 -0.141111114691E+00
 -0.141111116029E+00
 -0.141111116734E+00
 -0.141111116738E+00
 -0.141111113874E+00
 -0.141111119558E+00
 -0.141111117781E+00
 -0.141111110774E+00
  0.170820272516E+00
  0.170820276128E+00
  0.170820276353E+00
  0.170820277689E+00
  0.170820272334E+00
  0.170820272334E+00
  0.170820272337E+00
  0.170820272337E+00
  0.170820272341E+00
  0.170820272341E+00
  0.170820272338E+00
  0.170820272338E+00
  0.170820272338E+00
  0.170820272338E+00
  0.170820272341E+00
  0.170820272341E+00
  0.170820272337E+00
  0.170820272337E+00
  0.170820272334E+00
  0.170820272334E+00
  0.170820271044E+00
  0.170820272265E+00
  0.170820264562E+00
  0.170820268905E+00
 -0.141111119133E+00
 -0.141111111504E+00
 -0.141111113767E+00
 -0.141111118041E+00
 -0.141111111604E+00
 -0.141111113323E+00
 -0.141111114477E+00
 -0.141111116213E+00
 -0.141111115634E+00
 -0.141111114464E+00
 -0.141111058148E+00
 -0.141111160370E+00
 -0.141111069609E+00
 -0.141111070100E+00
 -0.141111119305E+00
 -0.141111115929E+00
 -0.141111118882E+00
 -0.141111114691E+00
 -0.141111113112E+00
 -0.141111116734E+00
 -0.141111117929E+00
 -0.141111113874E+00
 -0.141111110319E+00
 -0.141111117781E+00
  0.170820276128E+00
  0.170820268017E+00
  0.170820277689E+00
  0.170820283576E+00
  0.170820272334E+00
  0.170820272334E+00
  0.170820272337E+00
  0.170820272337E+00
  0.170820272341E+00
  0.170820272341E+00
  0.170820272338E+00
  0.170820272338E+00
  0.170820272338E+00
  0.170820272338E+00
  0.170820272341E+00
  0.170820272341E+00
  0.170820272337E+00
  0.170820272337E+00
  0.170820272334E+00
  0.170820272334E+00
  0.170820265438E+00
  0.170820271044E+00
  0.170820271996E+00
  0.170820264562E+00
 -0.141111111504E+00
 -0.141111117683E+00
 -0.141111118041E+00
 -0.141111114465E+00
 -0.141111113323E+00
 -0.141111117783E+00
 -0.141111116213E+00
 -0.141111111378E+00
 -0.141111114464E+00
 -0.141111113125E+00
 -0.141111160370E+00
 -0.141111162950E+00
 -0.141111231421E+00
 -0.141111069609E+00
 -0.141111110653E+00
 -0.141111119305E+00
 -0.141111118640E+00
 -0.141111118882E+00
 -0.141111122737E+00
 -0.141111113112E+00
 -0.141111110776E+00
 -0.141111117929E+00
 -0.141111113353E+00
 -0.141111110319E+00
  0.170820268017E+00
  0.170820277169E+00
  0.170820283576E+00
  0.170820277832E+00
  0.170820272334E+00
  0.170820272334E+00
  0.170820272337E+00
  0.170820272337E+00
  0.170820272341E+00
  0.170820272341E+00
  0.170820272338E+00
  0.170820272338E+00
  0.170820272338E+00
  0.170820272338E+00
  0.170820272341E+00
  0.170820272341E+00
  0.170820272337E+00
  0.170820272337E+00
  0.170820272334E+00
  0.170820272334E+00
  0.170820267682E+00
  0.170820265438E+00
  0.170820269109E+00
  0.170820271996E+00
 -0.141111117683E+00
 -0.141111118830E+00
 -0.141111114465E+00
 -0.141111119888E+00
 -0.141111117783E+00
 -0.141111108408E+00
 -0.141111111378E+00
 -0.141111115747E+00
 -0.141111113125E+00
 -0.141111105493E+00
 -0.141111162950E+00
 -0.141110985139E+00
 -0.141111094870E+00
 -0.141111231421E+00
 -0.141111173097E+00
 -0.141111110653E+00
 -0.141111108811E+00
 -0.141111118640E+00
 -0.141111110471E+00
 -0.141111122737E+00
 -0.141111117644E+00
 -0.141111110776E+00
 -0.141111108271E+00
 -0.141111113353E+00
  0.170820277169E+00
  0.170820274129E+00
  0.170820277832E+00
  0.170820276405E+00
  0.170820272334E+00
  0.170820272334E+00
  0.170820272337E+00
  0.170820272337E+00
  0.170820272341E+00
  0.170820272341E+00
  0.170820272338E+00
  0.170820272338E+00
  0.170820272338E+00
  0.170820272338E+00
  0.170820272341E+00
  0.170820272341E+00
  0.170820272337E+00
  0.170820272337E+00
  0.170820272334E+00
  0.170820272334E+00
  0.170820272395E+00
  0.170820267682E+00
  0.170820266987E+00
  0.170820269109E+00
 -0.141111118830E+00
 -0.141111121993E+00
 -0.141111119888E+00
 -0.141111115966E+00
 -0.141111108408E+00
 -0.141111111946E+00
 -0.141111115747E+00
 -0.141111098306E+00
 -0.141111105493E+00
 -0.141111165847E+00
 -0.141110985139E+00
 -0.141111243945E+00
 -0.141110778756E+00
 -0.141111094870E+00
 -0.141110708979E+00
 -0.141111173097E+00
 -0.141111206668E+00
 -0.141111108811E+00
 -0.141111140147E+00
 -0.141111110471E+00
 -0.141111106849E+00
 -0.141111117644E+00
 -0.141111114124E+00
 -0.141111108271E+00
  0.170820274129E+00
  0.170820274623E+00
  0.170820276405E+00
  0.170820277572E+00
  0.170820272334E+00
  0.170820272334E+00
  0.170820272337E+00
  0.170820272337E+00
  0.170820272341E+00
  0.170820272341E+00
  0.170820272338E+00
  0.170820272338E+00
  0.170820272338E+00
  0.170820272338E+00
  0.170820272341E+00
  0.170820272341E+00
  0.170820272337E+00
  0.170820272337E+00
  0.170820272334E+00
  0.170820272334E+00
  0.170820271279E+00
  0.170820272395E+00
  0.170820265624E+00
  0.170820266987E+00
 -0.141111121993E+00
 -0.141111115569E+00
 -0.141111115966E+00
 -0.141111119747E+00
 -0.141111111946E+00
 -0.141111129130E+00
 -0.141111098306E+00
 -0.141111206680E+00
 -0.141111165847E+00
 -0.141110708729E+00
 -0.141111243945E+00
 -0.141110644743E+00
 -0.141113886782E+00
 -0.141110778757E+00
 -0.141114063939E+00
 -0.141110708979E+00
 -0.141110433183E+00
 -0.141111206668E+00
 -0.141110958483E+00
 -0.141111140147E+00
 -0.141111144098E+00
 -0.141111106849E+00
 -0.141111103780E+00
 -0.141111114124E+00
  0.170820274623E+00
  0.170820264306E+00
  0.170820277572E+00
  0.170820282689E+00
  0.170820272334E+00
  0.170820272334E+00
  0.170820272337E+00
  0.170820272337E+00
  0.170820272341E+00
  0.170820272341E+00
  0.170820272338E+00
  0.170820272338E+00
  0.170820272338E+00
  0.170820272338E+00
  0.170820272341E+00
  0.170820272341E+00
  0.170820272337E+00
  0.170820272337E+00
  0.170820272334E+00
  0.170820272334E+00
  0.170820266141E+00
  0.170820271279E+00
  0.170820277214E+00
  0.170820265624E+00
 -0.141111115569E+00
 -0.141111119369E+00
 -0.141111119747E+00
 -0.141111142978E+00
 -0.141111129130E+00
 -0.141110963434E+00
 -0.141111206680E+00
 -0.141110432451E+00
 -0.141110708729E+00
 -0.141114061401E+00
 -0.141110644743E+00
 -0.141114308249E+00
 -0.141089579901E+00
 -0.141113886788E+00
 -0.141090826452E+00
 -0.141114063944E+00
 -0.141116122424E+00
 -0.141110433183E+00
 -0.141112223117E+00
 -0.141110958483E+00
 -0.141110905219E+00
 -0.141111144098E+00
 -0.141111140434E+00
 -0.141111103780E+00
  0.170820264306E+00
  0.170820271630E+00
  0.170820282689E+00
  0.170820275995E+00
  0.170820272334E+00
  0.170820272333E+00
  0.170820272337E+00
  0.170820272337E+00
  0.170820272341E+00
  0.170820272341E+00
  0.170820272338E+00
  0.170820272338E+00
  0.170820272338E+00
  0.170820272338E+00
  0.170820272341E+00
  0.170820272341E+00
  0.170820272337E+00
  0.170820272337E+00
  0.170820272333E+00
  0.170820272334E+00
  0.170820273022E+00
  0.170820266141E+00
  0.170820259975E+00
  0.170820277214E+00
 -0.141111119369E+00
 -0.141111133851E+00
 -0.141111142978E+00
 -0.141110921161E+00
 -0.141110963434E+00
 -0.141112222627E+00
 -0.141110432451E+00
 -0.141116122852E+00
 -0.141114061406E+00
 -0.141090826207E+00
 -0.141114308255E+00
 -0.141090090269E+00
 -0.141255969978E+00
 -0.141089580073E+00
 -0.141235432419E+00
 -0.141090826703E+00
 -0.141076073970E+00
 -0.141116122429E+00
 -0.141103580202E+00
 -0.141112223118E+00
 -0.141112603234E+00
 -0.141110905219E+00
 -0.141110941437E+00
 -0.141111140434E+00
  0.170820271630E+00
  0.170820298909E+00
  0.170820275995E+00
  0.170820274009E+00
  0.170820272333E+00
  0.170820272345E+00
  0.170820272337E+00
  0.170820272337E+00
  0.170820272341E+00
  0.170820272341E+00
  0.170820272338E+00
  0.170820272338E+00
  0.170820272338E+00
  0.170820272338E+00
  0.170820272341E+00
  0.170820272341E+00
  0.170820272337E+00
  0.170820272337E+00
  0.170820272345E+00
  0.170820272333E+00
  0.170820272438E+00
  0.170820273022E+00
  0.170820307921E+00
  0.170820259975E+00
 -0.141111133851E+00
 -0.141110953326E+00
 -0.141110921161E+00
 -0.141112616873E+00
 -0.141112222627E+00
 -0.141103581380E+00
 -0.141116122856E+00
 -0.141076072609E+00
 -0.141090826458E+00
 -0.141235430287E+00
 -0.141090090441E+00
 -0.141256020635E+00
 -0.139928032211E+00
 -0.141255979969E+00
 -0.140204380948E+00
 -0.141235444306E+00
 -0.141363077582E+00
 -0.141076074018E+00
 -0.141154765680E+00
 -0.141103580230E+00
 -0.141100497770E+00
 -0.141112603235E+00
 -0.141112315862E+00
 -0.141110941437E+00
  0.170820298909E+00
  0.170820024928E+00
  0.170820274009E+00
  0.170820283091E+00
  0.170820272345E+00
  0.170820272191E+00
  0.170820272337E+00
  0.170820272338E+00
  0.170820272341E+00
  0.170820272341E+00
  0.170820272338E+00
  0.170820272338E+00
  0.170820272338E+00
  0.170820272338E+00
  0.170820272341E+00
  0.170820272341E+00
  0.170820272338E+00
  0.170820272337E+00
  0.170820272191E+00
  0.170820272345E+00
  0.170820287804E+00
  0.170820272438E+00
  0.170820027913E+00
  0.170820307921E+00
 -0.141110953326E+00
 -0.141112324022E+00
 -0.141112616873E+00
 -0.141100512859E+00
 -0.141103581409E+00
 -0.141154764828E+00
 -0.141076072657E+00
 -0.141363076028E+00
 -0.141235442173E+00
 -0.140204380323E+00
 -0.141256030632E+00
 -0.139928256999E+00
 -0.150783575893E+00
 -0.139928008725E+00
 -0.143087570700E+00
 -0.140205074751E+00
 -0.139190791413E+00
 -0.141363084934E+00
 -0.140772833951E+00
 -0.141154766754E+00
 -0.141174670739E+00
 -0.141100497789E+00
 -0.141103015090E+00
 -0.141112315862E+00
  0.170820024926E+00
  0.170822062535E+00
  0.170820283091E+00
  0.170820159788E+00
  0.170820272191E+00
  0.170820274077E+00
  0.170820272338E+00
  0.170820272322E+00
  0.170820272341E+00
  0.170820272340E+00
  0.170820272338E+00
  0.170820272338E+00
  0.170820272338E+00
  0.170820272338E+00
  0.170820272340E+00
  0.170820272341E+00
  0.170820272322E+00
  0.170820272338E+00
  0.170820274077E+00
  0.170820272191E+00
  0.170820162729E+00
  0.170820287804E+00
  0.170822060242E+00
  0.170820027912E+00
 -0.141112324022E+00
 -0.141103023933E+00
 -0.141100512878E+00
 -0.141174673166E+00
 -0.141154765901E+00
 -0.140772833153E+00
 -0.141363083382E+00
 -0.139190793273E+00
 -0.140205074129E+00
 -0.143087571844E+00
 -0.139928233525E+00
 -0.150783847141E+00
 -0.162567830174E+00
 -0.150847138081E+00
 -0.158449617547E+00
 -0.143111248647E+00
 -0.153947345760E+00
 -0.139190096700E+00
 -0.141721749333E+00
 -0.140772924818E+00
 -0.140546650562E+00
 -0.141174671511E+00
 -0.141158478262E+00
 -0.141103015095E+00
  0.170822062447E+00
  0.170807434183E+00
  0.170820159788E+00
  0.170821262759E+00
  0.170820274077E+00
  0.170820251116E+00
  0.170820272322E+00
  0.170820272583E+00
  0.170820272340E+00
  0.170820272351E+00
  0.170820272338E+00
  0.170820272338E+00
  0.170820272338E+00
  0.170820272338E+00
  0.170820272351E+00
  0.170820272340E+00
  0.170820272583E+00
  0.170820272322E+00
  0.170820251116E+00
  0.170820274077E+00
  0.170821257929E+00
  0.170820162729E+00
  0.170807443024E+00
  0.170822060154E+00
 -0.141103023938E+00
 -0.141158488391E+00
 -0.141174673938E+00
 -0.140546646362E+00
 -0.140772924023E+00
 -0.141721755670E+00
 -0.139190098556E+00
 -0.153947351095E+00
 -0.143111249778E+00
 -0.158449622470E+00
 -0.150847409287E+00
 -0.162568459825E+00
 -0.171043720698E+00
 -0.162694884736E+00
 -0.167707696022E+00
 -0.158551058233E+00
 -0.164766773477E+00
 -0.154013236101E+00
 -0.157666945967E+00
 -0.141726340457E+00
 -0.144735240644E+00
 -0.140546683735E+00
 -0.140690683658E+00
 -0.141158479028E+00
  0.170807430045E+00
  0.170909328703E+00
  0.170821262728E+00
  0.170811715885E+00
  0.170820251116E+00
  0.170820529643E+00
  0.170820272583E+00
  0.170820268271E+00
  0.170820272351E+00
  0.170820272052E+00
  0.170820272338E+00
  0.170820272336E+00
  0.170820272336E+00
  0.170820272338E+00
  0.170820272052E+00
  0.170820272351E+00
  0.170820268271E+00
  0.170820272583E+00
  0.170820529643E+00
  0.170820251116E+00
  0.170811705935E+00
  0.170821257898E+00
  0.170909331006E+00
  0.170807438887E+00
 -0.141158489157E+00
 -0.140690683205E+00
 -0.140546679532E+00
 -0.144735242673E+00
 -0.141726346806E+00
 -0.157666947356E+00
 -0.154013241455E+00
 -0.164766774801E+00
 -0.158551063139E+00
 -0.167707696132E+00
 -0.162695513319E+00
 -0.171044696647E+00
 -0.178526570388E+00
 -0.171227183543E+00
 -0.175764454547E+00
 -0.167858959912E+00
 -0.173427568691E+00
 -0.164873410732E+00
 -0.168207975387E+00
 -0.157715370859E+00
 -0.162100113061E+00
 -0.144732476140E+00
 -0.142141282106E+00
 -0.140690659951E+00
  0.170909158870E+00
  0.170240405901E+00
  0.170811713702E+00
  0.170892697074E+00
  0.170820529641E+00
  0.170817170729E+00
  0.170820268271E+00
  0.170820337748E+00
  0.170820272052E+00
  0.170820280317E+00
  0.170820272336E+00
  0.170820272441E+00
  0.170820272441E+00
  0.170820272336E+00
  0.170820280317E+00
  0.170820272052E+00
  0.170820337748E+00
  0.170820268271E+00
  0.170817170729E+00
  0.170820529641E+00
  0.170892693966E+00
  0.170811703752E+00
  0.170240403944E+00
  0.170909161174E+00
 -0.140690659497E+00
 -0.142141288728E+00
 -0.144732478167E+00
 -0.162100110354E+00
 -0.157715372264E+00
 -0.168207974752E+00
 -0.164873412080E+00
 -0.173427567239E+00
 -0.167858960044E+00
 -0.175764454322E+00
 -0.171228157785E+00
 -0.178527244090E+00
 -0.182750630591E+00
 -0.178807125814E+00
 -0.184197326813E+00
 -0.175995247639E+00
 -0.181499462982E+00
 -0.173601130151E+00
 -0.177188100584E+00
 -0.168307649972E+00
 -0.171576166678E+00
 -0.162150967290E+00
 -0.164861127302E+00
 -0.142143165002E+00
  0.170235142947E+00
  0.174134855310E+00
  0.170892556613E+00
  0.170233397081E+00
  0.170817170408E+00
  0.170857261582E+00
  0.170820337748E+00
  0.170819265826E+00
  0.170820280317E+00
  0.170820053491E+00
  0.170820272441E+00
  0.170820266353E+00
  0.170820266353E+00
  0.170820272441E+00
  0.170820053491E+00
  0.170820280317E+00
  0.170819265826E+00
  0.170820337748E+00
  0.170857261582E+00
  0.170817170408E+00
  0.170233394903E+00
  0.170892553505E+00
  0.174134861433E+00
  0.170235140962E+00
 -0.142143171632E+00
 -0.164861137845E+00
 -0.162150964501E+00
 -0.171576169268E+00
 -0.168307649374E+00
 -0.177188096294E+00
 -0.173601128701E+00
 -0.181499461693E+00
 -0.175995247419E+00
 -0.184197326657E+00
 -0.178807800885E+00
 -0.182751386038E+00
 -0.134423403185E+00
 -0.182450704084E+00
 -0.144189889123E+00
 -0.184352061696E+00
 -0.180157097867E+00
 -0.181776630079E+00
 -0.184924575439E+00
 -0.177391997639E+00
 -0.181127593643E+00
 -0.171679829092E+00
 -0.176099197325E+00
 -0.164874387894E+00
  0.173840845906E+00
  0.145251955770E+00
  0.170225776906E+00
  0.175222323707E+00
  0.170857218295E+00
  0.170388513066E+00
  0.170819265788E+00
  0.170834525371E+00
  0.170820053489E+00
  0.170826184130E+00
  0.170820266353E+00
  0.170820618252E+00
  0.170820618252E+00
  0.170820266353E+00
  0.170826184131E+00
  0.170820053489E+00
  0.170834525372E+00
  0.170819265788E+00
  0.170388513066E+00
  0.170857218295E+00
  0.175222325711E+00
  0.170225774715E+00
  0.145251950892E+00
  0.173840851853E+00
 -0.164874398613E+00
 -0.176099199044E+00
 -0.171679831558E+00
 -0.181127595089E+00
 -0.177391993244E+00
 -0.184924575716E+00
 -0.181776628799E+00
 -0.180157096869E+00
 -0.184352061555E+00
 -0.144189887039E+00
 -0.182451459288E+00
 -0.134424317755E+00
 -0.107209257982E+00
 -0.134163655813E+00
 -0.114596675628E+00
 -0.143732326855E+00
 -0.125993484479E+00
 -0.179791822808E+00
 -0.159552508667E+00
 -0.185194574878E+00
 -0.189266941381E+00
 -0.181293339090E+00
 -0.180546706438E+00
 -0.176376950844E+00
  0.144170987672E+00
  0.120275647529E+00
  0.174960041971E+00
  0.144356481660E+00
  0.170383269961E+00
  0.175611715818E+00
  0.170834516375E+00
  0.170649186267E+00
  0.170826182847E+00
  0.170666042076E+00
  0.170820618245E+00
  0.170800280005E+00
  0.170800280005E+00
  0.170820618245E+00
  0.170666042077E+00
  0.170826182847E+00
  0.170649186268E+00
  0.170834516375E+00
  0.175611715819E+00
  0.170383269961E+00
  0.144356472526E+00
  0.174960043757E+00
  0.120275653254E+00
  0.144170982867E+00
 -0.176376952608E+00
 -0.180546712773E+00
 -0.181293340814E+00
 -0.189266937905E+00
 -0.185194575131E+00
 -0.159552509062E+00
 -0.179791821797E+00
 -0.125993483447E+00
 -0.143732324793E+00
 -0.114596674699E+00
 -0.134164570227E+00
 -0.107210427208E+00
 -0.805957549193E-01
 -0.107565785886E+00
 -0.861584797681E-01
 -0.114767890699E+00
 -0.930307861153E-01
 -0.125956935708E+00
 -0.109865788904E+00
 -0.159393295960E+00
 -0.147176944475E+00
 -0.190015609347E+00
 -0.190481824694E+00
 -0.181094402403E+00
  0.118444807755E+00
  0.107293286522E+00
  0.142923400899E+00
  0.112800879431E+00
  0.175229848899E+00
  0.130022218588E+00
  0.170647014735E+00
  0.172292486297E+00
  0.170665138481E+00
  0.174521567945E+00
  0.170800256985E+00
  0.171975993530E+00
  0.171975993529E+00
  0.170800256985E+00
  0.174521567951E+00
  0.170665138483E+00
  0.172292486296E+00
  0.170647014736E+00
  0.130022218586E+00
  0.175229848899E+00
  0.112800877647E+00
  0.142923392107E+00
  0.107293290548E+00
  0.118444813931E+00
 -0.181094408410E+00
 -0.190481827947E+00
 -0.190015605562E+00
 -0.147176946127E+00
 -0.159393296343E+00
 -0.109865788227E+00
 -0.125956934693E+00
 -0.930307864524E-01
 -0.114767889801E+00
 -0.861584797583E-01
 -0.107566954770E+00
 -0.805968992029E-01
 -0.498034312127E-01
 -0.833021825035E-01
 -0.574353561602E-01
 -0.883003783349E-01
 -0.609830758072E-01
 -0.943825311824E-01
 -0.625623895268E-01
 -0.110135283053E+00
 -0.669617321692E-01
 -0.147706440168E+00
 -0.138704095681E+00
 -0.192665204822E+00
  0.102750862682E+00
  0.933174753791E-01
  0.108263259573E+00
  0.948292452508E-01
  0.126205519253E+00
  0.941594992809E-01
  0.170063938086E+00
  0.991794259938E-01
  0.173954639731E+00
  0.102981027543E+00
  0.171899019367E+00
  0.104892220336E+00
  0.104892220335E+00
  0.171899019367E+00
  0.102981027580E+00
  0.173954639737E+00
  0.991794259654E-01
  0.170063938085E+00
  0.941594992874E-01
  0.126205519252E+00
  0.948292466530E-01
  0.108263258062E+00
  0.933174758649E-01
  0.102750866297E+00
 -0.192665208472E+00
 -0.138704097460E+00
 -0.147706441803E+00
 -0.669617328921E-01
 -0.110135282422E+00
 -0.625623897738E-01
 -0.943825315863E-01
 -0.609830748650E-01
 -0.883003784591E-01
 -0.574353549570E-01
 -0.833033226788E-01
 -0.498034484635E-01
 -0.888259711380E-01
 -0.912629253452E-01
 -0.788905228887E-01
 -0.794616034178E-01
 -0.756804611110E-01
 -0.688145429269E-01
 -0.665775186564E-01
 -0.613019113514E-01
 -0.670394577143E-01
 -0.114131542929E+00
 -0.144257488909E+00
  0.814737511272E-01
  0.814059625748E-01
  0.809961276863E-01
  0.809779352163E-01
  0.786600318455E-01
  0.781844657648E-01
  0.808167070334E-01
  0.800791152103E-01
  0.826096638680E-01
  0.820569358918E-01
  0.835134219222E-01
  0.835134218860E-01
  0.820569358586E-01
  0.826096637817E-01
  0.800791151181E-01
  0.808167070004E-01
  0.781844658465E-01
  0.786600319735E-01
  0.809779353378E-01
  0.809961273394E-01
  0.814059614806E-01
  0.814737501064E-01
 -0.144257491407E+00
 -0.114131543440E+00
 -0.670394584470E-01