# vtk DataFile Version 3.0
MachLine results file. Generated by MachLine, USU AeroLab (c) 2022.
ASCII
DATASET POLYDATA
POINTS                1127 float
  0.100000000000E+01  0.000000000000E+00  0.000000000000E+00
  0.973034464140E+00  0.105263157890E+00 -0.235917869390E-02
  0.100000000000E+01  0.105263157890E+00  0.000000000000E+00
  0.973034464140E+00  0.000000000000E+00 -0.235917869390E-02
  0.929717765040E+00  0.105263157890E+00 -0.614889880620E-02
  0.929717765040E+00  0.000000000000E+00 -0.614889880620E-02
  0.863184801440E+00  0.105263157890E+00 -0.119697788720E-01
  0.863184801440E+00  0.000000000000E+00 -0.119697788720E-01
  0.767714243180E+00  0.105263157890E+00 -0.203223704200E-01
  0.767714243180E+00  0.000000000000E+00 -0.203223704200E-01
  0.643290544900E+00  0.105263157890E+00 -0.312080334940E-01
  0.643290544900E+00  0.000000000000E+00 -0.312080334940E-01
  0.500000000000E+00  0.105263157890E+00 -0.437443317630E-01
  0.500000000000E+00  0.000000000000E+00 -0.437443317630E-01
  0.356709455100E+00  0.000000000000E+00 -0.312080334940E-01
  0.356709455100E+00  0.105263157890E+00 -0.312080334940E-01
  0.232285756820E+00  0.000000000000E+00 -0.203223704200E-01
  0.232285756820E+00  0.105263157890E+00 -0.203223704200E-01
  0.136815198560E+00  0.000000000000E+00 -0.119697788720E-01
  0.136815198560E+00  0.105263157890E+00 -0.119697788720E-01
  0.702822349590E-01  0.000000000000E+00 -0.614889880620E-02
  0.702822349590E-01  0.105263157890E+00 -0.614889880620E-02
  0.269655358630E-01  0.000000000000E+00 -0.235917869390E-02
  0.269655358630E-01  0.105263157890E+00 -0.235917869390E-02
  0.000000000000E+00  0.000000000000E+00  0.000000000000E+00
  0.000000000000E+00  0.105263157890E+00  0.000000000000E+00
  0.269655358630E-01  0.105263157890E+00  0.235917869390E-02
  0.269655358630E-01  0.000000000000E+00  0.235917869390E-02
  0.702822349590E-01  0.105263157890E+00  0.614889880620E-02
  0.702822349590E-01  0.000000000000E+00  0.614889880620E-02
  0.136815198560E+00  0.105263157890E+00  0.119697788720E-01
  0.136815198560E+00  0.000000000000E+00  0.119697788720E-01
  0.232285756820E+00  0.105263157890E+00  0.203223704200E-01
  0.232285756820E+00  0.000000000000E+00  0.203223704200E-01
  0.356709455100E+00  0.105263157890E+00  0.312080334940E-01
  0.356709455100E+00  0.000000000000E+00  0.312080334940E-01
  0.500000000000E+00  0.105263157890E+00  0.437443317630E-01
  0.500000000000E+00  0.000000000000E+00  0.437443317630E-01
  0.643290544900E+00  0.000000000000E+00  0.312080334940E-01
  0.643290544900E+00  0.105263157890E+00  0.312080334940E-01
  0.767714243180E+00  0.000000000000E+00  0.203223704200E-01
  0.767714243180E+00  0.105263157890E+00  0.203223704200E-01
  0.863184801440E+00  0.000000000000E+00  0.119697788720E-01
  0.863184801440E+00  0.105263157890E+00  0.119697788720E-01
  0.929717765040E+00  0.000000000000E+00  0.614889880620E-02
  0.929717765040E+00  0.105263157890E+00  0.614889880620E-02
  0.973034464140E+00  0.000000000000E+00  0.235917869390E-02
  0.973034464140E+00  0.105263157890E+00  0.235917869390E-02
  0.973034464140E+00  0.210526315790E+00 -0.235917869390E-02
  0.100000000000E+01  0.210526315790E+00  0.000000000000E+00
  0.929717765040E+00  0.210526315790E+00 -0.614889880620E-02
  0.863184801440E+00  0.210526315790E+00 -0.119697788720E-01
  0.767714243180E+00  0.210526315790E+00 -0.203223704200E-01
  0.643290544900E+00  0.210526315790E+00 -0.312080334940E-01
  0.500000000000E+00  0.210526315790E+00 -0.437443317630E-01
  0.356709455100E+00  0.210526315790E+00 -0.312080334940E-01
  0.232285756820E+00  0.210526315790E+00 -0.203223704200E-01
  0.136815198560E+00  0.210526315790E+00 -0.119697788720E-01
  0.702822349590E-01  0.210526315790E+00 -0.614889880620E-02
  0.269655358630E-01  0.210526315790E+00 -0.235917869390E-02
  0.000000000000E+00  0.210526315790E+00  0.000000000000E+00
  0.269655358630E-01  0.210526315790E+00  0.235917869390E-02
  0.702822349590E-01  0.210526315790E+00  0.614889880620E-02
  0.136815198560E+00  0.210526315790E+00  0.119697788720E-01
  0.232285756820E+00  0.210526315790E+00  0.203223704200E-01
  0.356709455100E+00  0.210526315790E+00  0.312080334940E-01
  0.500000000000E+00  0.210526315790E+00  0.437443317630E-01
  0.643290544900E+00  0.210526315790E+00  0.312080334940E-01
  0.767714243180E+00  0.210526315790E+00  0.203223704200E-01
  0.863184801440E+00  0.210526315790E+00  0.119697788720E-01
  0.929717765040E+00  0.210526315790E+00  0.614889880620E-02
  0.973034464140E+00  0.210526315790E+00  0.235917869390E-02
  0.973034464140E+00  0.315789473680E+00 -0.235917869390E-02
  0.100000000000E+01  0.315789473680E+00  0.000000000000E+00
  0.929717765040E+00  0.315789473680E+00 -0.614889880620E-02
  0.863184801440E+00  0.315789473680E+00 -0.119697788720E-01
  0.767714243180E+00  0.315789473680E+00 -0.203223704200E-01
  0.643290544900E+00  0.315789473680E+00 -0.312080334940E-01
  0.500000000000E+00  0.315789473680E+00 -0.437443317630E-01
  0.356709455100E+00  0.315789473680E+00 -0.312080334940E-01
  0.232285756820E+00  0.315789473680E+00 -0.203223704200E-01
  0.136815198560E+00  0.315789473680E+00 -0.119697788720E-01
  0.702822349590E-01  0.315789473680E+00 -0.614889880620E-02
  0.269655358630E-01  0.315789473680E+00 -0.235917869390E-02
  0.000000000000E+00  0.315789473680E+00  0.000000000000E+00
  0.269655358630E-01  0.315789473680E+00  0.235917869390E-02
  0.702822349590E-01  0.315789473680E+00  0.614889880620E-02
  0.136815198560E+00  0.315789473680E+00  0.119697788720E-01
  0.232285756820E+00  0.315789473680E+00  0.203223704200E-01
  0.356709455100E+00  0.315789473680E+00  0.312080334940E-01
  0.500000000000E+00  0.315789473680E+00  0.437443317630E-01
  0.643290544900E+00  0.315789473680E+00  0.312080334940E-01
  0.767714243180E+00  0.315789473680E+00  0.203223704200E-01
  0.863184801440E+00  0.315789473680E+00  0.119697788720E-01
  0.929717765040E+00  0.315789473680E+00  0.614889880620E-02
  0.973034464140E+00  0.315789473680E+00  0.235917869390E-02
  0.973034464140E+00  0.421052631580E+00 -0.235917869390E-02
  0.100000000000E+01  0.421052631580E+00  0.000000000000E+00
  0.929717765040E+00  0.421052631580E+00 -0.614889880620E-02
  0.863184801440E+00  0.421052631580E+00 -0.119697788720E-01
  0.767714243180E+00  0.421052631580E+00 -0.203223704200E-01
  0.643290544900E+00  0.421052631580E+00 -0.312080334940E-01
  0.500000000000E+00  0.421052631580E+00 -0.437443317630E-01
  0.356709455100E+00  0.421052631580E+00 -0.312080334940E-01
  0.232285756820E+00  0.421052631580E+00 -0.203223704200E-01
  0.136815198560E+00  0.421052631580E+00 -0.119697788720E-01
  0.702822349590E-01  0.421052631580E+00 -0.614889880620E-02
  0.269655358630E-01  0.421052631580E+00 -0.235917869390E-02
  0.000000000000E+00  0.421052631580E+00  0.000000000000E+00
  0.269655358630E-01  0.421052631580E+00  0.235917869390E-02
  0.702822349590E-01  0.421052631580E+00  0.614889880620E-02
  0.136815198560E+00  0.421052631580E+00  0.119697788720E-01
  0.232285756820E+00  0.421052631580E+00  0.203223704200E-01
  0.356709455100E+00  0.421052631580E+00  0.312080334940E-01
  0.500000000000E+00  0.421052631580E+00  0.437443317630E-01
  0.643290544900E+00  0.421052631580E+00  0.312080334940E-01
  0.767714243180E+00  0.421052631580E+00  0.203223704200E-01
  0.863184801440E+00  0.421052631580E+00  0.119697788720E-01
  0.929717765040E+00  0.421052631580E+00  0.614889880620E-02
  0.973034464140E+00  0.421052631580E+00  0.235917869390E-02
  0.973034464140E+00  0.526315789470E+00 -0.235917869390E-02
  0.100000000000E+01  0.526315789470E+00  0.000000000000E+00
  0.929717765040E+00  0.526315789470E+00 -0.614889880620E-02
  0.863184801440E+00  0.526315789470E+00 -0.119697788720E-01
  0.767714243180E+00  0.526315789470E+00 -0.203223704200E-01
  0.643290544900E+00  0.526315789470E+00 -0.312080334940E-01
  0.500000000000E+00  0.526315789470E+00 -0.437443317630E-01
  0.356709455100E+00  0.526315789470E+00 -0.312080334940E-01
  0.232285756820E+00  0.526315789470E+00 -0.203223704200E-01
  0.136815198560E+00  0.526315789470E+00 -0.119697788720E-01
  0.702822349590E-01  0.526315789470E+00 -0.614889880620E-02
  0.269655358630E-01  0.526315789470E+00 -0.235917869390E-02
  0.000000000000E+00  0.526315789470E+00  0.000000000000E+00
  0.269655358630E-01  0.526315789470E+00  0.235917869390E-02
  0.702822349590E-01  0.526315789470E+00  0.614889880620E-02
  0.136815198560E+00  0.526315789470E+00  0.119697788720E-01
  0.232285756820E+00  0.526315789470E+00  0.203223704200E-01
  0.356709455100E+00  0.526315789470E+00  0.312080334940E-01
  0.500000000000E+00  0.526315789470E+00  0.437443317630E-01
  0.643290544900E+00  0.526315789470E+00  0.312080334940E-01
  0.767714243180E+00  0.526315789470E+00  0.203223704200E-01
  0.863184801440E+00  0.526315789470E+00  0.119697788720E-01
  0.929717765040E+00  0.526315789470E+00  0.614889880620E-02
  0.973034464140E+00  0.526315789470E+00  0.235917869390E-02
  0.973034464140E+00  0.631578947370E+00 -0.235917869390E-02
  0.100000000000E+01  0.631578947370E+00  0.000000000000E+00
  0.929717765040E+00  0.631578947370E+00 -0.614889880620E-02
  0.863184801440E+00  0.631578947370E+00 -0.119697788720E-01
  0.767714243180E+00  0.631578947370E+00 -0.203223704200E-01
  0.643290544900E+00  0.631578947370E+00 -0.312080334940E-01
  0.500000000000E+00  0.631578947370E+00 -0.437443317630E-01
  0.356709455100E+00  0.631578947370E+00 -0.312080334940E-01
  0.232285756820E+00  0.631578947370E+00 -0.203223704200E-01
  0.136815198560E+00  0.631578947370E+00 -0.119697788720E-01
  0.702822349590E-01  0.631578947370E+00 -0.614889880620E-02
  0.269655358630E-01  0.631578947370E+00 -0.235917869390E-02
  0.000000000000E+00  0.631578947370E+00  0.000000000000E+00
  0.269655358630E-01  0.631578947370E+00  0.235917869390E-02
  0.702822349590E-01  0.631578947370E+00  0.614889880620E-02
  0.136815198560E+00  0.631578947370E+00  0.119697788720E-01
  0.232285756820E+00  0.631578947370E+00  0.203223704200E-01
[...]
CELL_DATA                2176
SCALARS C_p_ise float 1
LOOKUP_TABLE default
 -0.379356789836E-01
 -0.379351241441E-01
 -0.379356754741E-01
 -0.379356754734E-01
 -0.379356754811E-01
 -0.379356754809E-01
 -0.379356754781E-01
 -0.379356754780E-01
 -0.379356754848E-01
 -0.379356754848E-01
 -0.379356754791E-01
 -0.379356754791E-01
  0.198820541418E+00
  0.198820541418E+00
  0.198820541427E+00
  0.198820541427E+00
  0.198820541417E+00
  0.198820541417E+00
  0.198820541419E+00
  0.198820541419E+00
  0.198820541422E+00
  0.198820541422E+00
  0.198820541420E+00
  0.198820541420E+00
  0.427920793054E-01
  0.427920793054E-01
  0.427920793072E-01
  0.427920793072E-01
  0.427920793047E-01
  0.427920793047E-01
  0.427920793028E-01
  0.427920793028E-01
  0.427920793116E-01
  0.427920793116E-01
  0.427920793043E-01
  0.427920793043E-01
 -0.127041982633E+00
 -0.127041982633E+00
 -0.127041982637E+00
 -0.127041982637E+00
 -0.127041982632E+00
 -0.127041982632E+00
 -0.127041982634E+00
 -0.127041982633E+00
 -0.127041982628E+00
 -0.127041982628E+00
 -0.127042450025E+00
 -0.127041979678E+00
 -0.379358763268E-01
 -0.379356789836E-01
 -0.379356754804E-01
 -0.379356754741E-01
 -0.379356754832E-01
 -0.379356754811E-01
 -0.379356754787E-01
 -0.379356754781E-01
 -0.379356754850E-01
 -0.379356754848E-01
 -0.379356754791E-01
 -0.379356754791E-01
  0.198820541418E+00
  0.198820541418E+00
  0.198820541427E+00
  0.198820541427E+00
  0.198820541417E+00
  0.198820541417E+00
  0.198820541419E+00
  0.198820541419E+00
  0.198820541422E+00
  0.198820541422E+00
  0.198820541420E+00
  0.198820541420E+00
  0.427920793054E-01
  0.427920793054E-01
  0.427920793072E-01
  0.427920793072E-01
  0.427920793047E-01
  0.427920793047E-01
  0.427920793028E-01
  0.427920793028E-01
  0.427920793116E-01
  0.427920793116E-01
  0.427920793043E-01
  0.427920793043E-01
 -0.127041982633E+00
 -0.127041982633E+00
 -0.127041982637E+00
 -0.127041982636E+00
 -0.127041982632E+00
 -0.127041982631E+00
 -0.127041982633E+00
 -0.127041982632E+00
 -0.127041982628E+00
 -0.127041982623E+00
 -0.127041979678E+00
 -0.127041812387E+00
 -0.379360298622E-01
 -0.379358763268E-01
 -0.379356755285E-01
 -0.379356754804E-01
 -0.379356754999E-01
 -0.379356754832E-01
 -0.379356754838E-01
 -0.379356754787E-01
 -0.379356754862E-01
 -0.379356754850E-01
 -0.379356754794E-01
 -0.379356754791E-01
  0.198820541418E+00
  0.198820541418E+00
  0.198820541427E+00
  0.198820541427E+00
  0.198820541417E+00
  0.198820541417E+00
  0.198820541419E+00
  0.198820541419E+00
  0.198820541422E+00
  0.198820541422E+00
  0.198820541420E+00
  0.198820541420E+00
  0.427920793054E-01
  0.427920793054E-01
  0.427920793072E-01
  0.427920793072E-01
  0.427920793047E-01
  0.427920793047E-01
  0.427920793028E-01
  0.427920793028E-01
  0.427920793116E-01
  0.427920793116E-01
  0.427920793044E-01
  0.427920793043E-01
 -0.127041982633E+00
 -0.127041982632E+00
 -0.127041982636E+00
 -0.127041982635E+00
 -0.127041982631E+00
 -0.127041982627E+00
 -0.127041982632E+00
 -0.127041982618E+00
 -0.127041982623E+00
 -0.127041982582E+00
 -0.127041812387E+00
 -0.127041682235E+00
 -0.379358473425E-01
 -0.379360298622E-01
 -0.379356758898E-01
 -0.379356755285E-01
 -0.379356756269E-01
 -0.379356754999E-01
 -0.379356755232E-01
 -0.379356754838E-01
 -0.379356754953E-01
 -0.379356754862E-01
 -0.379356754816E-01
 -0.379356754794E-01
  0.198820541418E+00
  0.198820541418E+00
  0.198820541427E+00
  0.198820541427E+00
  0.198820541417E+00
  0.198820541416E+00
  0.198820541419E+00
  0.198820541419E+00
  0.198820541422E+00
  0.198820541422E+00
  0.198820541420E+00
  0.198820541420E+00
  0.427920793054E-01
  0.427920793054E-01
  0.427920793072E-01
  0.427920793072E-01
  0.427920793047E-01
  0.427920793047E-01
  0.427920793029E-01
  0.427920793028E-01
  0.427920793118E-01
  0.427920793116E-01
  0.427920793050E-01
  0.427920793044E-01
 -0.127041982632E+00
 -0.127041982631E+00
 -0.127041982635E+00
 -0.127041982627E+00
 -0.127041982627E+00
 -0.127041982594E+00
 -0.127041982618E+00
 -0.127041982510E+00
 -0.127041982582E+00
 -0.127041982279E+00
 -0.127041682235E+00
 -0.127041836983E+00
 -0.379358088418E-01
 -0.379358473425E-01
 -0.379356785345E-01
 -0.379356758898E-01
 -0.379356765741E-01
 -0.379356756269E-01
 -0.379356758217E-01
 -0.379356755232E-01
 -0.379356755655E-01
 -0.379356754953E-01
 -0.379356754990E-01
 -0.379356754816E-01
  0.198820541418E+00
  0.198820541414E+00
  0.198820541427E+00
  0.198820541426E+00
  0.198820541416E+00
  0.198820541416E+00
  0.198820541419E+00
  0.198820541419E+00
  0.198820541422E+00
  0.198820541422E+00
  0.198820541420E+00
  0.198820541420E+00
  0.427920793054E-01
  0.427920793054E-01
  0.427920793072E-01
  0.427920793072E-01
  0.427920793048E-01
  0.427920793047E-01
  0.427920793031E-01
  0.427920793029E-01
  0.427920793131E-01
  0.427920793118E-01
  0.427920793103E-01
  0.427920793050E-01
 -0.127041982631E+00
 -0.127041982619E+00
 -0.127041982627E+00
 -0.127041982562E+00
 -0.127041982594E+00
 -0.127041982341E+00
 -0.127041982510E+00
 -0.127041981709E+00
 -0.127041982279E+00
 -0.127041980059E+00
 -0.127041836983E+00
 -0.127041869778E+00
 -0.379359229229E-01
 -0.379358088418E-01
 -0.379356973048E-01
 -0.379356785345E-01
 -0.379356834451E-01
 -0.379356765741E-01
 -0.379356780257E-01
 -0.379356758217E-01
 -0.379356760955E-01
 -0.379356755655E-01
 -0.379356756317E-01
 -0.379356754990E-01
  0.198820541414E+00
  0.198820541384E+00
  0.198820541426E+00
  0.198820541417E+00
  0.198820541416E+00
  0.198820541414E+00
  0.198820541419E+00
  0.198820541419E+00
  0.198820541422E+00
  0.198820541422E+00
  0.198820541420E+00
  0.198820541420E+00
  0.427920793054E-01
  0.427920793054E-01
  0.427920793072E-01
  0.427920793072E-01
  0.427920793050E-01
  0.427920793048E-01
  0.427920793052E-01
  0.427920793031E-01
  0.427920793233E-01
  0.427920793131E-01
  0.427920793515E-01
  0.427920793103E-01
 -0.127041982619E+00
 -0.127041982529E+00
 -0.127041982562E+00
 -0.127041982075E+00
 -0.127041982341E+00
 -0.127041980471E+00
 -0.127041981709E+00
 -0.127041975908E+00
 -0.127041980059E+00
 -0.127041964300E+00
 -0.127041869778E+00
 -0.127041774176E+00
 -0.379371487428E-01
 -0.379359229229E-01
 -0.379358256380E-01
 -0.379356973048E-01
 -0.379357316868E-01
 -0.379356834451E-01
 -0.379356938431E-01
 -0.379356780257E-01
 -0.379356799968E-01
 -0.379356760955E-01
 -0.379356766246E-01
 -0.379356756317E-01
  0.198820541384E+00
  0.198820541151E+00
  0.198820541417E+00
  0.198820541345E+00
  0.198820541414E+00
  0.198820541397E+00
  0.198820541419E+00
  0.198820541416E+00
  0.198820541422E+00
  0.198820541422E+00
  0.198820541420E+00
  0.198820541420E+00
  0.427920793054E-01
  0.427920793054E-01
  0.427920793074E-01
  0.427920793072E-01
  0.427920793074E-01
  0.427920793050E-01
  0.427920793221E-01
  0.427920793052E-01
  0.427920794029E-01
  0.427920793233E-01
  0.427920796661E-01
  0.427920793515E-01
 -0.127041982529E+00
 -0.127041981846E+00
 -0.127041982075E+00
 -0.127041978492E+00
 -0.127041980471E+00
 -0.127041967029E+00
 -0.127041975908E+00
 -0.127041935274E+00
 -0.127041964300E+00
 -0.127041856519E+00
 -0.127041774176E+00
 -0.127040742307E+00
 -0.379431514420E-01
 -0.379371487429E-01
 -0.379366625013E-01
 -0.379358256380E-01
 -0.379360567780E-01
 -0.379357316868E-01
 -0.379358032439E-01
 -0.379356938431E-01
 -0.379357079018E-01
 -0.379356799968E-01
 -0.379356838588E-01
 -0.379356766246E-01
  0.198820541151E+00
  0.198820539395E+00
  0.198820541345E+00
  0.198820540798E+00
  0.198820541397E+00
  0.198820541265E+00
  0.198820541416E+00
  0.198820541395E+00
  0.198820541422E+00
  0.198820541420E+00
  0.198820541420E+00
  0.198820541420E+00
  0.427920793055E-01
  0.427920793054E-01
  0.427920793091E-01
  0.427920793074E-01
  0.427920793277E-01
  0.427920793074E-01
  0.427920794559E-01
  0.427920793221E-01
  0.427920800105E-01
  0.427920794029E-01
  0.427920820183E-01
  0.427920796661E-01
 -0.127041981846E+00
 -0.127041976831E+00
 -0.127041978492E+00
 -0.127041952915E+00
 -0.127041967029E+00
 -0.127041873757E+00
 -0.127041935274E+00
 -0.127041661499E+00
 -0.127041856519E+00
 -0.127041153286E+00
 -0.127040742307E+00
 -0.127035701637E+00
 -0.379782319672E-01
 -0.379431514458E-01
 -0.379418117117E-01
 -0.379366625026E-01
 -0.379381421669E-01
 -0.379360567783E-01
 -0.379365302150E-01
 -0.379358032440E-01
 -0.379358996597E-01
 -0.379357079018E-01
 -0.379357349218E-01
 -0.379356838588E-01
  0.198820539395E+00
  0.198820526494E+00
  0.198820540798E+00
  0.198820536704E+00
  0.198820541265E+00
  0.198820540230E+00
  0.198820541395E+00
  0.198820541215E+00
  0.198820541420E+00
  0.198820541401E+00
  0.198820541420E+00
  0.198820541418E+00
  0.427920793067E-01
  0.427920793055E-01
  0.427920793265E-01
  0.427920793091E-01
  0.427920795023E-01
  0.427920793277E-01
  0.427920804981E-01
  0.427920794559E-01
  0.427920845455E-01
  0.427920800105E-01
  0.427920991318E-01
  0.427920820183E-01
 -0.127041976831E+00
 -0.127041941072E+00
 -0.127041952915E+00
 -0.127041776784E+00
 -0.127041873757E+00
 -0.127041254157E+00
 -0.127041661500E+00
 -0.127039917989E+00
 -0.127041153287E+00
 -0.127036823475E+00
 -0.127035701640E+00
 -0.127006213044E+00
 -0.381669319787E-01
 -0.379782320993E-01
 -0.379710723264E-01
 -0.379418117587E-01
 -0.379506259609E-01
 -0.379381421756E-01
 -0.379410519342E-01
 -0.379365302159E-01
 -0.379371692922E-01
 -0.379358996598E-01
 -0.379360813367E-01
 -0.379357349218E-01
  0.198820526494E+00
  0.198820434560E+00
  0.198820536704E+00
  0.198820506854E+00
  0.198820540230E+00
  0.198820532326E+00
  0.198820541215E+00
  0.198820539689E+00
  0.198820541401E+00
  0.198820541220E+00
  0.198820541418E+00
  0.198820541404E+00
  0.427920793197E-01
  0.427920793067E-01
  0.427920794971E-01
  0.427920793265E-01
  0.427920809811E-01
  0.427920795023E-01
  0.427920884455E-01
  0.427920804981E-01
  0.427921174212E-01
  0.427920845455E-01
  0.427922197967E-01
  0.427920991318E-01
 -0.127041941072E+00
 -0.127041695964E+00
 -0.127041776784E+00
 -0.127040620983E+00
 -0.127041254158E+00
 -0.127037356019E+00
 -0.127039917996E+00
 -0.127029384133E+00
 -0.127036823513E+00
 -0.127012231736E+00
 -0.127006213150E+00
 -0.126848034528E+00
 -0.390542871045E-01
 -0.381669359340E-01
 -0.381223116812E-01
 -0.379710738851E-01
 -0.380199253322E-01
 -0.379506262793E-01
 -0.379680030322E-01
 -0.379410519694E-01
 -0.379449282798E-01
 -0.379371692952E-01
 -0.379383206946E-01
 -0.379360813368E-01
  0.198820434559E+00
  0.198819803244E+00
  0.198820506854E+00
  0.198820296934E+00
  0.198820532326E+00
  0.198820473438E+00
  0.198820539689E+00
  0.198820526971E+00
  0.198820541220E+00
  0.198820539458E+00
  0.198820541404E+00
  0.198820541243E+00
  0.427920794672E-01
  0.427920793197E-01
  0.427920811540E-01
  0.427920794971E-01
  0.427920932768E-01
  0.427920809811E-01
  0.427921474231E-01
  0.427920884455E-01
  0.427923487174E-01
  0.427921174212E-01
  0.427930348104E-01
  0.427922197962E-01
 -0.127041695964E+00
 -0.127040083545E+00
 -0.127040620985E+00
 -0.127033426849E+00
 -0.127037356050E+00
 -0.127014613210E+00
 -0.127029384395E+00
 -0.126973123368E+00
 -0.127012232929E+00
 -0.126883982655E+00
 -0.126848037607E+00
 -0.126094869877E+00
 -0.421656532112E-01
 -0.390543778738E-01
 -0.388133933534E-01
 -0.381223506892E-01
 -0.383542005395E-01
 -0.380199341070E-01
 -0.381009538716E-01
 -0.379680043234E-01
 -0.379914492989E-01
 -0.379449283932E-01
 -0.379519086343E-01
 -0.379383207002E-01
  0.198819803230E+00
  0.198815674587E+00
  0.198820296933E+00
  0.198818867622E+00
  0.198820473438E+00
  0.198820049293E+00
  0.198820526971E+00
  0.198820423440E+00
  0.198820539458E+00
  0.198820522535E+00
  0.198820541243E+00
  0.198820539413E+00
  0.427920811414E-01
  0.427920794672E-01
  0.427920970689E-01
  0.427920811540E-01
  0.427921934641E-01
  0.427920932768E-01
  0.427925722281E-01
  0.427921474230E-01
  0.427938961516E-01
  0.427923487162E-01
  0.427983104687E-01
  0.427930347887E-01
 -0.127040083556E+00
 -0.127030268431E+00
 -0.127033426930E+00
 -0.126992529321E+00
 -0.127014614275E+00
 -0.126892175010E+00
 -0.126973131384E+00
 -0.126673596306E+00
 -0.126884017833E+00
 -0.126325373371E+00
 -0.126094945329E+00
 -0.123561780324E+00
 -0.486144292355E-01
 -0.421669307538E-01
 -0.402759012580E-01
 -0.388143909621E-01
 -0.398798269970E-01
 -0.383544771810E-01
 -0.388884755818E-01
 -0.381009836602E-01
 -0.382036398992E-01
 -0.379914528627E-01
 -0.380274712962E-01
 -0.379519088598E-01
  0.198815674017E+00
  0.198790128045E+00
  0.198818867575E+00
  0.198809807427E+00
  0.198820049290E+00
  0.198817100132E+00
  0.198820423440E+00
  0.198819599917E+00
  0.198820522535E+00
  0.198820362263E+00
  0.198820539413E+00
  0.198820518636E+00
  0.427921001446E-01
  0.427920811414E-01
  0.427922475430E-01
  0.427920970689E-01
  0.427929840441E-01
  0.427921934640E-01
  0.427954974342E-01
  0.427925722256E-01
  0.428039270920E-01
  0.427938960965E-01
  0.428295942233E-01
  0.427983096636E-01
 -0.127030268854E+00
 -0.126972133067E+00
 -0.126992532289E+00
 -0.126775938512E+00
 -0.126892207073E+00
 -0.126348468871E+00
 -0.126673776545E+00
 -0.125725730359E+00
 -0.126325895102E+00
 -0.124395379103E+00
 -0.123562821684E+00
 -0.116655054110E+00
 -0.719904457546E-01
 -0.486351012900E-01
 -0.540510334854E-01
 -0.402787046197E-01
 -0.421903112342E-01
 -0.398807016326E-01
 -0.393151818669E-01
 -0.388896357426E-01
 -0.395753887762E-01
 -0.382037493840E-01
 -0.384190536498E-01
 -0.380274790733E-01
  0.198790108763E+00
  0.198647121306E+00
  0.198809805528E+00
  0.198753267809E+00
  0.198817100015E+00
  0.198797799435E+00
  0.198819599912E+00
  0.198813353440E+00
  0.198820362263E+00
  0.198818877853E+00
  0.198820518636E+00
  0.198820282855E+00
  0.427923158771E-01
  0.427921001446E-01
  0.427936458821E-01
  0.427922475429E-01
  0.427990660528E-01
  0.427929840392E-01
  0.428147677498E-01
  0.427954973174E-01
  0.428613005318E-01
  0.428039251403E-01
  0.430111940259E-01
  0.428295667455E-01
 -0.126972147284E+00
 -0.126717660459E+00
 -0.126776001117E+00
 -0.125824536297E+00
 -0.126349109182E+00
 -0.123442864674E+00
 -0.125730595737E+00
 -0.123138880814E+00
 -0.124404315220E+00
 -0.127729592935E+00
 -0.116656624285E+00
 -0.114088561984E+00
 -0.969589958919E-01
 -0.723513084177E-01
 -0.690618667724E-01
 -0.543463746880E-01
 -0.629269973993E-01
 -0.423156229063E-01
 -0.584114285971E-01
 -0.393192704074E-01
 -0.410640622930E-01
 -0.395763624646E-01
 -0.397935572371E-01
 -0.384192757449E-01
  0.198646570106E+00
  0.197880992525E+00
  0.198753213903E+00
  0.198474000499E+00
  0.198797794454E+00
  0.198678304350E+00
  0.198813353135E+00
  0.198766794658E+00
  0.198818877844E+00
  0.198805369682E+00
  0.198820282855E+00
  0.198817603900E+00
  0.427947621219E-01
  0.427923158770E-01
  0.428061773905E-01
  0.427936458740E-01
  0.428422473489E-01
  0.427990657876E-01
  0.429312985407E-01
  0.428147630853E-01
  0.432063208104E-01
  0.428612282214E-01
  0.437545525370E-01
  0.430106073179E-01
 -0.126717953280E+00
 -0.124829585933E+00
 -0.125827730930E+00
 -0.123632229008E+00
 -0.123449041529E+00
 -0.130402246753E+00
 -0.123128414305E+00
 -0.130027800396E+00
 -0.127728880347E+00
 -0.129658438440E+00
 -0.114088184091E+00
 -0.106718746640E+00
 -0.132051386953E+00
 -0.977237600650E-01
 -0.870249300099E-01
 -0.697706876218E-01
 -0.797470644966E-01
 -0.634322603508E-01
 -0.722928035865E-01
 -0.587920349691E-01
 -0.647017739938E-01
 -0.411322652535E-01
 -0.485007066673E-01
 -0.397976398882E-01
  0.197871306336E+00
  0.195360139406E+00
  0.198471933571E+00
  0.196699849343E+00
  0.198678135702E+00
  0.198020412914E+00
  0.198766780623E+00
  0.198470905263E+00
  0.198805368962E+00
  0.198691183714E+00
  0.198817603885E+00
  0.198787378242E+00
  0.428226905032E-01
  0.427947621095E-01
  0.429177197879E-01
  0.428061767081E-01
  0.431531455134E-01
  0.428422322582E-01
  0.435745532385E-01
  0.429311306533E-01
  0.443559996342E-01
  0.432051615059E-01
  0.492995697862E-01
  0.437317514196E-01
 -0.124841008345E+00
 -0.127633823993E+00
 -0.123624075949E+00
 -0.132489971379E+00
 -0.130416289081E+00
 -0.131862852368E+00
 -0.130042262176E+00
 -0.130837757696E+00
 -0.129673239904E+00
 -0.128160126578E+00
 -0.106736051951E+00
 -0.852900744348E-01
 -0.169151291567E+00
 -0.133353390211E+00
 -0.986420613829E-01
 -0.886509911546E-01
 -0.100441631656E+00
 -0.809999221250E-01
 -0.911834506290E-01
 -0.731449449017E-01
 -0.791424412510E-01
 -0.652760550794E-01
 -0.706164608225E-01
 -0.487616750227E-01
  0.194856005271E+00
  0.166595680469E+00
  0.196690212212E+00
  0.195135408043E+00
  0.198015457669E+00
  0.195088392584E+00
  0.198470050157E+00
  0.196300008166E+00
  0.198691120170E+00
  0.197662757243E+00
  0.198787376253E+00
  0.198432266562E+00
  0.431289947815E-01
  0.428226890107E-01
  0.437395116268E-01
  0.429176777437E-01
  0.446977340377E-01
  0.431526764780E-01
  0.467618987750E-01
  0.435701328437E-01
  0.545273179958E-01
  0.442923505791E-01
  0.359284653170E-01
  0.492998400845E-01
 -0.127630922079E+00
 -0.134875566597E+00
 -0.132512658978E+00
 -0.131990515586E+00
 -0.131875925906E+00
 -0.131693542766E+00
 -0.130847385573E+00
 -0.125555546579E+00
 -0.128155764062E+00
 -0.105594278337E+00
 -0.852881096008E-01
  0.106776173606E-01
 -0.251584011907E+00
 -0.168575640999E+00
 -0.926816649465E-01
 -0.987088554109E-01
 -0.843819240409E-01
 -0.101380339622E+00
 -0.793990389974E-01
 -0.936233191651E-01
 -0.102062813989E+00
 -0.808011317803E-01
 -0.871038668519E-01
 -0.718271910211E-01
  0.163120881000E+00
  0.134123116033E+00
  0.193634262780E+00
  0.145505111420E+00
  0.194996608143E+00
  0.180177576432E+00
  0.196291254468E+00
  0.191133231610E+00
  0.197660888701E+00
  0.192897167766E+00
  0.198432102407E+00
  0.195209004213E+00
  0.473343186658E-01
  0.431287149259E-01
  0.522192913622E-01
  0.437345051652E-01
  0.579105718855E-01
  0.446578784085E-01
  0.513037703990E-01
  0.466923959881E-01
  0.317585347624E-01
  0.545075712723E-01
  0.279739224693E-01
  0.358863045689E-01
 -0.134909097493E+00
 -0.133571300638E+00
 -0.132012801538E+00
 -0.129893628989E+00
 -0.131698783211E+00
 -0.848614593491E-01
 -0.125794725574E+00
 -0.613174064331E-01
 -0.107029859165E+00
 -0.304760782407E-01
  0.709020442983E-02
  0.243524103757E+00
 -0.177200059586E+00
 -0.251841653298E+00
 -0.125479227714E+00
 -0.942119986816E-01
 -0.945833613396E-01
 -0.853991282829E-01
 -0.742649779707E-01
 -0.801033750361E-01
 -0.597747460362E-01
 -0.105959244950E+00
 -0.917832736497E-01
 -0.928406855316E-01
  0.121820033933E+00
  0.104668290718E+00
  0.134746771472E+00
  0.104085239713E+00
  0.172814513684E+00
  0.107687012481E+00
  0.188161077660E+00
  0.109235363123E+00
  0.192072973856E+00
  0.108891152965E+00
  0.195081531500E+00
  0.108079434241E+00
  0.472518408859E-01
  0.473343185579E-01
  0.443741947361E-01
  0.522170083192E-01
  0.399782440491E-01
  0.578635336659E-01
  0.335882723447E-01
  0.511145386282E-01
  0.293283400927E-01
  0.315634585809E-01
  0.319090656176E-01
  0.278186137384E-01
 -0.133637509227E+00
 -0.103158185542E+00
 -0.129971240268E+00
 -0.345466792800E-01
 -0.899855031446E-01
 -0.122316299824E-01
 -0.729327168433E-01
  0.114042900244E-01
 -0.491333600731E-01
  0.482088793143E-01
  0.210098824167E+00
  0.139912181623E+00
 -0.226932622264E+00
 -0.189849928862E+00
 -0.157621694471E+00
 -0.136061285799E+00
 -0.115745614671E+00
 -0.100967859525E+00
 -0.893922397699E-01
 -0.758646317975E-01
 -0.740554929056E-01
 -0.964048462228E-01
 -0.106347791803E+00
  0.659112708185E-01
  0.672714151601E-01
  0.649901583308E-01
  0.655964937262E-01
  0.657395873156E-01
  0.663717003064E-01
  0.664514126104E-01
  0.673247040046E-01
  0.668803427493E-01
  0.676889300220E-01
  0.671284845470E-01
  0.443739283869E-01
  0.422938633983E-01
  0.421961712293E-01
  0.393327982329E-01
  0.386808366458E-01
  0.347258220760E-01
  0.331538077145E-01
  0.310206422465E-01
  0.293989793143E-01
  0.327016938577E-01
  0.320824815064E-01
 -0.103555353760E+00
 -0.957426137720E-01
 -0.494180088983E-01