# vtk DataFile Version 3.0
MachLine results file. Generated by MachLine, USU AeroLab (c) 2022.
ASCII
DATASET POLYDATA
POINTS                 419 float
  0.100000000000E+01  0.000000000000E+00  0.000000000000E+00
  0.953837434700E+00  0.222222222220E+00 -0.403870114270E-02
  0.100000000000E+01  0.222222222220E+00  0.000000000000E+00
  0.953837434700E+00  0.000000000000E+00 -0.403870114270E-02
  0.863184801440E+00  0.222222222220E+00 -0.119697788720E-01
  0.863184801440E+00  0.000000000000E+00 -0.119697788720E-01
  0.708754398800E+00  0.222222222220E+00 -0.254806884070E-01
  0.708754398800E+00  0.000000000000E+00 -0.254806884070E-01
  0.500000000000E+00  0.222222222220E+00 -0.437443317630E-01
  0.500000000000E+00  0.000000000000E+00 -0.437443317630E-01
  0.291245601200E+00  0.000000000000E+00 -0.254806884070E-01
  0.291245601200E+00  0.222222222220E+00 -0.254806884070E-01
  0.136815198560E+00  0.000000000000E+00 -0.119697788720E-01
  0.136815198560E+00  0.222222222220E+00 -0.119697788720E-01
  0.461625652960E-01  0.000000000000E+00 -0.403870114270E-02
  0.461625652960E-01  0.222222222220E+00 -0.403870114270E-02
  0.000000000000E+00  0.000000000000E+00  0.000000000000E+00
  0.000000000000E+00  0.222222222220E+00  0.000000000000E+00
  0.461625652960E-01  0.222222222220E+00  0.403870114270E-02
  0.461625652960E-01  0.000000000000E+00  0.403870114270E-02
  0.136815198560E+00  0.222222222220E+00  0.119697788720E-01
  0.136815198560E+00  0.000000000000E+00  0.119697788720E-01
  0.291245601200E+00  0.222222222220E+00  0.254806884070E-01
  0.291245601200E+00  0.000000000000E+00  0.254806884070E-01
  0.500000000000E+00  0.222222222220E+00  0.437443317630E-01
  0.500000000000E+00  0.000000000000E+00  0.437443317630E-01
  0.708754398800E+00  0.000000000000E+00  0.254806884070E-01
  0.708754398800E+00  0.222222222220E+00  0.254806884070E-01
  0.863184801440E+00  0.000000000000E+00  0.119697788720E-01
  0.863184801440E+00  0.222222222220E+00  0.119697788720E-01
  0.953837434700E+00  0.000000000000E+00  0.403870114270E-02
  0.953837434700E+00  0.222222222220E+00  0.403870114270E-02
  0.953837434700E+00  0.444444444440E+00 -0.403870114270E-02
  0.100000000000E+01  0.444444444440E+00  0.000000000000E+00
  0.863184801440E+00  0.444444444440E+00 -0.119697788720E-01
  0.708754398800E+00  0.444444444440E+00 -0.254806884070E-01
  0.500000000000E+00  0.444444444440E+00 -0.437443317630E-01
  0.291245601200E+00  0.444444444440E+00 -0.254806884070E-01
  0.136815198560E+00  0.444444444440E+00 -0.119697788720E-01
  0.461625652960E-01  0.444444444440E+00 -0.403870114270E-02
  0.000000000000E+00  0.444444444440E+00  0.000000000000E+00
  0.461625652960E-01  0.444444444440E+00  0.403870114270E-02
  0.136815198560E+00  0.444444444440E+00  0.119697788720E-01
  0.291245601200E+00  0.444444444440E+00  0.254806884070E-01
  0.500000000000E+00  0.444444444440E+00  0.437443317630E-01
  0.708754398800E+00  0.444444444440E+00  0.254806884070E-01
  0.863184801440E+00  0.444444444440E+00  0.119697788720E-01
  0.953837434700E+00  0.444444444440E+00  0.403870114270E-02
  0.953837434700E+00  0.666666666670E+00 -0.403870114270E-02
  0.100000000000E+01  0.666666666670E+00  0.000000000000E+00
  0.863184801440E+00  0.666666666670E+00 -0.119697788720E-01
  0.708754398800E+00  0.666666666670E+00 -0.254806884070E-01
  0.500000000000E+00  0.666666666670E+00 -0.437443317630E-01
  0.291245601200E+00  0.666666666670E+00 -0.254806884070E-01
  0.136815198560E+00  0.666666666670E+00 -0.119697788720E-01
  0.461625652960E-01  0.666666666670E+00 -0.403870114270E-02
  0.000000000000E+00  0.666666666670E+00  0.000000000000E+00
  0.461625652960E-01  0.666666666670E+00  0.403870114270E-02
  0.136815198560E+00  0.666666666670E+00  0.119697788720E-01
  0.291245601200E+00  0.666666666670E+00  0.254806884070E-01
  0.500000000000E+00  0.666666666670E+00  0.437443317630E-01
  0.708754398800E+00  0.666666666670E+00  0.254806884070E-01
  0.863184801440E+00  0.666666666670E+00  0.119697788720E-01
  0.953837434700E+00  0.666666666670E+00  0.403870114270E-02
  0.953837434700E+00  0.888888888890E+00 -0.403870114270E-02
  0.100000000000E+01  0.888888888890E+00  0.000000000000E+00
  0.863184801440E+00  0.888888888890E+00 -0.119697788720E-01
  0.708754398800E+00  0.888888888890E+00 -0.254806884070E-01
  0.500000000000E+00  0.888888888890E+00 -0.437443317630E-01
  0.291245601200E+00  0.888888888890E+00 -0.254806884070E-01
  0.136815198560E+00  0.888888888890E+00 -0.119697788720E-01
  0.461625652960E-01  0.888888888890E+00 -0.403870114270E-02
  0.000000000000E+00  0.888888888890E+00  0.000000000000E+00
  0.461625652960E-01  0.888888888890E+00  0.403870114270E-02
  0.136815198560E+00  0.888888888890E+00  0.119697788720E-01
  0.291245601200E+00  0.888888888890E+00  0.254806884070E-01
  0.500000000000E+00  0.888888888890E+00  0.437443317630E-01
  0.708754398800E+00  0.888888888890E+00  0.254806884070E-01
  0.863184801440E+00  0.888888888890E+00  0.119697788720E-01
  0.953837434700E+00  0.888888888890E+00  0.403870114270E-02
  0.953837434700E+00  0.111111111110E+01 -0.403870114270E-02
  0.100000000000E+01  0.111111111110E+01  0.000000000000E+00
  0.863184801440E+00  0.111111111110E+01 -0.119697788720E-01
  0.708754398800E+00  0.111111111110E+01 -0.254806884070E-01
  0.500000000000E+00  0.111111111110E+01 -0.437443317630E-01
  0.291245601200E+00  0.111111111110E+01 -0.254806884070E-01
  0.136815198560E+00  0.111111111110E+01 -0.119697788720E-01
  0.461625652960E-01  0.111111111110E+01 -0.403870114270E-02
  0.000000000000E+00  0.111111111110E+01  0.000000000000E+00
  0.461625652960E-01  0.111111111110E+01  0.403870114270E-02
  0.136815198560E+00  0.111111111110E+01  0.119697788720E-01
  0.291245601200E+00  0.111111111110E+01  0.254806884070E-01
  0.500000000000E+00  0.111111111110E+01  0.437443317630E-01
  0.708754398800E+00  0.111111111110E+01  0.254806884070E-01
  0.863184801440E+00  0.111111111110E+01  0.119697788720E-01
  0.953837434700E+00  0.111111111110E+01  0.403870114270E-02
  0.953837434700E+00  0.133333333330E+01 -0.403870114270E-02
  0.100000000000E+01  0.133333333330E+01  0.000000000000E+00
  0.863184801440E+00  0.133333333330E+01 -0.119697788720E-01
  0.708754398800E+00  0.133333333330E+01 -0.254806884070E-01
  0.500000000000E+00  0.133333333330E+01 -0.437443317630E-01
  0.291245601200E+00  0.133333333330E+01 -0.254806884070E-01
  0.136815198560E+00  0.133333333330E+01 -0.119697788720E-01
  0.461625652960E-01  0.133333333330E+01 -0.403870114270E-02
  0.000000000000E+00  0.133333333330E+01  0.000000000000E+00
  0.461625652960E-01  0.133333333330E+01  0.403870114270E-02
  0.136815198560E+00  0.133333333330E+01  0.119697788720E-01
  0.291245601200E+00  0.133333333330E+01  0.254806884070E-01
  0.500000000000E+00  0.133333333330E+01  0.437443317630E-01
  0.708754398800E+00  0.133333333330E+01  0.254806884070E-01
  0.863184801440E+00  0.133333333330E+01  0.119697788720E-01
  0.953837434700E+00  0.133333333330E+01  0.403870114270E-02
  0.953837434700E+00  0.155555555560E+01 -0.403870114270E-02
  0.100000000000E+01  0.155555555560E+01  0.000000000000E+00
  0.863184801440E+00  0.155555555560E+01 -0.119697788720E-01
  0.708754398800E+00  0.155555555560E+01 -0.254806884070E-01
  0.500000000000E+00  0.155555555560E+01 -0.437443317630E-01
  0.291245601200E+00  0.155555555560E+01 -0.254806884070E-01
  0.136815198560E+00  0.155555555560E+01 -0.119697788720E-01
  0.461625652960E-01  0.155555555560E+01 -0.403870114270E-02
  0.000000000000E+00  0.155555555560E+01  0.000000000000E+00
  0.461625652960E-01  0.155555555560E+01  0.403870114270E-02
  0.136815198560E+00  0.155555555560E+01  0.119697788720E-01
  0.291245601200E+00  0.155555555560E+01  0.254806884070E-01
  0.500000000000E+00  0.155555555560E+01  0.437443317630E-01
  0.708754398800E+00  0.155555555560E+01  0.254806884070E-01
  0.863184801440E+00  0.155555555560E+01  0.119697788720E-01
  0.953837434700E+00  0.155555555560E+01  0.403870114270E-02
  0.953837434700E+00  0.177777777780E+01 -0.403870114270E-02
  0.100000000000E+01  0.177777777780E+01  0.000000000000E+00
  0.863184801440E+00  0.177777777780E+01 -0.119697788720E-01
  0.708754398800E+00  0.177777777780E+01 -0.254806884070E-01
  0.500000000000E+00  0.177777777780E+01 -0.437443317630E-01
  0.291245601200E+00  0.177777777780E+01 -0.254806884070E-01
  0.136815198560E+00  0.177777777780E+01 -0.119697788720E-01
  0.461625652960E-01  0.177777777780E+01 -0.403870114270E-02
  0.000000000000E+00  0.177777777780E+01  0.000000000000E+00
  0.461625652960E-01  0.177777777780E+01  0.403870114270E-02
  0.136815198560E+00  0.177777777780E+01  0.119697788720E-01
  0.291245601200E+00  0.177777777780E+01  0.254806884070E-01
  0.500000000000E+00  0.177777777780E+01  0.437443317630E-01
  0.708754398800E+00  0.177777777780E+01  0.254806884070E-01
  0.863184801440E+00  0.177777777780E+01  0.119697788720E-01
  0.953837434700E+00  0.177777777780E+01  0.403870114270E-02
  0.953837434700E+00  0.200000000000E+01 -0.403870114270E-02
  0.100000000000E+01  0.200000000000E+01  0.000000000000E+00
  0.863184801440E+00  0.200000000000E+01 -0.119697788720E-01
  0.708754398800E+00  0.200000000000E+01 -0.254806884070E-01
  0.500000000000E+00  0.200000000000E+01 -0.437443317630E-01
  0.291245601200E+00  0.200000000000E+01 -0.254806884070E-01
  0.136815198560E+00  0.200000000000E+01 -0.119697788720E-01
  0.461625652960E-01  0.200000000000E+01 -0.403870114270E-02
  0.000000000000E+00  0.200000000000E+01  0.000000000000E+00
  0.461625652960E-01  0.200000000000E+01  0.403870114270E-02
  0.136815198560E+00  0.200000000000E+01  0.119697788720E-01
  0.291245601200E+00  0.200000000000E+01  0.254806884070E-01
  0.500000000000E+00  0.200000000000E+01  0.437443317630E-01
  0.708754398800E+00  0.200000000000E+01  0.254806884070E-01
  0.863184801440E+00  0.200000000000E+01  0.119697788720E-01
  0.953837434700E+00  0.200000000000E+01  0.403870114270E-02
  0.953837434700E+00  0.200157141480E+01 -0.372111000410E-02
[...]
CELL_DATA                 800
SCALARS C_p_ise float 1
LOOKUP_TABLE default
 -0.195664068415E-01
 -0.195577080253E-01
 -0.195536647528E-01
 -0.195524876521E-01
 -0.195525148194E-01
 -0.195521243900E-01
 -0.195521167427E-01
 -0.195519954663E-01
  0.226772656769E+00
  0.226772574485E+00
  0.226772678605E+00
  0.226772657712E+00
  0.226772684495E+00
  0.226772682919E+00
  0.226772684847E+00
  0.226772684803E+00
  0.207693382741E-01
  0.207693382343E-01
  0.207693400197E-01
  0.207693385576E-01
  0.207693642198E-01
  0.207693442231E-01
  0.207694496581E-01
  0.207693666546E-01
 -0.138918294458E+00
 -0.138918203846E+00
 -0.138918184985E+00
 -0.138917855611E+00
 -0.138917909948E+00
 -0.138916993460E+00
 -0.138913728754E+00
 -0.138906793880E+00
 -0.196326662572E-01
 -0.195664068534E-01
 -0.195626529814E-01
 -0.195536647560E-01
 -0.195555982753E-01
 -0.195525148200E-01
 -0.195530969072E-01
 -0.195521167428E-01
  0.226772574485E+00
  0.226771923525E+00
  0.226772657712E+00
  0.226772478308E+00
  0.226772682919E+00
  0.226772665939E+00
  0.226772684803E+00
  0.226772684152E+00
  0.207693388596E-01
  0.207693382741E-01
  0.207693557682E-01
  0.207693400197E-01
  0.207695360373E-01
  0.207693642198E-01
  0.207701054934E-01
  0.207694496579E-01
 -0.138918203846E+00
 -0.138917465362E+00
 -0.138917855611E+00
 -0.138915268520E+00
 -0.138916993462E+00
 -0.138909999802E+00
 -0.138906793889E+00
 -0.138853946592E+00
 -0.200178441599E-01
 -0.196326666901E-01
 -0.196174349786E-01
 -0.195626531131E-01
 -0.195751653083E-01
 -0.195555982985E-01
 -0.195595672686E-01
 -0.195530969110E-01
  0.226771923519E+00
  0.226767575210E+00
  0.226772478308E+00
  0.226771139504E+00
  0.226772665939E+00
  0.226772501397E+00
  0.226772684152E+00
  0.226772675214E+00
  0.207693468959E-01
  0.207693388596E-01
  0.207695082055E-01
  0.207693557682E-01
  0.207708104878E-01
  0.207695360371E-01
  0.207744532283E-01
  0.207701054871E-01
 -0.138917465365E+00
 -0.138912560066E+00
 -0.138915268538E+00
 -0.138898791372E+00
 -0.138909999907E+00
 -0.138867449937E+00
 -0.138853946913E+00
 -0.138546896552E+00
 -0.219702877483E-01
 -0.200178587977E-01
 -0.199221904452E-01
 -0.196174398861E-01
 -0.196911985907E-01
 -0.195751662498E-01
 -0.196001236622E-01
 -0.195595674283E-01
  0.226767574935E+00
  0.226740002397E+00
  0.226771139491E+00
  0.226761515191E+00
  0.226772501397E+00
  0.226770931463E+00
  0.226772675214E+00
  0.226772552557E+00
  0.207694572019E-01
  0.207693468959E-01
  0.207709657960E-01
  0.207695082054E-01
  0.207800609832E-01
  0.207708104755E-01
  0.208020195558E-01
  0.207744529605E-01
 -0.138912560226E+00
 -0.138882095501E+00
 -0.138898792092E+00
 -0.138802249052E+00
 -0.138867453773E+00
 -0.138629712335E+00
 -0.138546907386E+00
 -0.136980460614E+00
 -0.299463234115E-01
 -0.219706874338E-01
 -0.214111374905E-01
 -0.199223415525E-01
 -0.203085109008E-01
 -0.196912310173E-01
 -0.198291881279E-01
 -0.196001298914E-01
  0.226739991589E+00
  0.226575264863E+00
  0.226761514475E+00
  0.226693580986E+00
  0.226770931453E+00
  0.226756164347E+00
  0.226772552557E+00
  0.226770867934E+00
  0.207709700182E-01
  0.207694572019E-01
  0.207845301002E-01
  0.207709657876E-01
  0.208430311126E-01
  0.207800603755E-01
  0.209647836634E-01
  0.208020094409E-01
 -0.138882101507E+00
 -0.138702267364E+00
 -0.138802275055E+00
 -0.138279964628E+00
 -0.138629835302E+00
 -0.137510415711E+00
 -0.136980755923E+00
 -0.130563381942E+00
 -0.547771292517E-01
 -0.299529871367E-01
 -0.260908929877E-01
 -0.214149008685E-01
 -0.230454165941E-01
 -0.203095643273E-01
 -0.211210796520E-01
 -0.198293913330E-01
  0.226574908904E+00
  0.225676505529E+00
  0.226693550158E+00
  0.226271450170E+00
  0.226756163499E+00
  0.226624913257E+00
  0.226770867928E+00
  0.226747847836E+00
  0.207918197875E-01
  0.207709700135E-01
  0.209094468879E-01
  0.207845293453E-01
  0.212712368557E-01
  0.208430003840E-01
  0.218293282331E-01
  0.209644493744E-01
 -0.138702463423E+00
 -0.137838311363E+00
 -0.138280663624E+00
 -0.136011525005E+00
 -0.137513152762E+00
 -0.132814332500E+00
 -0.130569558976E+00
 -0.108361096928E+00
 -0.138245414653E+00
 -0.549724057038E-01
 -0.592189335189E-01
 -0.261539757891E-01
 -0.357379828875E-01
 -0.230573331282E-01
 -0.242942929888E-01
 -0.211262166549E-01
  0.225667114077E+00
  0.221850645957E+00
  0.226269825913E+00
  0.223404525223E+00
  0.226624835170E+00
  0.225418296453E+00
  0.226747846707E+00
  0.226423790588E+00
  0.210709581689E-01
  0.207918189573E-01
  0.219062502501E-01
  0.209093936452E-01
  0.234503851457E-01
  0.212702729668E-01
  0.261470166754E-01
  0.218204074855E-01
 -0.137843530609E+00
 -0.132835199655E+00
 -0.136033467210E+00
 -0.132527783247E+00
 -0.132846754506E+00
 -0.132902979880E+00
 -0.108374996820E+00
 -0.606661009690E-01
 -0.260871110384E+00
 -0.140639301518E+00
 -0.113783962654E+00
 -0.613418421730E-01
 -0.869423028208E-01
 -0.366635778223E-01
 -0.665074729299E-01
 -0.244112524429E-01
  0.221654609241E+00
  0.201924169349E+00
  0.223382667567E+00
  0.215039338673E+00
  0.225415132256E+00
  0.218619949575E+00
  0.226423636507E+00
  0.222642720721E+00
  0.254914701890E-01
  0.210707512231E-01
  0.318193143593E-01
  0.219002466549E-01
  0.395499456266E-01
  0.233872512383E-01
  0.318175694405E-01
  0.260350174654E-01
 -0.132886920332E+00
 -0.144126543175E+00
 -0.132496364976E+00
 -0.131980204239E+00
 -0.132872947915E+00
 -0.109178131901E+00
 -0.605969403415E-01
  0.155381650283E+00
 -0.162978892114E+00
 -0.260972016267E+00
 -0.112827841505E+00
 -0.116390940990E+00
 -0.747706017681E-01
 -0.918603173765E-01
 -0.874494276887E-01
 -0.718591012678E-01
  0.191932894321E+00
  0.121099774458E+00
  0.210970707897E+00
  0.122448680901E+00
  0.217642189550E+00
  0.121337056691E+00
  0.222522841669E+00
  0.120186546604E+00
  0.394137518038E-01
  0.254894513839E-01
  0.365996210460E-01
  0.318138090039E-01
  0.312464677184E-01
  0.395559435685E-01
  0.226502027926E-01
  0.318590459085E-01
 -0.144132673632E+00
 -0.858866380237E-01
 -0.132581638146E+00
  0.264399248824E-02
 -0.114493656537E+00
  0.521785307833E-01
  0.137639209613E+00
  0.140431565744E+00
 -0.204814774692E+00
 -0.165706659635E+00
 -0.138708787794E+00
 -0.108634591872E+00
 -0.893173632211E-01
 -0.961610319502E-01
 -0.109322918133E+00
  0.656209824307E-01
  0.672627099352E-01
  0.668365824317E-01
  0.687311207854E-01
  0.677281501728E-01
  0.690252366431E-01
  0.682391347441E-01
  0.385541708410E-01
  0.365027377720E-01
  0.361117471940E-01
  0.324890699702E-01
  0.311700935547E-01
  0.256586799682E-01
  0.225630502206E-01
 -0.868112974734E-01
 -0.108385171953E+00
 -0.527752357169E-01
 -0.128461458658E+00
 -0.103014509090E+00
 -0.216843546799E+00
 -0.185103545815E+00
 -0.255613931909E+00
 -0.232638346162E+00
 -0.173293533578E+00
 -0.153224383686E+00
 -0.107145372988E+00
 -0.115570625334E+00
 -0.994750740258E-01
  0.442720175381E-01
  0.466541382914E-01
  0.470256548652E-01
  0.492587608532E-01
  0.489284556067E-01
  0.503930915816E-01
  0.500133103954E-01
  0.370840247846E-01
  0.356899968368E-01
  0.345090261022E-01
  0.320886732404E-01
  0.295117329999E-01
  0.257621726659E-01
  0.212434822017E-01
 -0.777820816844E-01
 -0.117832886628E+00
 -0.830151350930E-01
 -0.178551386940E+00
 -0.168270928337E+00
 -0.286875455221E+00
 -0.274399960957E+00
 -0.294860305743E+00
 -0.284686672547E+00
 -0.201921441999E+00
 -0.191775435633E+00
 -0.118406677282E+00
 -0.132744562115E+00
 -0.894906540907E-01
  0.297833641531E-01
  0.321554832232E-01
  0.333201247097E-01
  0.353998589934E-01
  0.356929313363E-01
  0.370444386092E-01
  0.370422715640E-01
  0.324530937321E-01
  0.316052603058E-01
  0.300162962204E-01
  0.285514516898E-01
  0.254579826120E-01
  0.230751008305E-01
  0.181658624637E-01
 -0.774539304486E-01
 -0.125935919643E+00
 -0.106613302597E+00
 -0.205556173219E+00
 -0.205987724762E+00
 -0.314005324013E+00
 -0.310693824268E+00
 -0.315995222210E+00
 -0.313770044763E+00
 -0.218022977757E+00
 -0.217170029403E+00
 -0.120778030777E+00
 -0.144553215667E+00
 -0.789852871158E-01
  0.210264532762E-01
  0.232659239103E-01
  0.253696735330E-01
  0.272602271831E-01
  0.282260796881E-01
  0.294444545379E-01
  0.298335736190E-01
  0.287818004608E-01
  0.283898959440E-01
  0.266868517232E-01
  0.259967916959E-01
  0.228780903745E-01
  0.215734650449E-01
  0.169324616485E-01
 -0.826014683476E-01
 -0.129928405233E+00
 -0.122039823286E+00
 -0.213628002377E+00
 -0.222590940164E+00
 -0.319150384620E+00
 -0.321129029494E+00
 -0.195664448953E-01
 -0.195577080253E-01
 -0.195536647528E-01
 -0.195524876521E-01
 -0.195525148194E-01
 -0.195521243900E-01
 -0.195521167427E-01
 -0.195519954663E-01
  0.226772656769E+00
  0.226772574485E+00
  0.226772678605E+00
  0.226772657712E+00
  0.226772684495E+00
  0.226772682919E+00
  0.226772684847E+00
  0.226772684803E+00
  0.207693382741E-01
  0.207693382343E-01
  0.207693400197E-01
  0.207693385576E-01
  0.207693642198E-01
  0.207693442231E-01
  0.207694496581E-01
  0.207693666546E-01
 -0.138918294458E+00
 -0.138918203846E+00
 -0.138918184985E+00
 -0.138917855611E+00
 -0.138917909948E+00
 -0.138916993460E+00
 -0.138913728754E+00
 -0.138906763288E+00
 -0.196326993462E-01
 -0.195664449072E-01
 -0.195626529814E-01
 -0.195536647560E-01
 -0.195555982753E-01
 -0.195525148200E-01
 -0.195530969072E-01
 -0.195521167428E-01
  0.226772574485E+00
  0.226771923525E+00
  0.226772657712E+00
  0.226772478308E+00
  0.226772682919E+00
  0.226772665939E+00
  0.226772684803E+00
  0.226772684152E+00
  0.207693388596E-01
  0.207693382741E-01
  0.207693557682E-01
  0.207693400197E-01
  0.207695360373E-01
  0.207693642198E-01
  0.207701054934E-01
  0.207694496579E-01
 -0.138918203846E+00
 -0.138917465362E+00
 -0.138917855611E+00
 -0.138915268520E+00
 -0.138916993462E+00
 -0.138909999802E+00
 -0.138906763297E+00
 -0.138853919985E+00
 -0.200178844926E-01
 -0.196326997791E-01
 -0.196174349786E-01
 -0.195626531131E-01
 -0.195751653083E-01
 -0.195555982985E-01
 -0.195595672686E-01
 -0.195530969110E-01
  0.226771923519E+00
  0.226767575210E+00
  0.226772478308E+00
  0.226771139504E+00
  0.226772665939E+00
  0.226772501397E+00
  0.226772684152E+00
  0.226772675214E+00
  0.207693468959E-01
  0.207693388596E-01
  0.207695082055E-01
  0.207693557682E-01
  0.207708104878E-01
  0.207695360371E-01
  0.207744532283E-01
  0.207701054871E-01
 -0.138917465365E+00
 -0.138912560066E+00
 -0.138915268538E+00
 -0.138898791372E+00
 -0.138909999907E+00
 -0.138867449937E+00
 -0.138853920306E+00
 -0.138546864077E+00
 -0.219702859651E-01
 -0.200178991302E-01
 -0.199221904452E-01
 -0.196174398861E-01
 -0.196911985907E-01
 -0.195751662498E-01
 -0.196001236622E-01
 -0.195595674283E-01
  0.226767574935E+00
  0.226740002397E+00
  0.226771139491E+00
  0.226761515191E+00
  0.226772501397E+00
  0.226770931463E+00
  0.226772675214E+00
  0.226772552557E+00
  0.207694572019E-01
  0.207693468959E-01
  0.207709657960E-01
  0.207695082054E-01
  0.207800609832E-01
  0.207708104755E-01
  0.208020195558E-01
  0.207744529605E-01
 -0.138912560226E+00
 -0.138882095501E+00
 -0.138898792092E+00
 -0.138802249052E+00
 -0.138867453773E+00
 -0.138629712335E+00
 -0.138546874911E+00
 -0.136980462055E+00
 -0.299463365143E-01
 -0.219706856537E-01
 -0.214111374905E-01
 -0.199223415525E-01
 -0.203085109008E-01
 -0.196912310173E-01
 -0.198291881279E-01
 -0.196001298914E-01
  0.226739991589E+00
  0.226575264863E+00
  0.226761514475E+00
  0.226693580986E+00
  0.226770931453E+00
  0.226756164347E+00
  0.226772552557E+00
  0.226770867934E+00
  0.207709700182E-01
  0.207694572019E-01
  0.207845301002E-01
  0.207709657876E-01
  0.208430311126E-01
  0.207800603755E-01
  0.209647836634E-01
  0.208020094409E-01
 -0.138882101507E+00
 -0.138702267364E+00
 -0.138802275055E+00
 -0.138279964627E+00
 -0.138629835302E+00
 -0.137510415711E+00
 -0.136980757366E+00
 -0.130563371023E+00
 -0.547769922575E-01
 -0.299530002345E-01
 -0.260908929906E-01
 -0.214149008685E-01
 -0.230454165949E-01
 -0.203095643273E-01
 -0.211210796522E-01
 -0.198293913330E-01
  0.226574908904E+00
  0.225676505529E+00
  0.226693550158E+00
  0.226271450170E+00
  0.226756163499E+00
  0.226624913257E+00
  0.226770867928E+00
  0.226747847836E+00
  0.207918197875E-01
  0.207709700135E-01
  0.209094468879E-01
  0.207845293453E-01
  0.212712368557E-01
  0.208430003840E-01
  0.218293282332E-01
  0.209644493744E-01
 -0.138702463423E+00
 -0.137838311363E+00
 -0.138280663624E+00
 -0.136011525006E+00
 -0.137513152762E+00
 -0.132814332498E+00
 -0.130569548053E+00
 -0.108361221818E+00
 -0.138245354901E+00
 -0.549722689521E-01
 -0.592189337850E-01
 -0.261539757919E-01
 -0.357379828692E-01
 -0.230573331289E-01
 -0.242942929836E-01
 -0.211262166552E-01
  0.225667114077E+00
  0.221850645956E+00
  0.226269825913E+00
  0.223404525222E+00
  0.226624835170E+00
  0.225418296454E+00
  0.226747846707E+00
  0.226423790588E+00
  0.210709581689E-01
  0.207918189573E-01
  0.219062502500E-01
  0.209093936452E-01
  0.234503851451E-01
  0.212702729669E-01
  0.261470166746E-01
  0.218204074857E-01
 -0.137843530609E+00
 -0.132835199651E+00
 -0.136033467210E+00
 -0.132527783215E+00
 -0.132846754504E+00
 -0.132902980155E+00
 -0.108375121868E+00
 -0.606661737532E-01
 -0.260871094112E+00
 -0.140639241949E+00
 -0.113783962699E+00
 -0.613418424295E-01
 -0.869423020987E-01
 -0.366635778168E-01
 -0.665074733448E-01
 -0.244112524376E-01
  0.221654609241E+00
  0.201924169349E+00
  0.223382667566E+00
  0.215039338693E+00
  0.225415132256E+00
  0.218619949576E+00
  0.226423636507E+00
  0.222642720722E+00
  0.254914701890E-01
  0.210707512231E-01
  0.318193143581E-01
  0.219002466548E-01
  0.395499456525E-01
  0.233872512375E-01
  0.318175694320E-01
  0.260350174644E-01
 -0.132886920329E+00
 -0.144126543458E+00
 -0.132496364943E+00
 -0.131980203721E+00
 -0.132872948191E+00
 -0.109178131772E+00
 -0.605970129728E-01
  0.155381607427E+00
 -0.162978892415E+00
 -0.260971999722E+00
 -0.112827841188E+00
 -0.116390941068E+00
 -0.747706018336E-01
 -0.918603166491E-01
 -0.874494278341E-01
 -0.718591016627E-01
  0.191932894326E+00
  0.121099774847E+00
  0.210970707893E+00
  0.122448680424E+00
  0.217642189552E+00
  0.121337056703E+00
  0.222522841669E+00
  0.120186546605E+00
  0.394137518035E-01
  0.254894513839E-01
  0.365996210338E-01
  0.318138090028E-01
  0.312464673321E-01
  0.395559435942E-01
  0.226502030883E-01
  0.318590459001E-01
 -0.144132673916E+00
 -0.858866380715E-01
 -0.132581637635E+00
  0.264399280000E-02
 -0.114493656412E+00
  0.521785304484E-01
  0.137639168208E+00
  0.140431564374E+00
 -0.204814774557E+00
 -0.165706658806E+00
 -0.138708789175E+00
 -0.108634595851E+00
 -0.893173595703E-01
 -0.961610266291E-01
 -0.109322918067E+00
  0.656209831923E-01
  0.672627146722E-01
  0.668365884608E-01
  0.687311221984E-01
  0.677281502953E-01
  0.690252366665E-01
  0.682391347283E-01
  0.385541708367E-01
  0.365027377616E-01
  0.361117471812E-01
  0.324890695891E-01
  0.311700931690E-01
  0.256586802718E-01
  0.225630505151E-01
 -0.868112975189E-01
 -0.108385172091E+00
 -0.527752355910E-01
 -0.128461458784E+00
 -0.103014509754E+00
 -0.216843546825E+00
 -0.185103545698E+00
 -0.255613933057E+00
 -0.232638347662E+00
 -0.173293528781E+00
 -0.153224379693E+00
 -0.107145375772E+00
 -0.115570625730E+00
 -0.994750733095E-01
  0.442720165183E-01
  0.466541423167E-01
  0.470256634039E-01
  0.492587640460E-01
  0.489284556868E-01
  0.503930917123E-01
  0.500133105013E-01
  0.370840247965E-01
  0.356899968942E-01
  0.345090260655E-01
  0.320886728921E-01
  0.295117325389E-01
  0.257621729033E-01
  0.212434823880E-01
 -0.777820818456E-01
 -0.117832886656E+00
 -0.830151346965E-01
 -0.178551384323E+00
 -0.168270925734E+00
 -0.286875454533E+00
 -0.274399960196E+00
 -0.294860305881E+00
 -0.284686672860E+00
 -0.201921441754E+00
 -0.191775435160E+00
 -0.118406683539E+00
 -0.132744567844E+00
 -0.894906534700E-01
  0.297833617678E-01
  0.321554819503E-01
  0.333201293305E-01
  0.353998623865E-01
  0.356929311919E-01
  0.370444386005E-01
  0.370422715681E-01
  0.324530936527E-01
  0.316052602521E-01
  0.300162962227E-01
  0.285514513938E-01
  0.254579822398E-01
  0.230751010323E-01
  0.181658628836E-01
 -0.774539305428E-01
 -0.125935919712E+00
 -0.106613302484E+00
 -0.205556173606E+00
 -0.205987725264E+00
 -0.314005323762E+00
 -0.310693823972E+00
 -0.315995220993E+00
 -0.313770043518E+00
 -0.218022977798E+00
 -0.217170029300E+00
 -0.120778030073E+00
 -0.144553215065E+00
 -0.789852875144E-01
  0.210264503676E-01
  0.232659166661E-01
  0.253696697850E-01
  0.272602285910E-01
  0.282260796874E-01
  0.294444544923E-01
  0.298335735716E-01
  0.287818004544E-01
  0.283898959395E-01
  0.266868518090E-01
  0.259967931872E-01
  0.228780861234E-01
  0.215734590618E-01
  0.169324623255E-01
 -0.826014680986E-01
 -0.129928405290E+00
 -0.122039823296E+00
 -0.213628002003E+00
 -0.222590939886E+00
 -0.319150384602E+00
 -0.321129029461E+00
SCALARS C_p_2nd float 1
LOOKUP_TABLE default
 -0.195783707817E-01
 -0.195696662207E-01
 -0.195656202782E-01
 -0.195644424003E-01
 -0.195644695856E-01
 -0.195640788983E-01
 -0.195640712460E-01
 -0.195639498895E-01
  0.252024403679E+00
  0.252024307862E+00
  0.252024429106E+00
  0.252024404777E+00
  0.252024435964E+00
  0.252024434129E+00
  0.252024436375E+00
  0.252024436324E+00
  0.207837286152E-01
  0.207837285754E-01
  0.207837303622E-01
  0.207837288989E-01
  0.207837545819E-01
  0.207837345691E-01
  0.207838400893E-01
  0.207837570187E-01
 -0.143515854130E+00
 -0.143515761818E+00
 -0.143515742603E+00
 -0.143515407051E+00
 -0.143515462408E+00
 -0.143514528729E+00
 -0.143511202783E+00
 -0.143504137814E+00
 -0.196446739807E-01
 -0.195783707940E-01
 -0.195746144429E-01
 -0.195656202816E-01
 -0.195675550776E-01
 -0.195644695861E-01
 -0.195650520577E-01
 -0.195640712461E-01
  0.252024307861E+00
  0.252023549841E+00
  0.252024404777E+00
  0.252024195868E+00
  0.252024434129E+00
  0.252024414356E+00
  0.252024436324E+00
  0.252024435565E+00
  0.207837292012E-01
  0.207837286152E-01
  0.207837461235E-01
  0.207837303622E-01
  0.207839265383E-01
  0.207837545819E-01
  0.207844964550E-01
  0.207838400891E-01
 -0.143515761819E+00
 -0.143515009482E+00
 -0.143515407052E+00
 -0.143512771433E+00
 -0.143514528732E+00
 -0.143507403884E+00
 -0.143504137826E+00
 -0.143450298751E+00
 -0.200301072885E-01
 -0.196446744314E-01
 -0.196294326527E-01
 -0.195746145800E-01
 -0.195871350390E-01
 -0.195675551019E-01
 -0.195715266929E-01
 -0.195650520616E-01
  0.252023549836E+00
  0.252018486382E+00
  0.252024195867E+00
  0.252022636876E+00
  0.252024414356E+00
  0.252024222752E+00
  0.252024435565E+00
  0.252024425157E+00
  0.207837372439E-01
  0.207837292012E-01
  0.207838986840E-01
  0.207837461235E-01
  0.207852020196E-01
  0.207839265381E-01
  0.207888477064E-01
  0.207844964490E-01
 -0.143515009487E+00
 -0.143510012179E+00
 -0.143512771459E+00
 -0.143495985213E+00
 -0.143507404033E+00
 -0.143464055719E+00
 -0.143450299207E+00
 -0.143137472696E+00
 -0.219838705783E-01
 -0.200301225419E-01
 -0.199343906705E-01
 -0.196294377623E-01
 -0.197032452358E-01
 -0.195871360192E-01
 -0.196121099189E-01
 -0.195715268591E-01
  0.252018486188E+00
  0.251986379080E+00
  0.252022636867E+00
  0.252011429723E+00
  0.252024222752E+00
  0.252022394618E+00
  0.252024425157E+00
  0.252024282327E+00
  0.207838476392E-01
  0.207837372439E-01
  0.207853574534E-01
  0.207838986839E-01
  0.207944599974E-01
  0.207852020078E-01
  0.208164363373E-01
  0.207888474492E-01
 -0.143510012407E+00
 -0.143478976338E+00
 -0.143495986237E+00
 -0.143397631939E+00
 -0.143464061172E+00
 -0.143221853476E+00
 -0.143137488081E+00
 -0.141541208159E+00
 -0.299658671828E-01
 -0.219842888071E-01
 -0.214243578411E-01
 -0.199345481018E-01
 -0.203209744646E-01
 -0.197032790030E-01
 -0.198413274649E-01
 -0.196121164044E-01
  0.251986371472E+00
  0.251794559102E+00
  0.252011429220E+00
  0.251932324418E+00
  0.252022394611E+00
  0.252005198889E+00
  0.252024282327E+00
  0.252022320641E+00
  0.207853616790E-01
  0.207838476391E-01