# vtk DataFile Version 3.0
MachLine results file. Generated by MachLine, USU AeroLab (c) 2022.
ASCII
DATASET POLYDATA
POINTS                1127 float
  0.100000000000E+01  0.000000000000E+00  0.000000000000E+00
  0.973034464140E+00  0.105263157890E+00 -0.235917869390E-02
  0.100000000000E+01  0.105263157890E+00  0.000000000000E+00
  0.973034464140E+00  0.000000000000E+00 -0.235917869390E-02
  0.929717765040E+00  0.105263157890E+00 -0.614889880620E-02
  0.929717765040E+00  0.000000000000E+00 -0.614889880620E-02
  0.863184801440E+00  0.105263157890E+00 -0.119697788720E-01
  0.863184801440E+00  0.000000000000E+00 -0.119697788720E-01
  0.767714243180E+00  0.105263157890E+00 -0.203223704200E-01
  0.767714243180E+00  0.000000000000E+00 -0.203223704200E-01
  0.643290544900E+00  0.105263157890E+00 -0.312080334940E-01
  0.643290544900E+00  0.000000000000E+00 -0.312080334940E-01
  0.500000000000E+00  0.105263157890E+00 -0.437443317630E-01
  0.500000000000E+00  0.000000000000E+00 -0.437443317630E-01
  0.356709455100E+00  0.000000000000E+00 -0.312080334940E-01
  0.356709455100E+00  0.105263157890E+00 -0.312080334940E-01
  0.232285756820E+00  0.000000000000E+00 -0.203223704200E-01
  0.232285756820E+00  0.105263157890E+00 -0.203223704200E-01
  0.136815198560E+00  0.000000000000E+00 -0.119697788720E-01
  0.136815198560E+00  0.105263157890E+00 -0.119697788720E-01
  0.702822349590E-01  0.000000000000E+00 -0.614889880620E-02
  0.702822349590E-01  0.105263157890E+00 -0.614889880620E-02
  0.269655358630E-01  0.000000000000E+00 -0.235917869390E-02
  0.269655358630E-01  0.105263157890E+00 -0.235917869390E-02
  0.000000000000E+00  0.000000000000E+00  0.000000000000E+00
  0.000000000000E+00  0.105263157890E+00  0.000000000000E+00
  0.269655358630E-01  0.105263157890E+00  0.235917869390E-02
  0.269655358630E-01  0.000000000000E+00  0.235917869390E-02
  0.702822349590E-01  0.105263157890E+00  0.614889880620E-02
  0.702822349590E-01  0.000000000000E+00  0.614889880620E-02
  0.136815198560E+00  0.105263157890E+00  0.119697788720E-01
  0.136815198560E+00  0.000000000000E+00  0.119697788720E-01
  0.232285756820E+00  0.105263157890E+00  0.203223704200E-01
  0.232285756820E+00  0.000000000000E+00  0.203223704200E-01
  0.356709455100E+00  0.105263157890E+00  0.312080334940E-01
  0.356709455100E+00  0.000000000000E+00  0.312080334940E-01
  0.500000000000E+00  0.105263157890E+00  0.437443317630E-01
  0.500000000000E+00  0.000000000000E+00  0.437443317630E-01
  0.643290544900E+00  0.000000000000E+00  0.312080334940E-01
  0.643290544900E+00  0.105263157890E+00  0.312080334940E-01
  0.767714243180E+00  0.000000000000E+00  0.203223704200E-01
  0.767714243180E+00  0.105263157890E+00  0.203223704200E-01
  0.863184801440E+00  0.000000000000E+00  0.119697788720E-01
  0.863184801440E+00  0.105263157890E+00  0.119697788720E-01
  0.929717765040E+00  0.000000000000E+00  0.614889880620E-02
  0.929717765040E+00  0.105263157890E+00  0.614889880620E-02
  0.973034464140E+00  0.000000000000E+00  0.235917869390E-02
  0.973034464140E+00  0.105263157890E+00  0.235917869390E-02
  0.973034464140E+00  0.210526315790E+00 -0.235917869390E-02
  0.100000000000E+01  0.210526315790E+00  0.000000000000E+00
  0.929717765040E+00  0.210526315790E+00 -0.614889880620E-02
  0.863184801440E+00  0.210526315790E+00 -0.119697788720E-01
  0.767714243180E+00  0.210526315790E+00 -0.203223704200E-01
  0.643290544900E+00  0.210526315790E+00 -0.312080334940E-01
  0.500000000000E+00  0.210526315790E+00 -0.437443317630E-01
  0.356709455100E+00  0.210526315790E+00 -0.312080334940E-01
  0.232285756820E+00  0.210526315790E+00 -0.203223704200E-01
  0.136815198560E+00  0.210526315790E+00 -0.119697788720E-01
  0.702822349590E-01  0.210526315790E+00 -0.614889880620E-02
  0.269655358630E-01  0.210526315790E+00 -0.235917869390E-02
  0.000000000000E+00  0.210526315790E+00  0.000000000000E+00
  0.269655358630E-01  0.210526315790E+00  0.235917869390E-02
  0.702822349590E-01  0.210526315790E+00  0.614889880620E-02
  0.136815198560E+00  0.210526315790E+00  0.119697788720E-01
  0.232285756820E+00  0.210526315790E+00  0.203223704200E-01
  0.356709455100E+00  0.210526315790E+00  0.312080334940E-01
  0.500000000000E+00  0.210526315790E+00  0.437443317630E-01
  0.643290544900E+00  0.210526315790E+00  0.312080334940E-01
  0.767714243180E+00  0.210526315790E+00  0.203223704200E-01
  0.863184801440E+00  0.210526315790E+00  0.119697788720E-01
  0.929717765040E+00  0.210526315790E+00  0.614889880620E-02
  0.973034464140E+00  0.210526315790E+00  0.235917869390E-02
  0.973034464140E+00  0.315789473680E+00 -0.235917869390E-02
  0.100000000000E+01  0.315789473680E+00  0.000000000000E+00
  0.929717765040E+00  0.315789473680E+00 -0.614889880620E-02
  0.863184801440E+00  0.315789473680E+00 -0.119697788720E-01
  0.767714243180E+00  0.315789473680E+00 -0.203223704200E-01
  0.643290544900E+00  0.315789473680E+00 -0.312080334940E-01
  0.500000000000E+00  0.315789473680E+00 -0.437443317630E-01
  0.356709455100E+00  0.315789473680E+00 -0.312080334940E-01
  0.232285756820E+00  0.315789473680E+00 -0.203223704200E-01
  0.136815198560E+00  0.315789473680E+00 -0.119697788720E-01
  0.702822349590E-01  0.315789473680E+00 -0.614889880620E-02
  0.269655358630E-01  0.315789473680E+00 -0.235917869390E-02
  0.000000000000E+00  0.315789473680E+00  0.000000000000E+00
  0.269655358630E-01  0.315789473680E+00  0.235917869390E-02
  0.702822349590E-01  0.315789473680E+00  0.614889880620E-02
  0.136815198560E+00  0.315789473680E+00  0.119697788720E-01
  0.232285756820E+00  0.315789473680E+00  0.203223704200E-01
  0.356709455100E+00  0.315789473680E+00  0.312080334940E-01
  0.500000000000E+00  0.315789473680E+00  0.437443317630E-01
  0.643290544900E+00  0.315789473680E+00  0.312080334940E-01
  0.767714243180E+00  0.315789473680E+00  0.203223704200E-01
  0.863184801440E+00  0.315789473680E+00  0.119697788720E-01
  0.929717765040E+00  0.315789473680E+00  0.614889880620E-02
  0.973034464140E+00  0.315789473680E+00  0.235917869390E-02
  0.973034464140E+00  0.421052631580E+00 -0.235917869390E-02
  0.100000000000E+01  0.421052631580E+00  0.000000000000E+00
  0.929717765040E+00  0.421052631580E+00 -0.614889880620E-02
  0.863184801440E+00  0.421052631580E+00 -0.119697788720E-01
  0.767714243180E+00  0.421052631580E+00 -0.203223704200E-01
  0.643290544900E+00  0.421052631580E+00 -0.312080334940E-01
  0.500000000000E+00  0.421052631580E+00 -0.437443317630E-01
  0.356709455100E+00  0.421052631580E+00 -0.312080334940E-01
  0.232285756820E+00  0.421052631580E+00 -0.203223704200E-01
  0.136815198560E+00  0.421052631580E+00 -0.119697788720E-01
  0.702822349590E-01  0.421052631580E+00 -0.614889880620E-02
  0.269655358630E-01  0.421052631580E+00 -0.235917869390E-02
  0.000000000000E+00  0.421052631580E+00  0.000000000000E+00
  0.269655358630E-01  0.421052631580E+00  0.235917869390E-02
  0.702822349590E-01  0.421052631580E+00  0.614889880620E-02
  0.136815198560E+00  0.421052631580E+00  0.119697788720E-01
  0.232285756820E+00  0.421052631580E+00  0.203223704200E-01
  0.356709455100E+00  0.421052631580E+00  0.312080334940E-01
  0.500000000000E+00  0.421052631580E+00  0.437443317630E-01
  0.643290544900E+00  0.421052631580E+00  0.312080334940E-01
  0.767714243180E+00  0.421052631580E+00  0.203223704200E-01
  0.863184801440E+00  0.421052631580E+00  0.119697788720E-01
  0.929717765040E+00  0.421052631580E+00  0.614889880620E-02
  0.973034464140E+00  0.421052631580E+00  0.235917869390E-02
  0.973034464140E+00  0.526315789470E+00 -0.235917869390E-02
  0.100000000000E+01  0.526315789470E+00  0.000000000000E+00
  0.929717765040E+00  0.526315789470E+00 -0.614889880620E-02
  0.863184801440E+00  0.526315789470E+00 -0.119697788720E-01
  0.767714243180E+00  0.526315789470E+00 -0.203223704200E-01
  0.643290544900E+00  0.526315789470E+00 -0.312080334940E-01
  0.500000000000E+00  0.526315789470E+00 -0.437443317630E-01
  0.356709455100E+00  0.526315789470E+00 -0.312080334940E-01
  0.232285756820E+00  0.526315789470E+00 -0.203223704200E-01
  0.136815198560E+00  0.526315789470E+00 -0.119697788720E-01
  0.702822349590E-01  0.526315789470E+00 -0.614889880620E-02
  0.269655358630E-01  0.526315789470E+00 -0.235917869390E-02
  0.000000000000E+00  0.526315789470E+00  0.000000000000E+00
  0.269655358630E-01  0.526315789470E+00  0.235917869390E-02
  0.702822349590E-01  0.526315789470E+00  0.614889880620E-02
  0.136815198560E+00  0.526315789470E+00  0.119697788720E-01
  0.232285756820E+00  0.526315789470E+00  0.203223704200E-01
  0.356709455100E+00  0.526315789470E+00  0.312080334940E-01
  0.500000000000E+00  0.526315789470E+00  0.437443317630E-01
  0.643290544900E+00  0.526315789470E+00  0.312080334940E-01
  0.767714243180E+00  0.526315789470E+00  0.203223704200E-01
  0.863184801440E+00  0.526315789470E+00  0.119697788720E-01
  0.929717765040E+00  0.526315789470E+00  0.614889880620E-02
  0.973034464140E+00  0.526315789470E+00  0.235917869390E-02
  0.973034464140E+00  0.631578947370E+00 -0.235917869390E-02
  0.100000000000E+01  0.631578947370E+00  0.000000000000E+00
  0.929717765040E+00  0.631578947370E+00 -0.614889880620E-02
  0.863184801440E+00  0.631578947370E+00 -0.119697788720E-01
  0.767714243180E+00  0.631578947370E+00 -0.203223704200E-01
  0.643290544900E+00  0.631578947370E+00 -0.312080334940E-01
  0.500000000000E+00  0.631578947370E+00 -0.437443317630E-01
  0.356709455100E+00  0.631578947370E+00 -0.312080334940E-01
  0.232285756820E+00  0.631578947370E+00 -0.203223704200E-01
  0.136815198560E+00  0.631578947370E+00 -0.119697788720E-01
  0.702822349590E-01  0.631578947370E+00 -0.614889880620E-02
  0.269655358630E-01  0.631578947370E+00 -0.235917869390E-02
  0.000000000000E+00  0.631578947370E+00  0.000000000000E+00
  0.269655358630E-01  0.631578947370E+00  0.235917869390E-02
  0.702822349590E-01  0.631578947370E+00  0.614889880620E-02
  0.136815198560E+00  0.631578947370E+00  0.119697788720E-01
  0.232285756820E+00  0.631578947370E+00  0.203223704200E-01
[...]
CELL_DATA                2176
SCALARS C_p_ise float 1
LOOKUP_TABLE default
 -0.714301231895E-01
 -0.714298695215E-01
 -0.714301126499E-01
 -0.714301126496E-01
 -0.714301126563E-01
 -0.714301126562E-01
 -0.714301126537E-01
 -0.714301126537E-01
 -0.714301126597E-01
 -0.714301126597E-01
 -0.714301126547E-01
 -0.714301126547E-01
  0.143143767563E+00
  0.143143767563E+00
  0.143143767572E+00
  0.143143767572E+00
  0.143143767561E+00
  0.143143767561E+00
  0.143143767563E+00
  0.143143767563E+00
  0.143143767566E+00
  0.143143767566E+00
  0.143143767564E+00
  0.143143767564E+00
  0.906263310462E-01
  0.906263310462E-01
  0.906263310481E-01
  0.906263310481E-01
  0.906263310454E-01
  0.906263310454E-01
  0.906263310433E-01
  0.906263310433E-01
  0.906263310530E-01
  0.906263310530E-01
  0.906263310449E-01
  0.906263310449E-01
 -0.100970764985E+00
 -0.100970764985E+00
 -0.100970764989E+00
 -0.100970764989E+00
 -0.100970764984E+00
 -0.100970764984E+00
 -0.100970764986E+00
 -0.100970764986E+00
 -0.100970764980E+00
 -0.100970764980E+00
 -0.100970994983E+00
 -0.100970755037E+00
 -0.714302063840E-01
 -0.714301231895E-01
 -0.714301126526E-01
 -0.714301126499E-01
 -0.714301126573E-01
 -0.714301126563E-01
 -0.714301126540E-01
 -0.714301126537E-01
 -0.714301126598E-01
 -0.714301126597E-01
 -0.714301126547E-01
 -0.714301126547E-01
  0.143143767563E+00
  0.143143767563E+00
  0.143143767572E+00
  0.143143767572E+00
  0.143143767561E+00
  0.143143767561E+00
  0.143143767563E+00
  0.143143767563E+00
  0.143143767566E+00
  0.143143767566E+00
  0.143143767564E+00
  0.143143767564E+00
  0.906263310462E-01
  0.906263310462E-01
  0.906263310481E-01
  0.906263310481E-01
  0.906263310454E-01
  0.906263310454E-01
  0.906263310433E-01
  0.906263310433E-01
  0.906263310530E-01
  0.906263310530E-01
  0.906263310449E-01
  0.906263310449E-01
 -0.100970764985E+00
 -0.100970764985E+00
 -0.100970764989E+00
 -0.100970764989E+00
 -0.100970764984E+00
 -0.100970764984E+00
 -0.100970764986E+00
 -0.100970764985E+00
 -0.100970764980E+00
 -0.100970764977E+00
 -0.100970755037E+00
 -0.100970676343E+00
 -0.714301094228E-01
 -0.714302063840E-01
 -0.714301126731E-01
 -0.714301126526E-01
 -0.714301126644E-01
 -0.714301126573E-01
 -0.714301126562E-01
 -0.714301126540E-01
 -0.714301126603E-01
 -0.714301126598E-01
 -0.714301126548E-01
 -0.714301126547E-01
  0.143143767563E+00
  0.143143767563E+00
  0.143143767572E+00
  0.143143767572E+00
  0.143143767561E+00
  0.143143767561E+00
  0.143143767563E+00
  0.143143767563E+00
  0.143143767566E+00
  0.143143767566E+00
  0.143143767564E+00
  0.143143767564E+00
  0.906263310462E-01
  0.906263310462E-01
  0.906263310481E-01
  0.906263310481E-01
  0.906263310454E-01
  0.906263310454E-01
  0.906263310433E-01
  0.906263310433E-01
  0.906263310530E-01
  0.906263310530E-01
  0.906263310450E-01
  0.906263310449E-01
 -0.100970764985E+00
 -0.100970764985E+00
 -0.100970764989E+00
 -0.100970764989E+00
 -0.100970764984E+00
 -0.100970764982E+00
 -0.100970764985E+00
 -0.100970764978E+00
 -0.100970764977E+00
 -0.100970764958E+00
 -0.100970676343E+00
 -0.100970768060E+00
 -0.714300939232E-01
 -0.714301094228E-01
 -0.714301128224E-01
 -0.714301126731E-01
 -0.714301127177E-01
 -0.714301126644E-01
 -0.714301126730E-01
 -0.714301126562E-01
 -0.714301126644E-01
 -0.714301126603E-01
 -0.714301126557E-01
 -0.714301126548E-01
  0.143143767563E+00
  0.143143767563E+00
  0.143143767572E+00
  0.143143767572E+00
  0.143143767561E+00
  0.143143767561E+00
  0.143143767563E+00
  0.143143767563E+00
  0.143143767566E+00
  0.143143767566E+00
  0.143143767564E+00
  0.143143767564E+00
  0.906263310462E-01
  0.906263310462E-01
  0.906263310481E-01
  0.906263310481E-01
  0.906263310454E-01
  0.906263310454E-01
  0.906263310433E-01
  0.906263310433E-01
  0.906263310531E-01
  0.906263310530E-01
  0.906263310453E-01
  0.906263310450E-01
 -0.100970764985E+00
 -0.100970764984E+00
 -0.100970764989E+00
 -0.100970764985E+00
 -0.100970764982E+00
 -0.100970764966E+00
 -0.100970764978E+00
 -0.100970764928E+00
 -0.100970764958E+00
 -0.100970764817E+00
 -0.100970768060E+00
 -0.100970782725E+00
 -0.714300996487E-01
 -0.714300939232E-01
 -0.714301138855E-01
 -0.714301128224E-01
 -0.714301131039E-01
 -0.714301127177E-01
 -0.714301127967E-01
 -0.714301126730E-01
 -0.714301126947E-01
 -0.714301126644E-01
 -0.714301126626E-01
 -0.714301126557E-01
  0.143143767563E+00
  0.143143767560E+00
  0.143143767572E+00
  0.143143767571E+00
  0.143143767561E+00
  0.143143767561E+00
  0.143143767563E+00
  0.143143767563E+00
  0.143143767566E+00
  0.143143767566E+00
  0.143143767564E+00
  0.143143767564E+00
  0.906263310462E-01
  0.906263310462E-01
  0.906263310481E-01
  0.906263310481E-01
  0.906263310454E-01
  0.906263310454E-01
  0.906263310434E-01
  0.906263310433E-01
  0.906263310537E-01
  0.906263310531E-01
  0.906263310476E-01
  0.906263310453E-01
 -0.100970764984E+00
 -0.100970764978E+00
 -0.100970764985E+00
 -0.100970764955E+00
 -0.100970764966E+00
 -0.100970764849E+00
 -0.100970764928E+00
 -0.100970764563E+00
 -0.100970764817E+00
 -0.100970763816E+00
 -0.100970782725E+00
 -0.100970777333E+00
 -0.714302027919E-01
 -0.714300996487E-01
 -0.714301212218E-01
 -0.714301138855E-01
 -0.714301158258E-01
 -0.714301131039E-01
 -0.714301136850E-01
 -0.714301127967E-01
 -0.714301129174E-01
 -0.714301126947E-01
 -0.714301127138E-01
 -0.714301126626E-01
  0.143143767560E+00
  0.143143767545E+00
  0.143143767571E+00
  0.143143767567E+00
  0.143143767561E+00
  0.143143767560E+00
  0.143143767563E+00
  0.143143767563E+00
  0.143143767566E+00
  0.143143767566E+00
  0.143143767564E+00
  0.143143767564E+00
  0.906263310462E-01
  0.906263310462E-01
  0.906263310481E-01
  0.906263310481E-01
  0.906263310455E-01
  0.906263310454E-01
  0.906263310443E-01
  0.906263310434E-01
  0.906263310582E-01
  0.906263310537E-01
  0.906263310653E-01
  0.906263310476E-01
 -0.100970764978E+00
 -0.100970764934E+00
 -0.100970764955E+00
 -0.100970764739E+00
 -0.100970764849E+00
 -0.100970764010E+00
 -0.100970764563E+00
 -0.100970761989E+00
 -0.100970763816E+00
 -0.100970756905E+00
 -0.100970777333E+00
 -0.100970679945E+00
 -0.714303642855E-01
 -0.714302027919E-01
 -0.714301699608E-01
 -0.714301212218E-01
 -0.714301344023E-01
 -0.714301158258E-01
 -0.714301198931E-01
 -0.714301136850E-01
 -0.714301145100E-01
 -0.714301129174E-01
 -0.714301130875E-01
 -0.714301127138E-01
  0.143143767545E+00
  0.143143767427E+00
  0.143143767567E+00
  0.143143767534E+00
  0.143143767560E+00
  0.143143767553E+00
  0.143143767563E+00
  0.143143767562E+00
  0.143143767566E+00
  0.143143767566E+00
  0.143143767564E+00
  0.143143767564E+00
  0.906263310462E-01
  0.906263310462E-01
  0.906263310482E-01
  0.906263310481E-01
  0.906263310465E-01
  0.906263310455E-01
  0.906263310513E-01
  0.906263310443E-01
  0.906263310923E-01
  0.906263310582E-01
  0.906263311968E-01
  0.906263310653E-01
 -0.100970764934E+00
 -0.100970764609E+00
 -0.100970764739E+00
 -0.100970763188E+00
 -0.100970764010E+00
 -0.100970758155E+00
 -0.100970761989E+00
 -0.100970744474E+00
 -0.100970756905E+00
 -0.100970710960E+00
 -0.100970679945E+00
 -0.100970528146E+00
 -0.714325965703E-01
 -0.714303642855E-01
 -0.714304790435E-01
 -0.714301699608E-01
 -0.714302557607E-01
 -0.714301344023E-01
 -0.714301615701E-01
 -0.714301198931E-01
 -0.714301255954E-01
 -0.714301145100E-01
 -0.714301157419E-01
 -0.714301130875E-01
  0.143143767427E+00
  0.143143766565E+00
  0.143143767534E+00
  0.143143767287E+00
  0.143143767553E+00
  0.143143767499E+00
  0.143143767562E+00
  0.143143767554E+00
  0.143143767566E+00
  0.143143767566E+00
  0.143143767564E+00
  0.143143767564E+00
  0.906263310462E-01
  0.906263310462E-01
  0.906263310489E-01
  0.906263310482E-01
  0.906263310545E-01
  0.906263310465E-01
  0.906263311057E-01
  0.906263310513E-01
  0.906263313461E-01
  0.906263310923E-01
  0.906263321548E-01
  0.906263311968E-01
 -0.100970764609E+00
 -0.100970762296E+00
 -0.100970763188E+00
 -0.100970752439E+00
 -0.100970758155E+00
 -0.100970718607E+00
 -0.100970744474E+00
 -0.100970629526E+00
 -0.100970710960E+00
 -0.100970419937E+00
 -0.100970528146E+00
 -0.100968425318E+00
 -0.714449603229E-01
 -0.714325965709E-01
 -0.714323235323E-01
 -0.714304790437E-01
 -0.714310143905E-01
 -0.714302557608E-01
 -0.714304323597E-01
 -0.714301615701E-01
 -0.714301993558E-01
 -0.714301255954E-01
 -0.714301339740E-01
 -0.714301157419E-01
  0.143143766565E+00
  0.143143760435E+00
  0.143143767287E+00
  0.143143765491E+00
  0.143143767499E+00
  0.143143767082E+00
  0.143143767554E+00
  0.143143767485E+00
  0.143143767566E+00
  0.143143767559E+00
  0.143143767564E+00
  0.143143767564E+00
  0.906263310467E-01
  0.906263310462E-01
  0.906263310556E-01
  0.906263310489E-01
  0.906263311226E-01
  0.906263310545E-01
  0.906263315212E-01
  0.906263311057E-01
  0.906263331962E-01
  0.906263313461E-01
  0.906263389345E-01
  0.906263321548E-01
 -0.100970762296E+00
 -0.100970746292E+00
 -0.100970752439E+00
 -0.100970680276E+00
 -0.100970718607E+00
 -0.100970464760E+00
 -0.100970629526E+00
 -0.100969920781E+00
 -0.100970419938E+00
 -0.100968675447E+00
 -0.100968425318E+00
 -0.100956735717E+00
 -0.715098369708E-01
 -0.714449603399E-01
 -0.714425795935E-01
 -0.714323235384E-01
 -0.714353772832E-01
 -0.714310143917E-01
 -0.714320480503E-01
 -0.714304323598E-01
 -0.714306773095E-01
 -0.714301993558E-01
 -0.714302549557E-01
 -0.714301339740E-01
  0.143143760435E+00
  0.143143718309E+00
  0.143143765491E+00
  0.143143752719E+00
  0.143143767082E+00
  0.143143763968E+00
  0.143143767485E+00
  0.143143766909E+00
  0.143143767559E+00
  0.143143767493E+00
  0.143143767564E+00
  0.143143767559E+00
  0.906263310515E-01
  0.906263310467E-01
  0.906263311201E-01
  0.906263310556E-01
  0.906263316911E-01
  0.906263311226E-01
  0.906263346321E-01
  0.906263315212E-01
  0.906263462523E-01
  0.906263331962E-01
  0.906263855913E-01
  0.906263389345E-01
 -0.100970746292E+00
 -0.100970640547E+00
 -0.100970680276E+00
 -0.100970223372E+00
 -0.100970464760E+00
 -0.100968894169E+00
 -0.100969920782E+00
 -0.100965711242E+00
 -0.100968675453E+00
 -0.100959104287E+00
 -0.100956735733E+00
 -0.100896062614E+00
 -0.718014457939E-01
 -0.715098374585E-01
 -0.714930287780E-01
 -0.714425797966E-01
 -0.714595478430E-01
 -0.714353773263E-01
 -0.714417737122E-01
 -0.714320480550E-01
 -0.714334591085E-01
 -0.714306773099E-01
 -0.714310104064E-01
 -0.714302549557E-01
  0.143143718308E+00
  0.143143437552E+00
  0.143143752719E+00
  0.143143665804E+00
  0.143143763968E+00
  0.143143741200E+00
  0.143143766909E+00
  0.143143762175E+00
  0.143143767493E+00
  0.143143766857E+00
  0.143143767559E+00
  0.143143767502E+00
  0.906263311063E-01
  0.906263310515E-01
  0.906263317410E-01
  0.906263311201E-01
  0.906263363469E-01
  0.906263316911E-01
  0.906263572601E-01
  0.906263346321E-01
  0.906264363726E-01
  0.906263462523E-01
  0.906266906832E-01
  0.906263855912E-01
 -0.100970640547E+00
 -0.100969961160E+00
 -0.100970223372E+00
 -0.100967409953E+00
 -0.100968894173E+00
 -0.100960314619E+00
 -0.100965711279E+00
 -0.100944450286E+00
 -0.100959104454E+00
 -0.100909674088E+00
 -0.100896063050E+00
 -0.100613214660E+00
 -0.728575190518E-01
 -0.718014561256E-01
 -0.717331624633E-01
 -0.714930328711E-01
 -0.715634555118E-01
 -0.714595488217E-01
 -0.714833165659E-01
 -0.714417738883E-01
 -0.714504591181E-01
 -0.714334591230E-01
 -0.714355951814E-01
 -0.714310104075E-01
  0.143143437550E+00
  0.143141694429E+00
  0.143143665804E+00
  0.143143083108E+00
  0.143143741200E+00
  0.143143580954E+00
  0.143143762175E+00
  0.143143724292E+00
  0.143143766857E+00
  0.143143760815E+00
  0.143143767502E+00
  0.143143766864E+00
  0.906263317234E-01
  0.906263311063E-01
  0.906263376434E-01
  0.906263317410E-01
  0.906263738350E-01
  0.906263363469E-01
  0.906265177888E-01
  0.906263572601E-01
  0.906270176062E-01
  0.906264363724E-01
  0.906286424986E-01
  0.906266906803E-01
 -0.100969961162E+00
 -0.100966072357E+00
 -0.100967409965E+00
 -0.100952583416E+00
 -0.100960314758E+00
 -0.100910508773E+00
 -0.100944451504E+00
 -0.100825862042E+00
 -0.100909679462E+00
 -0.100716123816E+00
 -0.100613225002E+00
 -0.997263678120E-01
 -0.744277038263E-01
 -0.728576629851E-01
 -0.719959818510E-01
 -0.717333120071E-01
 -0.721376985083E-01
 -0.715634972006E-01
 -0.718019613133E-01
 -0.714833195306E-01
 -0.715155661332E-01
 -0.714504594864E-01
 -0.714587633870E-01
 -0.714355952233E-01
  0.143141694336E+00
  0.143130923680E+00
  0.143143083102E+00
  0.143139602825E+00
  0.143143580954E+00
  0.143142482334E+00
  0.143143724292E+00
  0.143143425772E+00
  0.143143760815E+00
  0.143143704155E+00
  0.143143766864E+00
  0.143143759682E+00
  0.906263386714E-01
  0.906263317234E-01
  0.906263928124E-01
  0.906263376434E-01
  0.906266640405E-01
  0.906263738350E-01
  0.906275974194E-01
  0.906265177884E-01
  0.906308088850E-01
  0.906270175987E-01
  0.906394870438E-01
  0.906286424004E-01
 -0.100966072406E+00
 -0.100942163436E+00
 -0.100952583879E+00
 -0.100865888226E+00
 -0.100910513740E+00
 -0.100767709460E+00
 -0.100825878154E+00
 -0.100559290922E+00
 -0.100716166206E+00
 -0.998045546433E-01
 -0.997265016109E-01
 -0.967710779556E-01
 -0.873615360445E-01
 -0.744307103199E-01
 -0.802479375570E-01
 -0.719957748567E-01
 -0.718272528220E-01
 -0.721375667000E-01
 -0.711597979029E-01
 -0.718021485248E-01
 -0.720671311361E-01
 -0.715155824003E-01
 -0.716013924935E-01
 -0.714587645197E-01
  0.143130921110E+00
  0.143079324474E+00
  0.143139602542E+00
  0.143116886931E+00
  0.143142482319E+00
  0.143135517984E+00
  0.143143425771E+00
  0.143141228115E+00
  0.143143704155E+00
  0.143143186896E+00
  0.143143759682E+00
  0.143143678844E+00
  0.906264169435E-01
  0.906263386714E-01
  0.906269020418E-01
  0.906263928124E-01
  0.906289001467E-01
  0.906266640399E-01
  0.906346728874E-01
  0.906275974041E-01
  0.906503865289E-01
  0.906308086559E-01
  0.907077515082E-01
  0.906394834204E-01
 -0.100942165227E+00
 -0.100863334611E+00
 -0.100865893165E+00
 -0.100627371004E+00
 -0.100767752958E+00
 -0.989741143376E-01
 -0.100560486689E+00
 -0.985785501286E-01
 -0.998075504953E-01
 -0.104710460049E+00
 -0.967708758455E-01
 -0.101091698598E+00
 -0.101087135477E+00
 -0.875343257055E-01
 -0.912158967700E-01
 -0.803741834283E-01
 -0.872148519655E-01
 -0.718681356639E-01
 -0.843380024321E-01
 -0.711597750923E-01
 -0.716471100590E-01
 -0.720670243400E-01
 -0.717447767122E-01
 -0.716014366998E-01
  0.143079228282E+00
  0.142720522798E+00
  0.143116881395E+00
  0.143030413990E+00
  0.143135517355E+00
  0.143092371426E+00
  0.143141228076E+00
  0.143124417972E+00
  0.143143186895E+00
  0.143138469309E+00
  0.143143678844E+00
  0.143142765998E+00
  0.906272957854E-01
  0.906264169435E-01
  0.906313596783E-01
  0.906269020408E-01
  0.906439222097E-01
  0.906289001152E-01
  0.906758978432E-01
  0.906346723235E-01
  0.907894193802E-01
  0.906503758245E-01
  0.908887621942E-01
  0.907077019400E-01
 -0.100863356721E+00
 -0.999292718715E-01
 -0.100628041799E+00
 -0.989241666348E-01
 -0.989765882128E-01
 -0.108196798410E+00
 -0.985818376193E-01
 -0.109427792571E+00
 -0.104747905066E+00
 -0.111231586120E+00
 -0.101149822411E+00
 -0.104150741694E+00
 -0.117930893807E+00
 -0.101472225023E+00
 -0.101903406068E+00
 -0.915564189186E-01
 -0.982341303497E-01
 -0.874650237017E-01
 -0.938120713807E-01
 -0.845262105646E-01
 -0.897915531879E-01
 -0.716637480736E-01
 -0.767919189842E-01
 -0.717448848242E-01
  0.142720177807E+00
  0.142776185202E+00
  0.143030018875E+00
  0.142168598472E+00
  0.143092352819E+00
  0.142865258396E+00
  0.143124416606E+00
  0.143031873272E+00
  0.143138469233E+00
  0.143100969786E+00
  0.143142765997E+00
  0.143132661479E+00
  0.906373586630E-01
  0.906272957838E-01
  0.906725622366E-01
  0.906313595884E-01
  0.907636505152E-01
  0.906439200745E-01
  0.909056399496E-01
  0.906758761589E-01
  0.909601472363E-01
  0.907893597512E-01
  0.936909141983E-01
  0.908843871102E-01
 -0.999314845351E-01
 -0.103050417123E+00
 -0.989207317074E-01
 -0.112157209999E+00
 -0.108267850099E+00
 -0.113554902656E+00
 -0.109518649278E+00
 -0.115115798210E+00
 -0.111348792391E+00
 -0.115518425771E+00
 -0.104289533281E+00
 -0.102177517855E+00
 -0.116706032234E+00
 -0.118471837550E+00
 -0.100988297274E+00
 -0.102613244763E+00
 -0.109007567463E+00
 -0.988211281216E-01
 -0.105887846657E+00
 -0.942171320863E-01
 -0.984157817288E-01
 -0.900920801828E-01
 -0.937649101138E-01
 -0.769045739222E-01
  0.142581458780E+00
  0.121012669544E+00
  0.142168376271E+00
  0.144399806954E+00
  0.142864645672E+00
  0.141929870429E+00
  0.143031733829E+00
  0.142118103647E+00
  0.143100960902E+00
  0.142705142752E+00
  0.143132661238E+00
  0.143007290290E+00
  0.907395467592E-01
  0.906373585015E-01
  0.909152588619E-01
  0.906725584945E-01
  0.911331873731E-01
  0.907636201358E-01
  0.920789897657E-01
  0.909051648176E-01
  0.971916834263E-01
  0.909420672851E-01
  0.772858231581E-01
  0.936467002708E-01
 -0.103079518157E+00
 -0.115055950771E+00
 -0.112274026833E+00
 -0.115986591126E+00
 -0.113690154823E+00
 -0.119216209812E+00
 -0.115297627325E+00
 -0.117457663933E+00
 -0.115703113327E+00
 -0.103180187117E+00
 -0.102275330242E+00
 -0.562903553659E-01
 -0.134044441167E+00
 -0.115841850822E+00
 -0.720329024527E-01
 -0.100335759365E+00
 -0.785548314184E-01
 -0.108934553175E+00
 -0.810328135386E-01
 -0.107017490981E+00
 -0.112364864818E+00
 -0.992097874872E-01
 -0.103202529553E+00
 -0.943765175338E-01
  0.119282336023E+00
  0.962407197585E-01
  0.143728379867E+00
  0.104940253233E+00
  0.141921121389E+00
  0.134668396931E+00
  0.142118067252E+00
  0.143219771013E+00
  0.142705127683E+00
  0.142480638086E+00
  0.143007284034E+00
  0.142368687849E+00
  0.926335981400E-01
  0.907394913928E-01
  0.952047857499E-01
  0.909140704462E-01
  0.984788874179E-01
  0.911220655052E-01
  0.914155827567E-01
  0.920697127389E-01
  0.668644633657E-01
  0.969791783475E-01
  0.608316146956E-01
  0.766656974151E-01
 -0.115284455375E+00
 -0.118761697046E+00
 -0.116252710415E+00
 -0.121270072767E+00
 -0.119539040639E+00
 -0.831295100552E-01
 -0.117162139125E+00
 -0.707315916806E-01
 -0.102923137175E+00
 -0.512209708450E-01
 -0.564681072284E-01
  0.358339126698E-01
 -0.767215280460E-01
 -0.133601694685E+00
 -0.604838553131E-01
 -0.716206997380E-01
 -0.523988631189E-01
 -0.779416906619E-01
 -0.495748616725E-01
 -0.802289615891E-01
 -0.496313569425E-01
 -0.113579618453E+00
 -0.958427838877E-01
 -0.105966379996E+00
  0.903649608916E-01
  0.797176955834E-01
  0.995965972193E-01
  0.778055273515E-01
  0.130979259358E+00
  0.811592713621E-01
  0.141811486875E+00
  0.839058491454E-01
  0.142119243175E+00
  0.849315075753E-01
  0.142315946535E+00
  0.852679304906E-01
  0.649185841068E-01
  0.926213590286E-01
  0.633348186313E-01
  0.951053406178E-01
  0.607014924109E-01
  0.980057963725E-01
  0.563058886401E-01
  0.900422677098E-01
  0.527144092938E-01
  0.649425017089E-01
  0.552641646265E-01
  0.588882274655E-01
 -0.119676173160E+00
 -0.994644690770E-01
 -0.121175033046E+00
 -0.410004613900E-01
 -0.836335114396E-01
 -0.281804792342E-01
 -0.733174338935E-01
 -0.158615713719E-01
 -0.560380675987E-01
 -0.244935755971E-03
  0.285406497262E-01
  0.333784189957E-01
 -0.773904956125E-01
 -0.601886085933E-01
 -0.608094739044E-01
 -0.508446810295E-01
 -0.524185524485E-01
 -0.460400504411E-01
 -0.497588814356E-01
 -0.429298339985E-01
 -0.515062402037E-01
 -0.832984931959E-01
 -0.101166361778E+00
  0.624641367204E-01
  0.626390346767E-01
  0.599232823816E-01
  0.597849090559E-01
  0.606777775126E-01
  0.603320791971E-01
  0.615958201404E-01
  0.614205034289E-01
  0.619764679654E-01
  0.619194945723E-01
  0.621632554467E-01
  0.544063665227E-01
  0.532651084828E-01
  0.535712308664E-01
  0.518904806505E-01
  0.521558177199E-01
  0.495792936746E-01
  0.496231024759E-01
  0.480659409865E-01
  0.478419031752E-01
  0.508850805051E-01
  0.509123573466E-01
 -0.100110228776E+00
 -0.824825318362E-01
 -0.423860087006E-01