# vtk DataFile Version 3.0
MachLine results file. Generated by MachLine, USU AeroLab (c) 2022.
ASCII
DATASET POLYDATA
POINTS                1127 float
  0.100000000000E+01  0.000000000000E+00  0.000000000000E+00
  0.973034464140E+00  0.105263157890E+00 -0.235917869390E-02
  0.100000000000E+01  0.105263157890E+00  0.000000000000E+00
  0.973034464140E+00  0.000000000000E+00 -0.235917869390E-02
  0.929717765040E+00  0.105263157890E+00 -0.614889880620E-02
  0.929717765040E+00  0.000000000000E+00 -0.614889880620E-02
  0.863184801440E+00  0.105263157890E+00 -0.119697788720E-01
  0.863184801440E+00  0.000000000000E+00 -0.119697788720E-01
  0.767714243180E+00  0.105263157890E+00 -0.203223704200E-01
  0.767714243180E+00  0.000000000000E+00 -0.203223704200E-01
  0.643290544900E+00  0.105263157890E+00 -0.312080334940E-01
  0.643290544900E+00  0.000000000000E+00 -0.312080334940E-01
  0.500000000000E+00  0.105263157890E+00 -0.437443317630E-01
  0.500000000000E+00  0.000000000000E+00 -0.437443317630E-01
  0.356709455100E+00  0.000000000000E+00 -0.312080334940E-01
  0.356709455100E+00  0.105263157890E+00 -0.312080334940E-01
  0.232285756820E+00  0.000000000000E+00 -0.203223704200E-01
  0.232285756820E+00  0.105263157890E+00 -0.203223704200E-01
  0.136815198560E+00  0.000000000000E+00 -0.119697788720E-01
  0.136815198560E+00  0.105263157890E+00 -0.119697788720E-01
  0.702822349590E-01  0.000000000000E+00 -0.614889880620E-02
  0.702822349590E-01  0.105263157890E+00 -0.614889880620E-02
  0.269655358630E-01  0.000000000000E+00 -0.235917869390E-02
  0.269655358630E-01  0.105263157890E+00 -0.235917869390E-02
  0.000000000000E+00  0.000000000000E+00  0.000000000000E+00
  0.000000000000E+00  0.105263157890E+00  0.000000000000E+00
  0.269655358630E-01  0.105263157890E+00  0.235917869390E-02
  0.269655358630E-01  0.000000000000E+00  0.235917869390E-02
  0.702822349590E-01  0.105263157890E+00  0.614889880620E-02
  0.702822349590E-01  0.000000000000E+00  0.614889880620E-02
  0.136815198560E+00  0.105263157890E+00  0.119697788720E-01
  0.136815198560E+00  0.000000000000E+00  0.119697788720E-01
  0.232285756820E+00  0.105263157890E+00  0.203223704200E-01
  0.232285756820E+00  0.000000000000E+00  0.203223704200E-01
  0.356709455100E+00  0.105263157890E+00  0.312080334940E-01
  0.356709455100E+00  0.000000000000E+00  0.312080334940E-01
  0.500000000000E+00  0.105263157890E+00  0.437443317630E-01
  0.500000000000E+00  0.000000000000E+00  0.437443317630E-01
  0.643290544900E+00  0.000000000000E+00  0.312080334940E-01
  0.643290544900E+00  0.105263157890E+00  0.312080334940E-01
  0.767714243180E+00  0.000000000000E+00  0.203223704200E-01
  0.767714243180E+00  0.105263157890E+00  0.203223704200E-01
  0.863184801440E+00  0.000000000000E+00  0.119697788720E-01
  0.863184801440E+00  0.105263157890E+00  0.119697788720E-01
  0.929717765040E+00  0.000000000000E+00  0.614889880620E-02
  0.929717765040E+00  0.105263157890E+00  0.614889880620E-02
  0.973034464140E+00  0.000000000000E+00  0.235917869390E-02
  0.973034464140E+00  0.105263157890E+00  0.235917869390E-02
  0.973034464140E+00  0.210526315790E+00 -0.235917869390E-02
  0.100000000000E+01  0.210526315790E+00  0.000000000000E+00
  0.929717765040E+00  0.210526315790E+00 -0.614889880620E-02
  0.863184801440E+00  0.210526315790E+00 -0.119697788720E-01
  0.767714243180E+00  0.210526315790E+00 -0.203223704200E-01
  0.643290544900E+00  0.210526315790E+00 -0.312080334940E-01
  0.500000000000E+00  0.210526315790E+00 -0.437443317630E-01
  0.356709455100E+00  0.210526315790E+00 -0.312080334940E-01
  0.232285756820E+00  0.210526315790E+00 -0.203223704200E-01
  0.136815198560E+00  0.210526315790E+00 -0.119697788720E-01
  0.702822349590E-01  0.210526315790E+00 -0.614889880620E-02
  0.269655358630E-01  0.210526315790E+00 -0.235917869390E-02
  0.000000000000E+00  0.210526315790E+00  0.000000000000E+00
  0.269655358630E-01  0.210526315790E+00  0.235917869390E-02
  0.702822349590E-01  0.210526315790E+00  0.614889880620E-02
  0.136815198560E+00  0.210526315790E+00  0.119697788720E-01
  0.232285756820E+00  0.210526315790E+00  0.203223704200E-01
  0.356709455100E+00  0.210526315790E+00  0.312080334940E-01
  0.500000000000E+00  0.210526315790E+00  0.437443317630E-01
  0.643290544900E+00  0.210526315790E+00  0.312080334940E-01
  0.767714243180E+00  0.210526315790E+00  0.203223704200E-01
  0.863184801440E+00  0.210526315790E+00  0.119697788720E-01
  0.929717765040E+00  0.210526315790E+00  0.614889880620E-02
  0.973034464140E+00  0.210526315790E+00  0.235917869390E-02
  0.973034464140E+00  0.315789473680E+00 -0.235917869390E-02
  0.100000000000E+01  0.315789473680E+00  0.000000000000E+00
  0.929717765040E+00  0.315789473680E+00 -0.614889880620E-02
  0.863184801440E+00  0.315789473680E+00 -0.119697788720E-01
  0.767714243180E+00  0.315789473680E+00 -0.203223704200E-01
  0.643290544900E+00  0.315789473680E+00 -0.312080334940E-01
  0.500000000000E+00  0.315789473680E+00 -0.437443317630E-01
  0.356709455100E+00  0.315789473680E+00 -0.312080334940E-01
  0.232285756820E+00  0.315789473680E+00 -0.203223704200E-01
  0.136815198560E+00  0.315789473680E+00 -0.119697788720E-01
  0.702822349590E-01  0.315789473680E+00 -0.614889880620E-02
  0.269655358630E-01  0.315789473680E+00 -0.235917869390E-02
  0.000000000000E+00  0.315789473680E+00  0.000000000000E+00
  0.269655358630E-01  0.315789473680E+00  0.235917869390E-02
  0.702822349590E-01  0.315789473680E+00  0.614889880620E-02
  0.136815198560E+00  0.315789473680E+00  0.119697788720E-01
  0.232285756820E+00  0.315789473680E+00  0.203223704200E-01
  0.356709455100E+00  0.315789473680E+00  0.312080334940E-01
  0.500000000000E+00  0.315789473680E+00  0.437443317630E-01
  0.643290544900E+00  0.315789473680E+00  0.312080334940E-01
  0.767714243180E+00  0.315789473680E+00  0.203223704200E-01
  0.863184801440E+00  0.315789473680E+00  0.119697788720E-01
  0.929717765040E+00  0.315789473680E+00  0.614889880620E-02
  0.973034464140E+00  0.315789473680E+00  0.235917869390E-02
  0.973034464140E+00  0.421052631580E+00 -0.235917869390E-02
  0.100000000000E+01  0.421052631580E+00  0.000000000000E+00
  0.929717765040E+00  0.421052631580E+00 -0.614889880620E-02
  0.863184801440E+00  0.421052631580E+00 -0.119697788720E-01
  0.767714243180E+00  0.421052631580E+00 -0.203223704200E-01
  0.643290544900E+00  0.421052631580E+00 -0.312080334940E-01
  0.500000000000E+00  0.421052631580E+00 -0.437443317630E-01
  0.356709455100E+00  0.421052631580E+00 -0.312080334940E-01
  0.232285756820E+00  0.421052631580E+00 -0.203223704200E-01
  0.136815198560E+00  0.421052631580E+00 -0.119697788720E-01
  0.702822349590E-01  0.421052631580E+00 -0.614889880620E-02
  0.269655358630E-01  0.421052631580E+00 -0.235917869390E-02
  0.000000000000E+00  0.421052631580E+00  0.000000000000E+00
  0.269655358630E-01  0.421052631580E+00  0.235917869390E-02
  0.702822349590E-01  0.421052631580E+00  0.614889880620E-02
  0.136815198560E+00  0.421052631580E+00  0.119697788720E-01
  0.232285756820E+00  0.421052631580E+00  0.203223704200E-01
  0.356709455100E+00  0.421052631580E+00  0.312080334940E-01
  0.500000000000E+00  0.421052631580E+00  0.437443317630E-01
  0.643290544900E+00  0.421052631580E+00  0.312080334940E-01
  0.767714243180E+00  0.421052631580E+00  0.203223704200E-01
  0.863184801440E+00  0.421052631580E+00  0.119697788720E-01
  0.929717765040E+00  0.421052631580E+00  0.614889880620E-02
  0.973034464140E+00  0.421052631580E+00  0.235917869390E-02
  0.973034464140E+00  0.526315789470E+00 -0.235917869390E-02
  0.100000000000E+01  0.526315789470E+00  0.000000000000E+00
  0.929717765040E+00  0.526315789470E+00 -0.614889880620E-02
  0.863184801440E+00  0.526315789470E+00 -0.119697788720E-01
  0.767714243180E+00  0.526315789470E+00 -0.203223704200E-01
  0.643290544900E+00  0.526315789470E+00 -0.312080334940E-01
  0.500000000000E+00  0.526315789470E+00 -0.437443317630E-01
  0.356709455100E+00  0.526315789470E+00 -0.312080334940E-01
  0.232285756820E+00  0.526315789470E+00 -0.203223704200E-01
  0.136815198560E+00  0.526315789470E+00 -0.119697788720E-01
  0.702822349590E-01  0.526315789470E+00 -0.614889880620E-02
  0.269655358630E-01  0.526315789470E+00 -0.235917869390E-02
  0.000000000000E+00  0.526315789470E+00  0.000000000000E+00
  0.269655358630E-01  0.526315789470E+00  0.235917869390E-02
  0.702822349590E-01  0.526315789470E+00  0.614889880620E-02
  0.136815198560E+00  0.526315789470E+00  0.119697788720E-01
  0.232285756820E+00  0.526315789470E+00  0.203223704200E-01
  0.356709455100E+00  0.526315789470E+00  0.312080334940E-01
  0.500000000000E+00  0.526315789470E+00  0.437443317630E-01
  0.643290544900E+00  0.526315789470E+00  0.312080334940E-01
  0.767714243180E+00  0.526315789470E+00  0.203223704200E-01
  0.863184801440E+00  0.526315789470E+00  0.119697788720E-01
  0.929717765040E+00  0.526315789470E+00  0.614889880620E-02
  0.973034464140E+00  0.526315789470E+00  0.235917869390E-02
  0.973034464140E+00  0.631578947370E+00 -0.235917869390E-02
  0.100000000000E+01  0.631578947370E+00  0.000000000000E+00
  0.929717765040E+00  0.631578947370E+00 -0.614889880620E-02
  0.863184801440E+00  0.631578947370E+00 -0.119697788720E-01
  0.767714243180E+00  0.631578947370E+00 -0.203223704200E-01
  0.643290544900E+00  0.631578947370E+00 -0.312080334940E-01
  0.500000000000E+00  0.631578947370E+00 -0.437443317630E-01
  0.356709455100E+00  0.631578947370E+00 -0.312080334940E-01
  0.232285756820E+00  0.631578947370E+00 -0.203223704200E-01
  0.136815198560E+00  0.631578947370E+00 -0.119697788720E-01
  0.702822349590E-01  0.631578947370E+00 -0.614889880620E-02
  0.269655358630E-01  0.631578947370E+00 -0.235917869390E-02
  0.000000000000E+00  0.631578947370E+00  0.000000000000E+00
  0.269655358630E-01  0.631578947370E+00  0.235917869390E-02
  0.702822349590E-01  0.631578947370E+00  0.614889880620E-02
  0.136815198560E+00  0.631578947370E+00  0.119697788720E-01
  0.232285756820E+00  0.631578947370E+00  0.203223704200E-01
[...]
CELL_DATA                2176
SCALARS C_p_ise float 1
LOOKUP_TABLE default
 -0.407197919087E-01
 -0.407198159498E-01
 -0.407197341989E-01
 -0.407197341989E-01
 -0.407197342024E-01
 -0.407197342024E-01
 -0.407197342011E-01
 -0.407197342011E-01
 -0.407197342043E-01
 -0.407197342043E-01
 -0.407197342016E-01
 -0.407197342016E-01
  0.962869680752E-01
  0.962869680752E-01
  0.962869680812E-01
  0.962869680812E-01
  0.962869680740E-01
  0.962869680740E-01
  0.962869680756E-01
  0.962869680756E-01
  0.962869680776E-01
  0.962869680776E-01
  0.962869680761E-01
  0.962869680761E-01
  0.597364494328E-01
  0.597364494328E-01
  0.597364494342E-01
  0.597364494342E-01
  0.597364494323E-01
  0.597364494323E-01
  0.597364494308E-01
  0.597364494308E-01
  0.597364494376E-01
  0.597364494376E-01
  0.597364494319E-01
  0.597364494319E-01
 -0.558023153943E-01
 -0.558023153943E-01
 -0.558023153965E-01
 -0.558023153965E-01
 -0.558023153939E-01
 -0.558023153939E-01
 -0.558023153949E-01
 -0.558023153949E-01
 -0.558023153920E-01
 -0.558023153920E-01
 -0.558022391957E-01
 -0.558022616073E-01
 -0.407198245382E-01
 -0.407197919087E-01
 -0.407197341989E-01
 -0.407197341989E-01
 -0.407197342024E-01
 -0.407197342024E-01
 -0.407197342011E-01
 -0.407197342011E-01
 -0.407197342043E-01
 -0.407197342043E-01
 -0.407197342016E-01
 -0.407197342016E-01
  0.962869680752E-01
  0.962869680752E-01
  0.962869680812E-01
  0.962869680812E-01
  0.962869680740E-01
  0.962869680740E-01
  0.962869680756E-01
  0.962869680756E-01
  0.962869680776E-01
  0.962869680776E-01
  0.962869680761E-01
  0.962869680761E-01
  0.597364494328E-01
  0.597364494328E-01
  0.597364494342E-01
  0.597364494342E-01
  0.597364494323E-01
  0.597364494323E-01
  0.597364494308E-01
  0.597364494308E-01
  0.597364494376E-01
  0.597364494376E-01
  0.597364494319E-01
  0.597364494319E-01
 -0.558023153943E-01
 -0.558023153943E-01
 -0.558023153965E-01
 -0.558023153965E-01
 -0.558023153939E-01
 -0.558023153939E-01
 -0.558023153949E-01
 -0.558023153949E-01
 -0.558023153920E-01
 -0.558023153920E-01
 -0.558022616073E-01
 -0.558022311895E-01
 -0.407197000019E-01
 -0.407198245382E-01
 -0.407197341989E-01
 -0.407197341989E-01
 -0.407197342024E-01
 -0.407197342024E-01
 -0.407197342011E-01
 -0.407197342011E-01
 -0.407197342043E-01
 -0.407197342043E-01
 -0.407197342016E-01
 -0.407197342016E-01
  0.962869680752E-01
  0.962869680752E-01
  0.962869680812E-01
  0.962869680812E-01
  0.962869680740E-01
  0.962869680740E-01
  0.962869680756E-01
  0.962869680756E-01
  0.962869680776E-01
  0.962869680776E-01
  0.962869680761E-01
  0.962869680761E-01
  0.597364494328E-01
  0.597364494328E-01
  0.597364494342E-01
  0.597364494342E-01
  0.597364494323E-01
  0.597364494323E-01
  0.597364494308E-01
  0.597364494308E-01
  0.597364494376E-01
  0.597364494376E-01
  0.597364494319E-01
  0.597364494319E-01
 -0.558023153943E-01
 -0.558023153943E-01
 -0.558023153965E-01
 -0.558023153965E-01
 -0.558023153939E-01
 -0.558023153939E-01
 -0.558023153949E-01
 -0.558023153949E-01
 -0.558023153920E-01
 -0.558023153920E-01
 -0.558022311895E-01
 -0.558023472848E-01
 -0.407197209454E-01
 -0.407197000019E-01
 -0.407197341989E-01
 -0.407197341989E-01
 -0.407197342024E-01
 -0.407197342024E-01
 -0.407197342011E-01
 -0.407197342011E-01
 -0.407197342043E-01
 -0.407197342043E-01
 -0.407197342016E-01
 -0.407197342016E-01
  0.962869680752E-01
  0.962869680752E-01
  0.962869680812E-01
  0.962869680812E-01
  0.962869680740E-01
  0.962869680740E-01
  0.962869680756E-01
  0.962869680756E-01
  0.962869680776E-01
  0.962869680776E-01
  0.962869680761E-01
  0.962869680761E-01
  0.597364494328E-01
  0.597364494328E-01
  0.597364494342E-01
  0.597364494342E-01
  0.597364494323E-01
  0.597364494323E-01
  0.597364494308E-01
  0.597364494308E-01
  0.597364494376E-01
  0.597364494376E-01
  0.597364494319E-01
  0.597364494319E-01
 -0.558023153943E-01
 -0.558023153943E-01
 -0.558023153965E-01
 -0.558023153965E-01
 -0.558023153939E-01
 -0.558023153939E-01
 -0.558023153949E-01
 -0.558023153949E-01
 -0.558023153920E-01
 -0.558023153920E-01
 -0.558023472848E-01
 -0.558023277608E-01
 -0.407197114082E-01
 -0.407197209454E-01
 -0.407197341989E-01
 -0.407197341989E-01
 -0.407197342024E-01
 -0.407197342024E-01
 -0.407197342011E-01
 -0.407197342011E-01
 -0.407197342043E-01
 -0.407197342043E-01
 -0.407197342016E-01
 -0.407197342016E-01
  0.962869680752E-01
  0.962869680752E-01
  0.962869680812E-01
  0.962869680812E-01
  0.962869680740E-01
  0.962869680740E-01
  0.962869680756E-01
  0.962869680756E-01
  0.962869680776E-01
  0.962869680776E-01
  0.962869680761E-01
  0.962869680761E-01
  0.597364494328E-01
  0.597364494328E-01
  0.597364494342E-01
  0.597364494342E-01
  0.597364494323E-01
  0.597364494323E-01
  0.597364494308E-01
  0.597364494308E-01
  0.597364494376E-01
  0.597364494376E-01
  0.597364494319E-01
  0.597364494319E-01
 -0.558023153943E-01
 -0.558023153943E-01
 -0.558023153965E-01
 -0.558023153965E-01
 -0.558023153939E-01
 -0.558023153939E-01
 -0.558023153949E-01
 -0.558023153949E-01
 -0.558023153920E-01
 -0.558023153920E-01
 -0.558023277608E-01
 -0.558023366516E-01
 -0.407197560902E-01
 -0.407197114082E-01
 -0.407197341989E-01
 -0.407197341989E-01
 -0.407197342024E-01
 -0.407197342024E-01
 -0.407197342011E-01
 -0.407197342011E-01
 -0.407197342043E-01
 -0.407197342043E-01
 -0.407197342016E-01
 -0.407197342016E-01
  0.962869680752E-01
  0.962869680752E-01
  0.962869680812E-01
  0.962869680812E-01
  0.962869680740E-01
  0.962869680740E-01
  0.962869680756E-01
  0.962869680756E-01
  0.962869680776E-01
  0.962869680776E-01
  0.962869680761E-01
  0.962869680761E-01
  0.597364494328E-01
  0.597364494328E-01
  0.597364494342E-01
  0.597364494342E-01
  0.597364494323E-01
  0.597364494323E-01
  0.597364494308E-01
  0.597364494308E-01
  0.597364494376E-01
  0.597364494376E-01
  0.597364494319E-01
  0.597364494319E-01
 -0.558023153943E-01
 -0.558023153943E-01
 -0.558023153965E-01
 -0.558023153965E-01
 -0.558023153939E-01
 -0.558023153939E-01
 -0.558023153949E-01
 -0.558023153949E-01
 -0.558023153920E-01
 -0.558023153920E-01
 -0.558023366516E-01
 -0.558022949981E-01
 -0.407198477166E-01
 -0.407197560902E-01
 -0.407197341992E-01
 -0.407197341989E-01
 -0.407197342025E-01
 -0.407197342024E-01
 -0.407197342011E-01
 -0.407197342011E-01
 -0.407197342043E-01
 -0.407197342043E-01
 -0.407197342016E-01
 -0.407197342016E-01
  0.962869680752E-01
  0.962869680752E-01
  0.962869680812E-01
  0.962869680812E-01
  0.962869680740E-01
  0.962869680740E-01
  0.962869680756E-01
  0.962869680756E-01
  0.962869680776E-01
  0.962869680776E-01
  0.962869680761E-01
  0.962869680761E-01
  0.597364494328E-01
  0.597364494328E-01
  0.597364494342E-01
  0.597364494342E-01
  0.597364494323E-01
  0.597364494323E-01
  0.597364494308E-01
  0.597364494308E-01
  0.597364494376E-01
  0.597364494376E-01
  0.597364494319E-01
  0.597364494319E-01
 -0.558023153943E-01
 -0.558023153943E-01
 -0.558023153965E-01
 -0.558023153965E-01
 -0.558023153939E-01
 -0.558023153938E-01
 -0.558023153949E-01
 -0.558023153949E-01
 -0.558023153920E-01
 -0.558023153917E-01
 -0.558022949981E-01
 -0.558022095821E-01
 -0.407197410979E-01
 -0.407198477166E-01
 -0.407197342051E-01
 -0.407197341992E-01
 -0.407197342045E-01
 -0.407197342025E-01
 -0.407197342016E-01
 -0.407197342011E-01
 -0.407197342044E-01
 -0.407197342043E-01
 -0.407197342017E-01
 -0.407197342016E-01
  0.962869680752E-01
  0.962869680752E-01
  0.962869680812E-01
  0.962869680812E-01
  0.962869680740E-01
  0.962869680740E-01
  0.962869680756E-01
  0.962869680756E-01
  0.962869680776E-01
  0.962869680776E-01
  0.962869680761E-01
  0.962869680761E-01
  0.597364494328E-01
  0.597364494328E-01
  0.597364494342E-01
  0.597364494342E-01
  0.597364494323E-01
  0.597364494323E-01
  0.597364494308E-01
  0.597364494308E-01
  0.597364494376E-01
  0.597364494376E-01
  0.597364494320E-01
  0.597364494319E-01
 -0.558023153943E-01
 -0.558023153942E-01
 -0.558023153965E-01
 -0.558023153964E-01
 -0.558023153938E-01
 -0.558023153933E-01
 -0.558023153949E-01
 -0.558023153932E-01
 -0.558023153917E-01
 -0.558023153857E-01
 -0.558022095821E-01
 -0.558023089747E-01
 -0.407197002155E-01
 -0.407197410979E-01
 -0.407197343069E-01
 -0.407197342051E-01
 -0.407197342395E-01
 -0.407197342045E-01
 -0.407197342100E-01
 -0.407197342016E-01
 -0.407197342062E-01
 -0.407197342044E-01
 -0.407197342026E-01
 -0.407197342017E-01
  0.962869680752E-01
  0.962869680749E-01
  0.962869680812E-01
  0.962869680811E-01
  0.962869680740E-01
  0.962869680740E-01
  0.962869680756E-01
  0.962869680756E-01
  0.962869680776E-01
  0.962869680776E-01
  0.962869680761E-01
  0.962869680761E-01
  0.597364494328E-01
  0.597364494328E-01
  0.597364494342E-01
  0.597364494342E-01
  0.597364494323E-01
  0.597364494323E-01
  0.597364494309E-01
  0.597364494308E-01
  0.597364494377E-01
  0.597364494376E-01
  0.597364494323E-01
  0.597364494320E-01
 -0.558023153942E-01
 -0.558023153934E-01
 -0.558023153964E-01
 -0.558023153948E-01
 -0.558023153933E-01
 -0.558023153835E-01
 -0.558023153932E-01
 -0.558023153648E-01
 -0.558023153857E-01
 -0.558023152840E-01
 -0.558023089747E-01
 -0.558023470925E-01
 -0.407197504033E-01
 -0.407197002155E-01
 -0.407197359655E-01
 -0.407197343069E-01
 -0.407197348162E-01
 -0.407197342395E-01
 -0.407197343558E-01
 -0.407197342100E-01
 -0.407197342380E-01
 -0.407197342062E-01
 -0.407197342202E-01
 -0.407197342026E-01
  0.962869680749E-01
  0.962869680694E-01
  0.962869680811E-01
  0.962869680794E-01
  0.962869680740E-01
  0.962869680735E-01
  0.962869680756E-01
  0.962869680753E-01
  0.962869680776E-01
  0.962869680775E-01
  0.962869680761E-01
  0.962869680761E-01
  0.597364494328E-01
  0.597364494328E-01
  0.597364494342E-01
  0.597364494342E-01
  0.597364494326E-01
  0.597364494323E-01
  0.597364494315E-01
  0.597364494309E-01
  0.597364494389E-01
  0.597364494377E-01
  0.597364494393E-01
  0.597364494323E-01
 -0.558023153934E-01
 -0.558023153781E-01
 -0.558023153948E-01
 -0.558023153666E-01
 -0.558023153835E-01
 -0.558023152119E-01
 -0.558023153648E-01
 -0.558023148634E-01
 -0.558023152840E-01
 -0.558023135703E-01
 -0.558023470925E-01
 -0.558023004527E-01
 -0.407201471776E-01
 -0.407197504033E-01
 -0.407197622408E-01
 -0.407197359655E-01
 -0.407197449093E-01
 -0.407197348162E-01
 -0.407197368453E-01
 -0.407197343558E-01
 -0.407197347669E-01
 -0.407197342380E-01
 -0.407197345102E-01
 -0.407197342202E-01
  0.962869680694E-01
  0.962869679705E-01
  0.962869680794E-01
  0.962869680478E-01
  0.962869680735E-01
  0.962869680645E-01
  0.962869680753E-01
  0.962869680705E-01
  0.962869680775E-01
  0.962869680762E-01
  0.962869680761E-01
  0.962869680759E-01
  0.597364494330E-01
  0.597364494328E-01
  0.597364494355E-01
  0.597364494342E-01
  0.597364494376E-01
  0.597364494326E-01
  0.597364494425E-01
  0.597364494315E-01
  0.597364494614E-01
  0.597364494389E-01
  0.597364495622E-01
  0.597364494393E-01
 -0.558023153781E-01
 -0.558023150941E-01
 -0.558023153666E-01
 -0.558023148591E-01
 -0.558023152119E-01
 -0.558023124128E-01
 -0.558023148634E-01
 -0.558023073915E-01
 -0.558023135703E-01
 -0.558022879979E-01
 -0.558023004527E-01
 -0.558019312549E-01
 -0.407242372414E-01
 -0.407201471776E-01
 -0.407201282037E-01
 -0.407197622408E-01
 -0.407198717980E-01
 -0.407197449093E-01
 -0.407197744391E-01
 -0.407197368453E-01
 -0.407197437109E-01
 -0.407197347669E-01
 -0.407197398454E-01
 -0.407197345102E-01
  0.962869679705E-01
  0.962869662719E-01
  0.962869680478E-01
  0.962869675254E-01
  0.962869680645E-01
  0.962869679065E-01
  0.962869680705E-01
  0.962869679854E-01
  0.962869680762E-01
  0.962869680518E-01
  0.962869680759E-01
  0.962869680718E-01
  0.597364494370E-01
  0.597364494330E-01
  0.597364494604E-01
  0.597364494355E-01
  0.597364495326E-01
  0.597364494376E-01
  0.597364496497E-01
  0.597364494425E-01
  0.597364498795E-01
  0.597364494614E-01
  0.597364517123E-01
  0.597364495622E-01
 -0.558023150941E-01
 -0.558023109680E-01
 -0.558023148591E-01
 -0.558023066680E-01
 -0.558023124128E-01
 -0.558022661020E-01
 -0.558023073915E-01
 -0.558021784405E-01
 -0.558022879979E-01
 -0.558018892107E-01
 -0.558019312550E-01
 -0.557981865203E-01
 -0.407645489948E-01
 -0.407242372465E-01
 -0.407247088282E-01
 -0.407201282055E-01
 -0.407224866353E-01
 -0.407198717982E-01
 -0.407203691289E-01
 -0.407197744391E-01
 -0.407198812055E-01
 -0.407197437109E-01
 -0.407198069714E-01
 -0.407197398454E-01
  0.962869662719E-01
  0.962869377317E-01
  0.962869675254E-01
  0.962869576612E-01
  0.962869679065E-01
  0.962869649473E-01
  0.962869679854E-01
  0.962869663466E-01
  0.962869680518E-01
  0.962869675711E-01
  0.962869680718E-01
  0.962869679843E-01
  0.597364495219E-01
  0.597364494370E-01
  0.597364499255E-01
  0.597364494604E-01
  0.597364510933E-01
  0.597364495326E-01
  0.597364529406E-01
  0.597364496497E-01
  0.597364564239E-01
  0.597364498795E-01
  0.597364857160E-01
  0.597364517123E-01
 -0.558023109680E-01
 -0.558022284448E-01
 -0.558023066681E-01
 -0.558021820164E-01
 -0.558022661020E-01
 -0.558017115140E-01
 -0.558021784407E-01
 -0.558008650210E-01
 -0.558018892114E-01
 -0.557977158999E-01
 -0.557981865232E-01
 -0.557594056423E-01
 -0.411662897362E-01
 -0.407645492182E-01
 -0.407689353798E-01
 -0.407247088727E-01
 -0.407277428094E-01
 -0.407224866614E-01
 -0.407265365479E-01
 -0.407203691337E-01
 -0.407213018587E-01
 -0.407198812073E-01
 -0.407212446050E-01
 -0.407198069715E-01
  0.962869377316E-01
  0.962865017150E-01
  0.962869576612E-01
  0.962868328559E-01
  0.962869649473E-01
  0.962869214081E-01
  0.962869663466E-01
  0.962869421735E-01
  0.962869675711E-01
  0.962869590326E-01
  0.962869679843E-01
  0.962869661288E-01
  0.597364513402E-01
  0.597364495219E-01
  0.597364591493E-01
  0.597364499255E-01
  0.597364820823E-01
  0.597364510933E-01
  0.597365169599E-01
  0.597364529406E-01
  0.597365821763E-01
  0.597364564239E-01
  0.597370306699E-01
  0.597364857158E-01
 -0.558022284449E-01
 -0.558015591603E-01
 -0.558021820170E-01
 -0.557998132271E-01
 -0.558017115196E-01
 -0.557897546847E-01
 -0.558008650906E-01
 -0.557776731192E-01
 -0.557977161687E-01
 -0.557578910787E-01
 -0.557594062420E-01
 -0.554288413651E-01
 -0.421829551602E-01
 -0.411663443480E-01
 -0.408442776980E-01
 -0.407689871839E-01
 -0.411369340923E-01
 -0.407277505244E-01
 -0.408181266455E-01
 -0.407265383815E-01
 -0.407758186781E-01
 -0.407213019218E-01
 -0.407262575746E-01
 -0.407212446240E-01
  0.962865016789E-01
  0.962803488719E-01
  0.962868328516E-01
  0.962840764333E-01
  0.962869214078E-01
  0.962860401078E-01
  0.962869421735E-01
  0.962864194665E-01
  0.962869590326E-01
  0.962867815070E-01
  0.962869661288E-01
  0.962869258023E-01
  0.597364893272E-01
  0.597364513402E-01
  0.597366068018E-01
  0.597364591493E-01
  0.597368534387E-01
  0.597364820823E-01
  0.597372204175E-01
  0.597365169597E-01
  0.597379351339E-01
  0.597365821749E-01
  0.597441875567E-01
  0.597370306371E-01
 -0.558015591787E-01
 -0.557804237326E-01
 -0.557998136330E-01
 -0.558132649323E-01
 -0.557897547463E-01
 -0.558144712228E-01
 -0.557776728477E-01
 -0.557029937381E-01
 -0.557578910599E-01
 -0.551720249437E-01
 -0.554288612328E-01
 -0.537061165101E-01
 -0.502835789546E-01
 -0.421838379603E-01
 -0.458856538195E-01
 -0.408442317976E-01
 -0.416034799959E-01
 -0.411369597543E-01
 -0.406273464221E-01
 -0.408181531936E-01
 -0.400372999945E-01
 -0.407758988862E-01
 -0.410455568790E-01
 -0.407262601165E-01
  0.962803443503E-01
  0.961931677381E-01
  0.962840762952E-01
  0.962715028115E-01
  0.962860400847E-01
  0.962788184238E-01
  0.962864194635E-01
  0.962822723670E-01
  0.962867815067E-01
  0.962845620154E-01
  0.962869258023E-01
  0.962861304891E-01
  0.597373598134E-01
  0.597364893272E-01
  0.597400800103E-01
  0.597366068012E-01
  0.597464856442E-01
  0.597368534257E-01
  0.597553166173E-01
  0.597372202907E-01
  0.597705878176E-01
  0.597379342778E-01
  0.598190720302E-01
  0.597441816606E-01
 -0.557804267665E-01
 -0.558305648911E-01
 -0.558132652389E-01
 -0.546129271816E-01
 -0.558151166119E-01
 -0.539226738761E-01
 -0.557060535513E-01
 -0.559902110816E-01
 -0.551747320083E-01
 -0.588653412302E-01
 -0.537066079650E-01
 -0.557547955534E-01
 -0.686266129947E-01
 -0.504937842431E-01
 -0.506594197454E-01
 -0.460756649972E-01
 -0.603235422531E-01
 -0.416569008069E-01
 -0.434654961824E-01
 -0.406627252042E-01
 -0.514391473973E-01
 -0.400395907204E-01
 -0.386801590986E-01
 -0.410455211874E-01
  0.961930875557E-01
  0.965143290733E-01
  0.962712646512E-01
  0.956880228719E-01
  0.962787911040E-01
  0.960416479017E-01
  0.962822681856E-01
  0.961200934710E-01
  0.962845617360E-01
  0.962114939337E-01
  0.962861304821E-01
  0.962640178882E-01
  0.597509693871E-01
  0.597373598107E-01
  0.597617249827E-01
  0.597400799769E-01
  0.597666613676E-01
  0.597464855073E-01
  0.597703366180E-01
  0.597553163035E-01
  0.598604611333E-01
  0.597705833729E-01
  0.615307926122E-01
  0.598177464763E-01
 -0.558313389309E-01
 -0.532059570638E-01
 -0.546204533172E-01
 -0.652600812672E-01
 -0.539380732572E-01
 -0.546286486747E-01
 -0.560087650400E-01
 -0.679912156379E-01
 -0.589429350261E-01
 -0.585097371471E-01
 -0.558327127062E-01
 -0.543933175508E-01
 -0.900773055171E-01
 -0.692582053663E-01
 -0.474651982478E-01
 -0.515232738311E-01
 -0.683043668170E-01
 -0.609981960662E-01
 -0.536201852158E-01
 -0.440937953471E-01
 -0.606146269608E-01
 -0.517927274486E-01
 -0.524590666608E-01
 -0.387837147619E-01
  0.963330526430E-01
  0.762346133058E-01
  0.956879586082E-01
  0.940910734518E-01
  0.960413132947E-01
  0.968408925791E-01
  0.961200345906E-01
  0.967917442505E-01
  0.962114919351E-01
  0.964775264607E-01
  0.962640178471E-01
  0.962105354673E-01
  0.604407626708E-01
  0.597509626090E-01
  0.613945991182E-01
  0.597615689572E-01
  0.625718958682E-01
  0.597651758310E-01
  0.638597618761E-01
  0.597616944547E-01
  0.594818962152E-01
  0.598529745339E-01
  0.449481801759E-01
  0.614668244941E-01
 -0.532355219785E-01
 -0.613995090631E-01
 -0.653822178542E-01
 -0.690624431390E-01
 -0.548263159870E-01
 -0.627441857500E-01
 -0.682383223284E-01
 -0.679392785107E-01
 -0.587727013736E-01
 -0.409846464498E-01
 -0.545366443522E-01
  0.120782289012E-01
 -0.558289544751E-01
 -0.892513570005E-01
 -0.390424325915E-01
 -0.465882927880E-01
 -0.326436564573E-01
 -0.679060857923E-01
 -0.309652902198E-01
 -0.539877982339E-01
 -0.387224140044E-01
 -0.623785337564E-01
 -0.554335588256E-01
 -0.545181817092E-01
  0.719308794521E-01
  0.561928553359E-01
  0.909743234985E-01
  0.594380744985E-01
  0.954785039016E-01
  0.616545165225E-01
  0.963223585879E-01
  0.618330519954E-01
  0.963566245346E-01
  0.622667503072E-01
  0.961930526678E-01
  0.624905874811E-01
  0.432362272988E-01
  0.604363410915E-01
  0.426274399832E-01
  0.613610378465E-01
  0.416674793897E-01
  0.624252671363E-01
  0.401114716331E-01
  0.633593144026E-01
  0.393018776172E-01
  0.583748698585E-01
  0.357427210672E-01
  0.435180828039E-01
 -0.621045920479E-01
 -0.586805841266E-01
 -0.695351366081E-01
 -0.353104440320E-01
 -0.624402367949E-01
 -0.153818380291E-01
 -0.678644710374E-01
 -0.155602986921E-02
 -0.423113018912E-01
  0.184445195435E-01
  0.866056982353E-02
  0.596102457894E-01
 -0.558566402892E-01
 -0.386629273293E-01
 -0.389337961431E-01
 -0.308281143170E-01
 -0.324993647175E-01
 -0.259011545567E-01
 -0.314035295546E-01
 -0.337129526595E-01
 -0.407240811708E-01
 -0.526522779420E-01
 -0.578978127587E-01
  0.425908429243E-01
  0.425744144457E-01
  0.436059205009E-01
  0.435070919770E-01
  0.444923362754E-01
  0.446056811743E-01
  0.447013520506E-01
  0.445977691075E-01
  0.447880533974E-01
  0.447213842886E-01
  0.448661765599E-01
  0.360224954619E-01
  0.356343244274E-01
  0.357199854760E-01
  0.352272605841E-01
  0.352658595405E-01
  0.346726675749E-01
  0.345729262506E-01
  0.340239599915E-01
  0.340444924581E-01
  0.319562185541E-01
  0.316032671825E-01
 -0.586573835910E-01
 -0.509399327777E-01
 -0.352853668538E-01