# vtk DataFile Version 3.0
MachLine results file. Generated by MachLine, USU AeroLab (c) 2022.
ASCII
DATASET POLYDATA
POINTS                 419 float
  0.100000000000E+01  0.000000000000E+00  0.000000000000E+00
  0.953837434700E+00  0.222222222220E+00 -0.403870114270E-02
  0.100000000000E+01  0.222222222220E+00  0.000000000000E+00
  0.953837434700E+00  0.000000000000E+00 -0.403870114270E-02
  0.863184801440E+00  0.222222222220E+00 -0.119697788720E-01
  0.863184801440E+00  0.000000000000E+00 -0.119697788720E-01
  0.708754398800E+00  0.222222222220E+00 -0.254806884070E-01
  0.708754398800E+00  0.000000000000E+00 -0.254806884070E-01
  0.500000000000E+00  0.222222222220E+00 -0.437443317630E-01
  0.500000000000E+00  0.000000000000E+00 -0.437443317630E-01
  0.291245601200E+00  0.000000000000E+00 -0.254806884070E-01
  0.291245601200E+00  0.222222222220E+00 -0.254806884070E-01
  0.136815198560E+00  0.000000000000E+00 -0.119697788720E-01
  0.136815198560E+00  0.222222222220E+00 -0.119697788720E-01
  0.461625652960E-01  0.000000000000E+00 -0.403870114270E-02
  0.461625652960E-01  0.222222222220E+00 -0.403870114270E-02
  0.000000000000E+00  0.000000000000E+00  0.000000000000E+00
  0.000000000000E+00  0.222222222220E+00  0.000000000000E+00
  0.461625652960E-01  0.222222222220E+00  0.403870114270E-02
  0.461625652960E-01  0.000000000000E+00  0.403870114270E-02
  0.136815198560E+00  0.222222222220E+00  0.119697788720E-01
  0.136815198560E+00  0.000000000000E+00  0.119697788720E-01
  0.291245601200E+00  0.222222222220E+00  0.254806884070E-01
  0.291245601200E+00  0.000000000000E+00  0.254806884070E-01
  0.500000000000E+00  0.222222222220E+00  0.437443317630E-01
  0.500000000000E+00  0.000000000000E+00  0.437443317630E-01
  0.708754398800E+00  0.000000000000E+00  0.254806884070E-01
  0.708754398800E+00  0.222222222220E+00  0.254806884070E-01
  0.863184801440E+00  0.000000000000E+00  0.119697788720E-01
  0.863184801440E+00  0.222222222220E+00  0.119697788720E-01
  0.953837434700E+00  0.000000000000E+00  0.403870114270E-02
  0.953837434700E+00  0.222222222220E+00  0.403870114270E-02
  0.953837434700E+00  0.444444444440E+00 -0.403870114270E-02
  0.100000000000E+01  0.444444444440E+00  0.000000000000E+00
  0.863184801440E+00  0.444444444440E+00 -0.119697788720E-01
  0.708754398800E+00  0.444444444440E+00 -0.254806884070E-01
  0.500000000000E+00  0.444444444440E+00 -0.437443317630E-01
  0.291245601200E+00  0.444444444440E+00 -0.254806884070E-01
  0.136815198560E+00  0.444444444440E+00 -0.119697788720E-01
  0.461625652960E-01  0.444444444440E+00 -0.403870114270E-02
  0.000000000000E+00  0.444444444440E+00  0.000000000000E+00
  0.461625652960E-01  0.444444444440E+00  0.403870114270E-02
  0.136815198560E+00  0.444444444440E+00  0.119697788720E-01
  0.291245601200E+00  0.444444444440E+00  0.254806884070E-01
  0.500000000000E+00  0.444444444440E+00  0.437443317630E-01
  0.708754398800E+00  0.444444444440E+00  0.254806884070E-01
  0.863184801440E+00  0.444444444440E+00  0.119697788720E-01
  0.953837434700E+00  0.444444444440E+00  0.403870114270E-02
  0.953837434700E+00  0.666666666670E+00 -0.403870114270E-02
  0.100000000000E+01  0.666666666670E+00  0.000000000000E+00
  0.863184801440E+00  0.666666666670E+00 -0.119697788720E-01
  0.708754398800E+00  0.666666666670E+00 -0.254806884070E-01
  0.500000000000E+00  0.666666666670E+00 -0.437443317630E-01
  0.291245601200E+00  0.666666666670E+00 -0.254806884070E-01
  0.136815198560E+00  0.666666666670E+00 -0.119697788720E-01
  0.461625652960E-01  0.666666666670E+00 -0.403870114270E-02
  0.000000000000E+00  0.666666666670E+00  0.000000000000E+00
  0.461625652960E-01  0.666666666670E+00  0.403870114270E-02
  0.136815198560E+00  0.666666666670E+00  0.119697788720E-01
  0.291245601200E+00  0.666666666670E+00  0.254806884070E-01
  0.500000000000E+00  0.666666666670E+00  0.437443317630E-01
  0.708754398800E+00  0.666666666670E+00  0.254806884070E-01
  0.863184801440E+00  0.666666666670E+00  0.119697788720E-01
  0.953837434700E+00  0.666666666670E+00  0.403870114270E-02
  0.953837434700E+00  0.888888888890E+00 -0.403870114270E-02
  0.100000000000E+01  0.888888888890E+00  0.000000000000E+00
  0.863184801440E+00  0.888888888890E+00 -0.119697788720E-01
  0.708754398800E+00  0.888888888890E+00 -0.254806884070E-01
  0.500000000000E+00  0.888888888890E+00 -0.437443317630E-01
  0.291245601200E+00  0.888888888890E+00 -0.254806884070E-01
  0.136815198560E+00  0.888888888890E+00 -0.119697788720E-01
  0.461625652960E-01  0.888888888890E+00 -0.403870114270E-02
  0.000000000000E+00  0.888888888890E+00  0.000000000000E+00
  0.461625652960E-01  0.888888888890E+00  0.403870114270E-02
  0.136815198560E+00  0.888888888890E+00  0.119697788720E-01
  0.291245601200E+00  0.888888888890E+00  0.254806884070E-01
  0.500000000000E+00  0.888888888890E+00  0.437443317630E-01
  0.708754398800E+00  0.888888888890E+00  0.254806884070E-01
  0.863184801440E+00  0.888888888890E+00  0.119697788720E-01
  0.953837434700E+00  0.888888888890E+00  0.403870114270E-02
  0.953837434700E+00  0.111111111110E+01 -0.403870114270E-02
  0.100000000000E+01  0.111111111110E+01  0.000000000000E+00
  0.863184801440E+00  0.111111111110E+01 -0.119697788720E-01
  0.708754398800E+00  0.111111111110E+01 -0.254806884070E-01
  0.500000000000E+00  0.111111111110E+01 -0.437443317630E-01
  0.291245601200E+00  0.111111111110E+01 -0.254806884070E-01
  0.136815198560E+00  0.111111111110E+01 -0.119697788720E-01
  0.461625652960E-01  0.111111111110E+01 -0.403870114270E-02
  0.000000000000E+00  0.111111111110E+01  0.000000000000E+00
  0.461625652960E-01  0.111111111110E+01  0.403870114270E-02
  0.136815198560E+00  0.111111111110E+01  0.119697788720E-01
  0.291245601200E+00  0.111111111110E+01  0.254806884070E-01
  0.500000000000E+00  0.111111111110E+01  0.437443317630E-01
  0.708754398800E+00  0.111111111110E+01  0.254806884070E-01
  0.863184801440E+00  0.111111111110E+01  0.119697788720E-01
  0.953837434700E+00  0.111111111110E+01  0.403870114270E-02
  0.953837434700E+00  0.133333333330E+01 -0.403870114270E-02
  0.100000000000E+01  0.133333333330E+01  0.000000000000E+00
  0.863184801440E+00  0.133333333330E+01 -0.119697788720E-01
  0.708754398800E+00  0.133333333330E+01 -0.254806884070E-01
  0.500000000000E+00  0.133333333330E+01 -0.437443317630E-01
  0.291245601200E+00  0.133333333330E+01 -0.254806884070E-01
  0.136815198560E+00  0.133333333330E+01 -0.119697788720E-01
  0.461625652960E-01  0.133333333330E+01 -0.403870114270E-02
  0.000000000000E+00  0.133333333330E+01  0.000000000000E+00
  0.461625652960E-01  0.133333333330E+01  0.403870114270E-02
  0.136815198560E+00  0.133333333330E+01  0.119697788720E-01
  0.291245601200E+00  0.133333333330E+01  0.254806884070E-01
  0.500000000000E+00  0.133333333330E+01  0.437443317630E-01
  0.708754398800E+00  0.133333333330E+01  0.254806884070E-01
  0.863184801440E+00  0.133333333330E+01  0.119697788720E-01
  0.953837434700E+00  0.133333333330E+01  0.403870114270E-02
  0.953837434700E+00  0.155555555560E+01 -0.403870114270E-02
  0.100000000000E+01  0.155555555560E+01  0.000000000000E+00
  0.863184801440E+00  0.155555555560E+01 -0.119697788720E-01
  0.708754398800E+00  0.155555555560E+01 -0.254806884070E-01
  0.500000000000E+00  0.155555555560E+01 -0.437443317630E-01
  0.291245601200E+00  0.155555555560E+01 -0.254806884070E-01
  0.136815198560E+00  0.155555555560E+01 -0.119697788720E-01
  0.461625652960E-01  0.155555555560E+01 -0.403870114270E-02
  0.000000000000E+00  0.155555555560E+01  0.000000000000E+00
  0.461625652960E-01  0.155555555560E+01  0.403870114270E-02
  0.136815198560E+00  0.155555555560E+01  0.119697788720E-01
  0.291245601200E+00  0.155555555560E+01  0.254806884070E-01
  0.500000000000E+00  0.155555555560E+01  0.437443317630E-01
  0.708754398800E+00  0.155555555560E+01  0.254806884070E-01
  0.863184801440E+00  0.155555555560E+01  0.119697788720E-01
  0.953837434700E+00  0.155555555560E+01  0.403870114270E-02
  0.953837434700E+00  0.177777777780E+01 -0.403870114270E-02
  0.100000000000E+01  0.177777777780E+01  0.000000000000E+00
  0.863184801440E+00  0.177777777780E+01 -0.119697788720E-01
  0.708754398800E+00  0.177777777780E+01 -0.254806884070E-01
  0.500000000000E+00  0.177777777780E+01 -0.437443317630E-01
  0.291245601200E+00  0.177777777780E+01 -0.254806884070E-01
  0.136815198560E+00  0.177777777780E+01 -0.119697788720E-01
  0.461625652960E-01  0.177777777780E+01 -0.403870114270E-02
  0.000000000000E+00  0.177777777780E+01  0.000000000000E+00
  0.461625652960E-01  0.177777777780E+01  0.403870114270E-02
  0.136815198560E+00  0.177777777780E+01  0.119697788720E-01
  0.291245601200E+00  0.177777777780E+01  0.254806884070E-01
  0.500000000000E+00  0.177777777780E+01  0.437443317630E-01
  0.708754398800E+00  0.177777777780E+01  0.254806884070E-01
  0.863184801440E+00  0.177777777780E+01  0.119697788720E-01
  0.953837434700E+00  0.177777777780E+01  0.403870114270E-02
  0.953837434700E+00  0.200000000000E+01 -0.403870114270E-02
  0.100000000000E+01  0.200000000000E+01  0.000000000000E+00
  0.863184801440E+00  0.200000000000E+01 -0.119697788720E-01
  0.708754398800E+00  0.200000000000E+01 -0.254806884070E-01
  0.500000000000E+00  0.200000000000E+01 -0.437443317630E-01
  0.291245601200E+00  0.200000000000E+01 -0.254806884070E-01
  0.136815198560E+00  0.200000000000E+01 -0.119697788720E-01
  0.461625652960E-01  0.200000000000E+01 -0.403870114270E-02
  0.000000000000E+00  0.200000000000E+01  0.000000000000E+00
  0.461625652960E-01  0.200000000000E+01  0.403870114270E-02
  0.136815198560E+00  0.200000000000E+01  0.119697788720E-01
  0.291245601200E+00  0.200000000000E+01  0.254806884070E-01
  0.500000000000E+00  0.200000000000E+01  0.437443317630E-01
  0.708754398800E+00  0.200000000000E+01  0.254806884070E-01
  0.863184801440E+00  0.200000000000E+01  0.119697788720E-01
  0.953837434700E+00  0.200000000000E+01  0.403870114270E-02
  0.953837434700E+00  0.200157141480E+01 -0.372111000410E-02
[...]
CELL_DATA                 800
SCALARS C_p_ise float 1
LOOKUP_TABLE default
 -0.413676257270E-07
  0.761674572444E-07
 -0.817701462097E-09
 -0.869373708825E-10
 -0.119359830661E-09
 -0.137847757900E-10
 -0.789848433571E-10
 -0.667755092843E-11
  0.139248020132E+00
  0.139248020121E+00
  0.139248020132E+00
  0.139248020128E+00
  0.139248020133E+00
  0.139248020132E+00
  0.139248020133E+00
  0.139248020133E+00
  0.482823657598E-12
  0.383643734065E-12
  0.131499749361E-11
 -0.406341627013E-12
  0.926211488458E-11
  0.188480624406E-11
  0.261922758614E-10
  0.189009302037E-11
 -0.787233692330E-01
 -0.787233692065E-01
 -0.787233692187E-01
 -0.787233690582E-01
 -0.787233691850E-01
 -0.787233687412E-01
 -0.787234244996E-01
 -0.787233392739E-01
 -0.225602482762E-06
 -0.413676254803E-07
 -0.156480549506E-07
 -0.817701462097E-09
 -0.237264342212E-08
 -0.119359830661E-09
 -0.156264599144E-08
 -0.789848433571E-10
  0.139248020121E+00
  0.139248019882E+00
  0.139248020128E+00
  0.139248020054E+00
  0.139248020132E+00
  0.139248020107E+00
  0.139248020133E+00
  0.139248020131E+00
  0.330934574277E-11
  0.482823657598E-12
  0.418339437166E-10
  0.131499749361E-11
  0.176255553362E-09
  0.926211488458E-11
  0.563223295163E-09
  0.261922758614E-10
 -0.787233692065E-01
 -0.787233686235E-01
 -0.787233690582E-01
 -0.787233656897E-01
 -0.787233687412E-01
 -0.787233598520E-01
 -0.787233392739E-01
 -0.787232069570E-01
 -0.337573977921E-05
 -0.225602489617E-06
 -0.278297601665E-06
 -0.156480558846E-07
 -0.450787768137E-07
 -0.237264361597E-08
 -0.315628945026E-07
 -0.156264599144E-08
  0.139248019882E+00
  0.139248014896E+00
  0.139248020054E+00
  0.139248018461E+00
  0.139248020107E+00
  0.139248019551E+00
  0.139248020131E+00
  0.139248020075E+00
  0.813300044595E-10
  0.330934574277E-11
  0.931426681815E-09
  0.418339437166E-10
  0.356458471206E-08
  0.176255553362E-09
  0.109119516245E-07
  0.563223295163E-09
 -0.787233686235E-01
 -0.787233574792E-01
 -0.787233656897E-01
 -0.787233049928E-01
 -0.787233598520E-01
 -0.787231969942E-01
 -0.787232069570E-01
 -0.787209362088E-01
 -0.490580427077E-04
 -0.337574176069E-05
 -0.464609061618E-05
 -0.278297922767E-06
 -0.825452053253E-06
 -0.450788664950E-07
 -0.519644887526E-06
 -0.315628991902E-07
  0.139248014896E+00
  0.139247922317E+00
  0.139248018461E+00
  0.139247987402E+00
  0.139248019551E+00
  0.139248007678E+00
  0.139248020075E+00
  0.139248018550E+00
  0.223900097757E-08
  0.813300044595E-10
  0.205969889116E-07
  0.931426681815E-09
  0.744705567759E-07
  0.356458397191E-08
  0.219118587331E-06
  0.109119354469E-07
 -0.787233574792E-01
 -0.787231373281E-01
 -0.787233049928E-01
 -0.787222289107E-01
 -0.787231969946E-01
 -0.787206445287E-01
 -0.787209362100E-01
 -0.786883407638E-01
 -0.603007832772E-03
 -0.490584706610E-04
 -0.613618359117E-04
 -0.464618832839E-05
 -0.126746587157E-04
 -0.825486068390E-06
 -0.989923029526E-05
 -0.519646864568E-06
  0.139247922314E+00
  0.139246075073E+00
  0.139247987401E+00
  0.139247336086E+00
  0.139248007678E+00
  0.139247744784E+00
  0.139248018550E+00
  0.139247976172E+00
  0.614879759454E-07
  0.223900097757E-08
  0.420899866353E-06
  0.205969811224E-07
  0.131529380329E-05
  0.744702852823E-07
  0.345690031468E-05
  0.219114395728E-06
 -0.787231373306E-01
 -0.787197731993E-01
 -0.787222289213E-01
 -0.787070579023E-01
 -0.787206446088E-01
 -0.786823382236E-01
 -0.786883410462E-01
 -0.782859088715E-01
 -0.528159345575E-02
 -0.603078700643E-03
 -0.786186699856E-03
 -0.613781384732E-04
 -0.200757683526E-03
 -0.126786404868E-04
 -0.101132306280E-03
 -0.989963133238E-05
  0.139246074391E+00
  0.139220395330E+00
  0.139247336033E+00
  0.139237144514E+00
  0.139247744781E+00
  0.139242862232E+00
  0.139247976172E+00
  0.139246831250E+00
  0.173011778241E-05
  0.614879455993E-07
  0.926964108622E-05
  0.420895923335E-06
  0.268398191096E-04
  0.131517526076E-05
  0.656662147653E-04
  0.345528329779E-05
 -0.787197741797E-01
 -0.786581397743E-01
 -0.787070617706E-01
 -0.785141917436E-01
 -0.786823562572E-01
 -0.783383940158E-01
 -0.782859497510E-01
 -0.749337364507E-01
 -0.312395323772E-01
 -0.528516592099E-02
 -0.387585061582E-02
 -0.788133468368E-03
 -0.829903909528E-03
 -0.202193944225E-03
 -0.176323242407E-02
 -0.101304576055E-03
  0.139220118741E+00
  0.138723366223E+00
  0.139237118427E+00
  0.139017635482E+00
  0.139242860437E+00
  0.139127303075E+00
  0.139246831219E+00
  0.139212716897E+00
  0.445818710671E-04
  0.173009782451E-05
  0.147434752430E-03
  0.926856867115E-05
  0.313668292456E-03
  0.268222051659E-04
  0.574162137720E-03
  0.655277760001E-04
 -0.786582207860E-01
 -0.781668376573E-01
 -0.785144666948E-01
 -0.764396967271E-01
 -0.783400898934E-01
 -0.746230259522E-01
 -0.749380677856E-01
 -0.535640443380E-01
 -0.133810793947E+00
 -0.317602606305E-01
 -0.395025933624E-01
 -0.416504172310E-02
 -0.319052641310E-01
 -0.860767444074E-03
 -0.866718137770E-02
 -0.176767248955E-02
  0.138714105194E+00
  0.136358381324E+00
  0.139015878365E+00
  0.137438303098E+00
  0.139127079808E+00
  0.137995431101E+00
  0.139212704175E+00
  0.138516821406E+00
  0.155179510517E-02
  0.445573279027E-04
  0.375901739699E-02
  0.146641412108E-03
  0.682911932073E-02
  0.303849119200E-03
  0.100922792323E-01
  0.517317557937E-03
 -0.782014832116E-01
 -0.782539564335E-01
 -0.764730789196E-01
 -0.806037797136E-01
 -0.746375852277E-01
 -0.693546658394E-01
 -0.535767963461E-01
  0.782265334055E-01
 -0.138355668912E+00
 -0.135711053016E+00
 -0.944256132595E-01
 -0.443566551579E-01
 -0.501890259197E-01
 -0.365300687882E-01
 -0.464505199342E-01
 -0.119106763505E-01
  0.131044602721E+00
  0.907982985427E-01
  0.135547202482E+00
  0.915374871181E-01
  0.137565687176E+00
  0.915761063975E-01
  0.138466723918E+00
  0.913920256648E-01
  0.117033665481E-01
  0.155072370161E-02
  0.105652960522E-01
  0.375324897578E-02
  0.838179842197E-02
  0.682118349547E-02
  0.461185056128E-02
  0.101023579727E-01
 -0.782194494312E-01
 -0.557343298854E-01
 -0.807081465443E-01
  0.140219160985E-01
 -0.712558664863E-01
  0.750617994137E-01
  0.683954392772E-01
  0.157902615326E+00
 -0.157076981179E+00
 -0.148453802773E+00
 -0.121478946684E+00
 -0.979138441988E-01
 -0.695346562223E-01
 -0.672070699733E-01
 -0.661927454098E-01
  0.396878857641E-01
  0.405773317276E-01
  0.404227532946E-01
  0.411444242730E-01
  0.410855840249E-01
  0.415904429467E-01
  0.414949186517E-01
  0.116397819816E-01
  0.108828528735E-01
  0.104338338499E-01
  0.915431385347E-02
  0.805599968954E-02
  0.621118263905E-02
  0.375268190410E-02
 -0.587574784419E-01
 -0.801559710366E-01
 -0.475690911011E-01
 -0.122465222495E+00
 -0.107993913117E+00
 -0.157289133218E+00
 -0.154258438608E+00
 -0.158730158730E+00
 -0.158725388577E+00
 -0.142640698920E+00
 -0.133021953999E+00
 -0.856936908395E-01
 -0.871370353809E-01
 -0.599555198909E-01
  0.275553363091E-01
  0.285177680265E-01
  0.286584615298E-01
  0.292601218048E-01
  0.293452600868E-01
  0.297683182206E-01
  0.297656639792E-01
  0.750624207757E-02
  0.703877585708E-02
  0.634138011943E-02
  0.558117188133E-02
  0.416471331056E-02
  0.312497327424E-02
  0.665427634507E-03
 -0.542679389030E-01
 -0.939845858178E-01
 -0.780637001970E-01
 -0.147797589989E+00
 -0.144552965245E+00
 -0.158730158730E+00
 -0.158730158730E+00
 -0.158730158730E+00
 -0.158730158730E+00
 -0.153054528505E+00
 -0.150545472631E+00
 -0.959919995323E-01
 -0.102081088264E+00
 -0.562127071769E-01
  0.139646258887E-01
  0.147060656221E-01
  0.151109114218E-01
  0.155543554646E-01
  0.157592891277E-01
  0.160674371911E-01
  0.161441355280E-01
  0.184192921224E-02
  0.156575123553E-02
  0.914556521396E-03
  0.465911891412E-03
 -0.736504735724E-03
 -0.138928242153E-02
 -0.314783304089E-02
 -0.556518894250E-01
 -0.102668640689E+00
 -0.977323672459E-01
 -0.155090998265E+00
 -0.155280921009E+00
 -0.158730158730E+00
 -0.158730158730E+00
 -0.158730158730E+00
 -0.158730158730E+00
 -0.156599469155E+00
 -0.156494289351E+00
 -0.101907664487E+00
 -0.113524581086E+00
 -0.516284328895E-01
  0.250404999338E-02
  0.306807712901E-02
  0.370818882462E-02
  0.411610375137E-02
  0.445221222375E-02
  0.473294082459E-02
  0.489080018678E-02
 -0.863049030480E-04
 -0.243872438786E-03
 -0.738383036227E-03
 -0.100803926292E-02
 -0.186004561099E-02
 -0.231600818038E-02
 -0.345609414391E-02
 -0.595185000124E-01
 -0.104974359166E+00
 -0.107123786129E+00
 -0.156244771619E+00
 -0.157363309968E+00
 -0.158730158730E+00
 -0.158730158730E+00
 -0.498886094340E-07
  0.761674572444E-07
 -0.817701462097E-09
 -0.869373708825E-10
 -0.119359830661E-09
 -0.137847757900E-10
 -0.789852662992E-10
 -0.667755092843E-11
  0.139248020132E+00
  0.139248020121E+00
  0.139248020132E+00
  0.139248020128E+00
  0.139248020133E+00
  0.139248020132E+00
  0.139248020133E+00
  0.139248020133E+00
  0.482823657598E-12
  0.383643734065E-12
  0.131499749361E-11
 -0.406341627013E-12
  0.926211488458E-11
  0.188480624406E-11
  0.261922758614E-10
  0.189009302037E-11
 -0.787233692330E-01
 -0.787233692065E-01
 -0.787233692187E-01
 -0.787233690582E-01
 -0.787233691850E-01
 -0.787233687412E-01
 -0.787234244996E-01
 -0.787233330917E-01
 -0.211507663553E-06
 -0.498886091873E-07
 -0.156480558846E-07
 -0.817701462097E-09
 -0.237264231190E-08
 -0.119359830661E-09
 -0.156264643200E-08
 -0.789852662992E-10
  0.139248020121E+00
  0.139248019882E+00
  0.139248020128E+00
  0.139248020054E+00
  0.139248020132E+00
  0.139248020107E+00
  0.139248020133E+00
  0.139248020131E+00
  0.330934574277E-11
  0.482823657598E-12
  0.418339437166E-10
  0.131499749361E-11
  0.176256046795E-09
  0.926211488458E-11
  0.563223295163E-09
  0.261922758614E-10
 -0.787233692065E-01
 -0.787233686235E-01
 -0.787233690582E-01
 -0.787233656897E-01
 -0.787233687412E-01
 -0.787233598520E-01
 -0.787233330917E-01
 -0.787232171832E-01
 -0.337361141913E-05
 -0.211507670637E-06
 -0.278297602106E-06
 -0.156480569948E-07
 -0.450787763907E-07
 -0.237264250575E-08
 -0.315628945026E-07
 -0.156264643200E-08
  0.139248019882E+00
  0.139248014896E+00
  0.139248020054E+00
  0.139248018461E+00
  0.139248020107E+00
  0.139248019551E+00
  0.139248020131E+00
  0.139248020075E+00
  0.813300044595E-10
  0.330934574277E-11
  0.931426681815E-09
  0.418339437166E-10
  0.356458471206E-08
  0.176256046795E-09
  0.109119516245E-07
  0.563223295163E-09
 -0.787233686235E-01
 -0.787233574792E-01
 -0.787233656897E-01
 -0.787233049928E-01
 -0.787233598520E-01
 -0.787231969942E-01
 -0.787232171832E-01
 -0.787209377530E-01
 -0.490599845066E-04
 -0.337361339955E-05
 -0.464609062013E-05
 -0.278297923207E-06
 -0.825452052831E-06
 -0.450788660721E-07
 -0.519644887949E-06
 -0.315628991902E-07
  0.139248014896E+00
  0.139247922317E+00
  0.139248018461E+00
  0.139247987402E+00
  0.139248019551E+00
  0.139248007678E+00
  0.139248020075E+00
  0.139248018550E+00
  0.223900097757E-08
  0.813300044595E-10
  0.205969889116E-07
  0.931426681815E-09
  0.744705567759E-07
  0.356458397191E-08
  0.219118588071E-06
  0.109119354469E-07
 -0.787233574792E-01
 -0.787231373281E-01
 -0.787233049928E-01
 -0.787222289107E-01
 -0.787231969946E-01
 -0.787206445287E-01
 -0.787209377543E-01
 -0.786883393544E-01
 -0.602996452080E-03
 -0.490604124546E-04
 -0.613618359425E-04
 -0.464618833239E-05
 -0.126746587237E-04
 -0.825486068143E-06
 -0.989923030500E-05
 -0.519646865009E-06
  0.139247922314E+00
  0.139246075073E+00
  0.139247987401E+00
  0.139247336086E+00
  0.139248007678E+00
  0.139247744784E+00
  0.139248018550E+00
  0.139247976172E+00
  0.614879759454E-07
  0.223900097757E-08
  0.420899866353E-06
  0.205969811224E-07
  0.131529380329E-05
  0.744702852823E-07
  0.345690031517E-05
  0.219114396574E-06
 -0.787231373306E-01
 -0.787197731993E-01
 -0.787222289213E-01
 -0.787070579023E-01
 -0.787206446088E-01
 -0.786823382236E-01
 -0.786883396368E-01
 -0.782859171689E-01
 -0.528160047211E-02
 -0.603067320175E-03
 -0.786186700768E-03
 -0.613781385041E-04
 -0.200757683717E-03
 -0.126786404948E-04
 -0.101132306258E-03
 -0.989963134188E-05
  0.139246074391E+00
  0.139220395330E+00
  0.139247336033E+00
  0.139237144514E+00
  0.139247744781E+00
  0.139242862232E+00
  0.139247976172E+00
  0.139246831250E+00
  0.173011778241E-05
  0.614879455993E-07
  0.926964108710E-05
  0.420895923335E-06
  0.268398191249E-04
  0.131517526076E-05
  0.656662148419E-04
  0.345528329828E-05
 -0.787197741797E-01
 -0.786581397742E-01
 -0.787070617706E-01
 -0.785141917434E-01
 -0.786823562571E-01
 -0.783383940157E-01
 -0.782859580486E-01
 -0.749337311432E-01
 -0.312395152995E-01
 -0.528517293431E-02
 -0.387585060982E-02
 -0.788133469284E-03
 -0.829903907856E-03
 -0.202193944421E-03
 -0.176323242667E-02
 -0.101304576033E-03
  0.139220118741E+00
  0.138723366222E+00
  0.139237118427E+00
  0.139017635482E+00
  0.139242860437E+00
  0.139127303075E+00
  0.139246831219E+00
  0.139212716897E+00
  0.445818710671E-04
  0.173009782451E-05
  0.147434752445E-03
  0.926856867203E-05
  0.313668292410E-03
  0.268222051811E-04
  0.574162137396E-03
  0.655277760770E-04
 -0.786582207859E-01
 -0.781668376577E-01
 -0.785144666947E-01
 -0.764396967231E-01
 -0.783400898933E-01
 -0.746230259348E-01
 -0.749380624765E-01
 -0.535640603438E-01
 -0.133810801825E+00
 -0.317602436363E-01
 -0.395025936492E-01
 -0.416504172256E-02
 -0.319052645330E-01
 -0.860767442402E-03
 -0.866718139261E-02
 -0.176767249212E-02
  0.138714105193E+00
  0.136358381332E+00
  0.139015878365E+00
  0.137438303100E+00
  0.139127079808E+00
  0.137995431101E+00
  0.139212704175E+00
  0.138516821406E+00
  0.155179510517E-02
  0.445573279027E-04
  0.375901739766E-02
  0.146641412123E-03
  0.682911934066E-02
  0.303849119111E-03
  0.100922792460E-01
  0.517317557413E-03
 -0.782014832121E-01
 -0.782539564300E-01
 -0.764730789157E-01
 -0.806037799592E-01
 -0.746375852096E-01
 -0.693546660002E-01
 -0.535768123721E-01
  0.782265574034E-01
 -0.138355668711E+00
 -0.135711060339E+00
 -0.944256130585E-01
 -0.443566554169E-01
 -0.501890259018E-01
 -0.365300691858E-01
 -0.464505199648E-01
 -0.119106763740E-01
  0.131044602714E+00
  0.907982986441E-01
  0.135547202470E+00
  0.915374867763E-01
  0.137565687175E+00
  0.915761063823E-01
  0.138466723918E+00
  0.913920256651E-01
  0.117033665484E-01
  0.155072370161E-02
  0.105652960536E-01
  0.375324897645E-02
  0.838179812216E-02
  0.682118351605E-02
  0.461185083987E-02
  0.101023579865E-01
 -0.782194494276E-01
 -0.557343298465E-01
 -0.807081467910E-01
  0.140219162593E-01
 -0.712558666620E-01
  0.750617990681E-01
  0.683954627751E-01
  0.157902615928E+00
 -0.157076981177E+00
 -0.148453802655E+00
 -0.121478947827E+00
 -0.979138470948E-01
 -0.695346538483E-01
 -0.672070665786E-01
 -0.661927451979E-01
  0.396878863216E-01
  0.405773363364E-01
  0.404227591360E-01
  0.411444255066E-01
  0.410855841910E-01
  0.415904429631E-01
  0.414949186484E-01
  0.116397819817E-01
  0.108828528703E-01
  0.104338338522E-01
  0.915431357897E-02
  0.805599938457E-02
  0.621118293163E-02
  0.375268216524E-02
 -0.587574784281E-01
 -0.801559709079E-01
 -0.475690907234E-01
 -0.122465220852E+00
 -0.107993910998E+00
 -0.157289133210E+00
 -0.154258438618E+00
 -0.158730158730E+00
 -0.158725388576E+00
 -0.142640696674E+00
 -0.133021951176E+00
 -0.856936916451E-01
 -0.871370347899E-01
 -0.599555191639E-01
  0.275553357444E-01
  0.285177700828E-01
  0.286584668216E-01
  0.292601239391E-01
  0.293452600470E-01
  0.297683182646E-01
  0.297656640218E-01
  0.750624208329E-02
  0.703877586964E-02
  0.634138010620E-02
  0.558117159240E-02
  0.416471303516E-02
  0.312497358542E-02
  0.665427918117E-03
 -0.542679389603E-01
 -0.939845858332E-01
 -0.780637001954E-01
 -0.147797589231E+00
 -0.144552964185E+00
 -0.158730158730E+00
 -0.158730158730E+00
 -0.158730158730E+00
 -0.158730158730E+00
 -0.153054528626E+00
 -0.150545472710E+00
 -0.959920038509E-01
 -0.102081092381E+00
 -0.562127066713E-01
  0.139646242717E-01
  0.147060638621E-01
  0.151109134808E-01
  0.155543576264E-01
  0.157592890376E-01
  0.160674371758E-01
  0.161441355305E-01
  0.184192924680E-02
  0.156575124453E-02
  0.914556649101E-03
  0.465911819086E-03
 -0.736505033346E-03
 -0.138928211433E-02
 -0.314783282155E-02
 -0.556518895627E-01
 -0.102668640702E+00
 -0.977323673538E-01
 -0.155090998591E+00
 -0.155280921296E+00
 -0.158730158730E+00
 -0.158730158730E+00
 -0.158730158730E+00
 -0.158730158730E+00
 -0.156599469113E+00
 -0.156494289293E+00
 -0.101907663228E+00
 -0.113524580119E+00
 -0.516284333216E-01
  0.250404822230E-02
  0.306807171913E-02
  0.370818523070E-02
  0.411610451081E-02
  0.445221239396E-02
  0.473294075624E-02
  0.489080006746E-02
 -0.863048973230E-04
 -0.243872382268E-03
 -0.738383309502E-03
 -0.100803894556E-02
 -0.186004816857E-02
 -0.231601140869E-02
 -0.345609348702E-02
 -0.595184998372E-01
 -0.104974359086E+00
 -0.107123786074E+00
 -0.156244771765E+00
 -0.157363310068E+00
 -0.158730158730E+00
 -0.158730158730E+00
SCALARS C_p_2nd float 1
LOOKUP_TABLE default
 -0.413676256296E-07
  0.761674570931E-07
 -0.817701551362E-09
 -0.869373997598E-10
 -0.119359740246E-09
 -0.137847625570E-10
 -0.789847827106E-10
 -0.667754828729E-11
  0.248731242736E+00
  0.248731242708E+00
  0.248731242745E+00
  0.248731242736E+00
  0.248731242738E+00
  0.248731242735E+00
  0.248731242742E+00
  0.248731242742E+00
  0.482684333730E-12
  0.383649154510E-12
  0.131486073873E-11
 -0.406478271281E-12
  0.926225434585E-11
  0.188476904738E-11
  0.261922528707E-10
  0.189015105490E-11
 -0.831918817207E-01
 -0.831918816960E-01
 -0.831918817076E-01
 -0.831918815577E-01
 -0.831918816762E-01
 -0.831918812617E-01
 -0.831919333306E-01
 -0.831918537432E-01
 -0.225602482741E-06
 -0.413676254958E-07
 -0.156480549976E-07
 -0.817701518408E-09
 -0.237264353184E-08
 -0.119359707719E-09
 -0.156264590857E-08
 -0.789847898748E-10
  0.248731242708E+00
  0.248731242106E+00
  0.248731242736E+00
  0.248731242549E+00
  0.248731242735E+00
  0.248731242673E+00
  0.248731242742E+00
  0.248731242737E+00
  0.330922583590E-11
  0.482684333730E-12
  0.418338410041E-10
  0.131486311668E-11
  0.176255475515E-09
  0.926225434138E-11
  0.563223218127E-09
  0.261922456342E-10
 -0.831918816960E-01
 -0.831918811516E-01
 -0.831918815577E-01
 -0.831918784120E-01
 -0.831918812617E-01
 -0.831918729607E-01
 -0.831918537432E-01
 -0.831917301801E-01
 -0.337573977921E-05
 -0.225602489668E-06
 -0.278297601719E-06
 -0.156480560135E-07
 -0.450787768205E-07
 -0.237264381647E-08
 -0.315628947354E-07
 -0.156264592909E-08
  0.248731242106E+00
  0.248731229546E+00
  0.248731242549E+00
  0.248731238537E+00
  0.248731242673E+00
  0.248731241272E+00
  0.248731242737E+00
  0.248731242598E+00
  0.813300200312E-10
  0.330922583583E-11
  0.931426652074E-09
  0.418338433460E-10
  0.356458478627E-08
  0.176255473632E-09
  0.109119516720E-07
  0.563223171917E-09
 -0.831918811516E-01
 -0.831918707446E-01
 -0.831918784120E-01
 -0.831918217307E-01
 -0.831918729607E-01
 -0.831917208771E-01
 -0.831917301801E-01
 -0.831896096453E-01
 -0.490580426100E-04
 -0.337574176078E-05
 -0.464609061608E-05
 -0.278297922847E-06
 -0.825452053514E-06
 -0.450788663745E-07
 -0.519644887520E-06
 -0.315628994608E-07
  0.248731229546E+00
  0.248730996351E+00
  0.248731238537E+00
  0.248731160302E+00
  0.248731241272E+00
  0.248731211366E+00
  0.248731242598E+00
  0.248731238755E+00
  0.223900101026E-08
  0.813300176026E-10
  0.205969886946E-07
  0.931426633999E-09
  0.744705567543E-07
  0.356458394629E-08
  0.219118587338E-06
  0.109119354946E-07
 -0.831918707446E-01
 -0.831916651581E-01
 -0.831918217308E-01
 -0.831908168371E-01
 -0.831917208777E-01
 -0.831893372600E-01
 -0.831896096474E-01
 -0.831591675768E-01
 -0.603007651734E-03
 -0.490584706579E-04
 -0.613618358323E-04
 -0.464618833049E-05
 -0.126746587197E-04
 -0.825486068911E-06
 -0.989923029611E-05
 -0.519646864455E-06
  0.248730996349E+00
  0.248726343400E+00
  0.248731160301E+00
  0.248729519719E+00
  0.248731211366E+00
  0.248730549168E+00
  0.248731238755E+00
  0.248731132010E+00
  0.614879758526E-07
  0.223900097448E-08