# vtk DataFile Version 3.0
MachLine results file. Generated by MachLine, USU AeroLab (c) 2022.
ASCII
DATASET POLYDATA
POINTS                3847 float
  0.100000000000E+01  0.000000000000E+00  0.000000000000E+00
  0.986936852140E+00  0.512820512820E-01 -0.114287734800E-02
  0.100000000000E+01  0.512820512820E-01  0.000000000000E+00
  0.986936852140E+00  0.000000000000E+00 -0.114287734800E-02
  0.969870673510E+00  0.512820512820E-01 -0.263597450740E-02
  0.969870673510E+00  0.000000000000E+00 -0.263597450740E-02
  0.947785033200E+00  0.512820512820E-01 -0.456821766120E-02
  0.947785033200E+00  0.000000000000E+00 -0.456821766120E-02
  0.919551441300E+00  0.512820512820E-01 -0.703833688330E-02
  0.919551441300E+00  0.000000000000E+00 -0.703833688330E-02
  0.884018106510E+00  0.512820512820E-01 -0.101471008550E-01
  0.884018106510E+00  0.000000000000E+00 -0.101471008550E-01
  0.840166851150E+00  0.512820512820E-01 -0.139835885800E-01
  0.840166851150E+00  0.000000000000E+00 -0.139835885800E-01
  0.787342649140E+00  0.512820512820E-01 -0.186051074160E-01
  0.787342649140E+00  0.000000000000E+00 -0.186051074160E-01
  0.725530751590E+00  0.512820512820E-01 -0.240129477220E-01
  0.725530751590E+00  0.000000000000E+00 -0.240129477220E-01
  0.655612654280E+00  0.512820512820E-01 -0.301299886120E-01
  0.655612654280E+00  0.000000000000E+00 -0.301299886120E-01
  0.579493951800E+00  0.512820512820E-01 -0.367895121620E-01
  0.579493951800E+00  0.000000000000E+00 -0.367895121620E-01
  0.500000000000E+00  0.512820512820E-01 -0.437443317630E-01
  0.500000000000E+00  0.000000000000E+00 -0.437443317630E-01
  0.420506048200E+00  0.000000000000E+00 -0.367895121620E-01
  0.420506048200E+00  0.512820512820E-01 -0.367895121620E-01
  0.344387345720E+00  0.000000000000E+00 -0.301299886120E-01
  0.344387345720E+00  0.512820512820E-01 -0.301299886120E-01
  0.274469248410E+00  0.000000000000E+00 -0.240129477220E-01
  0.274469248410E+00  0.512820512820E-01 -0.240129477220E-01
  0.212657350860E+00  0.000000000000E+00 -0.186051074160E-01
  0.212657350860E+00  0.512820512820E-01 -0.186051074160E-01
  0.159833148850E+00  0.000000000000E+00 -0.139835885800E-01
  0.159833148850E+00  0.512820512820E-01 -0.139835885800E-01
  0.115981893490E+00  0.000000000000E+00 -0.101471008550E-01
  0.115981893490E+00  0.512820512820E-01 -0.101471008550E-01
  0.804485587010E-01  0.000000000000E+00 -0.703833688330E-02
  0.804485587010E-01  0.512820512820E-01 -0.703833688330E-02
  0.522149667970E-01  0.000000000000E+00 -0.456821766120E-02
  0.522149667970E-01  0.512820512820E-01 -0.456821766120E-02
  0.301293264890E-01  0.000000000000E+00 -0.263597450740E-02
  0.301293264890E-01  0.512820512820E-01 -0.263597450740E-02
  0.130631478640E-01  0.000000000000E+00 -0.114287734800E-02
  0.130631478640E-01  0.512820512820E-01 -0.114287734800E-02
  0.000000000000E+00  0.000000000000E+00  0.000000000000E+00
  0.000000000000E+00  0.512820512820E-01  0.000000000000E+00
  0.130631478640E-01  0.512820512820E-01  0.114287734800E-02
  0.130631478640E-01  0.000000000000E+00  0.114287734800E-02
  0.301293264890E-01  0.512820512820E-01  0.263597450740E-02
  0.301293264890E-01  0.000000000000E+00  0.263597450740E-02
  0.522149667970E-01  0.512820512820E-01  0.456821766120E-02
  0.522149667970E-01  0.000000000000E+00  0.456821766120E-02
  0.804485587010E-01  0.512820512820E-01  0.703833688330E-02
  0.804485587010E-01  0.000000000000E+00  0.703833688330E-02
  0.115981893490E+00  0.512820512820E-01  0.101471008550E-01
  0.115981893490E+00  0.000000000000E+00  0.101471008550E-01
  0.159833148850E+00  0.512820512820E-01  0.139835885800E-01
  0.159833148850E+00  0.000000000000E+00  0.139835885800E-01
  0.212657350860E+00  0.512820512820E-01  0.186051074160E-01
  0.212657350860E+00  0.000000000000E+00  0.186051074160E-01
  0.274469248410E+00  0.512820512820E-01  0.240129477220E-01
  0.274469248410E+00  0.000000000000E+00  0.240129477220E-01
  0.344387345720E+00  0.512820512820E-01  0.301299886120E-01
  0.344387345720E+00  0.000000000000E+00  0.301299886120E-01
  0.420506048200E+00  0.512820512820E-01  0.367895121620E-01
  0.420506048200E+00  0.000000000000E+00  0.367895121620E-01
  0.500000000000E+00  0.512820512820E-01  0.437443317630E-01
  0.500000000000E+00  0.000000000000E+00  0.437443317630E-01
  0.579493951800E+00  0.000000000000E+00  0.367895121620E-01
  0.579493951800E+00  0.512820512820E-01  0.367895121620E-01
  0.655612654280E+00  0.000000000000E+00  0.301299886120E-01
  0.655612654280E+00  0.512820512820E-01  0.301299886120E-01
  0.725530751590E+00  0.000000000000E+00  0.240129477220E-01
  0.725530751590E+00  0.512820512820E-01  0.240129477220E-01
  0.787342649140E+00  0.000000000000E+00  0.186051074160E-01
  0.787342649140E+00  0.512820512820E-01  0.186051074160E-01
  0.840166851150E+00  0.000000000000E+00  0.139835885800E-01
  0.840166851150E+00  0.512820512820E-01  0.139835885800E-01
  0.884018106510E+00  0.000000000000E+00  0.101471008550E-01
  0.884018106510E+00  0.512820512820E-01  0.101471008550E-01
  0.919551441300E+00  0.000000000000E+00  0.703833688330E-02
  0.919551441300E+00  0.512820512820E-01  0.703833688330E-02
  0.947785033200E+00  0.000000000000E+00  0.456821766120E-02
  0.947785033200E+00  0.512820512820E-01  0.456821766120E-02
  0.969870673510E+00  0.000000000000E+00  0.263597450740E-02
  0.969870673510E+00  0.512820512820E-01  0.263597450740E-02
  0.986936852140E+00  0.000000000000E+00  0.114287734800E-02
  0.986936852140E+00  0.512820512820E-01  0.114287734800E-02
  0.986936852140E+00  0.102564102560E+00 -0.114287734800E-02
  0.100000000000E+01  0.102564102560E+00  0.000000000000E+00
  0.969870673510E+00  0.102564102560E+00 -0.263597450740E-02
  0.947785033200E+00  0.102564102560E+00 -0.456821766120E-02
  0.919551441300E+00  0.102564102560E+00 -0.703833688330E-02
  0.884018106510E+00  0.102564102560E+00 -0.101471008550E-01
  0.840166851150E+00  0.102564102560E+00 -0.139835885800E-01
  0.787342649140E+00  0.102564102560E+00 -0.186051074160E-01
  0.725530751590E+00  0.102564102560E+00 -0.240129477220E-01
  0.655612654280E+00  0.102564102560E+00 -0.301299886120E-01
  0.579493951800E+00  0.102564102560E+00 -0.367895121620E-01
  0.500000000000E+00  0.102564102560E+00 -0.437443317630E-01
  0.420506048200E+00  0.102564102560E+00 -0.367895121620E-01
  0.344387345720E+00  0.102564102560E+00 -0.301299886120E-01
  0.274469248410E+00  0.102564102560E+00 -0.240129477220E-01
  0.212657350860E+00  0.102564102560E+00 -0.186051074160E-01
  0.159833148850E+00  0.102564102560E+00 -0.139835885800E-01
  0.115981893490E+00  0.102564102560E+00 -0.101471008550E-01
  0.804485587010E-01  0.102564102560E+00 -0.703833688330E-02
  0.522149667970E-01  0.102564102560E+00 -0.456821766120E-02
  0.301293264890E-01  0.102564102560E+00 -0.263597450740E-02
  0.130631478640E-01  0.102564102560E+00 -0.114287734800E-02
  0.000000000000E+00  0.102564102560E+00  0.000000000000E+00
  0.130631478640E-01  0.102564102560E+00  0.114287734800E-02
  0.301293264890E-01  0.102564102560E+00  0.263597450740E-02
  0.522149667970E-01  0.102564102560E+00  0.456821766120E-02
  0.804485587010E-01  0.102564102560E+00  0.703833688330E-02
  0.115981893490E+00  0.102564102560E+00  0.101471008550E-01
  0.159833148850E+00  0.102564102560E+00  0.139835885800E-01
  0.212657350860E+00  0.102564102560E+00  0.186051074160E-01
  0.274469248410E+00  0.102564102560E+00  0.240129477220E-01
  0.344387345720E+00  0.102564102560E+00  0.301299886120E-01
  0.420506048200E+00  0.102564102560E+00  0.367895121620E-01
  0.500000000000E+00  0.102564102560E+00  0.437443317630E-01
  0.579493951800E+00  0.102564102560E+00  0.367895121620E-01
  0.655612654280E+00  0.102564102560E+00  0.301299886120E-01
  0.725530751590E+00  0.102564102560E+00  0.240129477220E-01
  0.787342649140E+00  0.102564102560E+00  0.186051074160E-01
  0.840166851150E+00  0.102564102560E+00  0.139835885800E-01
  0.884018106510E+00  0.102564102560E+00  0.101471008550E-01
  0.919551441300E+00  0.102564102560E+00  0.703833688330E-02
  0.947785033200E+00  0.102564102560E+00  0.456821766120E-02
  0.969870673510E+00  0.102564102560E+00  0.263597450740E-02
  0.986936852140E+00  0.102564102560E+00  0.114287734800E-02
  0.986936852140E+00  0.153846153850E+00 -0.114287734800E-02
  0.100000000000E+01  0.153846153850E+00  0.000000000000E+00
  0.969870673510E+00  0.153846153850E+00 -0.263597450740E-02
  0.947785033200E+00  0.153846153850E+00 -0.456821766120E-02
  0.919551441300E+00  0.153846153850E+00 -0.703833688330E-02
  0.884018106510E+00  0.153846153850E+00 -0.101471008550E-01
  0.840166851150E+00  0.153846153850E+00 -0.139835885800E-01
  0.787342649140E+00  0.153846153850E+00 -0.186051074160E-01
  0.725530751590E+00  0.153846153850E+00 -0.240129477220E-01
  0.655612654280E+00  0.153846153850E+00 -0.301299886120E-01
  0.579493951800E+00  0.153846153850E+00 -0.367895121620E-01
  0.500000000000E+00  0.153846153850E+00 -0.437443317630E-01
  0.420506048200E+00  0.153846153850E+00 -0.367895121620E-01
  0.344387345720E+00  0.153846153850E+00 -0.301299886120E-01
  0.274469248410E+00  0.153846153850E+00 -0.240129477220E-01
  0.212657350860E+00  0.153846153850E+00 -0.186051074160E-01
  0.159833148850E+00  0.153846153850E+00 -0.139835885800E-01
  0.115981893490E+00  0.153846153850E+00 -0.101471008550E-01
  0.804485587010E-01  0.153846153850E+00 -0.703833688330E-02
  0.522149667970E-01  0.153846153850E+00 -0.456821766120E-02
  0.301293264890E-01  0.153846153850E+00 -0.263597450740E-02
  0.130631478640E-01  0.153846153850E+00 -0.114287734800E-02
  0.000000000000E+00  0.153846153850E+00  0.000000000000E+00
  0.130631478640E-01  0.153846153850E+00  0.114287734800E-02
  0.301293264890E-01  0.153846153850E+00  0.263597450740E-02
  0.522149667970E-01  0.153846153850E+00  0.456821766120E-02
  0.804485587010E-01  0.153846153850E+00  0.703833688330E-02
  0.115981893490E+00  0.153846153850E+00  0.101471008550E-01
  0.159833148850E+00  0.153846153850E+00  0.139835885800E-01
[...]
CELL_DATA                7536
SCALARS C_p_ise float 1
LOOKUP_TABLE default
 -0.407198664179E-01
 -0.407200050926E-01
 -0.407197341903E-01
 -0.407197341903E-01
 -0.407197342015E-01
 -0.407197342015E-01
 -0.407197342062E-01
 -0.407197342062E-01
 -0.407197342063E-01
 -0.407197342063E-01
 -0.407197341982E-01
 -0.407197341982E-01
 -0.407197342052E-01
 -0.407197342052E-01
 -0.407197341973E-01
 -0.407197341973E-01
 -0.407197342028E-01
 -0.407197342028E-01
 -0.407197342066E-01
 -0.407197342066E-01
 -0.407197342001E-01
 -0.407197342001E-01
  0.962869680717E-01
  0.962869680717E-01
  0.962869680864E-01
  0.962869680864E-01
  0.962869680778E-01
  0.962869680778E-01
  0.962869680656E-01
  0.962869680656E-01
  0.962869680831E-01
  0.962869680831E-01
  0.962869680675E-01
  0.962869680675E-01
  0.962869680883E-01
  0.962869680883E-01
  0.962869680723E-01
  0.962869680723E-01
  0.962869680833E-01
  0.962869680833E-01
  0.962869680769E-01
  0.962869680769E-01
  0.962869680716E-01
  0.962869680716E-01
  0.597364494286E-01
  0.597364494286E-01
  0.597364494336E-01
  0.597364494336E-01
  0.597364494396E-01
  0.597364494396E-01
  0.597364494292E-01
  0.597364494292E-01
  0.597364494443E-01
  0.597364494443E-01
  0.597364494247E-01
  0.597364494247E-01
  0.597364494394E-01
  0.597364494394E-01
  0.597364494229E-01
  0.597364494229E-01
  0.597364494344E-01
  0.597364494344E-01
  0.597364494425E-01
  0.597364494425E-01
  0.597364494286E-01
  0.597364494286E-01
 -0.558023153930E-01
 -0.558023153930E-01
 -0.558023153984E-01
 -0.558023153984E-01
 -0.558023153953E-01
 -0.558023153953E-01
 -0.558023153907E-01
 -0.558023153907E-01
 -0.558023153972E-01
 -0.558023153972E-01
 -0.558023153915E-01
 -0.558023153915E-01
 -0.558023153982E-01
 -0.558023153982E-01
 -0.558023153981E-01
 -0.558023153981E-01
 -0.558023153942E-01
 -0.558023153942E-01
 -0.558023153850E-01
 -0.558023153850E-01
 -0.558020628832E-01
 -0.558021921588E-01
 -0.407198108814E-01
 -0.407198664179E-01
 -0.407197341903E-01
 -0.407197341903E-01
 -0.407197342015E-01
 -0.407197342015E-01
 -0.407197342062E-01
 -0.407197342062E-01
 -0.407197342063E-01
 -0.407197342063E-01
 -0.407197341982E-01
 -0.407197341982E-01
 -0.407197342052E-01
 -0.407197342052E-01
 -0.407197341973E-01
 -0.407197341973E-01
 -0.407197342028E-01
 -0.407197342028E-01
 -0.407197342066E-01
 -0.407197342066E-01
 -0.407197342001E-01
 -0.407197342001E-01
  0.962869680717E-01
  0.962869680717E-01
  0.962869680864E-01
  0.962869680864E-01
  0.962869680778E-01
  0.962869680778E-01
  0.962869680656E-01
  0.962869680656E-01
  0.962869680831E-01
  0.962869680831E-01
  0.962869680675E-01
  0.962869680675E-01
  0.962869680883E-01
  0.962869680883E-01
  0.962869680723E-01
  0.962869680723E-01
  0.962869680833E-01
  0.962869680833E-01
  0.962869680769E-01
  0.962869680769E-01
  0.962869680716E-01
  0.962869680716E-01
  0.597364494286E-01
  0.597364494286E-01
  0.597364494336E-01
  0.597364494336E-01
  0.597364494396E-01
  0.597364494396E-01
  0.597364494292E-01
  0.597364494292E-01
  0.597364494443E-01
  0.597364494443E-01
  0.597364494247E-01
  0.597364494247E-01
  0.597364494394E-01
  0.597364494394E-01
  0.597364494229E-01
  0.597364494229E-01
  0.597364494344E-01
  0.597364494344E-01
  0.597364494425E-01
  0.597364494425E-01
  0.597364494286E-01
  0.597364494286E-01
 -0.558023153930E-01
 -0.558023153930E-01
 -0.558023153984E-01
 -0.558023153984E-01
 -0.558023153953E-01
 -0.558023153952E-01
 -0.558023153907E-01
 -0.558023153907E-01
 -0.558023153972E-01
 -0.558023153972E-01
 -0.558023153915E-01
 -0.558023153915E-01
 -0.558023153982E-01
 -0.558023153982E-01
 -0.558023153981E-01
 -0.558023153981E-01
 -0.558023153942E-01
 -0.558023153942E-01
 -0.558023153850E-01
 -0.558023153850E-01
 -0.558021921588E-01
 -0.558022439312E-01
 -0.407195451620E-01
 -0.407198108814E-01
 -0.407197341903E-01
 -0.407197341903E-01
 -0.407197342015E-01
 -0.407197342015E-01
 -0.407197342062E-01
 -0.407197342062E-01
 -0.407197342063E-01
 -0.407197342063E-01
 -0.407197341982E-01
 -0.407197341982E-01
 -0.407197342052E-01
 -0.407197342052E-01
 -0.407197341973E-01
 -0.407197341973E-01
 -0.407197342028E-01
 -0.407197342028E-01
 -0.407197342066E-01
 -0.407197342066E-01
 -0.407197342001E-01
 -0.407197342001E-01
  0.962869680717E-01
  0.962869680717E-01
  0.962869680864E-01
  0.962869680864E-01
  0.962869680778E-01
  0.962869680778E-01
  0.962869680656E-01
  0.962869680656E-01
  0.962869680831E-01
  0.962869680831E-01
  0.962869680675E-01
  0.962869680675E-01
  0.962869680883E-01
  0.962869680883E-01
  0.962869680723E-01
  0.962869680723E-01
  0.962869680833E-01
  0.962869680833E-01
  0.962869680769E-01
  0.962869680769E-01
  0.962869680716E-01
  0.962869680716E-01
  0.597364494286E-01
  0.597364494286E-01
  0.597364494336E-01
  0.597364494336E-01
  0.597364494396E-01
  0.597364494396E-01
  0.597364494292E-01
  0.597364494292E-01
  0.597364494443E-01
  0.597364494443E-01
  0.597364494247E-01
  0.597364494247E-01
  0.597364494394E-01
  0.597364494394E-01
  0.597364494229E-01
  0.597364494229E-01
  0.597364494344E-01
  0.597364494344E-01
  0.597364494425E-01
  0.597364494425E-01
  0.597364494286E-01
  0.597364494286E-01
 -0.558023153930E-01
 -0.558023153930E-01
 -0.558023153984E-01
 -0.558023153984E-01
 -0.558023153952E-01
 -0.558023153953E-01
 -0.558023153907E-01
 -0.558023153907E-01
 -0.558023153972E-01
 -0.558023153972E-01
 -0.558023153915E-01
 -0.558023153915E-01
 -0.558023153982E-01
 -0.558023153982E-01
 -0.558023153981E-01
 -0.558023153981E-01
 -0.558023153942E-01
 -0.558023153942E-01
 -0.558023153850E-01
 -0.558023153850E-01
 -0.558022439312E-01
 -0.558024916401E-01
 -0.407196196619E-01
 -0.407195451620E-01
 -0.407197341903E-01
 -0.407197341903E-01
 -0.407197342015E-01
 -0.407197342015E-01
 -0.407197342062E-01
 -0.407197342062E-01
 -0.407197342063E-01
 -0.407197342063E-01
 -0.407197341982E-01
 -0.407197341982E-01
 -0.407197342052E-01
 -0.407197342052E-01
 -0.407197341973E-01
 -0.407197341973E-01
 -0.407197342028E-01
 -0.407197342028E-01
 -0.407197342066E-01
 -0.407197342066E-01
 -0.407197342001E-01
 -0.407197342001E-01
  0.962869680717E-01
  0.962869680717E-01
  0.962869680864E-01
  0.962869680864E-01
  0.962869680778E-01
  0.962869680778E-01
  0.962869680656E-01
  0.962869680656E-01
  0.962869680831E-01
  0.962869680831E-01
  0.962869680675E-01
  0.962869680675E-01
  0.962869680883E-01
  0.962869680883E-01
  0.962869680723E-01
  0.962869680723E-01
  0.962869680833E-01
  0.962869680833E-01
  0.962869680769E-01
  0.962869680769E-01
  0.962869680716E-01
  0.962869680716E-01
  0.597364494286E-01
  0.597364494286E-01
  0.597364494336E-01
  0.597364494336E-01
  0.597364494396E-01
  0.597364494396E-01
  0.597364494292E-01
  0.597364494292E-01
  0.597364494443E-01
  0.597364494443E-01
  0.597364494247E-01
  0.597364494247E-01
  0.597364494394E-01
  0.597364494394E-01
  0.597364494229E-01
  0.597364494229E-01
  0.597364494344E-01
  0.597364494344E-01
  0.597364494425E-01
  0.597364494425E-01
  0.597364494286E-01
  0.597364494286E-01
 -0.558023153930E-01
 -0.558023153930E-01
 -0.558023153984E-01
 -0.558023153984E-01
 -0.558023153953E-01
 -0.558023153953E-01
 -0.558023153907E-01
 -0.558023153907E-01
 -0.558023153972E-01
 -0.558023153972E-01
 -0.558023153915E-01
 -0.558023153915E-01
 -0.558023153982E-01
 -0.558023153982E-01
 -0.558023153981E-01
 -0.558023153980E-01
 -0.558023153942E-01
 -0.558023153942E-01
 -0.558023153850E-01
 -0.558023153850E-01
 -0.558024916401E-01
 -0.558024221899E-01
 -0.407195362310E-01
 -0.407196196619E-01
 -0.407197341903E-01
 -0.407197341903E-01
 -0.407197342015E-01
 -0.407197342015E-01
 -0.407197342062E-01
 -0.407197342062E-01
 -0.407197342063E-01
 -0.407197342063E-01
 -0.407197341982E-01
 -0.407197341982E-01
 -0.407197342052E-01
 -0.407197342052E-01
 -0.407197341973E-01
 -0.407197341973E-01
 -0.407197342028E-01
 -0.407197342028E-01
 -0.407197342066E-01
 -0.407197342066E-01
 -0.407197342001E-01
 -0.407197342001E-01
  0.962869680717E-01
  0.962869680717E-01
  0.962869680864E-01
  0.962869680864E-01
  0.962869680778E-01
  0.962869680778E-01
  0.962869680656E-01
  0.962869680656E-01
  0.962869680831E-01
  0.962869680831E-01
  0.962869680675E-01
  0.962869680675E-01
  0.962869680883E-01
  0.962869680883E-01
  0.962869680723E-01
  0.962869680723E-01
  0.962869680833E-01
  0.962869680833E-01
  0.962869680769E-01
  0.962869680769E-01
  0.962869680716E-01
  0.962869680716E-01
  0.597364494286E-01
  0.597364494286E-01
  0.597364494336E-01
  0.597364494336E-01
  0.597364494396E-01
  0.597364494396E-01
  0.597364494292E-01
  0.597364494292E-01
  0.597364494443E-01
  0.597364494443E-01
  0.597364494247E-01
  0.597364494247E-01
  0.597364494394E-01
  0.597364494394E-01
  0.597364494229E-01
  0.597364494229E-01
  0.597364494344E-01
  0.597364494344E-01
  0.597364494425E-01
  0.597364494425E-01
  0.597364494286E-01
  0.597364494286E-01
 -0.558023153930E-01
 -0.558023153930E-01
 -0.558023153984E-01
 -0.558023153984E-01
 -0.558023153953E-01
 -0.558023153953E-01
 -0.558023153907E-01
 -0.558023153907E-01
 -0.558023153972E-01
 -0.558023153972E-01
 -0.558023153915E-01
 -0.558023153915E-01
 -0.558023153982E-01
 -0.558023153982E-01
 -0.558023153980E-01
 -0.558023153981E-01
 -0.558023153942E-01
 -0.558023153942E-01
 -0.558023153850E-01
 -0.558023153850E-01
 -0.558024221899E-01
 -0.558024999658E-01
 -0.407197749075E-01
 -0.407195362310E-01
 -0.407197341903E-01
 -0.407197341903E-01
 -0.407197342015E-01
 -0.407197342015E-01
 -0.407197342062E-01
 -0.407197342062E-01
 -0.407197342063E-01
 -0.407197342063E-01
 -0.407197341982E-01
 -0.407197341982E-01
 -0.407197342052E-01
 -0.407197342052E-01
 -0.407197341973E-01
 -0.407197341973E-01
 -0.407197342028E-01
 -0.407197342028E-01
 -0.407197342066E-01
 -0.407197342066E-01
 -0.407197342001E-01
 -0.407197342001E-01
  0.962869680717E-01
  0.962869680717E-01
  0.962869680864E-01
  0.962869680864E-01
  0.962869680778E-01
  0.962869680778E-01
  0.962869680656E-01
  0.962869680656E-01
  0.962869680831E-01
  0.962869680831E-01
  0.962869680675E-01
  0.962869680675E-01
  0.962869680883E-01
  0.962869680883E-01
  0.962869680723E-01
  0.962869680723E-01
  0.962869680833E-01
  0.962869680833E-01
  0.962869680769E-01
  0.962869680769E-01
  0.962869680716E-01
  0.962869680716E-01
  0.597364494286E-01
  0.597364494286E-01
  0.597364494336E-01
  0.597364494336E-01
  0.597364494396E-01
  0.597364494396E-01
  0.597364494292E-01
  0.597364494292E-01
  0.597364494443E-01
  0.597364494443E-01
  0.597364494247E-01
  0.597364494247E-01
  0.597364494394E-01
  0.597364494394E-01
  0.597364494229E-01
  0.597364494229E-01
  0.597364494344E-01
  0.597364494344E-01
  0.597364494425E-01
  0.597364494425E-01
  0.597364494286E-01
  0.597364494286E-01
 -0.558023153930E-01
 -0.558023153930E-01
 -0.558023153984E-01
 -0.558023153984E-01
 -0.558023153953E-01
 -0.558023153953E-01
 -0.558023153907E-01
 -0.558023153907E-01
 -0.558023153972E-01
 -0.558023153972E-01
 -0.558023153915E-01
 -0.558023153915E-01
 -0.558023153982E-01
 -0.558023153982E-01
 -0.558023153981E-01
 -0.558023153981E-01
 -0.558023153942E-01
 -0.558023153942E-01
 -0.558023153850E-01
 -0.558023153850E-01
 -0.558024999658E-01
 -0.558022774668E-01
 -0.407197048987E-01
 -0.407197749075E-01
 -0.407197341903E-01
 -0.407197341903E-01
 -0.407197342015E-01
 -0.407197342015E-01
 -0.407197342062E-01
 -0.407197342062E-01
 -0.407197342063E-01
 -0.407197342063E-01
 -0.407197341982E-01
 -0.407197341982E-01
 -0.407197342052E-01
 -0.407197342052E-01
 -0.407197341973E-01
 -0.407197341973E-01
 -0.407197342028E-01
 -0.407197342028E-01
 -0.407197342066E-01
 -0.407197342066E-01
 -0.407197342001E-01
 -0.407197342001E-01
  0.962869680717E-01
  0.962869680717E-01
  0.962869680864E-01
  0.962869680864E-01
  0.962869680778E-01
  0.962869680778E-01
  0.962869680656E-01
  0.962869680656E-01
  0.962869680831E-01
  0.962869680831E-01
  0.962869680675E-01
  0.962869680675E-01
  0.962869680883E-01
  0.962869680883E-01
  0.962869680723E-01
  0.962869680723E-01
  0.962869680833E-01
  0.962869680833E-01
  0.962869680769E-01
  0.962869680769E-01
  0.962869680716E-01
  0.962869680716E-01
  0.597364494286E-01
  0.597364494286E-01
  0.597364494336E-01
  0.597364494336E-01
  0.597364494396E-01
  0.597364494396E-01
  0.597364494292E-01
  0.597364494292E-01
  0.597364494443E-01
  0.597364494443E-01
  0.597364494247E-01
  0.597364494247E-01
  0.597364494394E-01
  0.597364494394E-01
  0.597364494229E-01
  0.597364494229E-01
  0.597364494344E-01
  0.597364494344E-01
  0.597364494425E-01
  0.597364494425E-01
  0.597364494286E-01
  0.597364494286E-01
 -0.558023153930E-01
 -0.558023153930E-01
 -0.558023153984E-01
 -0.558023153984E-01
 -0.558023153953E-01
 -0.558023153953E-01
 -0.558023153907E-01
 -0.558023153907E-01
 -0.558023153972E-01
 -0.558023153972E-01
 -0.558023153915E-01
 -0.558023153915E-01
 -0.558023153982E-01
 -0.558023153982E-01
 -0.558023153981E-01
 -0.558023153981E-01
 -0.558023153942E-01
 -0.558023153942E-01
 -0.558023153850E-01
 -0.558023153850E-01
 -0.558022774668E-01
 -0.558023427304E-01
 -0.407196943636E-01
 -0.407197048987E-01
 -0.407197341903E-01
 -0.407197341903E-01
 -0.407197342015E-01
 -0.407197342015E-01
 -0.407197342062E-01
 -0.407197342062E-01
 -0.407197342063E-01
 -0.407197342063E-01
 -0.407197341982E-01
 -0.407197341982E-01
 -0.407197342052E-01
 -0.407197342052E-01
 -0.407197341973E-01
 -0.407197341973E-01
 -0.407197342028E-01
 -0.407197342028E-01
 -0.407197342066E-01
 -0.407197342066E-01
 -0.407197342001E-01
 -0.407197342001E-01
  0.962869680717E-01
  0.962869680717E-01
  0.962869680864E-01
  0.962869680864E-01
  0.962869680778E-01
  0.962869680778E-01
  0.962869680656E-01
  0.962869680656E-01
  0.962869680831E-01
  0.962869680831E-01
  0.962869680675E-01
  0.962869680675E-01
  0.962869680883E-01
  0.962869680883E-01
  0.962869680723E-01
  0.962869680723E-01
  0.962869680833E-01
  0.962869680833E-01
  0.962869680769E-01
  0.962869680769E-01
  0.962869680716E-01
  0.962869680716E-01
  0.597364494286E-01
  0.597364494286E-01
  0.597364494336E-01
  0.597364494336E-01
  0.597364494396E-01
  0.597364494396E-01
  0.597364494292E-01
  0.597364494292E-01
  0.597364494443E-01
  0.597364494443E-01
  0.597364494247E-01
  0.597364494247E-01
  0.597364494394E-01
  0.597364494394E-01
  0.597364494229E-01
  0.597364494229E-01
  0.597364494344E-01
  0.597364494344E-01
  0.597364494425E-01
  0.597364494425E-01
  0.597364494286E-01
  0.597364494286E-01
 -0.558023153930E-01
 -0.558023153930E-01
 -0.558023153984E-01
 -0.558023153984E-01
 -0.558023153953E-01
 -0.558023153953E-01
 -0.558023153907E-01
 -0.558023153907E-01
 -0.558023153972E-01
 -0.558023153972E-01
 -0.558023153915E-01
 -0.558023153915E-01
 -0.558023153982E-01
 -0.558023153982E-01
 -0.558023153981E-01
 -0.558023153981E-01
 -0.558023153942E-01
 -0.558023153942E-01
 -0.558023153850E-01
 -0.558023153850E-01
 -0.558023427304E-01
 -0.558023525515E-01
 -0.407197503037E-01
 -0.407196943636E-01
 -0.407197341903E-01
 -0.407197341903E-01
 -0.407197342015E-01
 -0.407197342015E-01
 -0.407197342062E-01
 -0.407197342062E-01
 -0.407197342063E-01
 -0.407197342063E-01
 -0.407197341982E-01
 -0.407197341982E-01
 -0.407197342052E-01
 -0.407197342052E-01
 -0.407197341973E-01
 -0.407197341973E-01
 -0.407197342028E-01
 -0.407197342028E-01
 -0.407197342066E-01
 -0.407197342066E-01
 -0.407197342001E-01
 -0.407197342001E-01
  0.962869680717E-01
  0.962869680717E-01
  0.962869680864E-01
  0.962869680864E-01
  0.962869680778E-01
  0.962869680778E-01
  0.962869680656E-01
  0.962869680656E-01
  0.962869680831E-01
  0.962869680831E-01
  0.962869680675E-01
  0.962869680675E-01
  0.962869680883E-01
  0.962869680883E-01
  0.962869680723E-01
  0.962869680723E-01
  0.962869680833E-01
  0.962869680833E-01
  0.962869680769E-01
  0.962869680769E-01
  0.962869680716E-01
  0.962869680716E-01
  0.597364494286E-01
  0.597364494286E-01
  0.597364494336E-01
  0.597364494336E-01
  0.597364494396E-01
  0.597364494396E-01
  0.597364494292E-01
  0.597364494292E-01
  0.597364494443E-01
  0.597364494443E-01
  0.597364494247E-01
  0.597364494247E-01
  0.597364494394E-01
  0.597364494394E-01
  0.597364494229E-01
  0.597364494229E-01
  0.597364494344E-01
  0.597364494344E-01
  0.597364494425E-01
  0.597364494425E-01
  0.597364494286E-01
  0.597364494286E-01
 -0.558023153930E-01
 -0.558023153930E-01
 -0.558023153984E-01
 -0.558023153984E-01
 -0.558023153953E-01
 -0.558023153952E-01
 -0.558023153907E-01
 -0.558023153907E-01
 -0.558023153972E-01
 -0.558023153972E-01
 -0.558023153915E-01
 -0.558023153915E-01
 -0.558023153982E-01
 -0.558023153982E-01
 -0.558023153981E-01
 -0.558023153981E-01
 -0.558023153942E-01
 -0.558023153942E-01
 -0.558023153850E-01
 -0.558023153850E-01
 -0.558023525515E-01
 -0.558023004030E-01
 -0.407197618747E-01
 -0.407197503037E-01
 -0.407197341903E-01
 -0.407197341903E-01
 -0.407197342015E-01
 -0.407197342015E-01
 -0.407197342062E-01
 -0.407197342062E-01
 -0.407197342063E-01
 -0.407197342063E-01
 -0.407197341982E-01
 -0.407197341982E-01
 -0.407197342052E-01
 -0.407197342052E-01
 -0.407197341973E-01
 -0.407197341973E-01
 -0.407197342028E-01
 -0.407197342028E-01
 -0.407197342066E-01
 -0.407197342066E-01
 -0.407197342001E-01
 -0.407197342001E-01
  0.962869680717E-01
  0.962869680717E-01
  0.962869680864E-01
  0.962869680864E-01
  0.962869680778E-01
  0.962869680778E-01
  0.962869680656E-01
  0.962869680656E-01
  0.962869680831E-01
  0.962869680831E-01
  0.962869680675E-01
  0.962869680675E-01
  0.962869680883E-01
  0.962869680883E-01
  0.962869680723E-01
  0.962869680723E-01
  0.962869680833E-01
  0.962869680833E-01
  0.962869680769E-01
  0.962869680769E-01
  0.962869680716E-01
  0.962869680716E-01
  0.597364494286E-01
  0.597364494286E-01
  0.597364494336E-01
  0.597364494336E-01
  0.597364494396E-01
  0.597364494396E-01
  0.597364494292E-01
  0.597364494292E-01
  0.597364494443E-01
  0.597364494443E-01
  0.597364494247E-01
  0.597364494247E-01
  0.597364494394E-01
  0.597364494394E-01
  0.597364494229E-01
  0.597364494229E-01
  0.597364494344E-01
  0.597364494344E-01
  0.597364494425E-01
  0.597364494425E-01
  0.597364494286E-01
  0.597364494286E-01
 -0.558023153930E-01
 -0.558023153930E-01
 -0.558023153984E-01
 -0.558023153984E-01
 -0.558023153952E-01
 -0.558023153953E-01
 -0.558023153907E-01
 -0.558023153907E-01
 -0.558023153972E-01
 -0.558023153972E-01
 -0.558023153915E-01
 -0.558023153915E-01
 -0.558023153982E-01
 -0.558023153982E-01
 -0.558023153981E-01
 -0.558023153980E-01
 -0.558023153942E-01
 -0.558023153942E-01
 -0.558023153850E-01
 -0.558023153850E-01
 -0.558023004030E-01
 -0.558022896163E-01
 -0.407194933445E-01
 -0.407197618747E-01
 -0.407197341903E-01
 -0.407197341903E-01
 -0.407197342015E-01
 -0.407197342015E-01
 -0.407197342062E-01
 -0.407197342062E-01
 -0.407197342063E-01
 -0.407197342063E-01
 -0.407197341982E-01
 -0.407197341982E-01
 -0.407197342052E-01
 -0.407197342052E-01
 -0.407197341973E-01
 -0.407197341973E-01
 -0.407197342028E-01
 -0.407197342028E-01
 -0.407197342066E-01
 -0.407197342066E-01
 -0.407197342001E-01
 -0.407197342001E-01
  0.962869680717E-01
  0.962869680717E-01
  0.962869680864E-01
  0.962869680864E-01
  0.962869680778E-01
  0.962869680778E-01
  0.962869680656E-01
  0.962869680656E-01
  0.962869680831E-01
  0.962869680831E-01
  0.962869680675E-01
  0.962869680675E-01
  0.962869680883E-01
  0.962869680883E-01
  0.962869680723E-01
  0.962869680723E-01
  0.962869680833E-01
  0.962869680833E-01
  0.962869680769E-01
  0.962869680769E-01
  0.962869680716E-01
  0.962869680716E-01
  0.597364494286E-01
  0.597364494286E-01
  0.597364494336E-01
  0.597364494336E-01
  0.597364494396E-01
  0.597364494396E-01
  0.597364494292E-01
  0.597364494292E-01
  0.597364494443E-01
  0.597364494443E-01
  0.597364494247E-01
  0.597364494247E-01
  0.597364494394E-01
  0.597364494394E-01
  0.597364494229E-01
  0.597364494229E-01
  0.597364494344E-01
  0.597364494344E-01
  0.597364494425E-01
  0.597364494425E-01
  0.597364494286E-01
  0.597364494286E-01
 -0.558023153930E-01
 -0.558023153930E-01