# vtk DataFile Version 3.0
MachLine results file. Generated by MachLine, USU AeroLab (c) 2022.
ASCII
DATASET POLYDATA
POINTS                3847 float
  0.100000000000E+01  0.000000000000E+00  0.000000000000E+00
  0.986936852140E+00  0.512820512820E-01 -0.114287734800E-02
  0.100000000000E+01  0.512820512820E-01  0.000000000000E+00
  0.986936852140E+00  0.000000000000E+00 -0.114287734800E-02
  0.969870673510E+00  0.512820512820E-01 -0.263597450740E-02
  0.969870673510E+00  0.000000000000E+00 -0.263597450740E-02
  0.947785033200E+00  0.512820512820E-01 -0.456821766120E-02
  0.947785033200E+00  0.000000000000E+00 -0.456821766120E-02
  0.919551441300E+00  0.512820512820E-01 -0.703833688330E-02
  0.919551441300E+00  0.000000000000E+00 -0.703833688330E-02
  0.884018106510E+00  0.512820512820E-01 -0.101471008550E-01
  0.884018106510E+00  0.000000000000E+00 -0.101471008550E-01
  0.840166851150E+00  0.512820512820E-01 -0.139835885800E-01
  0.840166851150E+00  0.000000000000E+00 -0.139835885800E-01
  0.787342649140E+00  0.512820512820E-01 -0.186051074160E-01
  0.787342649140E+00  0.000000000000E+00 -0.186051074160E-01
  0.725530751590E+00  0.512820512820E-01 -0.240129477220E-01
  0.725530751590E+00  0.000000000000E+00 -0.240129477220E-01
  0.655612654280E+00  0.512820512820E-01 -0.301299886120E-01
  0.655612654280E+00  0.000000000000E+00 -0.301299886120E-01
  0.579493951800E+00  0.512820512820E-01 -0.367895121620E-01
  0.579493951800E+00  0.000000000000E+00 -0.367895121620E-01
  0.500000000000E+00  0.512820512820E-01 -0.437443317630E-01
  0.500000000000E+00  0.000000000000E+00 -0.437443317630E-01
  0.420506048200E+00  0.000000000000E+00 -0.367895121620E-01
  0.420506048200E+00  0.512820512820E-01 -0.367895121620E-01
  0.344387345720E+00  0.000000000000E+00 -0.301299886120E-01
  0.344387345720E+00  0.512820512820E-01 -0.301299886120E-01
  0.274469248410E+00  0.000000000000E+00 -0.240129477220E-01
  0.274469248410E+00  0.512820512820E-01 -0.240129477220E-01
  0.212657350860E+00  0.000000000000E+00 -0.186051074160E-01
  0.212657350860E+00  0.512820512820E-01 -0.186051074160E-01
  0.159833148850E+00  0.000000000000E+00 -0.139835885800E-01
  0.159833148850E+00  0.512820512820E-01 -0.139835885800E-01
  0.115981893490E+00  0.000000000000E+00 -0.101471008550E-01
  0.115981893490E+00  0.512820512820E-01 -0.101471008550E-01
  0.804485587010E-01  0.000000000000E+00 -0.703833688330E-02
  0.804485587010E-01  0.512820512820E-01 -0.703833688330E-02
  0.522149667970E-01  0.000000000000E+00 -0.456821766120E-02
  0.522149667970E-01  0.512820512820E-01 -0.456821766120E-02
  0.301293264890E-01  0.000000000000E+00 -0.263597450740E-02
  0.301293264890E-01  0.512820512820E-01 -0.263597450740E-02
  0.130631478640E-01  0.000000000000E+00 -0.114287734800E-02
  0.130631478640E-01  0.512820512820E-01 -0.114287734800E-02
  0.000000000000E+00  0.000000000000E+00  0.000000000000E+00
  0.000000000000E+00  0.512820512820E-01  0.000000000000E+00
  0.130631478640E-01  0.512820512820E-01  0.114287734800E-02
  0.130631478640E-01  0.000000000000E+00  0.114287734800E-02
  0.301293264890E-01  0.512820512820E-01  0.263597450740E-02
  0.301293264890E-01  0.000000000000E+00  0.263597450740E-02
  0.522149667970E-01  0.512820512820E-01  0.456821766120E-02
  0.522149667970E-01  0.000000000000E+00  0.456821766120E-02
  0.804485587010E-01  0.512820512820E-01  0.703833688330E-02
  0.804485587010E-01  0.000000000000E+00  0.703833688330E-02
  0.115981893490E+00  0.512820512820E-01  0.101471008550E-01
  0.115981893490E+00  0.000000000000E+00  0.101471008550E-01
  0.159833148850E+00  0.512820512820E-01  0.139835885800E-01
  0.159833148850E+00  0.000000000000E+00  0.139835885800E-01
  0.212657350860E+00  0.512820512820E-01  0.186051074160E-01
  0.212657350860E+00  0.000000000000E+00  0.186051074160E-01
  0.274469248410E+00  0.512820512820E-01  0.240129477220E-01
  0.274469248410E+00  0.000000000000E+00  0.240129477220E-01
  0.344387345720E+00  0.512820512820E-01  0.301299886120E-01
  0.344387345720E+00  0.000000000000E+00  0.301299886120E-01
  0.420506048200E+00  0.512820512820E-01  0.367895121620E-01
  0.420506048200E+00  0.000000000000E+00  0.367895121620E-01
  0.500000000000E+00  0.512820512820E-01  0.437443317630E-01
  0.500000000000E+00  0.000000000000E+00  0.437443317630E-01
  0.579493951800E+00  0.000000000000E+00  0.367895121620E-01
  0.579493951800E+00  0.512820512820E-01  0.367895121620E-01
  0.655612654280E+00  0.000000000000E+00  0.301299886120E-01
  0.655612654280E+00  0.512820512820E-01  0.301299886120E-01
  0.725530751590E+00  0.000000000000E+00  0.240129477220E-01
  0.725530751590E+00  0.512820512820E-01  0.240129477220E-01
  0.787342649140E+00  0.000000000000E+00  0.186051074160E-01
  0.787342649140E+00  0.512820512820E-01  0.186051074160E-01
  0.840166851150E+00  0.000000000000E+00  0.139835885800E-01
  0.840166851150E+00  0.512820512820E-01  0.139835885800E-01
  0.884018106510E+00  0.000000000000E+00  0.101471008550E-01
  0.884018106510E+00  0.512820512820E-01  0.101471008550E-01
  0.919551441300E+00  0.000000000000E+00  0.703833688330E-02
  0.919551441300E+00  0.512820512820E-01  0.703833688330E-02
  0.947785033200E+00  0.000000000000E+00  0.456821766120E-02
  0.947785033200E+00  0.512820512820E-01  0.456821766120E-02
  0.969870673510E+00  0.000000000000E+00  0.263597450740E-02
  0.969870673510E+00  0.512820512820E-01  0.263597450740E-02
  0.986936852140E+00  0.000000000000E+00  0.114287734800E-02
  0.986936852140E+00  0.512820512820E-01  0.114287734800E-02
  0.986936852140E+00  0.102564102560E+00 -0.114287734800E-02
  0.100000000000E+01  0.102564102560E+00  0.000000000000E+00
  0.969870673510E+00  0.102564102560E+00 -0.263597450740E-02
  0.947785033200E+00  0.102564102560E+00 -0.456821766120E-02
  0.919551441300E+00  0.102564102560E+00 -0.703833688330E-02
  0.884018106510E+00  0.102564102560E+00 -0.101471008550E-01
  0.840166851150E+00  0.102564102560E+00 -0.139835885800E-01
  0.787342649140E+00  0.102564102560E+00 -0.186051074160E-01
  0.725530751590E+00  0.102564102560E+00 -0.240129477220E-01
  0.655612654280E+00  0.102564102560E+00 -0.301299886120E-01
  0.579493951800E+00  0.102564102560E+00 -0.367895121620E-01
  0.500000000000E+00  0.102564102560E+00 -0.437443317630E-01
  0.420506048200E+00  0.102564102560E+00 -0.367895121620E-01
  0.344387345720E+00  0.102564102560E+00 -0.301299886120E-01
  0.274469248410E+00  0.102564102560E+00 -0.240129477220E-01
  0.212657350860E+00  0.102564102560E+00 -0.186051074160E-01
  0.159833148850E+00  0.102564102560E+00 -0.139835885800E-01
  0.115981893490E+00  0.102564102560E+00 -0.101471008550E-01
  0.804485587010E-01  0.102564102560E+00 -0.703833688330E-02
  0.522149667970E-01  0.102564102560E+00 -0.456821766120E-02
  0.301293264890E-01  0.102564102560E+00 -0.263597450740E-02
  0.130631478640E-01  0.102564102560E+00 -0.114287734800E-02
  0.000000000000E+00  0.102564102560E+00  0.000000000000E+00
  0.130631478640E-01  0.102564102560E+00  0.114287734800E-02
  0.301293264890E-01  0.102564102560E+00  0.263597450740E-02
  0.522149667970E-01  0.102564102560E+00  0.456821766120E-02
  0.804485587010E-01  0.102564102560E+00  0.703833688330E-02
  0.115981893490E+00  0.102564102560E+00  0.101471008550E-01
  0.159833148850E+00  0.102564102560E+00  0.139835885800E-01
  0.212657350860E+00  0.102564102560E+00  0.186051074160E-01
  0.274469248410E+00  0.102564102560E+00  0.240129477220E-01
  0.344387345720E+00  0.102564102560E+00  0.301299886120E-01
  0.420506048200E+00  0.102564102560E+00  0.367895121620E-01
  0.500000000000E+00  0.102564102560E+00  0.437443317630E-01
  0.579493951800E+00  0.102564102560E+00  0.367895121620E-01
  0.655612654280E+00  0.102564102560E+00  0.301299886120E-01
  0.725530751590E+00  0.102564102560E+00  0.240129477220E-01
  0.787342649140E+00  0.102564102560E+00  0.186051074160E-01
  0.840166851150E+00  0.102564102560E+00  0.139835885800E-01
  0.884018106510E+00  0.102564102560E+00  0.101471008550E-01
  0.919551441300E+00  0.102564102560E+00  0.703833688330E-02
  0.947785033200E+00  0.102564102560E+00  0.456821766120E-02
  0.969870673510E+00  0.102564102560E+00  0.263597450740E-02
  0.986936852140E+00  0.102564102560E+00  0.114287734800E-02
  0.986936852140E+00  0.153846153850E+00 -0.114287734800E-02
  0.100000000000E+01  0.153846153850E+00  0.000000000000E+00
  0.969870673510E+00  0.153846153850E+00 -0.263597450740E-02
  0.947785033200E+00  0.153846153850E+00 -0.456821766120E-02
  0.919551441300E+00  0.153846153850E+00 -0.703833688330E-02
  0.884018106510E+00  0.153846153850E+00 -0.101471008550E-01
  0.840166851150E+00  0.153846153850E+00 -0.139835885800E-01
  0.787342649140E+00  0.153846153850E+00 -0.186051074160E-01
  0.725530751590E+00  0.153846153850E+00 -0.240129477220E-01
  0.655612654280E+00  0.153846153850E+00 -0.301299886120E-01
  0.579493951800E+00  0.153846153850E+00 -0.367895121620E-01
  0.500000000000E+00  0.153846153850E+00 -0.437443317630E-01
  0.420506048200E+00  0.153846153850E+00 -0.367895121620E-01
  0.344387345720E+00  0.153846153850E+00 -0.301299886120E-01
  0.274469248410E+00  0.153846153850E+00 -0.240129477220E-01
  0.212657350860E+00  0.153846153850E+00 -0.186051074160E-01
  0.159833148850E+00  0.153846153850E+00 -0.139835885800E-01
  0.115981893490E+00  0.153846153850E+00 -0.101471008550E-01
  0.804485587010E-01  0.153846153850E+00 -0.703833688330E-02
  0.522149667970E-01  0.153846153850E+00 -0.456821766120E-02
  0.301293264890E-01  0.153846153850E+00 -0.263597450740E-02
  0.130631478640E-01  0.153846153850E+00 -0.114287734800E-02
  0.000000000000E+00  0.153846153850E+00  0.000000000000E+00
  0.130631478640E-01  0.153846153850E+00  0.114287734800E-02
  0.301293264890E-01  0.153846153850E+00  0.263597450740E-02
  0.522149667970E-01  0.153846153850E+00  0.456821766120E-02
  0.804485587010E-01  0.153846153850E+00  0.703833688330E-02
  0.115981893490E+00  0.153846153850E+00  0.101471008550E-01
  0.159833148850E+00  0.153846153850E+00  0.139835885800E-01
[...]
CELL_DATA                7536
SCALARS C_p_ise float 1
LOOKUP_TABLE default
 -0.223813276941E-01
 -0.223819148039E-01
 -0.223817177968E-01
 -0.223817177968E-01
 -0.223817178105E-01
 -0.223817178105E-01
 -0.223817178162E-01
 -0.223817178162E-01
 -0.223817178163E-01
 -0.223817178163E-01
 -0.223817178064E-01
 -0.223817178064E-01
 -0.223817178149E-01
 -0.223817178149E-01
 -0.223817178054E-01
 -0.223817178054E-01
 -0.223817178120E-01
 -0.223817178120E-01
 -0.223817178167E-01
 -0.223817178167E-01
 -0.223817178087E-01
 -0.223817178087E-01
  0.130250850411E+00
  0.130250850411E+00
  0.130250850421E+00
  0.130250850421E+00
  0.130250850415E+00
  0.130250850415E+00
  0.130250850406E+00
  0.130250850406E+00
  0.130250850419E+00
  0.130250850419E+00
  0.130250850408E+00
  0.130250850408E+00
  0.130250850423E+00
  0.130250850423E+00
  0.130250850411E+00
  0.130250850411E+00
  0.130250850419E+00
  0.130250850419E+00
  0.130250850415E+00
  0.130250850415E+00
  0.130250850411E+00
  0.130250850411E+00
  0.272317037080E-01
  0.272317037080E-01
  0.272317037122E-01
  0.272317037122E-01
  0.272317037174E-01
  0.272317037174E-01
  0.272317037085E-01
  0.272317037085E-01
  0.272317037214E-01
  0.272317037214E-01
  0.272317037047E-01
  0.272317037047E-01
  0.272317037172E-01
  0.272317037172E-01
  0.272317037031E-01
  0.272317037031E-01
  0.272317037129E-01
  0.272317037129E-01
  0.272317037198E-01
  0.272317037198E-01
  0.272317037080E-01
  0.272317037080E-01
 -0.682934594278E-01
 -0.682934594278E-01
 -0.682934594323E-01
 -0.682934594323E-01
 -0.682934594297E-01
 -0.682934594297E-01
 -0.682934594259E-01
 -0.682934594259E-01
 -0.682934594313E-01
 -0.682934594313E-01
 -0.682934594265E-01
 -0.682934594265E-01
 -0.682934594321E-01
 -0.682934594321E-01
 -0.682934594320E-01
 -0.682934594320E-01
 -0.682934594288E-01
 -0.682934594288E-01
 -0.682934594211E-01
 -0.682934594211E-01
 -0.682932989573E-01
 -0.682937772738E-01
 -0.223815405953E-01
 -0.223813276941E-01
 -0.223817177968E-01
 -0.223817177968E-01
 -0.223817178105E-01
 -0.223817178105E-01
 -0.223817178162E-01
 -0.223817178162E-01
 -0.223817178163E-01
 -0.223817178163E-01
 -0.223817178064E-01
 -0.223817178064E-01
 -0.223817178149E-01
 -0.223817178149E-01
 -0.223817178054E-01
 -0.223817178054E-01
 -0.223817178120E-01
 -0.223817178120E-01
 -0.223817178167E-01
 -0.223817178167E-01
 -0.223817178087E-01
 -0.223817178087E-01
  0.130250850411E+00
  0.130250850411E+00
  0.130250850421E+00
  0.130250850421E+00
  0.130250850415E+00
  0.130250850415E+00
  0.130250850406E+00
  0.130250850406E+00
  0.130250850419E+00
  0.130250850419E+00
  0.130250850408E+00
  0.130250850408E+00
  0.130250850423E+00
  0.130250850423E+00
  0.130250850411E+00
  0.130250850411E+00
  0.130250850419E+00
  0.130250850419E+00
  0.130250850415E+00
  0.130250850415E+00
  0.130250850411E+00
  0.130250850411E+00
  0.272317037080E-01
  0.272317037080E-01
  0.272317037122E-01
  0.272317037122E-01
  0.272317037174E-01
  0.272317037174E-01
  0.272317037085E-01
  0.272317037085E-01
  0.272317037214E-01
  0.272317037214E-01
  0.272317037047E-01
  0.272317037047E-01
  0.272317037172E-01
  0.272317037172E-01
  0.272317037031E-01
  0.272317037031E-01
  0.272317037129E-01
  0.272317037129E-01
  0.272317037198E-01
  0.272317037198E-01
  0.272317037080E-01
  0.272317037080E-01
 -0.682934594278E-01
 -0.682934594278E-01
 -0.682934594323E-01
 -0.682934594323E-01
 -0.682934594297E-01
 -0.682934594297E-01
 -0.682934594259E-01
 -0.682934594259E-01
 -0.682934594313E-01
 -0.682934594313E-01
 -0.682934594265E-01
 -0.682934594265E-01
 -0.682934594321E-01
 -0.682934594321E-01
 -0.682934594320E-01
 -0.682934594320E-01
 -0.682934594288E-01
 -0.682934594288E-01
 -0.682934594211E-01
 -0.682934594211E-01
 -0.682937772738E-01
 -0.682936038241E-01
 -0.223817971891E-01
 -0.223815405953E-01
 -0.223817177968E-01
 -0.223817177968E-01
 -0.223817178105E-01
 -0.223817178105E-01
 -0.223817178162E-01
 -0.223817178162E-01
 -0.223817178163E-01
 -0.223817178163E-01
 -0.223817178064E-01
 -0.223817178064E-01
 -0.223817178149E-01
 -0.223817178149E-01
 -0.223817178054E-01
 -0.223817178054E-01
 -0.223817178120E-01
 -0.223817178120E-01
 -0.223817178167E-01
 -0.223817178167E-01
 -0.223817178087E-01
 -0.223817178087E-01
  0.130250850411E+00
  0.130250850411E+00
  0.130250850421E+00
  0.130250850421E+00
  0.130250850415E+00
  0.130250850415E+00
  0.130250850406E+00
  0.130250850406E+00
  0.130250850419E+00
  0.130250850419E+00
  0.130250850408E+00
  0.130250850408E+00
  0.130250850423E+00
  0.130250850423E+00
  0.130250850411E+00
  0.130250850411E+00
  0.130250850419E+00
  0.130250850419E+00
  0.130250850415E+00
  0.130250850415E+00
  0.130250850411E+00
  0.130250850411E+00
  0.272317037080E-01
  0.272317037080E-01
  0.272317037122E-01
  0.272317037122E-01
  0.272317037174E-01
  0.272317037174E-01
  0.272317037085E-01
  0.272317037085E-01
  0.272317037214E-01
  0.272317037214E-01
  0.272317037047E-01
  0.272317037047E-01
  0.272317037172E-01
  0.272317037172E-01
  0.272317037031E-01
  0.272317037031E-01
  0.272317037129E-01
  0.272317037129E-01
  0.272317037198E-01
  0.272317037198E-01
  0.272317037080E-01
  0.272317037080E-01
 -0.682934594278E-01
 -0.682934594278E-01
 -0.682934594323E-01
 -0.682934594323E-01
 -0.682934594297E-01
 -0.682934594297E-01
 -0.682934594259E-01
 -0.682934594259E-01
 -0.682934594313E-01
 -0.682934594313E-01
 -0.682934594265E-01
 -0.682934594265E-01
 -0.682934594321E-01
 -0.682934594321E-01
 -0.682934594320E-01
 -0.682934594320E-01
 -0.682934594288E-01
 -0.682934594288E-01
 -0.682934594211E-01
 -0.682934594211E-01
 -0.682936038241E-01
 -0.682933947779E-01
 -0.223815269933E-01
 -0.223817971891E-01
 -0.223817177968E-01
 -0.223817177968E-01
 -0.223817178105E-01
 -0.223817178105E-01
 -0.223817178161E-01
 -0.223817178162E-01
 -0.223817178163E-01
 -0.223817178163E-01
 -0.223817178064E-01
 -0.223817178064E-01
 -0.223817178149E-01
 -0.223817178149E-01
 -0.223817178054E-01
 -0.223817178054E-01
 -0.223817178120E-01
 -0.223817178120E-01
 -0.223817178167E-01
 -0.223817178167E-01
 -0.223817178087E-01
 -0.223817178087E-01
  0.130250850411E+00
  0.130250850411E+00
  0.130250850421E+00
  0.130250850421E+00
  0.130250850415E+00
  0.130250850415E+00
  0.130250850406E+00
  0.130250850406E+00
  0.130250850419E+00
  0.130250850419E+00
  0.130250850408E+00
  0.130250850408E+00
  0.130250850423E+00
  0.130250850423E+00
  0.130250850411E+00
  0.130250850411E+00
  0.130250850419E+00
  0.130250850419E+00
  0.130250850415E+00
  0.130250850415E+00
  0.130250850411E+00
  0.130250850411E+00
  0.272317037080E-01
  0.272317037080E-01
  0.272317037122E-01
  0.272317037122E-01
  0.272317037174E-01
  0.272317037174E-01
  0.272317037085E-01
  0.272317037085E-01
  0.272317037214E-01
  0.272317037214E-01
  0.272317037047E-01
  0.272317037047E-01
  0.272317037172E-01
  0.272317037172E-01
  0.272317037031E-01
  0.272317037031E-01
  0.272317037129E-01
  0.272317037129E-01
  0.272317037198E-01
  0.272317037198E-01
  0.272317037080E-01
  0.272317037080E-01
 -0.682934594278E-01
 -0.682934594278E-01
 -0.682934594323E-01
 -0.682934594323E-01
 -0.682934594297E-01
 -0.682934594297E-01
 -0.682934594259E-01
 -0.682934594259E-01
 -0.682934594313E-01
 -0.682934594313E-01
 -0.682934594265E-01
 -0.682934594265E-01
 -0.682934594321E-01
 -0.682934594321E-01
 -0.682934594320E-01
 -0.682934594320E-01
 -0.682934594288E-01
 -0.682934594288E-01
 -0.682934594211E-01
 -0.682934594211E-01
 -0.682933947779E-01
 -0.682936149057E-01
 -0.223815769608E-01
 -0.223815269933E-01
 -0.223817177968E-01
 -0.223817177968E-01
 -0.223817178105E-01
 -0.223817178105E-01
 -0.223817178162E-01
 -0.223817178161E-01
 -0.223817178163E-01
 -0.223817178163E-01
 -0.223817178064E-01
 -0.223817178064E-01
 -0.223817178149E-01
 -0.223817178149E-01
 -0.223817178054E-01
 -0.223817178054E-01
 -0.223817178120E-01
 -0.223817178120E-01
 -0.223817178167E-01
 -0.223817178167E-01
 -0.223817178087E-01
 -0.223817178087E-01
  0.130250850411E+00
  0.130250850411E+00
  0.130250850421E+00
  0.130250850421E+00
  0.130250850415E+00
  0.130250850415E+00
  0.130250850406E+00
  0.130250850406E+00
  0.130250850419E+00
  0.130250850419E+00
  0.130250850408E+00
  0.130250850408E+00
  0.130250850423E+00
  0.130250850423E+00
  0.130250850411E+00
  0.130250850411E+00
  0.130250850419E+00
  0.130250850419E+00
  0.130250850415E+00
  0.130250850415E+00
  0.130250850411E+00
  0.130250850411E+00
  0.272317037080E-01
  0.272317037080E-01
  0.272317037122E-01
  0.272317037122E-01
  0.272317037174E-01
  0.272317037174E-01
  0.272317037085E-01
  0.272317037085E-01
  0.272317037214E-01
  0.272317037214E-01
  0.272317037047E-01
  0.272317037047E-01
  0.272317037172E-01
  0.272317037172E-01
  0.272317037031E-01
  0.272317037031E-01
  0.272317037129E-01
  0.272317037129E-01
  0.272317037198E-01
  0.272317037198E-01
  0.272317037080E-01
  0.272317037080E-01
 -0.682934594278E-01
 -0.682934594278E-01
 -0.682934594323E-01
 -0.682934594323E-01
 -0.682934594297E-01
 -0.682934594297E-01
 -0.682934594259E-01
 -0.682934594259E-01
 -0.682934594313E-01
 -0.682934594313E-01
 -0.682934594265E-01
 -0.682934594265E-01
 -0.682934594321E-01
 -0.682934594321E-01
 -0.682934594320E-01
 -0.682934594320E-01
 -0.682934594288E-01
 -0.682934594288E-01
 -0.682934594211E-01
 -0.682934594211E-01
 -0.682936149057E-01
 -0.682935741973E-01
 -0.223815689490E-01
 -0.223815769608E-01
 -0.223817177968E-01
 -0.223817177968E-01
 -0.223817178105E-01
 -0.223817178105E-01
 -0.223817178161E-01
 -0.223817178162E-01
 -0.223817178163E-01
 -0.223817178163E-01
 -0.223817178064E-01
 -0.223817178064E-01
 -0.223817178149E-01
 -0.223817178149E-01
 -0.223817178054E-01
 -0.223817178054E-01
 -0.223817178120E-01
 -0.223817178120E-01
 -0.223817178167E-01
 -0.223817178167E-01
 -0.223817178087E-01
 -0.223817178087E-01
  0.130250850411E+00
  0.130250850411E+00
  0.130250850421E+00
  0.130250850421E+00
  0.130250850415E+00
  0.130250850415E+00
  0.130250850406E+00
  0.130250850406E+00
  0.130250850419E+00
  0.130250850419E+00
  0.130250850408E+00
  0.130250850408E+00
  0.130250850423E+00
  0.130250850423E+00
  0.130250850411E+00
  0.130250850411E+00
  0.130250850419E+00
  0.130250850419E+00
  0.130250850415E+00
  0.130250850415E+00
  0.130250850411E+00
  0.130250850411E+00
  0.272317037080E-01
  0.272317037080E-01
  0.272317037122E-01
  0.272317037122E-01
  0.272317037174E-01
  0.272317037174E-01
  0.272317037085E-01
  0.272317037085E-01
  0.272317037214E-01
  0.272317037214E-01
  0.272317037047E-01
  0.272317037047E-01
  0.272317037172E-01
  0.272317037172E-01
  0.272317037031E-01
  0.272317037031E-01
  0.272317037129E-01
  0.272317037129E-01
  0.272317037198E-01
  0.272317037198E-01
  0.272317037080E-01
  0.272317037080E-01
 -0.682934594278E-01
 -0.682934594278E-01
 -0.682934594323E-01
 -0.682934594323E-01
 -0.682934594297E-01
 -0.682934594297E-01
 -0.682934594259E-01
 -0.682934594259E-01
 -0.682934594313E-01
 -0.682934594313E-01
 -0.682934594265E-01
 -0.682934594265E-01
 -0.682934594321E-01
 -0.682934594321E-01
 -0.682934594320E-01
 -0.682934594320E-01
 -0.682934594288E-01
 -0.682934594288E-01
 -0.682934594211E-01
 -0.682934594211E-01
 -0.682935741973E-01
 -0.682935807246E-01
 -0.223816082330E-01
 -0.223815689490E-01
 -0.223817177968E-01
 -0.223817177968E-01
 -0.223817178105E-01
 -0.223817178105E-01
 -0.223817178162E-01
 -0.223817178161E-01
 -0.223817178163E-01
 -0.223817178163E-01
 -0.223817178064E-01
 -0.223817178064E-01
 -0.223817178149E-01
 -0.223817178149E-01
 -0.223817178054E-01
 -0.223817178054E-01
 -0.223817178120E-01
 -0.223817178120E-01
 -0.223817178167E-01
 -0.223817178167E-01
 -0.223817178087E-01
 -0.223817178087E-01
  0.130250850411E+00
  0.130250850411E+00
  0.130250850421E+00
  0.130250850421E+00
  0.130250850415E+00
  0.130250850415E+00
  0.130250850406E+00
  0.130250850406E+00
  0.130250850419E+00
  0.130250850419E+00
  0.130250850408E+00
  0.130250850408E+00
  0.130250850423E+00
  0.130250850423E+00
  0.130250850411E+00
  0.130250850411E+00
  0.130250850419E+00
  0.130250850419E+00
  0.130250850415E+00
  0.130250850415E+00
  0.130250850411E+00
  0.130250850411E+00
  0.272317037080E-01
  0.272317037080E-01
  0.272317037122E-01
  0.272317037122E-01
  0.272317037174E-01
  0.272317037174E-01
  0.272317037085E-01
  0.272317037085E-01
  0.272317037214E-01
  0.272317037214E-01
  0.272317037047E-01
  0.272317037047E-01
  0.272317037172E-01
  0.272317037172E-01
  0.272317037031E-01
  0.272317037031E-01
  0.272317037129E-01
  0.272317037129E-01
  0.272317037198E-01
  0.272317037198E-01
  0.272317037080E-01
  0.272317037080E-01
 -0.682934594278E-01
 -0.682934594278E-01
 -0.682934594323E-01
 -0.682934594323E-01
 -0.682934594297E-01
 -0.682934594297E-01
 -0.682934594259E-01
 -0.682934594259E-01
 -0.682934594313E-01
 -0.682934594313E-01
 -0.682934594265E-01
 -0.682934594265E-01
 -0.682934594321E-01
 -0.682934594321E-01
 -0.682934594320E-01
 -0.682934594320E-01
 -0.682934594288E-01
 -0.682934594288E-01
 -0.682934594211E-01
 -0.682934594211E-01
 -0.682935807246E-01
 -0.682935487200E-01
 -0.223816714378E-01
 -0.223816082330E-01
 -0.223817177968E-01
 -0.223817177968E-01
 -0.223817178105E-01
 -0.223817178105E-01
 -0.223817178162E-01
 -0.223817178162E-01
 -0.223817178163E-01
 -0.223817178163E-01
 -0.223817178064E-01
 -0.223817178064E-01
 -0.223817178149E-01
 -0.223817178149E-01
 -0.223817178054E-01
 -0.223817178054E-01
 -0.223817178120E-01
 -0.223817178120E-01
 -0.223817178167E-01
 -0.223817178167E-01
 -0.223817178087E-01
 -0.223817178087E-01
  0.130250850411E+00
  0.130250850411E+00
  0.130250850421E+00
  0.130250850421E+00
  0.130250850415E+00
  0.130250850415E+00
  0.130250850406E+00
  0.130250850406E+00
  0.130250850419E+00
  0.130250850419E+00
  0.130250850408E+00
  0.130250850408E+00
  0.130250850423E+00
  0.130250850423E+00
  0.130250850411E+00
  0.130250850411E+00
  0.130250850419E+00
  0.130250850419E+00
  0.130250850415E+00
  0.130250850415E+00
  0.130250850411E+00
  0.130250850411E+00
  0.272317037080E-01
  0.272317037080E-01
  0.272317037122E-01
  0.272317037122E-01
  0.272317037174E-01
  0.272317037174E-01
  0.272317037085E-01
  0.272317037085E-01
  0.272317037214E-01
  0.272317037214E-01
  0.272317037047E-01
  0.272317037047E-01
  0.272317037172E-01
  0.272317037172E-01
  0.272317037031E-01
  0.272317037031E-01
  0.272317037129E-01
  0.272317037129E-01
  0.272317037198E-01
  0.272317037198E-01
  0.272317037080E-01
  0.272317037080E-01
 -0.682934594278E-01
 -0.682934594278E-01
 -0.682934594323E-01
 -0.682934594323E-01
 -0.682934594297E-01
 -0.682934594297E-01
 -0.682934594259E-01
 -0.682934594259E-01
 -0.682934594313E-01
 -0.682934594313E-01
 -0.682934594265E-01
 -0.682934594265E-01
 -0.682934594321E-01
 -0.682934594321E-01
 -0.682934594320E-01
 -0.682934594320E-01
 -0.682934594288E-01
 -0.682934594288E-01
 -0.682934594211E-01
 -0.682934594211E-01
 -0.682935487200E-01
 -0.682934972273E-01
 -0.223816312449E-01
 -0.223816714378E-01
 -0.223817177968E-01
 -0.223817177968E-01
 -0.223817178105E-01
 -0.223817178105E-01
 -0.223817178161E-01
 -0.223817178162E-01
 -0.223817178163E-01
 -0.223817178163E-01
 -0.223817178064E-01
 -0.223817178064E-01
 -0.223817178149E-01
 -0.223817178149E-01
 -0.223817178054E-01
 -0.223817178054E-01
 -0.223817178120E-01
 -0.223817178120E-01
 -0.223817178167E-01
 -0.223817178167E-01
 -0.223817178087E-01
 -0.223817178087E-01
  0.130250850411E+00
  0.130250850411E+00
  0.130250850421E+00
  0.130250850421E+00
  0.130250850415E+00
  0.130250850415E+00
  0.130250850406E+00
  0.130250850406E+00
  0.130250850419E+00
  0.130250850419E+00
  0.130250850408E+00
  0.130250850408E+00
  0.130250850423E+00
  0.130250850423E+00
  0.130250850411E+00
  0.130250850411E+00
  0.130250850419E+00
  0.130250850419E+00
  0.130250850415E+00
  0.130250850415E+00
  0.130250850411E+00
  0.130250850411E+00
  0.272317037080E-01
  0.272317037080E-01
  0.272317037122E-01
  0.272317037122E-01
  0.272317037174E-01
  0.272317037174E-01
  0.272317037085E-01
  0.272317037085E-01
  0.272317037214E-01
  0.272317037214E-01
  0.272317037047E-01
  0.272317037047E-01
  0.272317037172E-01
  0.272317037172E-01
  0.272317037031E-01
  0.272317037031E-01
  0.272317037129E-01
  0.272317037129E-01
  0.272317037198E-01
  0.272317037198E-01
  0.272317037080E-01
  0.272317037080E-01
 -0.682934594278E-01
 -0.682934594278E-01
 -0.682934594323E-01
 -0.682934594323E-01
 -0.682934594297E-01
 -0.682934594297E-01
 -0.682934594259E-01
 -0.682934594259E-01
 -0.682934594313E-01
 -0.682934594313E-01
 -0.682934594265E-01
 -0.682934594265E-01
 -0.682934594321E-01
 -0.682934594321E-01
 -0.682934594320E-01
 -0.682934594320E-01
 -0.682934594288E-01
 -0.682934594288E-01
 -0.682934594211E-01
 -0.682934594211E-01
 -0.682934972273E-01
 -0.682935299722E-01
 -0.223819043190E-01
 -0.223816312449E-01
 -0.223817177968E-01
 -0.223817177968E-01
 -0.223817178105E-01
 -0.223817178105E-01
 -0.223817178162E-01
 -0.223817178161E-01
 -0.223817178163E-01
 -0.223817178163E-01
 -0.223817178064E-01
 -0.223817178064E-01
 -0.223817178149E-01
 -0.223817178149E-01
 -0.223817178054E-01
 -0.223817178054E-01
 -0.223817178120E-01
 -0.223817178120E-01
 -0.223817178167E-01
 -0.223817178167E-01
 -0.223817178087E-01
 -0.223817178087E-01
  0.130250850411E+00
  0.130250850411E+00
  0.130250850421E+00
  0.130250850421E+00
  0.130250850415E+00
  0.130250850415E+00
  0.130250850406E+00
  0.130250850406E+00
  0.130250850419E+00
  0.130250850419E+00
  0.130250850408E+00
  0.130250850408E+00
  0.130250850423E+00
  0.130250850423E+00
  0.130250850411E+00
  0.130250850411E+00
  0.130250850419E+00
  0.130250850419E+00
  0.130250850415E+00
  0.130250850415E+00
  0.130250850411E+00
  0.130250850411E+00
  0.272317037080E-01
  0.272317037080E-01
  0.272317037122E-01
  0.272317037122E-01
  0.272317037174E-01
  0.272317037174E-01
  0.272317037085E-01
  0.272317037085E-01
  0.272317037214E-01
  0.272317037214E-01
  0.272317037047E-01
  0.272317037047E-01
  0.272317037172E-01
  0.272317037172E-01
  0.272317037031E-01
  0.272317037031E-01
  0.272317037129E-01
  0.272317037129E-01
  0.272317037198E-01
  0.272317037198E-01
  0.272317037080E-01
  0.272317037080E-01
 -0.682934594278E-01
 -0.682934594278E-01
 -0.682934594323E-01
 -0.682934594323E-01
 -0.682934594297E-01
 -0.682934594297E-01
 -0.682934594259E-01
 -0.682934594259E-01
 -0.682934594313E-01
 -0.682934594313E-01
 -0.682934594265E-01
 -0.682934594265E-01
 -0.682934594321E-01
 -0.682934594321E-01
 -0.682934594320E-01
 -0.682934594320E-01
 -0.682934594288E-01
 -0.682934594288E-01
 -0.682934594211E-01
 -0.682934594211E-01
 -0.682935299722E-01
 -0.682933074993E-01
 -0.223814013406E-01
 -0.223819043190E-01
 -0.223817177968E-01
 -0.223817177968E-01
 -0.223817178105E-01
 -0.223817178105E-01
 -0.223817178162E-01
 -0.223817178162E-01
 -0.223817178163E-01
 -0.223817178163E-01
 -0.223817178064E-01
 -0.223817178064E-01
 -0.223817178149E-01
 -0.223817178149E-01
 -0.223817178054E-01
 -0.223817178054E-01
 -0.223817178120E-01
 -0.223817178120E-01
 -0.223817178167E-01
 -0.223817178167E-01
 -0.223817178087E-01
 -0.223817178087E-01
  0.130250850411E+00
  0.130250850411E+00
  0.130250850421E+00
  0.130250850421E+00
  0.130250850415E+00
  0.130250850415E+00
  0.130250850406E+00
  0.130250850406E+00
  0.130250850419E+00
  0.130250850419E+00
  0.130250850408E+00
  0.130250850408E+00
  0.130250850423E+00
  0.130250850423E+00
  0.130250850411E+00
  0.130250850411E+00
  0.130250850419E+00
  0.130250850419E+00
  0.130250850415E+00
  0.130250850415E+00
  0.130250850411E+00
  0.130250850411E+00
  0.272317037080E-01
  0.272317037080E-01
  0.272317037122E-01
  0.272317037122E-01
  0.272317037174E-01
  0.272317037174E-01
  0.272317037085E-01
  0.272317037085E-01
  0.272317037214E-01
  0.272317037214E-01
  0.272317037047E-01
  0.272317037047E-01
  0.272317037172E-01
  0.272317037172E-01
  0.272317037031E-01
  0.272317037031E-01
  0.272317037129E-01
  0.272317037129E-01
  0.272317037198E-01
  0.272317037198E-01
  0.272317037080E-01
  0.272317037080E-01
 -0.682934594278E-01
 -0.682934594278E-01