# vtk DataFile Version 3.0
MachLine results file. Generated by MachLine, USU AeroLab (c) 2022.
ASCII
DATASET POLYDATA
POINTS                1127 float
  0.100000000000E+01  0.000000000000E+00  0.000000000000E+00
  0.973034464140E+00  0.105263157890E+00 -0.235917869390E-02
  0.100000000000E+01  0.105263157890E+00  0.000000000000E+00
  0.973034464140E+00  0.000000000000E+00 -0.235917869390E-02
  0.929717765040E+00  0.105263157890E+00 -0.614889880620E-02
  0.929717765040E+00  0.000000000000E+00 -0.614889880620E-02
  0.863184801440E+00  0.105263157890E+00 -0.119697788720E-01
  0.863184801440E+00  0.000000000000E+00 -0.119697788720E-01
  0.767714243180E+00  0.105263157890E+00 -0.203223704200E-01
  0.767714243180E+00  0.000000000000E+00 -0.203223704200E-01
  0.643290544900E+00  0.105263157890E+00 -0.312080334940E-01
  0.643290544900E+00  0.000000000000E+00 -0.312080334940E-01
  0.500000000000E+00  0.105263157890E+00 -0.437443317630E-01
  0.500000000000E+00  0.000000000000E+00 -0.437443317630E-01
  0.356709455100E+00  0.000000000000E+00 -0.312080334940E-01
  0.356709455100E+00  0.105263157890E+00 -0.312080334940E-01
  0.232285756820E+00  0.000000000000E+00 -0.203223704200E-01
  0.232285756820E+00  0.105263157890E+00 -0.203223704200E-01
  0.136815198560E+00  0.000000000000E+00 -0.119697788720E-01
  0.136815198560E+00  0.105263157890E+00 -0.119697788720E-01
  0.702822349590E-01  0.000000000000E+00 -0.614889880620E-02
  0.702822349590E-01  0.105263157890E+00 -0.614889880620E-02
  0.269655358630E-01  0.000000000000E+00 -0.235917869390E-02
  0.269655358630E-01  0.105263157890E+00 -0.235917869390E-02
  0.000000000000E+00  0.000000000000E+00  0.000000000000E+00
  0.000000000000E+00  0.105263157890E+00  0.000000000000E+00
  0.269655358630E-01  0.105263157890E+00  0.235917869390E-02
  0.269655358630E-01  0.000000000000E+00  0.235917869390E-02
  0.702822349590E-01  0.105263157890E+00  0.614889880620E-02
  0.702822349590E-01  0.000000000000E+00  0.614889880620E-02
  0.136815198560E+00  0.105263157890E+00  0.119697788720E-01
  0.136815198560E+00  0.000000000000E+00  0.119697788720E-01
  0.232285756820E+00  0.105263157890E+00  0.203223704200E-01
  0.232285756820E+00  0.000000000000E+00  0.203223704200E-01
  0.356709455100E+00  0.105263157890E+00  0.312080334940E-01
  0.356709455100E+00  0.000000000000E+00  0.312080334940E-01
  0.500000000000E+00  0.105263157890E+00  0.437443317630E-01
  0.500000000000E+00  0.000000000000E+00  0.437443317630E-01
  0.643290544900E+00  0.000000000000E+00  0.312080334940E-01
  0.643290544900E+00  0.105263157890E+00  0.312080334940E-01
  0.767714243180E+00  0.000000000000E+00  0.203223704200E-01
  0.767714243180E+00  0.105263157890E+00  0.203223704200E-01
  0.863184801440E+00  0.000000000000E+00  0.119697788720E-01
  0.863184801440E+00  0.105263157890E+00  0.119697788720E-01
  0.929717765040E+00  0.000000000000E+00  0.614889880620E-02
  0.929717765040E+00  0.105263157890E+00  0.614889880620E-02
  0.973034464140E+00  0.000000000000E+00  0.235917869390E-02
  0.973034464140E+00  0.105263157890E+00  0.235917869390E-02
  0.973034464140E+00  0.210526315790E+00 -0.235917869390E-02
  0.100000000000E+01  0.210526315790E+00  0.000000000000E+00
  0.929717765040E+00  0.210526315790E+00 -0.614889880620E-02
  0.863184801440E+00  0.210526315790E+00 -0.119697788720E-01
  0.767714243180E+00  0.210526315790E+00 -0.203223704200E-01
  0.643290544900E+00  0.210526315790E+00 -0.312080334940E-01
  0.500000000000E+00  0.210526315790E+00 -0.437443317630E-01
  0.356709455100E+00  0.210526315790E+00 -0.312080334940E-01
  0.232285756820E+00  0.210526315790E+00 -0.203223704200E-01
  0.136815198560E+00  0.210526315790E+00 -0.119697788720E-01
  0.702822349590E-01  0.210526315790E+00 -0.614889880620E-02
  0.269655358630E-01  0.210526315790E+00 -0.235917869390E-02
  0.000000000000E+00  0.210526315790E+00  0.000000000000E+00
  0.269655358630E-01  0.210526315790E+00  0.235917869390E-02
  0.702822349590E-01  0.210526315790E+00  0.614889880620E-02
  0.136815198560E+00  0.210526315790E+00  0.119697788720E-01
  0.232285756820E+00  0.210526315790E+00  0.203223704200E-01
  0.356709455100E+00  0.210526315790E+00  0.312080334940E-01
  0.500000000000E+00  0.210526315790E+00  0.437443317630E-01
  0.643290544900E+00  0.210526315790E+00  0.312080334940E-01
  0.767714243180E+00  0.210526315790E+00  0.203223704200E-01
  0.863184801440E+00  0.210526315790E+00  0.119697788720E-01
  0.929717765040E+00  0.210526315790E+00  0.614889880620E-02
  0.973034464140E+00  0.210526315790E+00  0.235917869390E-02
  0.973034464140E+00  0.315789473680E+00 -0.235917869390E-02
  0.100000000000E+01  0.315789473680E+00  0.000000000000E+00
  0.929717765040E+00  0.315789473680E+00 -0.614889880620E-02
  0.863184801440E+00  0.315789473680E+00 -0.119697788720E-01
  0.767714243180E+00  0.315789473680E+00 -0.203223704200E-01
  0.643290544900E+00  0.315789473680E+00 -0.312080334940E-01
  0.500000000000E+00  0.315789473680E+00 -0.437443317630E-01
  0.356709455100E+00  0.315789473680E+00 -0.312080334940E-01
  0.232285756820E+00  0.315789473680E+00 -0.203223704200E-01
  0.136815198560E+00  0.315789473680E+00 -0.119697788720E-01
  0.702822349590E-01  0.315789473680E+00 -0.614889880620E-02
  0.269655358630E-01  0.315789473680E+00 -0.235917869390E-02
  0.000000000000E+00  0.315789473680E+00  0.000000000000E+00
  0.269655358630E-01  0.315789473680E+00  0.235917869390E-02
  0.702822349590E-01  0.315789473680E+00  0.614889880620E-02
  0.136815198560E+00  0.315789473680E+00  0.119697788720E-01
  0.232285756820E+00  0.315789473680E+00  0.203223704200E-01
  0.356709455100E+00  0.315789473680E+00  0.312080334940E-01
  0.500000000000E+00  0.315789473680E+00  0.437443317630E-01
  0.643290544900E+00  0.315789473680E+00  0.312080334940E-01
  0.767714243180E+00  0.315789473680E+00  0.203223704200E-01
  0.863184801440E+00  0.315789473680E+00  0.119697788720E-01
  0.929717765040E+00  0.315789473680E+00  0.614889880620E-02
  0.973034464140E+00  0.315789473680E+00  0.235917869390E-02
  0.973034464140E+00  0.421052631580E+00 -0.235917869390E-02
  0.100000000000E+01  0.421052631580E+00  0.000000000000E+00
  0.929717765040E+00  0.421052631580E+00 -0.614889880620E-02
  0.863184801440E+00  0.421052631580E+00 -0.119697788720E-01
  0.767714243180E+00  0.421052631580E+00 -0.203223704200E-01
  0.643290544900E+00  0.421052631580E+00 -0.312080334940E-01
  0.500000000000E+00  0.421052631580E+00 -0.437443317630E-01
  0.356709455100E+00  0.421052631580E+00 -0.312080334940E-01
  0.232285756820E+00  0.421052631580E+00 -0.203223704200E-01
  0.136815198560E+00  0.421052631580E+00 -0.119697788720E-01
  0.702822349590E-01  0.421052631580E+00 -0.614889880620E-02
  0.269655358630E-01  0.421052631580E+00 -0.235917869390E-02
  0.000000000000E+00  0.421052631580E+00  0.000000000000E+00
  0.269655358630E-01  0.421052631580E+00  0.235917869390E-02
  0.702822349590E-01  0.421052631580E+00  0.614889880620E-02
  0.136815198560E+00  0.421052631580E+00  0.119697788720E-01
  0.232285756820E+00  0.421052631580E+00  0.203223704200E-01
  0.356709455100E+00  0.421052631580E+00  0.312080334940E-01
  0.500000000000E+00  0.421052631580E+00  0.437443317630E-01
  0.643290544900E+00  0.421052631580E+00  0.312080334940E-01
  0.767714243180E+00  0.421052631580E+00  0.203223704200E-01
  0.863184801440E+00  0.421052631580E+00  0.119697788720E-01
  0.929717765040E+00  0.421052631580E+00  0.614889880620E-02
  0.973034464140E+00  0.421052631580E+00  0.235917869390E-02
  0.973034464140E+00  0.526315789470E+00 -0.235917869390E-02
  0.100000000000E+01  0.526315789470E+00  0.000000000000E+00
  0.929717765040E+00  0.526315789470E+00 -0.614889880620E-02
  0.863184801440E+00  0.526315789470E+00 -0.119697788720E-01
  0.767714243180E+00  0.526315789470E+00 -0.203223704200E-01
  0.643290544900E+00  0.526315789470E+00 -0.312080334940E-01
  0.500000000000E+00  0.526315789470E+00 -0.437443317630E-01
  0.356709455100E+00  0.526315789470E+00 -0.312080334940E-01
  0.232285756820E+00  0.526315789470E+00 -0.203223704200E-01
  0.136815198560E+00  0.526315789470E+00 -0.119697788720E-01
  0.702822349590E-01  0.526315789470E+00 -0.614889880620E-02
  0.269655358630E-01  0.526315789470E+00 -0.235917869390E-02
  0.000000000000E+00  0.526315789470E+00  0.000000000000E+00
  0.269655358630E-01  0.526315789470E+00  0.235917869390E-02
  0.702822349590E-01  0.526315789470E+00  0.614889880620E-02
  0.136815198560E+00  0.526315789470E+00  0.119697788720E-01
  0.232285756820E+00  0.526315789470E+00  0.203223704200E-01
  0.356709455100E+00  0.526315789470E+00  0.312080334940E-01
  0.500000000000E+00  0.526315789470E+00  0.437443317630E-01
  0.643290544900E+00  0.526315789470E+00  0.312080334940E-01
  0.767714243180E+00  0.526315789470E+00  0.203223704200E-01
  0.863184801440E+00  0.526315789470E+00  0.119697788720E-01
  0.929717765040E+00  0.526315789470E+00  0.614889880620E-02
  0.973034464140E+00  0.526315789470E+00  0.235917869390E-02
  0.973034464140E+00  0.631578947370E+00 -0.235917869390E-02
  0.100000000000E+01  0.631578947370E+00  0.000000000000E+00
  0.929717765040E+00  0.631578947370E+00 -0.614889880620E-02
  0.863184801440E+00  0.631578947370E+00 -0.119697788720E-01
  0.767714243180E+00  0.631578947370E+00 -0.203223704200E-01
  0.643290544900E+00  0.631578947370E+00 -0.312080334940E-01
  0.500000000000E+00  0.631578947370E+00 -0.437443317630E-01
  0.356709455100E+00  0.631578947370E+00 -0.312080334940E-01
  0.232285756820E+00  0.631578947370E+00 -0.203223704200E-01
  0.136815198560E+00  0.631578947370E+00 -0.119697788720E-01
  0.702822349590E-01  0.631578947370E+00 -0.614889880620E-02
  0.269655358630E-01  0.631578947370E+00 -0.235917869390E-02
  0.000000000000E+00  0.631578947370E+00  0.000000000000E+00
  0.269655358630E-01  0.631578947370E+00  0.235917869390E-02
  0.702822349590E-01  0.631578947370E+00  0.614889880620E-02
  0.136815198560E+00  0.631578947370E+00  0.119697788720E-01
  0.232285756820E+00  0.631578947370E+00  0.203223704200E-01
[...]
CELL_DATA                2176
SCALARS C_p_ise float 1
LOOKUP_TABLE default
 -0.117486846892E-01
 -0.117487766807E-01
 -0.117487658635E-01
 -0.117487658635E-01
 -0.117487658682E-01
 -0.117487658682E-01
 -0.117487658665E-01
 -0.117487658664E-01
 -0.117487658708E-01
 -0.117487658708E-01
 -0.117487658672E-01
 -0.117487658672E-01
  0.140409197242E+00
  0.140409197242E+00
  0.140409197244E+00
  0.140409197244E+00
  0.140409197242E+00
  0.140409197242E+00
  0.140409197242E+00
  0.140409197242E+00
  0.140409197243E+00
  0.140409197243E+00
  0.140409197243E+00
  0.140409197243E+00
  0.129658295695E-01
  0.129658295695E-01
  0.129658295706E-01
  0.129658295706E-01
  0.129658295691E-01
  0.129658295691E-01
  0.129658295680E-01
  0.129658295680E-01
  0.129658295732E-01
  0.129658295732E-01
  0.129658295688E-01
  0.129658295688E-01
 -0.737377115976E-01
 -0.737377115976E-01
 -0.737377115993E-01
 -0.737377115993E-01
 -0.737377115973E-01
 -0.737377115973E-01
 -0.737377115981E-01
 -0.737377115981E-01
 -0.737377115959E-01
 -0.737377115959E-01
 -0.737377033203E-01
 -0.737377738067E-01
 -0.117484887797E-01
 -0.117486846892E-01
 -0.117487658635E-01
 -0.117487658635E-01
 -0.117487658682E-01
 -0.117487658682E-01
 -0.117487658665E-01
 -0.117487658665E-01
 -0.117487658708E-01
 -0.117487658708E-01
 -0.117487658672E-01
 -0.117487658672E-01
  0.140409197242E+00
  0.140409197242E+00
  0.140409197244E+00
  0.140409197244E+00
  0.140409197242E+00
  0.140409197242E+00
  0.140409197242E+00
  0.140409197242E+00
  0.140409197243E+00
  0.140409197243E+00
  0.140409197243E+00
  0.140409197243E+00
  0.129658295695E-01
  0.129658295695E-01
  0.129658295706E-01
  0.129658295706E-01
  0.129658295691E-01
  0.129658295691E-01
  0.129658295680E-01
  0.129658295680E-01
  0.129658295732E-01
  0.129658295732E-01
  0.129658295688E-01
  0.129658295688E-01
 -0.737377115976E-01
 -0.737377115976E-01
 -0.737377115993E-01
 -0.737377115993E-01
 -0.737377115973E-01
 -0.737377115973E-01
 -0.737377115981E-01
 -0.737377115981E-01
 -0.737377115959E-01
 -0.737377115959E-01
 -0.737377738067E-01
 -0.737379239174E-01
 -0.117486510904E-01
 -0.117484887797E-01
 -0.117487658635E-01
 -0.117487658635E-01
 -0.117487658682E-01
 -0.117487658682E-01
 -0.117487658664E-01
 -0.117487658665E-01
 -0.117487658708E-01
 -0.117487658708E-01
 -0.117487658672E-01
 -0.117487658672E-01
  0.140409197242E+00
  0.140409197242E+00
  0.140409197244E+00
  0.140409197244E+00
  0.140409197242E+00
  0.140409197242E+00
  0.140409197242E+00
  0.140409197242E+00
  0.140409197243E+00
  0.140409197243E+00
  0.140409197243E+00
  0.140409197243E+00
  0.129658295695E-01
  0.129658295695E-01
  0.129658295706E-01
  0.129658295706E-01
  0.129658295691E-01
  0.129658295691E-01
  0.129658295680E-01
  0.129658295680E-01
  0.129658295732E-01
  0.129658295732E-01
  0.129658295688E-01
  0.129658295688E-01
 -0.737377115976E-01
 -0.737377115976E-01
 -0.737377115993E-01
 -0.737377115993E-01
 -0.737377115973E-01
 -0.737377115973E-01
 -0.737377115981E-01
 -0.737377115981E-01
 -0.737377115959E-01
 -0.737377115959E-01
 -0.737379239174E-01
 -0.737377995509E-01
 -0.117486868063E-01
 -0.117486510903E-01
 -0.117487658635E-01
 -0.117487658635E-01
 -0.117487658682E-01
 -0.117487658682E-01
 -0.117487658664E-01
 -0.117487658664E-01
 -0.117487658708E-01
 -0.117487658708E-01
 -0.117487658672E-01
 -0.117487658672E-01
  0.140409197242E+00
  0.140409197242E+00
  0.140409197244E+00
  0.140409197244E+00
  0.140409197242E+00
  0.140409197242E+00
  0.140409197242E+00
  0.140409197242E+00
  0.140409197243E+00
  0.140409197243E+00
  0.140409197243E+00
  0.140409197243E+00
  0.129658295695E-01
  0.129658295695E-01
  0.129658295706E-01
  0.129658295706E-01
  0.129658295691E-01
  0.129658295691E-01
  0.129658295680E-01
  0.129658295680E-01
  0.129658295732E-01
  0.129658295732E-01
  0.129658295688E-01
  0.129658295688E-01
 -0.737377115976E-01
 -0.737377115976E-01
 -0.737377115993E-01
 -0.737377115993E-01
 -0.737377115973E-01
 -0.737377115973E-01
 -0.737377115981E-01
 -0.737377115981E-01
 -0.737377115959E-01
 -0.737377115959E-01
 -0.737377995509E-01
 -0.737377721844E-01
 -0.117486139217E-01
 -0.117486868063E-01
 -0.117487658635E-01
 -0.117487658635E-01
 -0.117487658682E-01
 -0.117487658682E-01
 -0.117487658665E-01
 -0.117487658664E-01
 -0.117487658708E-01
 -0.117487658708E-01
 -0.117487658672E-01
 -0.117487658672E-01
  0.140409197242E+00
  0.140409197242E+00
  0.140409197244E+00
  0.140409197244E+00
  0.140409197242E+00
  0.140409197242E+00
  0.140409197242E+00
  0.140409197242E+00
  0.140409197243E+00
  0.140409197243E+00
  0.140409197243E+00
  0.140409197243E+00
  0.129658295695E-01
  0.129658295695E-01
  0.129658295706E-01
  0.129658295706E-01
  0.129658295691E-01
  0.129658295691E-01
  0.129658295680E-01
  0.129658295680E-01
  0.129658295732E-01
  0.129658295732E-01
  0.129658295688E-01
  0.129658295688E-01
 -0.737377115976E-01
 -0.737377115976E-01
 -0.737377115993E-01
 -0.737377115993E-01
 -0.737377115973E-01
 -0.737377115973E-01
 -0.737377115981E-01
 -0.737377115981E-01
 -0.737377115959E-01
 -0.737377115959E-01
 -0.737377721844E-01
 -0.737378280305E-01
 -0.117487936199E-01
 -0.117486139217E-01
 -0.117487658635E-01
 -0.117487658635E-01
 -0.117487658682E-01
 -0.117487658682E-01
 -0.117487658665E-01
 -0.117487658665E-01
 -0.117487658708E-01
 -0.117487658708E-01
 -0.117487658672E-01
 -0.117487658672E-01
  0.140409197242E+00
  0.140409197242E+00
  0.140409197244E+00
  0.140409197244E+00
  0.140409197242E+00
  0.140409197242E+00
  0.140409197242E+00
  0.140409197242E+00
  0.140409197243E+00
  0.140409197243E+00
  0.140409197243E+00
  0.140409197243E+00
  0.129658295695E-01
  0.129658295695E-01
  0.129658295706E-01
  0.129658295706E-01
  0.129658295691E-01
  0.129658295691E-01
  0.129658295680E-01
  0.129658295680E-01
  0.129658295732E-01
  0.129658295732E-01
  0.129658295688E-01
  0.129658295688E-01
 -0.737377115976E-01
 -0.737377115976E-01
 -0.737377115993E-01
 -0.737377115993E-01
 -0.737377115973E-01
 -0.737377115973E-01
 -0.737377115981E-01
 -0.737377115981E-01
 -0.737377115959E-01
 -0.737377115959E-01
 -0.737378280305E-01
 -0.737376903410E-01
 -0.117487277671E-01
 -0.117487936199E-01
 -0.117487658641E-01
 -0.117487658635E-01
 -0.117487658684E-01
 -0.117487658682E-01
 -0.117487658665E-01
 -0.117487658665E-01
 -0.117487658708E-01
 -0.117487658708E-01
 -0.117487658672E-01
 -0.117487658672E-01
  0.140409197242E+00
  0.140409197242E+00
  0.140409197244E+00
  0.140409197244E+00
  0.140409197242E+00
  0.140409197242E+00
  0.140409197242E+00
  0.140409197242E+00
  0.140409197243E+00
  0.140409197243E+00
  0.140409197243E+00
  0.140409197243E+00
  0.129658295695E-01
  0.129658295695E-01
  0.129658295706E-01
  0.129658295706E-01
  0.129658295691E-01
  0.129658295691E-01
  0.129658295680E-01
  0.129658295680E-01
  0.129658295732E-01
  0.129658295732E-01
  0.129658295688E-01
  0.129658295688E-01
 -0.737377115976E-01
 -0.737377115976E-01
 -0.737377115993E-01
 -0.737377115993E-01
 -0.737377115973E-01
 -0.737377115973E-01
 -0.737377115981E-01
 -0.737377115980E-01
 -0.737377115959E-01
 -0.737377115954E-01
 -0.737376903410E-01
 -0.737377407992E-01
 -0.117486743408E-01
 -0.117487277671E-01
 -0.117487658766E-01
 -0.117487658641E-01
 -0.117487658714E-01
 -0.117487658684E-01
 -0.117487658677E-01
 -0.117487658665E-01
 -0.117487658709E-01
 -0.117487658708E-01
 -0.117487658672E-01
 -0.117487658672E-01
  0.140409197242E+00
  0.140409197242E+00
  0.140409197244E+00
  0.140409197244E+00
  0.140409197242E+00
  0.140409197242E+00
  0.140409197242E+00
  0.140409197242E+00
  0.140409197243E+00
  0.140409197243E+00
  0.140409197243E+00
  0.140409197243E+00
  0.129658295695E-01
  0.129658295695E-01
  0.129658295706E-01
  0.129658295706E-01
  0.129658295691E-01
  0.129658295691E-01
  0.129658295680E-01
  0.129658295680E-01
  0.129658295732E-01
  0.129658295732E-01
  0.129658295689E-01
  0.129658295688E-01
 -0.737377115976E-01
 -0.737377115976E-01
 -0.737377115993E-01
 -0.737377115990E-01
 -0.737377115973E-01
 -0.737377115967E-01
 -0.737377115980E-01
 -0.737377115949E-01
 -0.737377115954E-01
 -0.737377115861E-01
 -0.737377407992E-01
 -0.737377817365E-01
 -0.117486499109E-01
 -0.117486743408E-01
 -0.117487661185E-01
 -0.117487658766E-01
 -0.117487659307E-01
 -0.117487658714E-01
 -0.117487658910E-01
 -0.117487658677E-01
 -0.117487658737E-01
 -0.117487658709E-01
 -0.117487658689E-01
 -0.117487658672E-01
  0.140409197242E+00
  0.140409197242E+00
  0.140409197244E+00
  0.140409197244E+00
  0.140409197242E+00
  0.140409197242E+00
  0.140409197242E+00
  0.140409197242E+00
  0.140409197243E+00
  0.140409197243E+00
  0.140409197243E+00
  0.140409197243E+00
  0.129658295695E-01
  0.129658295695E-01
  0.129658295706E-01
  0.129658295706E-01
  0.129658295691E-01
  0.129658295691E-01
  0.129658295680E-01
  0.129658295680E-01
  0.129658295733E-01
  0.129658295732E-01
  0.129658295695E-01
  0.129658295689E-01
 -0.737377115976E-01
 -0.737377115962E-01
 -0.737377115990E-01
 -0.737377115932E-01
 -0.737377115967E-01
 -0.737377115850E-01
 -0.737377115949E-01
 -0.737377115349E-01
 -0.737377115861E-01
 -0.737377114061E-01
 -0.737377817365E-01
 -0.737378004679E-01
 -0.117487825391E-01
 -0.117486499109E-01
 -0.117487705812E-01
 -0.117487661185E-01
 -0.117487670670E-01
 -0.117487659307E-01
 -0.117487663450E-01
 -0.117487658910E-01
 -0.117487659316E-01
 -0.117487658737E-01
 -0.117487659027E-01
 -0.117487658689E-01
  0.140409197242E+00
  0.140409197235E+00
  0.140409197244E+00
  0.140409197242E+00
  0.140409197242E+00
  0.140409197241E+00
  0.140409197242E+00
  0.140409197242E+00
  0.140409197243E+00
  0.140409197243E+00
  0.140409197243E+00
  0.140409197243E+00
  0.129658295695E-01
  0.129658295695E-01
  0.129658295707E-01
  0.129658295706E-01
  0.129658295695E-01
  0.129658295691E-01
  0.129658295691E-01
  0.129658295680E-01
  0.129658295759E-01
  0.129658295733E-01
  0.129658295820E-01
  0.129658295695E-01
 -0.737377115962E-01
 -0.737377115696E-01
 -0.737377115932E-01
 -0.737377114804E-01
 -0.737377115850E-01
 -0.737377113588E-01
 -0.737377115349E-01
 -0.737377103784E-01
 -0.737377114061E-01
 -0.737377080406E-01
 -0.737378004679E-01
 -0.737376990672E-01
 -0.117497609067E-01
 -0.117487825391E-01
 -0.117488495949E-01
 -0.117487705812E-01
 -0.117487881626E-01
 -0.117487670670E-01
 -0.117487748626E-01
 -0.117487663450E-01
 -0.117487669932E-01
 -0.117487659316E-01
 -0.117487665521E-01
 -0.117487659027E-01
  0.140409197235E+00
  0.140409197101E+00
  0.140409197242E+00
  0.140409197193E+00
  0.140409197241E+00
  0.140409197227E+00
  0.140409197242E+00
  0.140409197238E+00
  0.140409197243E+00
  0.140409197241E+00
  0.140409197243E+00
  0.140409197242E+00
  0.129658295700E-01
  0.129658295695E-01
  0.129658295735E-01
  0.129658295707E-01
  0.129658295765E-01
  0.129658295695E-01
  0.129658295904E-01
  0.129658295691E-01
  0.129658296274E-01
  0.129658295759E-01
  0.129658298308E-01
  0.129658295820E-01
 -0.737377115696E-01
 -0.737377110414E-01
 -0.737377114804E-01
 -0.737377092488E-01
 -0.737377113588E-01
 -0.737377070027E-01
 -0.737377103784E-01
 -0.737376901654E-01
 -0.737377080406E-01
 -0.737376502728E-01
 -0.737376990672E-01
 -0.737369536190E-01
 -0.117636929008E-01
 -0.117497609069E-01
 -0.117500716561E-01
 -0.117488495949E-01
 -0.117491342543E-01
 -0.117487881627E-01
 -0.117489231821E-01
 -0.117487748626E-01
 -0.117487890714E-01
 -0.117487669932E-01
 -0.117487790261E-01
 -0.117487665521E-01
  0.140409197101E+00
  0.140409194542E+00
  0.140409197193E+00
  0.140409196262E+00
  0.140409197227E+00
  0.140409196949E+00
  0.140409197238E+00
  0.140409197156E+00
  0.140409197241E+00
  0.140409197194E+00
  0.140409197242E+00
  0.140409197232E+00
  0.129658295808E-01
  0.129658295700E-01
  0.129658296315E-01
  0.129658295735E-01
  0.129658297211E-01
  0.129658295765E-01
  0.129658300227E-01
  0.129658295904E-01
  0.129658306559E-01
  0.129658296274E-01
  0.129658346596E-01
  0.129658298308E-01
 -0.737377110414E-01
 -0.737377016765E-01
 -0.737377092488E-01
 -0.737376717493E-01
 -0.737377070027E-01
 -0.737376304332E-01
 -0.737376901654E-01
 -0.737373325845E-01
 -0.737376502728E-01
 -0.737367015680E-01
 -0.737369536191E-01
 -0.737263621698E-01
 -0.119199001077E-01
 -0.117636929470E-01
 -0.117676536398E-01
 -0.117500716678E-01
 -0.117551015586E-01
 -0.117491342566E-01
 -0.117513805909E-01
 -0.117489231823E-01
 -0.117491180322E-01
 -0.117487890715E-01
 -0.117489862066E-01
 -0.117487790261E-01
  0.140409194542E+00
  0.140409145613E+00
  0.140409196262E+00
  0.140409177944E+00
  0.140409196949E+00
  0.140409191353E+00
  0.140409197156E+00
  0.140409195471E+00
  0.140409197194E+00
  0.140409196232E+00
  0.140409197232E+00
  0.140409197013E+00
  0.129658298196E-01
  0.129658295808E-01
  0.129658308094E-01
  0.129658296315E-01
  0.129658325792E-01
  0.129658297211E-01
  0.129658382097E-01
  0.129658300227E-01
  0.129658494860E-01
  0.129658306559E-01
  0.129659223874E-01
  0.129658346596E-01
 -0.737377016765E-01
 -0.737375209021E-01
 -0.737376717493E-01
 -0.737369651871E-01
 -0.737376304336E-01
 -0.737364239724E-01
 -0.737373325861E-01
 -0.737326551352E-01
 -0.737367015761E-01
 -0.737245369189E-01
 -0.737263621979E-01
 -0.736066992269E-01
 -0.131506365849E-01
 -0.119199048218E-01
 -0.119319161062E-01
 -0.117676551399E-01
 -0.118103836654E-01
 -0.117551020077E-01
 -0.117820802687E-01
 -0.117513806403E-01
 -0.117554617554E-01
 -0.117491180432E-01
 -0.117527480185E-01
 -0.117489862071E-01
  0.140409145612E+00
  0.140408334601E+00
  0.140409177944E+00
  0.140408875053E+00
  0.140409191353E+00
  0.140409088908E+00
  0.140409195471E+00
  0.140409162950E+00
  0.140409196232E+00
  0.140409177242E+00
  0.140409197013E+00
  0.140409192148E+00
  0.129658351300E-01
  0.129658298196E-01
  0.129658548956E-01
  0.129658308094E-01
  0.129658899233E-01
  0.129658325792E-01
  0.129659992645E-01
  0.129658382097E-01
  0.129662130482E-01
  0.129658494859E-01
  0.129674574956E-01
  0.129659223857E-01
 -0.737375209031E-01
 -0.737351905458E-01
 -0.737369651945E-01
 -0.737279954641E-01
 -0.737364240451E-01
 -0.737139931309E-01
 -0.737326555194E-01
 -0.736641468607E-01
 -0.737245387911E-01
 -0.736016685686E-01
 -0.736067038301E-01
 -0.726997347173E-01
 -0.185608043111E-01
 -0.131510560481E-01
 -0.126457591035E-01
 -0.119322026422E-01
 -0.125569289099E-01
 -0.118104710869E-01
 -0.122115257376E-01
 -0.117820894986E-01
 -0.118523444291E-01
 -0.117554632817E-01
 -0.117912717020E-01
 -0.117527481720E-01
  0.140408334328E+00
  0.140394586746E+00
  0.140408875023E+00
  0.140403059632E+00
  0.140409088906E+00
  0.140407075596E+00
  0.140409162949E+00
  0.140408512022E+00
  0.140409177242E+00
  0.140408787797E+00
  0.140409192148E+00
  0.140409083435E+00
  0.129659522793E-01
  0.129658351300E-01
  0.129663063413E-01
  0.129658548956E-01
  0.129668950384E-01
  0.129658899232E-01
  0.129684962037E-01
  0.129659992622E-01
  0.129714693500E-01
  0.129662130272E-01
  0.129907078815E-01
  0.129674570905E-01
 -0.737351907833E-01
 -0.736890188171E-01
 -0.737279979141E-01
 -0.736264533167E-01
 -0.737140062600E-01
 -0.736595282220E-01
 -0.736641655477E-01
 -0.733231822129E-01
 -0.736017321261E-01
 -0.724750054851E-01
 -0.726999634354E-01
 -0.680062118763E-01
 -0.427093527923E-01
 -0.185870660211E-01
 -0.246222143587E-01
 -0.126530934962E-01
 -0.204108584602E-01
 -0.125566792728E-01
 -0.113900645584E-01
 -0.122117797498E-01
 -0.117394065997E-01
 -0.118527633192E-01
 -0.124989363189E-01
 -0.117912958329E-01
  0.140394544060E+00
  0.140215396897E+00
  0.140403055712E+00
  0.140342909475E+00
  0.140407075170E+00
  0.140379566782E+00
  0.140408511987E+00
  0.140397967113E+00
  0.140408787793E+00
  0.140402174838E+00
  0.140409083435E+00
  0.140406728663E+00
  0.129686123947E-01
  0.129659522792E-01
  0.129756309141E-01
  0.129663063363E-01
  0.129872211489E-01
  0.129668949656E-01
  0.130179294282E-01
  0.129684952705E-01
  0.130678089925E-01
  0.129714618737E-01
  0.132723348335E-01
  0.129906324429E-01
 -0.736890619712E-01
 -0.734792223937E-01
 -0.736265773993E-01
 -0.719659961441E-01
 -0.736616005751E-01
 -0.699937259132E-01
 -0.733337841137E-01
 -0.763411433372E-01
 -0.724796547836E-01
 -0.757791936824E-01
 -0.680070123416E-01
 -0.617715337542E-01
 -0.840285101907E-01
 -0.434173883825E-01
 -0.391523604123E-01
 -0.252828413916E-01
 -0.431397783719E-01
 -0.207581193811E-01
 -0.272115629742E-01
 -0.115298090551E-01
 -0.298673429630E-01
 -0.117392646250E-01
 -0.110458557130E-01
 -0.125006420746E-01
  0.140211846057E+00
  0.139374267979E+00
  0.140341443686E+00
  0.139225959641E+00
  0.140379380578E+00
  0.139811498926E+00
  0.140397950905E+00
  0.140176711566E+00
  0.140402172837E+00
  0.140253592137E+00
  0.140406728589E+00
  0.140349723529E+00
  0.130228627725E-01
  0.129686123481E-01
  0.131050486693E-01
  0.129756298265E-01
  0.132138995311E-01
  0.129872104771E-01
  0.134023535587E-01
  0.130178541658E-01
  0.139072446194E-01
  0.130672306270E-01
  0.170790748668E-01
  0.132615281528E-01
 -0.734856347672E-01
 -0.729068518383E-01
 -0.719729495510E-01
 -0.821967640296E-01
 -0.699976187678E-01
 -0.704882043687E-01
 -0.763523059759E-01
 -0.769113499859E-01
 -0.757947112960E-01
 -0.704755437636E-01
 -0.617758628553E-01
 -0.304352559370E-01
 -0.149828460686E+00
 -0.859149158527E-01
 -0.594813645829E-01
 -0.417108742198E-01
 -0.602297908447E-01
 -0.452149349788E-01
 -0.460736762629E-01
 -0.289985910994E-01
 -0.461851074774E-01
 -0.310633815724E-01
 -0.374571637921E-01
 -0.114324422965E-01
  0.138736834289E+00
  0.114749296754E+00
  0.139194474547E+00
  0.134297816676E+00
  0.139806662816E+00
  0.137629192893E+00
  0.140175639011E+00
  0.138532605967E+00
  0.140253412907E+00
  0.139060396503E+00
  0.140349705673E+00
  0.139466260956E+00
  0.146204133821E-01
  0.130228226023E-01
  0.164867751892E-01
  0.131042748349E-01
  0.188546275980E-01
  0.132070728386E-01
  0.216604132580E-01
  0.133634353211E-01
  0.115531301129E-01
  0.138833319815E-01
  0.267464978179E-02
  0.170558201117E-01
 -0.729121328113E-01
 -0.736543508174E-01
 -0.822006932494E-01
 -0.791176699793E-01
 -0.704766017776E-01
 -0.713511195662E-01
 -0.769008099361E-01
 -0.671388081417E-01
 -0.704665911682E-01
 -0.368463861649E-01
 -0.305120332416E-01
  0.194408680399E+00
 -0.147377788369E+00
 -0.150298107613E+00
 -0.106895249106E+00
 -0.626075190600E-01
 -0.726457847113E-01
 -0.632341580526E-01
 -0.531578503378E-01
 -0.496782335240E-01
 -0.395934088532E-01
 -0.516567405712E-01
 -0.513364011088E-01
 -0.429916962779E-01
  0.102645002296E+00
  0.817579863599E-01
  0.125607671772E+00
  0.863911358970E-01
  0.133626215089E+00
  0.883937649764E-01
  0.137090662764E+00
  0.888069356373E-01
  0.138671360897E+00
  0.888555990345E-01
  0.139408049425E+00
  0.887028945152E-01
  0.186482000523E-01
  0.146201615127E-01
  0.174340113883E-01
  0.164863344027E-01
  0.155782895074E-01
  0.188553196042E-01
  0.126817142836E-01
  0.216487148649E-01
  0.882612288113E-02
  0.115575339785E-01
  0.105651901424E-01
  0.269731479062E-02
 -0.736358190239E-01
 -0.653264418655E-01
 -0.791444214052E-01
 -0.235700293349E-01
 -0.729249089181E-01
  0.633685177410E-02
 -0.730406087427E-01
  0.360044687926E-01
 -0.517774926188E-01
  0.795927824687E-01
  0.148133972507E+00
  0.182685916158E+00
 -0.158730090559E+00
 -0.157796798581E+00
 -0.139420730557E+00
 -0.127759263784E+00
 -0.974380467600E-01
 -0.865448780348E-01
 -0.722043846304E-01
 -0.646971630449E-01
 -0.534460616514E-01
 -0.632914415120E-01
 -0.628732141373E-01
  0.445709847947E-01
  0.448057633154E-01
  0.454619331939E-01
  0.460368239166E-01
  0.462336694764E-01
  0.468315231095E-01
  0.467135617456E-01
  0.471019072202E-01
  0.470602115430E-01
  0.474087940817E-01
  0.473391886589E-01
  0.184247704145E-01
  0.176348850270E-01
  0.173075154036E-01
  0.162954275616E-01
  0.155489219010E-01
  0.142043192656E-01
  0.126693006279E-01
  0.114054856660E-01
  0.858146153081E-02
  0.882703148642E-02
  0.104968892253E-01
 -0.667355938841E-01
 -0.616577190379E-01
 -0.347941550042E-01