# vtk DataFile Version 3.0
MachLine results file. Generated by MachLine, USU AeroLab (c) 2022.
ASCII
DATASET POLYDATA
POINTS                 419 float
  0.100000000000E+01  0.000000000000E+00  0.000000000000E+00
  0.953837434700E+00  0.222222222220E+00 -0.403870114270E-02
  0.100000000000E+01  0.222222222220E+00  0.000000000000E+00
  0.953837434700E+00  0.000000000000E+00 -0.403870114270E-02
  0.863184801440E+00  0.222222222220E+00 -0.119697788720E-01
  0.863184801440E+00  0.000000000000E+00 -0.119697788720E-01
  0.708754398800E+00  0.222222222220E+00 -0.254806884070E-01
  0.708754398800E+00  0.000000000000E+00 -0.254806884070E-01
  0.500000000000E+00  0.222222222220E+00 -0.437443317630E-01
  0.500000000000E+00  0.000000000000E+00 -0.437443317630E-01
  0.291245601200E+00  0.000000000000E+00 -0.254806884070E-01
  0.291245601200E+00  0.222222222220E+00 -0.254806884070E-01
  0.136815198560E+00  0.000000000000E+00 -0.119697788720E-01
  0.136815198560E+00  0.222222222220E+00 -0.119697788720E-01
  0.461625652960E-01  0.000000000000E+00 -0.403870114270E-02
  0.461625652960E-01  0.222222222220E+00 -0.403870114270E-02
  0.000000000000E+00  0.000000000000E+00  0.000000000000E+00
  0.000000000000E+00  0.222222222220E+00  0.000000000000E+00
  0.461625652960E-01  0.222222222220E+00  0.403870114270E-02
  0.461625652960E-01  0.000000000000E+00  0.403870114270E-02
  0.136815198560E+00  0.222222222220E+00  0.119697788720E-01
  0.136815198560E+00  0.000000000000E+00  0.119697788720E-01
  0.291245601200E+00  0.222222222220E+00  0.254806884070E-01
  0.291245601200E+00  0.000000000000E+00  0.254806884070E-01
  0.500000000000E+00  0.222222222220E+00  0.437443317630E-01
  0.500000000000E+00  0.000000000000E+00  0.437443317630E-01
  0.708754398800E+00  0.000000000000E+00  0.254806884070E-01
  0.708754398800E+00  0.222222222220E+00  0.254806884070E-01
  0.863184801440E+00  0.000000000000E+00  0.119697788720E-01
  0.863184801440E+00  0.222222222220E+00  0.119697788720E-01
  0.953837434700E+00  0.000000000000E+00  0.403870114270E-02
  0.953837434700E+00  0.222222222220E+00  0.403870114270E-02
  0.953837434700E+00  0.444444444440E+00 -0.403870114270E-02
  0.100000000000E+01  0.444444444440E+00  0.000000000000E+00
  0.863184801440E+00  0.444444444440E+00 -0.119697788720E-01
  0.708754398800E+00  0.444444444440E+00 -0.254806884070E-01
  0.500000000000E+00  0.444444444440E+00 -0.437443317630E-01
  0.291245601200E+00  0.444444444440E+00 -0.254806884070E-01
  0.136815198560E+00  0.444444444440E+00 -0.119697788720E-01
  0.461625652960E-01  0.444444444440E+00 -0.403870114270E-02
  0.000000000000E+00  0.444444444440E+00  0.000000000000E+00
  0.461625652960E-01  0.444444444440E+00  0.403870114270E-02
  0.136815198560E+00  0.444444444440E+00  0.119697788720E-01
  0.291245601200E+00  0.444444444440E+00  0.254806884070E-01
  0.500000000000E+00  0.444444444440E+00  0.437443317630E-01
  0.708754398800E+00  0.444444444440E+00  0.254806884070E-01
  0.863184801440E+00  0.444444444440E+00  0.119697788720E-01
  0.953837434700E+00  0.444444444440E+00  0.403870114270E-02
  0.953837434700E+00  0.666666666670E+00 -0.403870114270E-02
  0.100000000000E+01  0.666666666670E+00  0.000000000000E+00
  0.863184801440E+00  0.666666666670E+00 -0.119697788720E-01
  0.708754398800E+00  0.666666666670E+00 -0.254806884070E-01
  0.500000000000E+00  0.666666666670E+00 -0.437443317630E-01
  0.291245601200E+00  0.666666666670E+00 -0.254806884070E-01
  0.136815198560E+00  0.666666666670E+00 -0.119697788720E-01
  0.461625652960E-01  0.666666666670E+00 -0.403870114270E-02
  0.000000000000E+00  0.666666666670E+00  0.000000000000E+00
  0.461625652960E-01  0.666666666670E+00  0.403870114270E-02
  0.136815198560E+00  0.666666666670E+00  0.119697788720E-01
  0.291245601200E+00  0.666666666670E+00  0.254806884070E-01
  0.500000000000E+00  0.666666666670E+00  0.437443317630E-01
  0.708754398800E+00  0.666666666670E+00  0.254806884070E-01
  0.863184801440E+00  0.666666666670E+00  0.119697788720E-01
  0.953837434700E+00  0.666666666670E+00  0.403870114270E-02
  0.953837434700E+00  0.888888888890E+00 -0.403870114270E-02
  0.100000000000E+01  0.888888888890E+00  0.000000000000E+00
  0.863184801440E+00  0.888888888890E+00 -0.119697788720E-01
  0.708754398800E+00  0.888888888890E+00 -0.254806884070E-01
  0.500000000000E+00  0.888888888890E+00 -0.437443317630E-01
  0.291245601200E+00  0.888888888890E+00 -0.254806884070E-01
  0.136815198560E+00  0.888888888890E+00 -0.119697788720E-01
  0.461625652960E-01  0.888888888890E+00 -0.403870114270E-02
  0.000000000000E+00  0.888888888890E+00  0.000000000000E+00
  0.461625652960E-01  0.888888888890E+00  0.403870114270E-02
  0.136815198560E+00  0.888888888890E+00  0.119697788720E-01
  0.291245601200E+00  0.888888888890E+00  0.254806884070E-01
  0.500000000000E+00  0.888888888890E+00  0.437443317630E-01
  0.708754398800E+00  0.888888888890E+00  0.254806884070E-01
  0.863184801440E+00  0.888888888890E+00  0.119697788720E-01
  0.953837434700E+00  0.888888888890E+00  0.403870114270E-02
  0.953837434700E+00  0.111111111110E+01 -0.403870114270E-02
  0.100000000000E+01  0.111111111110E+01  0.000000000000E+00
  0.863184801440E+00  0.111111111110E+01 -0.119697788720E-01
  0.708754398800E+00  0.111111111110E+01 -0.254806884070E-01
  0.500000000000E+00  0.111111111110E+01 -0.437443317630E-01
  0.291245601200E+00  0.111111111110E+01 -0.254806884070E-01
  0.136815198560E+00  0.111111111110E+01 -0.119697788720E-01
  0.461625652960E-01  0.111111111110E+01 -0.403870114270E-02
  0.000000000000E+00  0.111111111110E+01  0.000000000000E+00
  0.461625652960E-01  0.111111111110E+01  0.403870114270E-02
  0.136815198560E+00  0.111111111110E+01  0.119697788720E-01
  0.291245601200E+00  0.111111111110E+01  0.254806884070E-01
  0.500000000000E+00  0.111111111110E+01  0.437443317630E-01
  0.708754398800E+00  0.111111111110E+01  0.254806884070E-01
  0.863184801440E+00  0.111111111110E+01  0.119697788720E-01
  0.953837434700E+00  0.111111111110E+01  0.403870114270E-02
  0.953837434700E+00  0.133333333330E+01 -0.403870114270E-02
  0.100000000000E+01  0.133333333330E+01  0.000000000000E+00
  0.863184801440E+00  0.133333333330E+01 -0.119697788720E-01
  0.708754398800E+00  0.133333333330E+01 -0.254806884070E-01
  0.500000000000E+00  0.133333333330E+01 -0.437443317630E-01
  0.291245601200E+00  0.133333333330E+01 -0.254806884070E-01
  0.136815198560E+00  0.133333333330E+01 -0.119697788720E-01
  0.461625652960E-01  0.133333333330E+01 -0.403870114270E-02
  0.000000000000E+00  0.133333333330E+01  0.000000000000E+00
  0.461625652960E-01  0.133333333330E+01  0.403870114270E-02
  0.136815198560E+00  0.133333333330E+01  0.119697788720E-01
  0.291245601200E+00  0.133333333330E+01  0.254806884070E-01
  0.500000000000E+00  0.133333333330E+01  0.437443317630E-01
  0.708754398800E+00  0.133333333330E+01  0.254806884070E-01
  0.863184801440E+00  0.133333333330E+01  0.119697788720E-01
  0.953837434700E+00  0.133333333330E+01  0.403870114270E-02
  0.953837434700E+00  0.155555555560E+01 -0.403870114270E-02
  0.100000000000E+01  0.155555555560E+01  0.000000000000E+00
  0.863184801440E+00  0.155555555560E+01 -0.119697788720E-01
  0.708754398800E+00  0.155555555560E+01 -0.254806884070E-01
  0.500000000000E+00  0.155555555560E+01 -0.437443317630E-01
  0.291245601200E+00  0.155555555560E+01 -0.254806884070E-01
  0.136815198560E+00  0.155555555560E+01 -0.119697788720E-01
  0.461625652960E-01  0.155555555560E+01 -0.403870114270E-02
  0.000000000000E+00  0.155555555560E+01  0.000000000000E+00
  0.461625652960E-01  0.155555555560E+01  0.403870114270E-02
  0.136815198560E+00  0.155555555560E+01  0.119697788720E-01
  0.291245601200E+00  0.155555555560E+01  0.254806884070E-01
  0.500000000000E+00  0.155555555560E+01  0.437443317630E-01
  0.708754398800E+00  0.155555555560E+01  0.254806884070E-01
  0.863184801440E+00  0.155555555560E+01  0.119697788720E-01
  0.953837434700E+00  0.155555555560E+01  0.403870114270E-02
  0.953837434700E+00  0.177777777780E+01 -0.403870114270E-02
  0.100000000000E+01  0.177777777780E+01  0.000000000000E+00
  0.863184801440E+00  0.177777777780E+01 -0.119697788720E-01
  0.708754398800E+00  0.177777777780E+01 -0.254806884070E-01
  0.500000000000E+00  0.177777777780E+01 -0.437443317630E-01
  0.291245601200E+00  0.177777777780E+01 -0.254806884070E-01
  0.136815198560E+00  0.177777777780E+01 -0.119697788720E-01
  0.461625652960E-01  0.177777777780E+01 -0.403870114270E-02
  0.000000000000E+00  0.177777777780E+01  0.000000000000E+00
  0.461625652960E-01  0.177777777780E+01  0.403870114270E-02
  0.136815198560E+00  0.177777777780E+01  0.119697788720E-01
  0.291245601200E+00  0.177777777780E+01  0.254806884070E-01
  0.500000000000E+00  0.177777777780E+01  0.437443317630E-01
  0.708754398800E+00  0.177777777780E+01  0.254806884070E-01
  0.863184801440E+00  0.177777777780E+01  0.119697788720E-01
  0.953837434700E+00  0.177777777780E+01  0.403870114270E-02
  0.953837434700E+00  0.200000000000E+01 -0.403870114270E-02
  0.100000000000E+01  0.200000000000E+01  0.000000000000E+00
  0.863184801440E+00  0.200000000000E+01 -0.119697788720E-01
  0.708754398800E+00  0.200000000000E+01 -0.254806884070E-01
  0.500000000000E+00  0.200000000000E+01 -0.437443317630E-01
  0.291245601200E+00  0.200000000000E+01 -0.254806884070E-01
  0.136815198560E+00  0.200000000000E+01 -0.119697788720E-01
  0.461625652960E-01  0.200000000000E+01 -0.403870114270E-02
  0.000000000000E+00  0.200000000000E+01  0.000000000000E+00
  0.461625652960E-01  0.200000000000E+01  0.403870114270E-02
  0.136815198560E+00  0.200000000000E+01  0.119697788720E-01
  0.291245601200E+00  0.200000000000E+01  0.254806884070E-01
  0.500000000000E+00  0.200000000000E+01  0.437443317630E-01
  0.708754398800E+00  0.200000000000E+01  0.254806884070E-01
  0.863184801440E+00  0.200000000000E+01  0.119697788720E-01
  0.953837434700E+00  0.200000000000E+01  0.403870114270E-02
  0.953837434700E+00  0.200157141480E+01 -0.372111000410E-02
[...]
CELL_DATA                 800
SCALARS C_p_ise float 1
LOOKUP_TABLE default
 -0.320044728819E-01
 -0.320045070368E-01
 -0.320045091130E-01
 -0.320045084773E-01
 -0.320045085441E-01
 -0.320045084045E-01
 -0.320045084562E-01
 -0.320045083904E-01
  0.114426811027E+00
  0.114426811004E+00
  0.114426811031E+00
  0.114426811018E+00
  0.114426811030E+00
  0.114426811028E+00
  0.114426811031E+00
  0.114426811031E+00
  0.428375013396E-01
  0.428375013396E-01
  0.428375013401E-01
  0.428375013385E-01
  0.428375013557E-01
  0.428375013422E-01
  0.428375013729E-01
  0.428375013422E-01
 -0.623357059891E-01
 -0.623357059562E-01
 -0.623357059699E-01
 -0.623357057952E-01
 -0.623357059209E-01
 -0.623357054117E-01
 -0.623357071654E-01
 -0.623357369107E-01
 -0.320046025529E-01
 -0.320044728819E-01
 -0.320045199966E-01
 -0.320045091130E-01
 -0.320045110315E-01
 -0.320045085441E-01
 -0.320045095612E-01
 -0.320045084562E-01
  0.114426811004E+00
  0.114426810590E+00
  0.114426811018E+00
  0.114426810793E+00
  0.114426811028E+00
  0.114426810993E+00
  0.114426811031E+00
  0.114426811029E+00
  0.428375013416E-01
  0.428375013396E-01
  0.428375013752E-01
  0.428375013401E-01
  0.428375016107E-01
  0.428375013557E-01
  0.428375019425E-01
  0.428375013729E-01
 -0.623357059562E-01
 -0.623357053403E-01
 -0.623357057952E-01
 -0.623357027376E-01
 -0.623357054117E-01
 -0.623356969288E-01
 -0.623357369107E-01
 -0.623356249036E-01
 -0.320064555463E-01
 -0.320046025529E-01
 -0.320046796226E-01
 -0.320045199966E-01
 -0.320045491898E-01
 -0.320045110315E-01
 -0.320045286577E-01
 -0.320045095612E-01
  0.114426810590E+00
  0.114426803408E+00
  0.114426810793E+00
  0.114426806772E+00
  0.114426810993E+00
  0.114426810296E+00
  0.114426811029E+00
  0.114426810977E+00
  0.428375013916E-01
  0.428375013416E-01
  0.428375020655E-01
  0.428375013752E-01
  0.428375057109E-01
  0.428375016107E-01
  0.428375108327E-01
  0.428375019425E-01
 -0.623357053403E-01
 -0.623356960064E-01
 -0.623357027376E-01
 -0.623356560888E-01
 -0.623356969288E-01
 -0.623355650733E-01
 -0.623356249036E-01
 -0.623340131184E-01
 -0.320297210245E-01
 -0.320064555471E-01
 -0.320069742485E-01
 -0.320046796228E-01
 -0.320051393990E-01
 -0.320045491898E-01
 -0.320047739742E-01
 -0.320045286577E-01
  0.114426803408E+00
  0.114426696548E+00
  0.114426806772E+00
  0.114426746808E+00
  0.114426810296E+00
  0.114426797023E+00
  0.114426810977E+00
  0.114426809623E+00
  0.428375026960E-01
  0.428375013916E-01
  0.428375159430E-01
  0.428375020655E-01
  0.428375787550E-01
  0.428375057109E-01
  0.428376641729E-01
  0.428375108326E-01
 -0.623356960064E-01
 -0.623355322166E-01
 -0.623356560888E-01
 -0.623349689665E-01
 -0.623355650734E-01
 -0.623338654964E-01
 -0.623340131190E-01
 -0.623140811496E-01
 -0.322781286393E-01
 -0.320297211372E-01
 -0.320315990327E-01
 -0.320069742815E-01
 -0.320122123493E-01
 -0.320051394090E-01
 -0.320092485567E-01
 -0.320047739751E-01
  0.114426696546E+00
  0.114424856827E+00
  0.114426746808E+00
  0.114425643705E+00
  0.114426797023E+00
  0.114426526146E+00
  0.114426809623E+00
  0.114426774046E+00
  0.428375363165E-01
  0.428375026960E-01
  0.428377643658E-01
  0.428375159430E-01
  0.428385353054E-01
  0.428375787549E-01
  0.428395415811E-01
  0.428376641714E-01
 -0.623355322174E-01
 -0.623336984916E-01
 -0.623349689698E-01
 -0.623262100956E-01
 -0.623338655234E-01
 -0.623103592192E-01
 -0.623140812520E-01
 -0.620943679166E-01
 -0.342795108012E-01
 -0.322781449423E-01
 -0.323523482759E-01
 -0.320316029684E-01
 -0.321184199635E-01
 -0.320122129102E-01
 -0.320373514444E-01
 -0.320092486530E-01
  0.114424856643E+00
  0.114405394153E+00
  0.114425643682E+00
  0.114414179561E+00
  0.114426526145E+00
  0.114422285188E+00
  0.114426774046E+00
  0.114425883172E+00
  0.428384438126E-01
  0.428375363165E-01
  0.428430547472E-01
  0.428377643646E-01
  0.428571228114E-01
  0.428385352534E-01
  0.428743960196E-01
  0.428395410666E-01
 -0.623336987919E-01
 -0.622972743114E-01
 -0.623262113953E-01
 -0.622355127411E-01
 -0.623103642094E-01
 -0.621485369805E-01
 -0.620943783231E-01
 -0.604152739280E-01
 -0.443155362407E-01
 -0.342799925699E-01
 -0.330741715733E-01
 -0.323527227837E-01
 -0.321900868249E-01
 -0.321187763190E-01
 -0.328012986754E-01
 -0.320373981586E-01
  0.114405312282E+00
  0.114022311004E+00
  0.114414166866E+00
  0.114147697542E+00
  0.114422284641E+00
  0.114316878966E+00
  0.114425883165E+00
  0.114399229527E+00
  0.428588446971E-01
  0.428384438086E-01
  0.429042447287E-01
  0.428430545568E-01
  0.429748618424E-01
  0.428571200608E-01
  0.430435571097E-01
  0.428743798060E-01
 -0.622972825889E-01
 -0.621696540306E-01
 -0.622355347298E-01
 -0.609716657297E-01
 -0.621489488570E-01
 -0.598790601305E-01
 -0.604165490892E-01
 -0.504801654642E-01
 -0.991072101329E-01
 -0.444457843489E-01
 -0.508932359991E-01
 -0.331362933662E-01
 -0.503209269585E-01
 -0.321905387151E-01
 -0.339325546077E-01
 -0.328010613210E-01
  0.114022112371E+00
  0.113466223571E+00
  0.114147654893E+00
  0.113866163919E+00
  0.114316866081E+00
  0.113917916061E+00
  0.114399228296E+00
  0.114049009117E+00
  0.437094276430E-01
  0.428588377425E-01
  0.450448855147E-01
  0.429039999675E-01
  0.469004909170E-01
  0.429717064037E-01
  0.486799932809E-01
  0.430254222854E-01
 -0.621803410855E-01
 -0.603896980871E-01
 -0.609890843744E-01
 -0.690298664491E-01
 -0.598787965718E-01
 -0.621562377599E-01
 -0.504749005246E-01
 -0.460927048874E-02
 -0.719092750788E-01
 -0.997811202429E-01
 -0.526706936982E-01
 -0.521332781570E-01
 -0.414374798142E-01
 -0.519361184102E-01
 -0.510069491078E-01
 -0.351556682121E-01
  0.111328412027E+00
  0.718628720286E-01
  0.113129038587E+00
  0.721093633321E-01
  0.113755151324E+00
  0.723349458971E-01
  0.114030399163E+00
  0.723594104772E-01
  0.343949432134E-01
  0.437085692957E-01
  0.337399500405E-01
  0.450350353547E-01
  0.324551494186E-01
  0.468371984109E-01
  0.302205431133E-01
  0.484164285258E-01
 -0.605283285832E-01
 -0.565938329783E-01
 -0.691323300837E-01
 -0.115104875850E-01
 -0.622481269200E-01
  0.250914190841E-01
 -0.552806175398E-02
  0.855009224266E-01
 -0.735629652620E-01
 -0.544940495767E-01
 -0.541318984912E-01
 -0.408671515262E-01
 -0.453280128910E-01
 -0.508977043624E-01
 -0.581248408664E-01
  0.474100670527E-01
  0.476138819641E-01
  0.476022153188E-01
  0.476054081453E-01
  0.476988145257E-01
  0.477334337840E-01
  0.477586138116E-01
  0.306281043288E-01
  0.301966965006E-01
  0.302188885105E-01
  0.294809705434E-01
  0.293971954757E-01
  0.284169337027E-01
  0.279426805364E-01
 -0.565164263134E-01
 -0.496376919314E-01
 -0.217055389022E-01
 -0.440227663938E-01
 -0.271243177742E-01
 -0.778517751932E-01
 -0.525854802449E-01
 -0.844553892677E-01
 -0.697555314456E-01
 -0.595211210912E-01
 -0.477396440879E-01
 -0.447343767281E-01
 -0.535110881330E-01
 -0.481954623976E-01
  0.409747648960E-01
  0.411817857902E-01
  0.414364434521E-01
  0.415170240672E-01
  0.416694353584E-01
  0.417318746845E-01
  0.417919505546E-01
  0.309818913899E-01
  0.306946711659E-01
  0.305921448513E-01
  0.301097838413E-01
  0.298480351903E-01
  0.292120520119E-01
  0.286945437982E-01
 -0.463241881867E-01
 -0.452339346788E-01
 -0.243820732881E-01
 -0.530738698988E-01
 -0.466636902845E-01
 -0.100526963786E+00
 -0.881224759056E-01
 -0.975857234273E-01
 -0.891582720470E-01
 -0.645112317972E-01
 -0.566482595732E-01
 -0.408103523272E-01
 -0.547438018396E-01
 -0.415384302383E-01
  0.359373543499E-01
  0.360500722276E-01
  0.364628319831E-01
  0.365338360627E-01
  0.367444113740E-01
  0.367965599608E-01
  0.368911751424E-01
  0.307275000709E-01
  0.305330521539E-01
  0.303987167875E-01
  0.300636709653E-01
  0.297938115007E-01
  0.292923831919E-01
  0.289129972923E-01
 -0.413545608634E-01
 -0.442176118841E-01
 -0.285296116558E-01
 -0.579533357693E-01
 -0.597202786118E-01
 -0.109294251651E+00
 -0.105017498416E+00
 -0.107321345681E+00
 -0.105353828246E+00
 -0.665535858927E-01
 -0.644647334636E-01
 -0.351821515571E-01
 -0.553733355017E-01
 -0.368907237010E-01
  0.320625120921E-01
  0.321102218462E-01
  0.326279906292E-01
  0.326842398774E-01
  0.329636600634E-01
  0.330085031794E-01
  0.331433880792E-01
  0.310911661796E-01
  0.309559449540E-01
  0.308380637096E-01
  0.305912544343E-01
  0.303764638954E-01
  0.299506178225E-01
  0.296775121890E-01
 -0.404788521411E-01
 -0.453439409548E-01
 -0.339457472280E-01
 -0.590568294134E-01
 -0.671000130324E-01
 -0.108477693066E+00
 -0.110332969520E+00
 -0.320044649605E-01
 -0.320045070368E-01
 -0.320045091130E-01
 -0.320045084773E-01
 -0.320045085441E-01
 -0.320045084045E-01
 -0.320045084562E-01
 -0.320045083904E-01
  0.114426811027E+00
  0.114426811004E+00
  0.114426811031E+00
  0.114426811018E+00
  0.114426811030E+00
  0.114426811028E+00
  0.114426811031E+00
  0.114426811031E+00
  0.428375013396E-01
  0.428375013396E-01
  0.428375013401E-01
  0.428375013385E-01
  0.428375013557E-01
  0.428375013422E-01
  0.428375013729E-01
  0.428375013422E-01
 -0.623357059891E-01
 -0.623357059562E-01
 -0.623357059699E-01
 -0.623357057952E-01
 -0.623357059209E-01
 -0.623357054117E-01
 -0.623357071654E-01
 -0.623357438041E-01
 -0.320046159997E-01
 -0.320044649605E-01
 -0.320045199966E-01
 -0.320045091130E-01
 -0.320045110315E-01
 -0.320045085441E-01
 -0.320045095612E-01
 -0.320045084562E-01
  0.114426811004E+00
  0.114426810590E+00
  0.114426811018E+00
  0.114426810793E+00
  0.114426811028E+00
  0.114426810993E+00
  0.114426811031E+00
  0.114426811029E+00
  0.428375013416E-01
  0.428375013396E-01
  0.428375013752E-01
  0.428375013401E-01
  0.428375016107E-01
  0.428375013557E-01
  0.428375019425E-01
  0.428375013729E-01
 -0.623357059562E-01
 -0.623357053403E-01
 -0.623357057952E-01
 -0.623357027376E-01
 -0.623357054117E-01
 -0.623356969288E-01
 -0.623357438041E-01
 -0.623356132018E-01
 -0.320064465097E-01
 -0.320046159997E-01
 -0.320046796226E-01
 -0.320045199966E-01
 -0.320045491898E-01
 -0.320045110315E-01
 -0.320045286577E-01
 -0.320045095612E-01
  0.114426810590E+00
  0.114426803408E+00
  0.114426810793E+00
  0.114426806772E+00
  0.114426810993E+00
  0.114426810296E+00
  0.114426811029E+00
  0.114426810977E+00
  0.428375013916E-01
  0.428375013416E-01
  0.428375020655E-01
  0.428375013752E-01
  0.428375057109E-01
  0.428375016107E-01
  0.428375108327E-01
  0.428375019425E-01
 -0.623357053403E-01
 -0.623356960064E-01
 -0.623357027376E-01
 -0.623356560888E-01
 -0.623356969288E-01
 -0.623355650733E-01
 -0.623356132018E-01
 -0.623340209825E-01
 -0.320297112453E-01
 -0.320064465104E-01
 -0.320069742485E-01
 -0.320046796228E-01
 -0.320051393990E-01
 -0.320045491898E-01
 -0.320047739742E-01
 -0.320045286577E-01
  0.114426803408E+00
  0.114426696548E+00
  0.114426806772E+00
  0.114426746808E+00
  0.114426810296E+00
  0.114426797023E+00
  0.114426810977E+00
  0.114426809623E+00
  0.428375026960E-01
  0.428375013916E-01
  0.428375159430E-01
  0.428375020655E-01
  0.428375787550E-01
  0.428375057109E-01
  0.428376641729E-01
  0.428375108326E-01
 -0.623356960064E-01
 -0.623355322166E-01
 -0.623356560888E-01
 -0.623349689665E-01
 -0.623355650734E-01
 -0.623338654964E-01
 -0.623340209831E-01
 -0.623140896619E-01
 -0.322780970002E-01
 -0.320297113580E-01
 -0.320315990327E-01
 -0.320069742815E-01
 -0.320122123493E-01
 -0.320051394090E-01
 -0.320092485567E-01
 -0.320047739751E-01
  0.114426696546E+00
  0.114424856827E+00
  0.114426746808E+00
  0.114425643705E+00
  0.114426797023E+00
  0.114426526146E+00
  0.114426809623E+00
  0.114426774046E+00
  0.428375363165E-01
  0.428375026960E-01
  0.428377643658E-01
  0.428375159430E-01
  0.428385353054E-01
  0.428375787549E-01
  0.428395415811E-01
  0.428376641714E-01
 -0.623355322174E-01
 -0.623336984916E-01
 -0.623349689698E-01
 -0.623262100956E-01
 -0.623338655234E-01
 -0.623103592191E-01
 -0.623140897643E-01
 -0.620943955257E-01
 -0.342795266382E-01
 -0.322781133034E-01
 -0.323523482763E-01
 -0.320316029684E-01
 -0.321184199636E-01
 -0.320122129102E-01
 -0.320373514444E-01
 -0.320092486530E-01
  0.114424856643E+00
  0.114405394153E+00
  0.114425643682E+00
  0.114414179561E+00
  0.114426526145E+00
  0.114422285188E+00
  0.114426774046E+00
  0.114425883172E+00
  0.428384438126E-01
  0.428375363165E-01
  0.428430547472E-01
  0.428377643646E-01
  0.428571228115E-01
  0.428385352534E-01
  0.428743960197E-01
  0.428395410666E-01
 -0.623336987919E-01
 -0.622972743113E-01
 -0.623262113953E-01
 -0.622355127410E-01
 -0.623103642094E-01
 -0.621485369806E-01
 -0.620944059324E-01
 -0.604152598401E-01
 -0.443155346380E-01
 -0.342800084031E-01
 -0.330741715678E-01
 -0.323527227840E-01
 -0.321900868226E-01
 -0.321187763191E-01
 -0.328012986767E-01
 -0.320373981586E-01
  0.114405312282E+00
  0.114022311003E+00
  0.114414166866E+00
  0.114147697541E+00
  0.114422284641E+00
  0.114316878966E+00
  0.114425883165E+00
  0.114399229527E+00
  0.428588446971E-01
  0.428384438086E-01
  0.429042447287E-01
  0.428430545568E-01
  0.429748618422E-01
  0.428571200608E-01
  0.430435571094E-01
  0.428743798060E-01
 -0.622972825888E-01
 -0.621696540312E-01
 -0.622355347298E-01
 -0.609716657273E-01
 -0.621489488571E-01
 -0.598790601220E-01
 -0.604165349985E-01
 -0.504801670510E-01
 -0.991072203301E-01
 -0.444457827567E-01
 -0.508932360705E-01
 -0.331362933620E-01
 -0.503209271558E-01
 -0.321905387128E-01
 -0.339325546126E-01
 -0.328010613223E-01
  0.114022112370E+00
  0.113466223579E+00
  0.114147654893E+00
  0.113866163925E+00
  0.114316866081E+00
  0.113917916061E+00
  0.114399228296E+00
  0.114049009117E+00
  0.437094276430E-01
  0.428588377425E-01
  0.450448855150E-01
  0.429039999675E-01
  0.469004909301E-01
  0.429717064036E-01
  0.486799932884E-01
  0.430254222849E-01
 -0.621803410862E-01
 -0.603896980917E-01
 -0.609890843720E-01
 -0.690298666016E-01
 -0.598787965632E-01
 -0.621562378105E-01
 -0.504749021202E-01
 -0.460925150384E-02
 -0.719092749077E-01
 -0.997811303053E-01
 -0.526706936639E-01
 -0.521332782209E-01
 -0.414374797288E-01
 -0.519361186076E-01
 -0.510069491719E-01
 -0.351556682177E-01
  0.111328412033E+00
  0.718628722413E-01
  0.113129038587E+00
  0.721093630166E-01
  0.113755151324E+00
  0.723349458890E-01
  0.114030399163E+00
  0.723594104775E-01
  0.343949432140E-01
  0.437085692957E-01
  0.337399500377E-01
  0.450350353550E-01
  0.324551491816E-01
  0.468371984227E-01
  0.302205432574E-01
  0.484164285327E-01
 -0.605283285882E-01
 -0.565938329282E-01
 -0.691323302360E-01
 -0.115104875090E-01
 -0.622481269725E-01
  0.250914189524E-01
 -0.552804283114E-02
  0.855009224702E-01
 -0.735629651507E-01
 -0.544940492220E-01
 -0.541318987302E-01
 -0.408671526738E-01
 -0.453280120711E-01
 -0.508977030128E-01
 -0.581248408638E-01
  0.474100673885E-01
  0.476138835295E-01
  0.476022178182E-01
  0.476054090711E-01
  0.476988145822E-01
  0.477334337602E-01
  0.477586137543E-01
  0.306281043314E-01
  0.301966964966E-01
  0.302188885061E-01
  0.294809703469E-01
  0.293971952719E-01
  0.284169338894E-01
  0.279426807139E-01
 -0.565164262589E-01
 -0.496376919187E-01
 -0.217055387970E-01
 -0.440227661889E-01
 -0.271243176851E-01
 -0.778517751814E-01
 -0.525854802666E-01
 -0.844553891887E-01
 -0.697555313966E-01
 -0.595211201341E-01
 -0.477396437061E-01
 -0.447343772426E-01
 -0.535110875830E-01
 -0.481954620475E-01
  0.409747643406E-01
  0.411817862699E-01
  0.414364467628E-01
  0.415170260099E-01
  0.416694353441E-01
  0.417318747071E-01
  0.417919505644E-01
  0.309818913919E-01
  0.306946711567E-01
  0.305921448454E-01
  0.301097835856E-01
  0.298480349826E-01
  0.292120522029E-01
  0.286945439689E-01
 -0.463241881786E-01
 -0.452339346396E-01
 -0.243820732080E-01
 -0.530738691361E-01
 -0.466636893779E-01
 -0.100526963546E+00
 -0.881224757660E-01
 -0.975857233486E-01
 -0.891582719815E-01
 -0.645112318107E-01
 -0.566482596101E-01
 -0.408103540853E-01
 -0.547438031933E-01
 -0.415384298660E-01
  0.359373529427E-01
  0.360500710634E-01
  0.364628345805E-01
  0.365338383587E-01
  0.367444114090E-01
  0.367965600206E-01
  0.368911752059E-01
  0.307275000770E-01
  0.305330521671E-01
  0.303987167740E-01
  0.300636708139E-01
  0.297938111957E-01
  0.292923832613E-01
  0.289129974261E-01
 -0.413545608893E-01
 -0.442176119175E-01
 -0.285296116751E-01
 -0.579533360878E-01
 -0.597202788739E-01
 -0.109294251352E+00
 -0.105017498130E+00
 -0.107321345515E+00
 -0.105353828089E+00
 -0.665535857670E-01
 -0.644647333074E-01
 -0.351821516295E-01
 -0.553733356320E-01
 -0.368907236538E-01
  0.320625105866E-01
  0.321102197473E-01
  0.326279907001E-01
  0.326842408793E-01
  0.329636601167E-01
  0.330085031958E-01
  0.331433880662E-01
  0.310911661661E-01
  0.309559449699E-01
  0.308380636801E-01
  0.305912553521E-01
  0.303764628142E-01
  0.299506156997E-01
  0.296775123249E-01
 -0.404788522532E-01
 -0.453439410822E-01
 -0.339457472642E-01
 -0.590568295091E-01
 -0.671000131263E-01
 -0.108477692883E+00
 -0.110332969331E+00
SCALARS C_p_2nd float 1
LOOKUP_TABLE default
 -0.322738511261E-01
 -0.322738853976E-01
 -0.322738874810E-01
 -0.322738868431E-01
 -0.322738869101E-01
 -0.322738867700E-01
 -0.322738868219E-01
 -0.322738867559E-01
  0.133016838824E+00
  0.133016838796E+00
  0.133016838830E+00
  0.133016838815E+00
  0.133016838828E+00
  0.133016838826E+00
  0.133016838830E+00
  0.133016838830E+00
  0.435070089979E-01
  0.435070089978E-01
  0.435070089983E-01
  0.435070089967E-01
  0.435070090142E-01
  0.435070090005E-01
  0.435070090316E-01
  0.435070090004E-01
 -0.644419369211E-01
 -0.644419368885E-01
 -0.644419369022E-01
 -0.644419367294E-01
 -0.644419368537E-01
 -0.644419363503E-01
 -0.644419380838E-01
 -0.644419674931E-01
 -0.322739812397E-01
 -0.322738511261E-01
 -0.322738984018E-01
 -0.322738874810E-01
 -0.322738894060E-01
 -0.322738869101E-01
 -0.322738879307E-01
 -0.322738868219E-01
  0.133016838796E+00
  0.133016838291E+00
  0.133016838815E+00
  0.133016838540E+00
  0.133016838826E+00
  0.133016838783E+00
  0.133016838830E+00
  0.133016838828E+00
  0.435070089998E-01
  0.435070089979E-01
  0.435070090340E-01
  0.435070089983E-01
  0.435070092734E-01
  0.435070090142E-01
  0.435070096106E-01
  0.435070090316E-01
 -0.644419368885E-01
 -0.644419362795E-01
 -0.644419367294E-01
 -0.644419337063E-01
 -0.644419363503E-01
 -0.644419279632E-01
 -0.644419674931E-01
 -0.644418567510E-01
 -0.322758405555E-01
 -0.322739812397E-01
 -0.322740585724E-01
 -0.322738984018E-01
 -0.322739276945E-01
 -0.322738894060E-01
 -0.322739070923E-01
 -0.322738879307E-01
  0.133016838291E+00
  0.133016829521E+00
  0.133016838540E+00
  0.133016833630E+00
  0.133016838783E+00
  0.133016837931E+00
  0.133016838828E+00
  0.133016838764E+00
  0.435070090506E-01
  0.435070089998E-01
  0.435070097356E-01
  0.435070090340E-01
  0.435070134409E-01
  0.435070092734E-01
  0.435070186467E-01
  0.435070096106E-01
 -0.644419362795E-01
 -0.644419270510E-01
 -0.644419337063E-01
 -0.644418875843E-01
 -0.644419279632E-01
 -0.644417975967E-01
 -0.644418567510E-01
 -0.644402631647E-01
 -0.322991852798E-01
 -0.322758405563E-01
 -0.322763610274E-01
 -0.322740585726E-01
 -0.322745199177E-01
 -0.322739276946E-01
 -0.322741532460E-01
 -0.322739070923E-01
  0.133016829521E+00
  0.133016699034E+00
  0.133016833630E+00
  0.133016760408E+00
  0.133016837931E+00
  0.133016821724E+00
  0.133016838764E+00
  0.133016837111E+00
  0.435070103765E-01
  0.435070090506E-01
  0.435070238409E-01
  0.435070097356E-01
  0.435070876842E-01
  0.435070134409E-01
  0.435071745043E-01
  0.435070186467E-01
 -0.644419270510E-01
 -0.644417651109E-01
 -0.644418875844E-01
 -0.644412082213E-01
 -0.644417975970E-01
 -0.644401172100E-01
 -0.644402631656E-01
 -0.644205557610E-01
 -0.325484233270E-01
 -0.322991854122E-01
 -0.323010696929E-01
 -0.322763610662E-01
 -0.322816169961E-01
 -0.322745199295E-01
 -0.322786430943E-01
 -0.322741532470E-01
  0.133016699033E+00
  0.133014452555E+00
  0.133016760408E+00
  0.133015413410E+00
  0.133016821724E+00
  0.133016490956E+00
  0.133016837111E+00
  0.133016793668E+00
  0.435070445489E-01
  0.435070103765E-01