# vtk DataFile Version 3.0
MachLine results file. Generated by MachLine, USU AeroLab (c) 2022.
ASCII
DATASET POLYDATA
POINTS                1127 float
  0.100000000000E+01  0.000000000000E+00  0.000000000000E+00
  0.973034464140E+00  0.105263157890E+00 -0.235917869390E-02
  0.100000000000E+01  0.105263157890E+00  0.000000000000E+00
  0.973034464140E+00  0.000000000000E+00 -0.235917869390E-02
  0.929717765040E+00  0.105263157890E+00 -0.614889880620E-02
  0.929717765040E+00  0.000000000000E+00 -0.614889880620E-02
  0.863184801440E+00  0.105263157890E+00 -0.119697788720E-01
  0.863184801440E+00  0.000000000000E+00 -0.119697788720E-01
  0.767714243180E+00  0.105263157890E+00 -0.203223704200E-01
  0.767714243180E+00  0.000000000000E+00 -0.203223704200E-01
  0.643290544900E+00  0.105263157890E+00 -0.312080334940E-01
  0.643290544900E+00  0.000000000000E+00 -0.312080334940E-01
  0.500000000000E+00  0.105263157890E+00 -0.437443317630E-01
  0.500000000000E+00  0.000000000000E+00 -0.437443317630E-01
  0.356709455100E+00  0.000000000000E+00 -0.312080334940E-01
  0.356709455100E+00  0.105263157890E+00 -0.312080334940E-01
  0.232285756820E+00  0.000000000000E+00 -0.203223704200E-01
  0.232285756820E+00  0.105263157890E+00 -0.203223704200E-01
  0.136815198560E+00  0.000000000000E+00 -0.119697788720E-01
  0.136815198560E+00  0.105263157890E+00 -0.119697788720E-01
  0.702822349590E-01  0.000000000000E+00 -0.614889880620E-02
  0.702822349590E-01  0.105263157890E+00 -0.614889880620E-02
  0.269655358630E-01  0.000000000000E+00 -0.235917869390E-02
  0.269655358630E-01  0.105263157890E+00 -0.235917869390E-02
  0.000000000000E+00  0.000000000000E+00  0.000000000000E+00
  0.000000000000E+00  0.105263157890E+00  0.000000000000E+00
  0.269655358630E-01  0.105263157890E+00  0.235917869390E-02
  0.269655358630E-01  0.000000000000E+00  0.235917869390E-02
  0.702822349590E-01  0.105263157890E+00  0.614889880620E-02
  0.702822349590E-01  0.000000000000E+00  0.614889880620E-02
  0.136815198560E+00  0.105263157890E+00  0.119697788720E-01
  0.136815198560E+00  0.000000000000E+00  0.119697788720E-01
  0.232285756820E+00  0.105263157890E+00  0.203223704200E-01
  0.232285756820E+00  0.000000000000E+00  0.203223704200E-01
  0.356709455100E+00  0.105263157890E+00  0.312080334940E-01
  0.356709455100E+00  0.000000000000E+00  0.312080334940E-01
  0.500000000000E+00  0.105263157890E+00  0.437443317630E-01
  0.500000000000E+00  0.000000000000E+00  0.437443317630E-01
  0.643290544900E+00  0.000000000000E+00  0.312080334940E-01
  0.643290544900E+00  0.105263157890E+00  0.312080334940E-01
  0.767714243180E+00  0.000000000000E+00  0.203223704200E-01
  0.767714243180E+00  0.105263157890E+00  0.203223704200E-01
  0.863184801440E+00  0.000000000000E+00  0.119697788720E-01
  0.863184801440E+00  0.105263157890E+00  0.119697788720E-01
  0.929717765040E+00  0.000000000000E+00  0.614889880620E-02
  0.929717765040E+00  0.105263157890E+00  0.614889880620E-02
  0.973034464140E+00  0.000000000000E+00  0.235917869390E-02
  0.973034464140E+00  0.105263157890E+00  0.235917869390E-02
  0.973034464140E+00  0.210526315790E+00 -0.235917869390E-02
  0.100000000000E+01  0.210526315790E+00  0.000000000000E+00
  0.929717765040E+00  0.210526315790E+00 -0.614889880620E-02
  0.863184801440E+00  0.210526315790E+00 -0.119697788720E-01
  0.767714243180E+00  0.210526315790E+00 -0.203223704200E-01
  0.643290544900E+00  0.210526315790E+00 -0.312080334940E-01
  0.500000000000E+00  0.210526315790E+00 -0.437443317630E-01
  0.356709455100E+00  0.210526315790E+00 -0.312080334940E-01
  0.232285756820E+00  0.210526315790E+00 -0.203223704200E-01
  0.136815198560E+00  0.210526315790E+00 -0.119697788720E-01
  0.702822349590E-01  0.210526315790E+00 -0.614889880620E-02
  0.269655358630E-01  0.210526315790E+00 -0.235917869390E-02
  0.000000000000E+00  0.210526315790E+00  0.000000000000E+00
  0.269655358630E-01  0.210526315790E+00  0.235917869390E-02
  0.702822349590E-01  0.210526315790E+00  0.614889880620E-02
  0.136815198560E+00  0.210526315790E+00  0.119697788720E-01
  0.232285756820E+00  0.210526315790E+00  0.203223704200E-01
  0.356709455100E+00  0.210526315790E+00  0.312080334940E-01
  0.500000000000E+00  0.210526315790E+00  0.437443317630E-01
  0.643290544900E+00  0.210526315790E+00  0.312080334940E-01
  0.767714243180E+00  0.210526315790E+00  0.203223704200E-01
  0.863184801440E+00  0.210526315790E+00  0.119697788720E-01
  0.929717765040E+00  0.210526315790E+00  0.614889880620E-02
  0.973034464140E+00  0.210526315790E+00  0.235917869390E-02
  0.973034464140E+00  0.315789473680E+00 -0.235917869390E-02
  0.100000000000E+01  0.315789473680E+00  0.000000000000E+00
  0.929717765040E+00  0.315789473680E+00 -0.614889880620E-02
  0.863184801440E+00  0.315789473680E+00 -0.119697788720E-01
  0.767714243180E+00  0.315789473680E+00 -0.203223704200E-01
  0.643290544900E+00  0.315789473680E+00 -0.312080334940E-01
  0.500000000000E+00  0.315789473680E+00 -0.437443317630E-01
  0.356709455100E+00  0.315789473680E+00 -0.312080334940E-01
  0.232285756820E+00  0.315789473680E+00 -0.203223704200E-01
  0.136815198560E+00  0.315789473680E+00 -0.119697788720E-01
  0.702822349590E-01  0.315789473680E+00 -0.614889880620E-02
  0.269655358630E-01  0.315789473680E+00 -0.235917869390E-02
  0.000000000000E+00  0.315789473680E+00  0.000000000000E+00
  0.269655358630E-01  0.315789473680E+00  0.235917869390E-02
  0.702822349590E-01  0.315789473680E+00  0.614889880620E-02
  0.136815198560E+00  0.315789473680E+00  0.119697788720E-01
  0.232285756820E+00  0.315789473680E+00  0.203223704200E-01
  0.356709455100E+00  0.315789473680E+00  0.312080334940E-01
  0.500000000000E+00  0.315789473680E+00  0.437443317630E-01
  0.643290544900E+00  0.315789473680E+00  0.312080334940E-01
  0.767714243180E+00  0.315789473680E+00  0.203223704200E-01
  0.863184801440E+00  0.315789473680E+00  0.119697788720E-01
  0.929717765040E+00  0.315789473680E+00  0.614889880620E-02
  0.973034464140E+00  0.315789473680E+00  0.235917869390E-02
  0.973034464140E+00  0.421052631580E+00 -0.235917869390E-02
  0.100000000000E+01  0.421052631580E+00  0.000000000000E+00
  0.929717765040E+00  0.421052631580E+00 -0.614889880620E-02
  0.863184801440E+00  0.421052631580E+00 -0.119697788720E-01
  0.767714243180E+00  0.421052631580E+00 -0.203223704200E-01
  0.643290544900E+00  0.421052631580E+00 -0.312080334940E-01
  0.500000000000E+00  0.421052631580E+00 -0.437443317630E-01
  0.356709455100E+00  0.421052631580E+00 -0.312080334940E-01
  0.232285756820E+00  0.421052631580E+00 -0.203223704200E-01
  0.136815198560E+00  0.421052631580E+00 -0.119697788720E-01
  0.702822349590E-01  0.421052631580E+00 -0.614889880620E-02
  0.269655358630E-01  0.421052631580E+00 -0.235917869390E-02
  0.000000000000E+00  0.421052631580E+00  0.000000000000E+00
  0.269655358630E-01  0.421052631580E+00  0.235917869390E-02
  0.702822349590E-01  0.421052631580E+00  0.614889880620E-02
  0.136815198560E+00  0.421052631580E+00  0.119697788720E-01
  0.232285756820E+00  0.421052631580E+00  0.203223704200E-01
  0.356709455100E+00  0.421052631580E+00  0.312080334940E-01
  0.500000000000E+00  0.421052631580E+00  0.437443317630E-01
  0.643290544900E+00  0.421052631580E+00  0.312080334940E-01
  0.767714243180E+00  0.421052631580E+00  0.203223704200E-01
  0.863184801440E+00  0.421052631580E+00  0.119697788720E-01
  0.929717765040E+00  0.421052631580E+00  0.614889880620E-02
  0.973034464140E+00  0.421052631580E+00  0.235917869390E-02
  0.973034464140E+00  0.526315789470E+00 -0.235917869390E-02
  0.100000000000E+01  0.526315789470E+00  0.000000000000E+00
  0.929717765040E+00  0.526315789470E+00 -0.614889880620E-02
  0.863184801440E+00  0.526315789470E+00 -0.119697788720E-01
  0.767714243180E+00  0.526315789470E+00 -0.203223704200E-01
  0.643290544900E+00  0.526315789470E+00 -0.312080334940E-01
  0.500000000000E+00  0.526315789470E+00 -0.437443317630E-01
  0.356709455100E+00  0.526315789470E+00 -0.312080334940E-01
  0.232285756820E+00  0.526315789470E+00 -0.203223704200E-01
  0.136815198560E+00  0.526315789470E+00 -0.119697788720E-01
  0.702822349590E-01  0.526315789470E+00 -0.614889880620E-02
  0.269655358630E-01  0.526315789470E+00 -0.235917869390E-02
  0.000000000000E+00  0.526315789470E+00  0.000000000000E+00
  0.269655358630E-01  0.526315789470E+00  0.235917869390E-02
  0.702822349590E-01  0.526315789470E+00  0.614889880620E-02
  0.136815198560E+00  0.526315789470E+00  0.119697788720E-01
  0.232285756820E+00  0.526315789470E+00  0.203223704200E-01
  0.356709455100E+00  0.526315789470E+00  0.312080334940E-01
  0.500000000000E+00  0.526315789470E+00  0.437443317630E-01
  0.643290544900E+00  0.526315789470E+00  0.312080334940E-01
  0.767714243180E+00  0.526315789470E+00  0.203223704200E-01
  0.863184801440E+00  0.526315789470E+00  0.119697788720E-01
  0.929717765040E+00  0.526315789470E+00  0.614889880620E-02
  0.973034464140E+00  0.526315789470E+00  0.235917869390E-02
  0.973034464140E+00  0.631578947370E+00 -0.235917869390E-02
  0.100000000000E+01  0.631578947370E+00  0.000000000000E+00
  0.929717765040E+00  0.631578947370E+00 -0.614889880620E-02
  0.863184801440E+00  0.631578947370E+00 -0.119697788720E-01
  0.767714243180E+00  0.631578947370E+00 -0.203223704200E-01
  0.643290544900E+00  0.631578947370E+00 -0.312080334940E-01
  0.500000000000E+00  0.631578947370E+00 -0.437443317630E-01
  0.356709455100E+00  0.631578947370E+00 -0.312080334940E-01
  0.232285756820E+00  0.631578947370E+00 -0.203223704200E-01
  0.136815198560E+00  0.631578947370E+00 -0.119697788720E-01
  0.702822349590E-01  0.631578947370E+00 -0.614889880620E-02
  0.269655358630E-01  0.631578947370E+00 -0.235917869390E-02
  0.000000000000E+00  0.631578947370E+00  0.000000000000E+00
  0.269655358630E-01  0.631578947370E+00  0.235917869390E-02
  0.702822349590E-01  0.631578947370E+00  0.614889880620E-02
  0.136815198560E+00  0.631578947370E+00  0.119697788720E-01
  0.232285756820E+00  0.631578947370E+00  0.203223704200E-01
[...]
CELL_DATA                2176
SCALARS C_p_ise float 1
LOOKUP_TABLE default
 -0.223817021243E-01
 -0.223816699866E-01
 -0.223817178073E-01
 -0.223817178073E-01
 -0.223817178116E-01
 -0.223817178116E-01
 -0.223817178100E-01
 -0.223817178100E-01
 -0.223817178139E-01
 -0.223817178139E-01
 -0.223817178106E-01
 -0.223817178106E-01
  0.130250850413E+00
  0.130250850413E+00
  0.130250850418E+00
  0.130250850418E+00
  0.130250850412E+00
  0.130250850412E+00
  0.130250850414E+00
  0.130250850414E+00
  0.130250850415E+00
  0.130250850415E+00
  0.130250850414E+00
  0.130250850414E+00
  0.272317037116E-01
  0.272317037116E-01
  0.272317037128E-01
  0.272317037128E-01
  0.272317037111E-01
  0.272317037111E-01
  0.272317037099E-01
  0.272317037099E-01
  0.272317037157E-01
  0.272317037157E-01
  0.272317037108E-01
  0.272317037108E-01
 -0.682934594289E-01
 -0.682934594289E-01
 -0.682934594307E-01
 -0.682934594307E-01
 -0.682934594285E-01
 -0.682934594285E-01
 -0.682934594294E-01
 -0.682934594294E-01
 -0.682934594270E-01
 -0.682934594270E-01
 -0.682934983994E-01
 -0.682934722169E-01
 -0.223817204872E-01
 -0.223817021243E-01
 -0.223817178073E-01
 -0.223817178073E-01
 -0.223817178116E-01
 -0.223817178116E-01
 -0.223817178100E-01
 -0.223817178100E-01
 -0.223817178139E-01
 -0.223817178139E-01
 -0.223817178106E-01
 -0.223817178106E-01
  0.130250850413E+00
  0.130250850413E+00
  0.130250850418E+00
  0.130250850418E+00
  0.130250850412E+00
  0.130250850412E+00
  0.130250850414E+00
  0.130250850414E+00
  0.130250850415E+00
  0.130250850415E+00
  0.130250850414E+00
  0.130250850414E+00
  0.272317037116E-01
  0.272317037116E-01
  0.272317037128E-01
  0.272317037128E-01
  0.272317037111E-01
  0.272317037111E-01
  0.272317037099E-01
  0.272317037099E-01
  0.272317037157E-01
  0.272317037157E-01
  0.272317037108E-01
  0.272317037108E-01
 -0.682934594289E-01
 -0.682934594289E-01
 -0.682934594307E-01
 -0.682934594307E-01
 -0.682934594285E-01
 -0.682934594285E-01
 -0.682934594294E-01
 -0.682934594294E-01
 -0.682934594270E-01
 -0.682934594270E-01
 -0.682934722169E-01
 -0.682934572567E-01
 -0.223816389589E-01
 -0.223817204872E-01
 -0.223817178073E-01
 -0.223817178073E-01
 -0.223817178116E-01
 -0.223817178116E-01
 -0.223817178100E-01
 -0.223817178100E-01
 -0.223817178139E-01
 -0.223817178139E-01
 -0.223817178106E-01
 -0.223817178106E-01
  0.130250850413E+00
  0.130250850413E+00
  0.130250850418E+00
  0.130250850418E+00
  0.130250850412E+00
  0.130250850412E+00
  0.130250850414E+00
  0.130250850414E+00
  0.130250850415E+00
  0.130250850415E+00
  0.130250850414E+00
  0.130250850414E+00
  0.272317037116E-01
  0.272317037116E-01
  0.272317037128E-01
  0.272317037128E-01
  0.272317037111E-01
  0.272317037111E-01
  0.272317037099E-01
  0.272317037099E-01
  0.272317037157E-01
  0.272317037157E-01
  0.272317037108E-01
  0.272317037108E-01
 -0.682934594289E-01
 -0.682934594289E-01
 -0.682934594307E-01
 -0.682934594307E-01
 -0.682934594285E-01
 -0.682934594285E-01
 -0.682934594294E-01
 -0.682934594294E-01
 -0.682934594270E-01
 -0.682934594270E-01
 -0.682934572567E-01
 -0.682935236776E-01
 -0.223816747784E-01
 -0.223816389589E-01
 -0.223817178073E-01
 -0.223817178073E-01
 -0.223817178116E-01
 -0.223817178116E-01
 -0.223817178100E-01
 -0.223817178100E-01
 -0.223817178139E-01
 -0.223817178139E-01
 -0.223817178106E-01
 -0.223817178106E-01
  0.130250850413E+00
  0.130250850413E+00
  0.130250850418E+00
  0.130250850418E+00
  0.130250850412E+00
  0.130250850412E+00
  0.130250850414E+00
  0.130250850414E+00
  0.130250850415E+00
  0.130250850415E+00
  0.130250850414E+00
  0.130250850414E+00
  0.272317037116E-01
  0.272317037116E-01
  0.272317037128E-01
  0.272317037128E-01
  0.272317037111E-01
  0.272317037111E-01
  0.272317037099E-01
  0.272317037099E-01
  0.272317037157E-01
  0.272317037157E-01
  0.272317037108E-01
  0.272317037108E-01
 -0.682934594289E-01
 -0.682934594289E-01
 -0.682934594307E-01
 -0.682934594307E-01
 -0.682934594285E-01
 -0.682934594285E-01
 -0.682934594294E-01
 -0.682934594294E-01
 -0.682934594270E-01
 -0.682934594270E-01
 -0.682935236776E-01
 -0.682934944955E-01
 -0.223817377563E-01
 -0.223816747784E-01
 -0.223817178073E-01
 -0.223817178073E-01
 -0.223817178116E-01
 -0.223817178116E-01
 -0.223817178100E-01
 -0.223817178100E-01
 -0.223817178139E-01
 -0.223817178139E-01
 -0.223817178106E-01
 -0.223817178106E-01
  0.130250850413E+00
  0.130250850413E+00
  0.130250850418E+00
  0.130250850418E+00
  0.130250850412E+00
  0.130250850412E+00
  0.130250850414E+00
  0.130250850414E+00
  0.130250850415E+00
  0.130250850415E+00
  0.130250850414E+00
  0.130250850414E+00
  0.272317037116E-01
  0.272317037116E-01
  0.272317037128E-01
  0.272317037128E-01
  0.272317037111E-01
  0.272317037111E-01
  0.272317037099E-01
  0.272317037099E-01
  0.272317037157E-01
  0.272317037157E-01
  0.272317037108E-01
  0.272317037108E-01
 -0.682934594289E-01
 -0.682934594289E-01
 -0.682934594307E-01
 -0.682934594307E-01
 -0.682934594285E-01
 -0.682934594285E-01
 -0.682934594294E-01
 -0.682934594294E-01
 -0.682934594270E-01
 -0.682934594270E-01
 -0.682934944955E-01
 -0.682934431876E-01
 -0.223817094562E-01
 -0.223817377563E-01
 -0.223817178073E-01
 -0.223817178073E-01
 -0.223817178116E-01
 -0.223817178116E-01
 -0.223817178100E-01
 -0.223817178100E-01
 -0.223817178139E-01
 -0.223817178139E-01
 -0.223817178106E-01
 -0.223817178106E-01
  0.130250850413E+00
  0.130250850413E+00
  0.130250850418E+00
  0.130250850418E+00
  0.130250850412E+00
  0.130250850412E+00
  0.130250850414E+00
  0.130250850414E+00
  0.130250850415E+00
  0.130250850415E+00
  0.130250850414E+00
  0.130250850414E+00
  0.272317037116E-01
  0.272317037116E-01
  0.272317037128E-01
  0.272317037128E-01
  0.272317037111E-01
  0.272317037111E-01
  0.272317037099E-01
  0.272317037099E-01
  0.272317037157E-01
  0.272317037157E-01
  0.272317037108E-01
  0.272317037108E-01
 -0.682934594289E-01
 -0.682934594289E-01
 -0.682934594307E-01
 -0.682934594307E-01
 -0.682934594285E-01
 -0.682934594285E-01
 -0.682934594294E-01
 -0.682934594294E-01
 -0.682934594270E-01
 -0.682934594270E-01
 -0.682934431876E-01
 -0.682934662436E-01
 -0.223817148745E-01
 -0.223817094562E-01
 -0.223817178079E-01
 -0.223817178073E-01
 -0.223817178117E-01
 -0.223817178116E-01
 -0.223817178100E-01
 -0.223817178100E-01
 -0.223817178139E-01
 -0.223817178139E-01
 -0.223817178106E-01
 -0.223817178106E-01
  0.130250850413E+00
  0.130250850413E+00
  0.130250850418E+00
  0.130250850418E+00
  0.130250850412E+00
  0.130250850412E+00
  0.130250850414E+00
  0.130250850414E+00
  0.130250850415E+00
  0.130250850415E+00
  0.130250850414E+00
  0.130250850414E+00
  0.272317037116E-01
  0.272317037116E-01
  0.272317037128E-01
  0.272317037128E-01
  0.272317037111E-01
  0.272317037111E-01
  0.272317037099E-01
  0.272317037099E-01
  0.272317037157E-01
  0.272317037157E-01
  0.272317037108E-01
  0.272317037108E-01
 -0.682934594289E-01
 -0.682934594289E-01
 -0.682934594307E-01
 -0.682934594307E-01
 -0.682934594285E-01
 -0.682934594285E-01
 -0.682934594294E-01
 -0.682934594293E-01
 -0.682934594270E-01
 -0.682934594265E-01
 -0.682934662436E-01
 -0.682934618294E-01
 -0.223817037937E-01
 -0.223817148745E-01
 -0.223817178194E-01
 -0.223817178079E-01
 -0.223817178145E-01
 -0.223817178117E-01
 -0.223817178110E-01
 -0.223817178100E-01
 -0.223817178140E-01
 -0.223817178139E-01
 -0.223817178107E-01
 -0.223817178106E-01
  0.130250850413E+00
  0.130250850413E+00
  0.130250850418E+00
  0.130250850418E+00
  0.130250850412E+00
  0.130250850412E+00
  0.130250850414E+00
  0.130250850414E+00
  0.130250850415E+00
  0.130250850415E+00
  0.130250850414E+00
  0.130250850414E+00
  0.272317037116E-01
  0.272317037116E-01
  0.272317037128E-01
  0.272317037128E-01
  0.272317037111E-01
  0.272317037111E-01
  0.272317037099E-01
  0.272317037099E-01
  0.272317037157E-01
  0.272317037157E-01
  0.272317037109E-01
  0.272317037108E-01
 -0.682934594289E-01
 -0.682934594288E-01
 -0.682934594307E-01
 -0.682934594306E-01
 -0.682934594285E-01
 -0.682934594276E-01
 -0.682934594293E-01
 -0.682934594261E-01
 -0.682934594265E-01
 -0.682934594170E-01
 -0.682934618294E-01
 -0.682934708573E-01
 -0.223817194932E-01
 -0.223817037937E-01
 -0.223817180318E-01
 -0.223817178194E-01
 -0.223817178680E-01
 -0.223817178145E-01
 -0.223817178304E-01
 -0.223817178110E-01
 -0.223817178173E-01
 -0.223817178140E-01
 -0.223817178125E-01
 -0.223817178107E-01
  0.130250850413E+00
  0.130250850413E+00
  0.130250850418E+00
  0.130250850417E+00
  0.130250850412E+00
  0.130250850412E+00
  0.130250850414E+00
  0.130250850414E+00
  0.130250850415E+00
  0.130250850415E+00
  0.130250850414E+00
  0.130250850414E+00
  0.272317037116E-01
  0.272317037116E-01
  0.272317037128E-01
  0.272317037128E-01
  0.272317037112E-01
  0.272317037111E-01
  0.272317037100E-01
  0.272317037099E-01
  0.272317037157E-01
  0.272317037157E-01
  0.272317037117E-01
  0.272317037109E-01
 -0.682934594288E-01
 -0.682934594274E-01
 -0.682934594306E-01
 -0.682934594284E-01
 -0.682934594276E-01
 -0.682934594107E-01
 -0.682934594261E-01
 -0.682934593685E-01
 -0.682934594170E-01
 -0.682934592439E-01
 -0.682934708573E-01
 -0.682934580758E-01
 -0.223816216863E-01
 -0.223817194932E-01
 -0.223817217201E-01
 -0.223817180318E-01
 -0.223817188246E-01
 -0.223817178680E-01
 -0.223817181869E-01
 -0.223817178304E-01
 -0.223817178795E-01
 -0.223817178173E-01
 -0.223817178472E-01
 -0.223817178125E-01
  0.130250850413E+00
  0.130250850407E+00
  0.130250850417E+00
  0.130250850414E+00
  0.130250850412E+00
  0.130250850411E+00
  0.130250850414E+00
  0.130250850413E+00
  0.130250850415E+00
  0.130250850415E+00
  0.130250850414E+00
  0.130250850414E+00
  0.272317037116E-01
  0.272317037116E-01
  0.272317037129E-01
  0.272317037128E-01
  0.272317037116E-01
  0.272317037112E-01
  0.272317037112E-01
  0.272317037100E-01
  0.272317037167E-01
  0.272317037157E-01
  0.272317037278E-01
  0.272317037117E-01
 -0.682934594274E-01
 -0.682934594005E-01
 -0.682934594284E-01
 -0.682934593874E-01
 -0.682934594107E-01
 -0.682934591024E-01
 -0.682934593685E-01
 -0.682934583156E-01
 -0.682934592439E-01
 -0.682934561700E-01
 -0.682934580758E-01
 -0.682935379180E-01
 -0.223824999548E-01
 -0.223816216863E-01
 -0.223817829744E-01
 -0.223817217201E-01
 -0.223817360191E-01
 -0.223817188246E-01
 -0.223817245089E-01
 -0.223817181869E-01
 -0.223817189482E-01
 -0.223817178795E-01
 -0.223817184727E-01
 -0.223817178472E-01
  0.130250850407E+00
  0.130250850291E+00
  0.130250850414E+00
  0.130250850352E+00
  0.130250850411E+00
  0.130250850394E+00
  0.130250850413E+00
  0.130250850406E+00
  0.130250850415E+00
  0.130250850412E+00
  0.130250850414E+00
  0.130250850413E+00
  0.272317037121E-01
  0.272317037116E-01
  0.272317037157E-01
  0.272317037129E-01
  0.272317037206E-01
  0.272317037116E-01
  0.272317037352E-01
  0.272317037112E-01
  0.272317037342E-01
  0.272317037167E-01
  0.272317040310E-01
  0.272317037278E-01
 -0.682934594005E-01
 -0.682934588917E-01
 -0.682934593874E-01
 -0.682934585662E-01
 -0.682934591024E-01
 -0.682934535964E-01
 -0.682934583156E-01
 -0.682934410056E-01
 -0.682934561700E-01
 -0.682934069174E-01
 -0.682935379180E-01
 -0.682928246421E-01
 -0.223924599881E-01
 -0.223824999549E-01
 -0.223826841961E-01
 -0.223817829744E-01
 -0.223819884516E-01
 -0.223817360191E-01
 -0.223818280890E-01
 -0.223817245089E-01
 -0.223817392287E-01
 -0.223817189482E-01
 -0.223817299523E-01
 -0.223817184727E-01
  0.130250850291E+00
  0.130250848203E+00
  0.130250850352E+00
  0.130250849222E+00
  0.130250850394E+00
  0.130250850060E+00
  0.130250850406E+00
  0.130250850274E+00
  0.130250850412E+00
  0.130250850361E+00
  0.130250850413E+00
  0.130250850404E+00
  0.272317037217E-01
  0.272317037121E-01
  0.272317037716E-01
  0.272317037157E-01
  0.272317038980E-01
  0.272317037206E-01
  0.272317041981E-01
  0.272317037352E-01
  0.272317040782E-01
  0.272317037342E-01
  0.272317096009E-01
  0.272317040310E-01
 -0.682934588917E-01
 -0.682934505138E-01
 -0.682934585662E-01
 -0.682934449031E-01
 -0.682934535964E-01
 -0.682933641113E-01
 -0.682934410056E-01
 -0.682931502365E-01
 -0.682934069174E-01
 -0.682926176302E-01
 -0.682928246422E-01
 -0.682847736631E-01
 -0.225007351041E-01
 -0.223924600123E-01
 -0.223945816423E-01
 -0.223826842029E-01
 -0.223866478079E-01
 -0.223819884527E-01
 -0.223834476804E-01
 -0.223818280891E-01
 -0.223820185958E-01
 -0.223817392288E-01
 -0.223819035391E-01
 -0.223817299523E-01
  0.130250848203E+00
  0.130250809832E+00
  0.130250849222E+00
  0.130250828103E+00
  0.130250850060E+00
  0.130250843676E+00
  0.130250850274E+00
  0.130250847695E+00
  0.130250850361E+00
  0.130250849329E+00
  0.130250850404E+00
  0.130250850191E+00
  0.272317039310E-01
  0.272317037217E-01
  0.272317048701E-01
  0.272317037716E-01
  0.272317071741E-01
  0.272317038980E-01
  0.272317124036E-01
  0.272317041981E-01
  0.272317094637E-01
  0.272317040782E-01
  0.272318052278E-01
  0.272317096009E-01
 -0.682934505138E-01
 -0.682932952004E-01
 -0.682934449032E-01
 -0.682931851610E-01
 -0.682933641114E-01
 -0.682920180181E-01
 -0.682931502376E-01
 -0.682895341097E-01
 -0.682926176353E-01
 -0.682836068281E-01
 -0.682847736797E-01
 -0.681959214738E-01
 -0.234163536070E-01
 -0.225007370309E-01
 -0.225075754167E-01
 -0.223945821816E-01
 -0.224133074732E-01
 -0.223866480254E-01
 -0.224028445475E-01
 -0.223834477125E-01
 -0.223869286271E-01
 -0.223820186032E-01
 -0.223850230087E-01
 -0.223819035393E-01
  0.130250809831E+00
  0.130250224090E+00
  0.130250828103E+00
  0.130250504965E+00
  0.130250843676E+00
  0.130250735333E+00
  0.130250847695E+00
  0.130250802199E+00
  0.130250849329E+00
  0.130250829682E+00
  0.130250850191E+00
  0.130250845569E+00
  0.272317084968E-01
  0.272317039310E-01
  0.272317266905E-01
  0.272317048701E-01
  0.272317701506E-01
  0.272317071741E-01
  0.272318661880E-01
  0.272317124036E-01
  0.272318234567E-01
  0.272317094637E-01
  0.272333817556E-01
  0.272318052264E-01
 -0.682932952012E-01
 -0.682914937382E-01
 -0.682931851660E-01
 -0.682891735870E-01
 -0.682920180412E-01
 -0.682712506578E-01
 -0.682895343402E-01
 -0.682386745937E-01
 -0.682836079102E-01
 -0.681841884727E-01
 -0.681959243088E-01
 -0.674853279101E-01
 -0.263632292564E-01
 -0.234165834900E-01
 -0.229013238487E-01
 -0.225077540216E-01
 -0.231163154818E-01
 -0.224133440177E-01
 -0.226570685314E-01
 -0.224028495007E-01
 -0.224586875212E-01
 -0.223869293542E-01
 -0.224108970993E-01
 -0.223850230849E-01
  0.130250223947E+00
  0.130240240080E+00
  0.130250504941E+00
  0.130244556251E+00
  0.130250735332E+00
  0.130248711834E+00
  0.130250802198E+00
  0.130249920414E+00
  0.130250829682E+00
  0.130250437257E+00
  0.130250845569E+00
  0.130250744153E+00
  0.272318071652E-01
  0.272317084968E-01
  0.272321196254E-01
  0.272317266905E-01
  0.272327626531E-01
  0.272317701505E-01
  0.272340567732E-01
  0.272318661861E-01
  0.272327707105E-01
  0.272318234531E-01
  0.272561881234E-01
  0.272333814726E-01
 -0.682914939022E-01
 -0.682552580774E-01
 -0.682891751919E-01
 -0.682723360647E-01
 -0.682712530643E-01
 -0.681887537941E-01
 -0.682386821235E-01
 -0.679555297308E-01
 -0.681842222589E-01
 -0.672835091696E-01
 -0.674854618190E-01
 -0.645232358013E-01
 -0.444702889167E-01
 -0.263713154133E-01
 -0.299454500830E-01
 -0.229032204349E-01
 -0.270397516358E-01
 -0.231161597288E-01
 -0.222637210358E-01
 -0.226571495123E-01
 -0.222011414017E-01
 -0.224589353795E-01
 -0.229797370125E-01
 -0.224109058618E-01
  0.130240223818E+00
  0.130130861031E+00
  0.130244553667E+00
  0.130189447344E+00
  0.130248711537E+00
  0.130223664613E+00
  0.130249920383E+00
  0.130237892726E+00
  0.130250437254E+00
  0.130244122591E+00
  0.130250744153E+00
  0.130248599717E+00
  0.272340147821E-01
  0.272318071651E-01
  0.272401178147E-01
  0.272321196219E-01
  0.272523894010E-01
  0.272327625918E-01
  0.272760218461E-01
  0.272340560901E-01
  0.272663954439E-01
  0.272327686635E-01
  0.275213961557E-01
  0.272561402067E-01
 -0.682552850884E-01
 -0.681529242283E-01
 -0.682723941804E-01
 -0.666924906337E-01
 -0.681903805417E-01
 -0.655557621036E-01
 -0.679622454656E-01
 -0.702208104102E-01
 -0.672866104418E-01
 -0.701357276777E-01
 -0.645239088964E-01
 -0.607504503947E-01
 -0.788937960911E-01
 -0.450088164844E-01
 -0.443302094456E-01
 -0.304078761618E-01
 -0.546220640685E-01
 -0.271850912253E-01
 -0.313313788042E-01
 -0.223273091667E-01
 -0.351291407378E-01
 -0.222010752183E-01
 -0.213461452984E-01
 -0.229803540537E-01
  0.130129372677E+00
  0.129831132106E+00
  0.130188424638E+00
  0.129114329084E+00
  0.130223537900E+00
  0.129723157442E+00
  0.130237877866E+00
  0.129978055841E+00
  0.130244121206E+00
  0.130100973572E+00
  0.130248599670E+00
  0.130196778641E+00
  0.272772773761E-01
  0.272340147537E-01
  0.273415770623E-01
  0.272401171686E-01
  0.274313200235E-01
  0.272523830324E-01
  0.275572932983E-01
  0.272759808917E-01
  0.271218589623E-01
  0.272663816515E-01
  0.313705833348E-01
  0.275145089002E-01
 -0.681569800752E-01
 -0.670299042632E-01
 -0.666992255504E-01
 -0.781641631495E-01
 -0.655726605307E-01
 -0.663005246163E-01
 -0.702440876514E-01
 -0.764093566460E-01
 -0.701884382137E-01
 -0.656014306604E-01
 -0.607903722658E-01
 -0.304973407846E-01
 -0.139312672084E+00
 -0.802147443705E-01
 -0.517143332649E-01
 -0.461925507758E-01
 -0.686729620285E-01
 -0.560743985611E-01
 -0.459250841261E-01
 -0.327849557845E-01
 -0.528939834861E-01
 -0.358924990742E-01
 -0.443453240561E-01
 -0.215185595267E-01
  0.129539092657E+00
  0.111285777140E+00
  0.129098338248E+00
  0.124747829658E+00
  0.129721343559E+00
  0.128237637442E+00
  0.129977624563E+00
  0.128833591531E+00
  0.130100892545E+00
  0.129203287814E+00
  0.130196769763E+00
  0.129483651826E+00
  0.286104143286E-01
  0.272772504923E-01
  0.302041416010E-01
  0.273410470162E-01
  0.322062977510E-01
  0.274266167203E-01
  0.345309792426E-01
  0.275304786061E-01
  0.240749841237E-01
  0.271100136502E-01
  0.183516561122E-01
  0.313437418920E-01
 -0.670374918792E-01
 -0.738317847617E-01
 -0.782193232353E-01
 -0.736626222953E-01
 -0.663100127146E-01
 -0.656288964616E-01
 -0.763882870984E-01
 -0.698916279599E-01
 -0.655715007353E-01
 -0.359880229603E-01
 -0.304994197124E-01
  0.146121534959E+00
 -0.128938580892E+00
 -0.139481381662E+00
 -0.884288949375E-01
 -0.528306154458E-01
 -0.616043018174E-01
 -0.701046934048E-01
 -0.467931535213E-01
 -0.481239608018E-01
 -0.409475559832E-01
 -0.567208151065E-01
 -0.532689152167E-01
 -0.486121439302E-01
  0.101989636056E+00
  0.803390013147E-01
  0.118281751946E+00
  0.793692875910E-01
  0.125285055030E+00
  0.811970278747E-01
  0.127782269546E+00
  0.815244259361E-01
  0.128921707349E+00
  0.816161607345E-01
  0.129441745075E+00
  0.815450569473E-01
  0.261989864278E-01
  0.286103255992E-01
  0.251827175935E-01
  0.302024859447E-01
  0.236262581801E-01
  0.321913901825E-01
  0.211917943700E-01
  0.344391171576E-01
 -0.390635550509E-01
  0.215598013468E-01
  0.765246577452E-01
  0.181938332133E-01
 -0.738524276369E-01
 -0.645196791338E-01
 -0.736378842413E-01
 -0.276086563612E-01
 -0.662269322725E-01
  0.225396377642E-02
 -0.729016453627E-01
  0.279505079053E-01
 -0.451598574788E-01
  0.690111626027E-01
  0.120042302745E+00
  0.169102822681E+00
 -0.150780109719E+00
 -0.135982803395E+00
 -0.110673065599E+00
 -0.960746998248E-01
 -0.757590051844E-01
 -0.646126210655E-01
 -0.577866002511E-01
 -0.550189028981E-01
 -0.486533965323E-01
 -0.553506695706E-01
 -0.631149646360E-01
  0.471107545885E-01
  0.488137856418E-01
  0.477212284907E-01
  0.479213819678E-01
  0.482810099967E-01
  0.486358203663E-01
  0.486033358424E-01
  0.487722652775E-01
  0.487676583726E-01
  0.489359219057E-01
  0.489099252496E-01
  0.247508728919E-01
  0.240926088511E-01
  0.239603761748E-01
  0.231198348355E-01
  0.227233640116E-01
  0.216291544689E-01
  0.207057784307E-01
  0.222061110318E-01
 -0.984313546816E-01
 -0.781568224302E-01
  0.793973248311E-01
 -0.648325581841E-01
 -0.582613979372E-01
 -0.326062300861E-01