# vtk DataFile Version 3.0
MachLine results file. Generated by MachLine, USU AeroLab (c) 2022.
ASCII
DATASET POLYDATA
POINTS                1127 float
  0.100000000000E+01  0.000000000000E+00  0.000000000000E+00
  0.973034464140E+00  0.105263157890E+00 -0.235917869390E-02
  0.100000000000E+01  0.105263157890E+00  0.000000000000E+00
  0.973034464140E+00  0.000000000000E+00 -0.235917869390E-02
  0.929717765040E+00  0.105263157890E+00 -0.614889880620E-02
  0.929717765040E+00  0.000000000000E+00 -0.614889880620E-02
  0.863184801440E+00  0.105263157890E+00 -0.119697788720E-01
  0.863184801440E+00  0.000000000000E+00 -0.119697788720E-01
  0.767714243180E+00  0.105263157890E+00 -0.203223704200E-01
  0.767714243180E+00  0.000000000000E+00 -0.203223704200E-01
  0.643290544900E+00  0.105263157890E+00 -0.312080334940E-01
  0.643290544900E+00  0.000000000000E+00 -0.312080334940E-01
  0.500000000000E+00  0.105263157890E+00 -0.437443317630E-01
  0.500000000000E+00  0.000000000000E+00 -0.437443317630E-01
  0.356709455100E+00  0.000000000000E+00 -0.312080334940E-01
  0.356709455100E+00  0.105263157890E+00 -0.312080334940E-01
  0.232285756820E+00  0.000000000000E+00 -0.203223704200E-01
  0.232285756820E+00  0.105263157890E+00 -0.203223704200E-01
  0.136815198560E+00  0.000000000000E+00 -0.119697788720E-01
  0.136815198560E+00  0.105263157890E+00 -0.119697788720E-01
  0.702822349590E-01  0.000000000000E+00 -0.614889880620E-02
  0.702822349590E-01  0.105263157890E+00 -0.614889880620E-02
  0.269655358630E-01  0.000000000000E+00 -0.235917869390E-02
  0.269655358630E-01  0.105263157890E+00 -0.235917869390E-02
  0.000000000000E+00  0.000000000000E+00  0.000000000000E+00
  0.000000000000E+00  0.105263157890E+00  0.000000000000E+00
  0.269655358630E-01  0.105263157890E+00  0.235917869390E-02
  0.269655358630E-01  0.000000000000E+00  0.235917869390E-02
  0.702822349590E-01  0.105263157890E+00  0.614889880620E-02
  0.702822349590E-01  0.000000000000E+00  0.614889880620E-02
  0.136815198560E+00  0.105263157890E+00  0.119697788720E-01
  0.136815198560E+00  0.000000000000E+00  0.119697788720E-01
  0.232285756820E+00  0.105263157890E+00  0.203223704200E-01
  0.232285756820E+00  0.000000000000E+00  0.203223704200E-01
  0.356709455100E+00  0.105263157890E+00  0.312080334940E-01
  0.356709455100E+00  0.000000000000E+00  0.312080334940E-01
  0.500000000000E+00  0.105263157890E+00  0.437443317630E-01
  0.500000000000E+00  0.000000000000E+00  0.437443317630E-01
  0.643290544900E+00  0.000000000000E+00  0.312080334940E-01
  0.643290544900E+00  0.105263157890E+00  0.312080334940E-01
  0.767714243180E+00  0.000000000000E+00  0.203223704200E-01
  0.767714243180E+00  0.105263157890E+00  0.203223704200E-01
  0.863184801440E+00  0.000000000000E+00  0.119697788720E-01
  0.863184801440E+00  0.105263157890E+00  0.119697788720E-01
  0.929717765040E+00  0.000000000000E+00  0.614889880620E-02
  0.929717765040E+00  0.105263157890E+00  0.614889880620E-02
  0.973034464140E+00  0.000000000000E+00  0.235917869390E-02
  0.973034464140E+00  0.105263157890E+00  0.235917869390E-02
  0.973034464140E+00  0.210526315790E+00 -0.235917869390E-02
  0.100000000000E+01  0.210526315790E+00  0.000000000000E+00
  0.929717765040E+00  0.210526315790E+00 -0.614889880620E-02
  0.863184801440E+00  0.210526315790E+00 -0.119697788720E-01
  0.767714243180E+00  0.210526315790E+00 -0.203223704200E-01
  0.643290544900E+00  0.210526315790E+00 -0.312080334940E-01
  0.500000000000E+00  0.210526315790E+00 -0.437443317630E-01
  0.356709455100E+00  0.210526315790E+00 -0.312080334940E-01
  0.232285756820E+00  0.210526315790E+00 -0.203223704200E-01
  0.136815198560E+00  0.210526315790E+00 -0.119697788720E-01
  0.702822349590E-01  0.210526315790E+00 -0.614889880620E-02
  0.269655358630E-01  0.210526315790E+00 -0.235917869390E-02
  0.000000000000E+00  0.210526315790E+00  0.000000000000E+00
  0.269655358630E-01  0.210526315790E+00  0.235917869390E-02
  0.702822349590E-01  0.210526315790E+00  0.614889880620E-02
  0.136815198560E+00  0.210526315790E+00  0.119697788720E-01
  0.232285756820E+00  0.210526315790E+00  0.203223704200E-01
  0.356709455100E+00  0.210526315790E+00  0.312080334940E-01
  0.500000000000E+00  0.210526315790E+00  0.437443317630E-01
  0.643290544900E+00  0.210526315790E+00  0.312080334940E-01
  0.767714243180E+00  0.210526315790E+00  0.203223704200E-01
  0.863184801440E+00  0.210526315790E+00  0.119697788720E-01
  0.929717765040E+00  0.210526315790E+00  0.614889880620E-02
  0.973034464140E+00  0.210526315790E+00  0.235917869390E-02
  0.973034464140E+00  0.315789473680E+00 -0.235917869390E-02
  0.100000000000E+01  0.315789473680E+00  0.000000000000E+00
  0.929717765040E+00  0.315789473680E+00 -0.614889880620E-02
  0.863184801440E+00  0.315789473680E+00 -0.119697788720E-01
  0.767714243180E+00  0.315789473680E+00 -0.203223704200E-01
  0.643290544900E+00  0.315789473680E+00 -0.312080334940E-01
  0.500000000000E+00  0.315789473680E+00 -0.437443317630E-01
  0.356709455100E+00  0.315789473680E+00 -0.312080334940E-01
  0.232285756820E+00  0.315789473680E+00 -0.203223704200E-01
  0.136815198560E+00  0.315789473680E+00 -0.119697788720E-01
  0.702822349590E-01  0.315789473680E+00 -0.614889880620E-02
  0.269655358630E-01  0.315789473680E+00 -0.235917869390E-02
  0.000000000000E+00  0.315789473680E+00  0.000000000000E+00
  0.269655358630E-01  0.315789473680E+00  0.235917869390E-02
  0.702822349590E-01  0.315789473680E+00  0.614889880620E-02
  0.136815198560E+00  0.315789473680E+00  0.119697788720E-01
  0.232285756820E+00  0.315789473680E+00  0.203223704200E-01
  0.356709455100E+00  0.315789473680E+00  0.312080334940E-01
  0.500000000000E+00  0.315789473680E+00  0.437443317630E-01
  0.643290544900E+00  0.315789473680E+00  0.312080334940E-01
  0.767714243180E+00  0.315789473680E+00  0.203223704200E-01
  0.863184801440E+00  0.315789473680E+00  0.119697788720E-01
  0.929717765040E+00  0.315789473680E+00  0.614889880620E-02
  0.973034464140E+00  0.315789473680E+00  0.235917869390E-02
  0.973034464140E+00  0.421052631580E+00 -0.235917869390E-02
  0.100000000000E+01  0.421052631580E+00  0.000000000000E+00
  0.929717765040E+00  0.421052631580E+00 -0.614889880620E-02
  0.863184801440E+00  0.421052631580E+00 -0.119697788720E-01
  0.767714243180E+00  0.421052631580E+00 -0.203223704200E-01
  0.643290544900E+00  0.421052631580E+00 -0.312080334940E-01
  0.500000000000E+00  0.421052631580E+00 -0.437443317630E-01
  0.356709455100E+00  0.421052631580E+00 -0.312080334940E-01
  0.232285756820E+00  0.421052631580E+00 -0.203223704200E-01
  0.136815198560E+00  0.421052631580E+00 -0.119697788720E-01
  0.702822349590E-01  0.421052631580E+00 -0.614889880620E-02
  0.269655358630E-01  0.421052631580E+00 -0.235917869390E-02
  0.000000000000E+00  0.421052631580E+00  0.000000000000E+00
  0.269655358630E-01  0.421052631580E+00  0.235917869390E-02
  0.702822349590E-01  0.421052631580E+00  0.614889880620E-02
  0.136815198560E+00  0.421052631580E+00  0.119697788720E-01
  0.232285756820E+00  0.421052631580E+00  0.203223704200E-01
  0.356709455100E+00  0.421052631580E+00  0.312080334940E-01
  0.500000000000E+00  0.421052631580E+00  0.437443317630E-01
  0.643290544900E+00  0.421052631580E+00  0.312080334940E-01
  0.767714243180E+00  0.421052631580E+00  0.203223704200E-01
  0.863184801440E+00  0.421052631580E+00  0.119697788720E-01
  0.929717765040E+00  0.421052631580E+00  0.614889880620E-02
  0.973034464140E+00  0.421052631580E+00  0.235917869390E-02
  0.973034464140E+00  0.526315789470E+00 -0.235917869390E-02
  0.100000000000E+01  0.526315789470E+00  0.000000000000E+00
  0.929717765040E+00  0.526315789470E+00 -0.614889880620E-02
  0.863184801440E+00  0.526315789470E+00 -0.119697788720E-01
  0.767714243180E+00  0.526315789470E+00 -0.203223704200E-01
  0.643290544900E+00  0.526315789470E+00 -0.312080334940E-01
  0.500000000000E+00  0.526315789470E+00 -0.437443317630E-01
  0.356709455100E+00  0.526315789470E+00 -0.312080334940E-01
  0.232285756820E+00  0.526315789470E+00 -0.203223704200E-01
  0.136815198560E+00  0.526315789470E+00 -0.119697788720E-01
  0.702822349590E-01  0.526315789470E+00 -0.614889880620E-02
  0.269655358630E-01  0.526315789470E+00 -0.235917869390E-02
  0.000000000000E+00  0.526315789470E+00  0.000000000000E+00
  0.269655358630E-01  0.526315789470E+00  0.235917869390E-02
  0.702822349590E-01  0.526315789470E+00  0.614889880620E-02
  0.136815198560E+00  0.526315789470E+00  0.119697788720E-01
  0.232285756820E+00  0.526315789470E+00  0.203223704200E-01
  0.356709455100E+00  0.526315789470E+00  0.312080334940E-01
  0.500000000000E+00  0.526315789470E+00  0.437443317630E-01
  0.643290544900E+00  0.526315789470E+00  0.312080334940E-01
  0.767714243180E+00  0.526315789470E+00  0.203223704200E-01
  0.863184801440E+00  0.526315789470E+00  0.119697788720E-01
  0.929717765040E+00  0.526315789470E+00  0.614889880620E-02
  0.973034464140E+00  0.526315789470E+00  0.235917869390E-02
  0.973034464140E+00  0.631578947370E+00 -0.235917869390E-02
  0.100000000000E+01  0.631578947370E+00  0.000000000000E+00
  0.929717765040E+00  0.631578947370E+00 -0.614889880620E-02
  0.863184801440E+00  0.631578947370E+00 -0.119697788720E-01
  0.767714243180E+00  0.631578947370E+00 -0.203223704200E-01
  0.643290544900E+00  0.631578947370E+00 -0.312080334940E-01
  0.500000000000E+00  0.631578947370E+00 -0.437443317630E-01
  0.356709455100E+00  0.631578947370E+00 -0.312080334940E-01
  0.232285756820E+00  0.631578947370E+00 -0.203223704200E-01
  0.136815198560E+00  0.631578947370E+00 -0.119697788720E-01
  0.702822349590E-01  0.631578947370E+00 -0.614889880620E-02
  0.269655358630E-01  0.631578947370E+00 -0.235917869390E-02
  0.000000000000E+00  0.631578947370E+00  0.000000000000E+00
  0.269655358630E-01  0.631578947370E+00  0.235917869390E-02
  0.702822349590E-01  0.631578947370E+00  0.614889880620E-02
  0.136815198560E+00  0.631578947370E+00  0.119697788720E-01
  0.232285756820E+00  0.631578947370E+00  0.203223704200E-01
[...]
CELL_DATA                2176
SCALARS C_p_ise float 1
LOOKUP_TABLE default
 -0.654705349064E-02
 -0.654706950367E-02
 -0.654705515772E-02
 -0.654705515772E-02
 -0.654705516028E-02
 -0.654705516028E-02
 -0.654705515933E-02
 -0.654705515933E-02
 -0.654705516165E-02
 -0.654705516165E-02
 -0.654705515971E-02
 -0.654705515971E-02
 -0.571428571429E-01
 -0.571428571429E-01
 -0.571428571429E-01
 -0.571428571429E-01
 -0.571428571429E-01
 -0.571428571429E-01
 -0.571428571429E-01
 -0.571428571429E-01
 -0.571428571429E-01
 -0.571428571429E-01
 -0.571428571429E-01
 -0.571428571429E-01
  0.776266785428E-02
  0.776266785428E-02
  0.776266785494E-02
  0.776266785494E-02
  0.776266785403E-02
  0.776266785403E-02
  0.776266785333E-02
  0.776266785333E-02
  0.776266785658E-02
  0.776266785658E-02
  0.776266785386E-02
  0.776266785386E-02
 -0.335647024537E-01
 -0.335647024537E-01
 -0.335647024542E-01
 -0.335647024542E-01
 -0.335647024535E-01
 -0.335647024535E-01
 -0.335647024538E-01
 -0.335647024538E-01
 -0.335647024531E-01
 -0.335647024531E-01
 -0.335646881493E-01
 -0.335647041234E-01
 -0.654707294492E-02
 -0.654705349064E-02
 -0.654705515772E-02
 -0.654705515772E-02
 -0.654705516028E-02
 -0.654705516028E-02
 -0.654705515933E-02
 -0.654705515933E-02
 -0.654705516165E-02
 -0.654705516165E-02
 -0.654705515971E-02
 -0.654705515971E-02
 -0.571428571429E-01
 -0.571428571429E-01
 -0.571428571429E-01
 -0.571428571429E-01
 -0.571428571429E-01
 -0.571428571429E-01
 -0.571428571429E-01
 -0.571428571429E-01
 -0.571428571429E-01
 -0.571428571429E-01
 -0.571428571429E-01
 -0.571428571429E-01
  0.776266785428E-02
  0.776266785428E-02
  0.776266785494E-02
  0.776266785494E-02
  0.776266785403E-02
  0.776266785403E-02
  0.776266785333E-02
  0.776266785333E-02
  0.776266785658E-02
  0.776266785658E-02
  0.776266785386E-02
  0.776266785386E-02
 -0.335647024537E-01
 -0.335647024537E-01
 -0.335647024542E-01
 -0.335647024542E-01
 -0.335647024535E-01
 -0.335647024535E-01
 -0.335647024538E-01
 -0.335647024538E-01
 -0.335647024531E-01
 -0.335647024531E-01
 -0.335647041234E-01
 -0.335646847165E-01
 -0.654702960431E-02
 -0.654707294492E-02
 -0.654705515773E-02
 -0.654705515772E-02
 -0.654705516028E-02
 -0.654705516028E-02
 -0.654705515933E-02
 -0.654705515933E-02
 -0.654705516165E-02
 -0.654705516165E-02
 -0.654705515971E-02
 -0.654705515971E-02
 -0.571428571429E-01
 -0.571428571429E-01
 -0.571428571429E-01
 -0.571428571429E-01
 -0.571428571429E-01
 -0.571428571429E-01
 -0.571428571429E-01
 -0.571428571429E-01
 -0.571428571429E-01
 -0.571428571429E-01
 -0.571428571429E-01
 -0.571428571429E-01
  0.776266785428E-02
  0.776266785428E-02
  0.776266785494E-02
  0.776266785494E-02
  0.776266785403E-02
  0.776266785403E-02
  0.776266785333E-02
  0.776266785333E-02
  0.776266785658E-02
  0.776266785658E-02
  0.776266785386E-02
  0.776266785386E-02
 -0.335647024537E-01
 -0.335647024537E-01
 -0.335647024542E-01
 -0.335647024542E-01
 -0.335647024535E-01
 -0.335647024535E-01
 -0.335647024538E-01
 -0.335647024538E-01
 -0.335647024531E-01
 -0.335647024531E-01
 -0.335646847165E-01
 -0.335647279515E-01
 -0.654712229574E-02
 -0.654702960431E-02
 -0.654705515772E-02
 -0.654705515773E-02
 -0.654705516028E-02
 -0.654705516028E-02
 -0.654705515933E-02
 -0.654705515933E-02
 -0.654705516165E-02
 -0.654705516165E-02
 -0.654705515971E-02
 -0.654705515971E-02
 -0.571428571429E-01
 -0.571428571429E-01
 -0.571428571429E-01
 -0.571428571429E-01
 -0.571428571429E-01
 -0.571428571429E-01
 -0.571428571429E-01
 -0.571428571429E-01
 -0.571428571429E-01
 -0.571428571429E-01
 -0.571428571429E-01
 -0.571428571429E-01
  0.776266785428E-02
  0.776266785428E-02
  0.776266785494E-02
  0.776266785494E-02
  0.776266785403E-02
  0.776266785403E-02
  0.776266785333E-02
  0.776266785333E-02
  0.776266785658E-02
  0.776266785658E-02
  0.776266785386E-02
  0.776266785386E-02
 -0.335647024537E-01
 -0.335647024537E-01
 -0.335647024542E-01
 -0.335647024542E-01
 -0.335647024535E-01
 -0.335647024535E-01
 -0.335647024538E-01
 -0.335647024538E-01
 -0.335647024531E-01
 -0.335647024531E-01
 -0.335647279515E-01
 -0.335646354859E-01
 -0.654708650603E-02
 -0.654712229574E-02
 -0.654705515772E-02
 -0.654705515772E-02
 -0.654705516028E-02
 -0.654705516028E-02
 -0.654705515933E-02
 -0.654705515933E-02
 -0.654705516165E-02
 -0.654705516165E-02
 -0.654705515971E-02
 -0.654705515971E-02
 -0.571428571429E-01
 -0.571428571429E-01
 -0.571428571429E-01
 -0.571428571429E-01
 -0.571428571429E-01
 -0.571428571429E-01
 -0.571428571429E-01
 -0.571428571429E-01
 -0.571428571429E-01
 -0.571428571429E-01
 -0.571428571429E-01
 -0.571428571429E-01
  0.776266785428E-02
  0.776266785428E-02
  0.776266785494E-02
  0.776266785494E-02
  0.776266785403E-02
  0.776266785403E-02
  0.776266785333E-02
  0.776266785333E-02
  0.776266785658E-02
  0.776266785658E-02
  0.776266785386E-02
  0.776266785386E-02
 -0.335647024537E-01
 -0.335647024537E-01
 -0.335647024542E-01
 -0.335647024542E-01
 -0.335647024535E-01
 -0.335647024535E-01
 -0.335647024538E-01
 -0.335647024538E-01
 -0.335647024531E-01
 -0.335647024531E-01
 -0.335646354859E-01
 -0.335646711884E-01
 -0.654703119500E-02
 -0.654708650602E-02
 -0.654705515772E-02
 -0.654705515772E-02
 -0.654705516028E-02
 -0.654705516028E-02
 -0.654705515933E-02
 -0.654705515933E-02
 -0.654705516165E-02
 -0.654705516165E-02
 -0.654705515971E-02
 -0.654705515971E-02
 -0.571428571429E-01
 -0.571428571429E-01
 -0.571428571429E-01
 -0.571428571429E-01
 -0.571428571429E-01
 -0.571428571429E-01
 -0.571428571429E-01
 -0.571428571429E-01
 -0.571428571429E-01
 -0.571428571429E-01
 -0.571428571429E-01
 -0.571428571429E-01
  0.776266785428E-02
  0.776266785428E-02
  0.776266785494E-02
  0.776266785494E-02
  0.776266785403E-02
  0.776266785403E-02
  0.776266785333E-02
  0.776266785333E-02
  0.776266785658E-02
  0.776266785658E-02
  0.776266785386E-02
  0.776266785386E-02
 -0.335647024537E-01
 -0.335647024537E-01
 -0.335647024542E-01
 -0.335647024542E-01
 -0.335647024535E-01
 -0.335647024535E-01
 -0.335647024538E-01
 -0.335647024538E-01
 -0.335647024531E-01
 -0.335647024531E-01
 -0.335646711884E-01
 -0.335647263646E-01
 -0.654704676124E-02
 -0.654703119500E-02
 -0.654705515772E-02
 -0.654705515772E-02
 -0.654705516028E-02
 -0.654705516028E-02
 -0.654705515933E-02
 -0.654705515933E-02
 -0.654705516165E-02
 -0.654705516165E-02
 -0.654705515971E-02
 -0.654705515971E-02
 -0.571428571429E-01
 -0.571428571429E-01
 -0.571428571429E-01
 -0.571428571429E-01
 -0.571428571429E-01
 -0.571428571429E-01
 -0.571428571429E-01
 -0.571428571429E-01
 -0.571428571429E-01
 -0.571428571429E-01
 -0.571428571429E-01
 -0.571428571429E-01
  0.776266785428E-02
  0.776266785428E-02
  0.776266785494E-02
  0.776266785494E-02
  0.776266785403E-02
  0.776266785403E-02
  0.776266785333E-02
  0.776266785333E-02
  0.776266785658E-02
  0.776266785658E-02
  0.776266785386E-02
  0.776266785386E-02
 -0.335647024537E-01
 -0.335647024537E-01
 -0.335647024542E-01
 -0.335647024542E-01
 -0.335647024535E-01
 -0.335647024535E-01
 -0.335647024538E-01
 -0.335647024538E-01
 -0.335647024531E-01
 -0.335647024531E-01
 -0.335647263646E-01
 -0.335647108364E-01
 -0.654706089599E-02
 -0.654704676124E-02
 -0.654705515773E-02
 -0.654705515772E-02
 -0.654705516028E-02
 -0.654705516028E-02
 -0.654705515933E-02
 -0.654705515933E-02
 -0.654705516165E-02
 -0.654705516165E-02
 -0.654705515971E-02
 -0.654705515971E-02
 -0.571428571429E-01
 -0.571428571429E-01
 -0.571428571429E-01
 -0.571428571429E-01
 -0.571428571429E-01
 -0.571428571429E-01
 -0.571428571429E-01
 -0.571428571429E-01
 -0.571428571429E-01
 -0.571428571429E-01
 -0.571428571429E-01
 -0.571428571429E-01
  0.776266785428E-02
  0.776266785428E-02
  0.776266785494E-02
  0.776266785494E-02
  0.776266785403E-02
  0.776266785403E-02
  0.776266785333E-02
  0.776266785333E-02
  0.776266785658E-02
  0.776266785658E-02
  0.776266785386E-02
  0.776266785386E-02
 -0.335647024537E-01
 -0.335647024537E-01
 -0.335647024542E-01
 -0.335647024542E-01
 -0.335647024535E-01
 -0.335647024535E-01
 -0.335647024538E-01
 -0.335647024538E-01
 -0.335647024531E-01
 -0.335647024531E-01
 -0.335647108364E-01
 -0.335646967360E-01
 -0.654707743875E-02
 -0.654706089599E-02
 -0.654705515772E-02
 -0.654705515773E-02
 -0.654705516028E-02
 -0.654705516028E-02
 -0.654705515933E-02
 -0.654705515933E-02
 -0.654705516165E-02
 -0.654705516165E-02
 -0.654705515971E-02
 -0.654705515971E-02
 -0.571428571429E-01
 -0.571428571429E-01
 -0.571428571429E-01
 -0.571428571429E-01
 -0.571428571429E-01
 -0.571428571429E-01
 -0.571428571429E-01
 -0.571428571429E-01
 -0.571428571429E-01
 -0.571428571429E-01
 -0.571428571429E-01
 -0.571428571429E-01
  0.776266785428E-02
  0.776266785428E-02
  0.776266785494E-02
  0.776266785494E-02
  0.776266785403E-02
  0.776266785403E-02
  0.776266785333E-02
  0.776266785333E-02
  0.776266785658E-02
  0.776266785658E-02
  0.776266785386E-02
  0.776266785386E-02
 -0.335647024537E-01
 -0.335647024537E-01
 -0.335647024542E-01
 -0.335647024542E-01
 -0.335647024535E-01
 -0.335647024535E-01
 -0.335647024538E-01
 -0.335647024538E-01
 -0.335647024531E-01
 -0.335647024531E-01
 -0.335646967360E-01
 -0.335646802336E-01
 -0.654707540031E-02
 -0.654707743875E-02
 -0.654705515772E-02
 -0.654705515772E-02
 -0.654705516028E-02
 -0.654705516028E-02
 -0.654705515933E-02
 -0.654705515933E-02
 -0.654705516165E-02
 -0.654705516165E-02
 -0.654705515971E-02
 -0.654705515971E-02
 -0.571428571429E-01
 -0.571428571429E-01
 -0.571428571429E-01
 -0.571428571429E-01
 -0.571428571429E-01
 -0.571428571429E-01
 -0.571428571429E-01
 -0.571428571429E-01
 -0.571428571429E-01
 -0.571428571429E-01
 -0.571428571429E-01
 -0.571428571429E-01
  0.776266785428E-02
  0.776266785428E-02
  0.776266785494E-02
  0.776266785494E-02
  0.776266785403E-02
  0.776266785403E-02
  0.776266785333E-02
  0.776266785333E-02
  0.776266785658E-02
  0.776266785658E-02
  0.776266785386E-02
  0.776266785386E-02
 -0.335647024537E-01
 -0.335647024537E-01
 -0.335647024542E-01
 -0.335647024542E-01
 -0.335647024535E-01
 -0.335647024535E-01
 -0.335647024538E-01
 -0.335647024538E-01
 -0.335647024531E-01
 -0.335647024531E-01
 -0.335646802336E-01
 -0.335646822671E-01
 -0.654709492697E-02
 -0.654707540031E-02
 -0.654705515783E-02
 -0.654705515772E-02
 -0.654705516027E-02
 -0.654705516028E-02
 -0.654705515935E-02
 -0.654705515933E-02
 -0.654705516166E-02
 -0.654705516165E-02
 -0.654705515971E-02
 -0.654705515971E-02
 -0.571428571429E-01
 -0.571428571429E-01
 -0.571428571429E-01
 -0.571428571429E-01
 -0.571428571429E-01
 -0.571428571429E-01
 -0.571428571429E-01
 -0.571428571429E-01
 -0.571428571429E-01
 -0.571428571429E-01
 -0.571428571429E-01
 -0.571428571429E-01
  0.776266785428E-02
  0.776266785428E-02
  0.776266785494E-02
  0.776266785494E-02
  0.776266785403E-02
  0.776266785403E-02
  0.776266785333E-02
  0.776266785333E-02
  0.776266785658E-02
  0.776266785658E-02
  0.776266785386E-02
  0.776266785386E-02
 -0.335647024537E-01
 -0.335647024537E-01
 -0.335647024542E-01
 -0.335647024542E-01
 -0.335647024535E-01
 -0.335647024535E-01
 -0.335647024538E-01
 -0.335647024537E-01
 -0.335647024531E-01
 -0.335647024530E-01
 -0.335646822671E-01
 -0.335646627883E-01
 -0.654709318300E-02
 -0.654709492697E-02
 -0.654705517069E-02
 -0.654705515783E-02
 -0.654705516102E-02
 -0.654705516027E-02
 -0.654705516085E-02
 -0.654705515935E-02
 -0.654705516247E-02
 -0.654705516166E-02
 -0.654705515981E-02
 -0.654705515971E-02
 -0.571428571429E-01
 -0.571428571429E-01
 -0.571428571429E-01
 -0.571428571429E-01
 -0.571428571429E-01
 -0.571428571429E-01
 -0.571428571429E-01
 -0.571428571429E-01
 -0.571428571429E-01
 -0.571428571429E-01
 -0.571428571429E-01
 -0.571428571429E-01
  0.776266785429E-02
  0.776266785428E-02
  0.776266785495E-02
  0.776266785494E-02
  0.776266785404E-02
  0.776266785403E-02
  0.776266785335E-02
  0.776266785333E-02
  0.776266785666E-02
  0.776266785658E-02
  0.776266785399E-02
  0.776266785386E-02
 -0.335647024537E-01
 -0.335647024539E-01
 -0.335647024542E-01
 -0.335647024540E-01
 -0.335647024535E-01
 -0.335647024522E-01
 -0.335647024537E-01
 -0.335647024478E-01
 -0.335647024530E-01
 -0.335647024583E-01
 -0.335646627883E-01
 -0.335646645285E-01
 -0.654707600359E-02
 -0.654709318300E-02
 -0.654705516393E-02
 -0.654705517069E-02
 -0.654705501126E-02
 -0.654705516102E-02
 -0.654705518302E-02
 -0.654705516085E-02
 -0.654705521136E-02
 -0.654705516247E-02
 -0.654705517222E-02
 -0.654705515981E-02
 -0.571428571429E-01
 -0.571428571429E-01
 -0.571428571429E-01
 -0.571428571429E-01
 -0.571428571429E-01
 -0.571428571429E-01
 -0.571428571429E-01
 -0.571428571429E-01
 -0.571428571429E-01
 -0.571428571429E-01
 -0.571428571429E-01
 -0.571428571429E-01
  0.776266785457E-02
  0.776266785429E-02
  0.776266785543E-02
  0.776266785495E-02
  0.776266785468E-02
  0.776266785404E-02
  0.776266785475E-02
  0.776266785335E-02
  0.776266786057E-02
  0.776266785666E-02
  0.776266785983E-02
  0.776266785399E-02
 -0.335647024539E-01
 -0.335647024809E-01
 -0.335647024540E-01
 -0.335647024029E-01
 -0.335647024522E-01
 -0.335647023525E-01
 -0.335647024478E-01
 -0.335647017402E-01
 -0.335647024583E-01
 -0.335647019615E-01
 -0.335646645285E-01
 -0.335646837035E-01
 -0.654804696213E-02
 -0.654707600359E-02
 -0.654713838016E-02
 -0.654705516393E-02
 -0.654706829592E-02
 -0.654705501126E-02
 -0.654706398609E-02
 -0.654705518302E-02
 -0.654705789270E-02
 -0.654705521136E-02
 -0.654705510113E-02
 -0.654705517222E-02
 -0.571428571429E-01
 -0.571428571429E-01
 -0.571428571429E-01
 -0.571428571429E-01
 -0.571428571429E-01
 -0.571428571429E-01
 -0.571428571429E-01
 -0.571428571429E-01
 -0.571428571429E-01
 -0.571428571429E-01
 -0.571428571429E-01
 -0.571428571429E-01
  0.776266787250E-02
  0.776266785457E-02
  0.776266788825E-02
  0.776266785543E-02
  0.776266789925E-02
  0.776266785468E-02
  0.776266795853E-02
  0.776266785475E-02
  0.776266818063E-02
  0.776266786057E-02
  0.776266836128E-02
  0.776266785983E-02
 -0.335647024809E-01
 -0.335647024357E-01
 -0.335647024029E-01
 -0.335647036837E-01
 -0.335647023525E-01
 -0.335646995003E-01
 -0.335647017402E-01
 -0.335647001597E-01
 -0.335647019615E-01
 -0.335647579703E-01
 -0.335646837035E-01
 -0.335636229512E-01
 -0.657305357459E-02
 -0.654804696310E-02
 -0.654465649114E-02
 -0.654713838038E-02
 -0.654551350419E-02
 -0.654706829592E-02
 -0.654678564099E-02
 -0.654706398612E-02
 -0.654723586623E-02
 -0.654705789270E-02
 -0.654714116323E-02
 -0.654705510113E-02
 -0.571428571429E-01
 -0.571428571429E-01
 -0.571428571429E-01
 -0.571428571429E-01
 -0.571428571429E-01
 -0.571428571429E-01
 -0.571428571429E-01
 -0.571428571429E-01
 -0.571428571429E-01
 -0.571428571429E-01
 -0.571428571429E-01
 -0.571428571429E-01
  0.776266874254E-02
  0.776266787250E-02
  0.776266930436E-02
  0.776266788825E-02
  0.776266968642E-02
  0.776266789925E-02
  0.776267151024E-02
  0.776266795853E-02
  0.776267648470E-02
  0.776266818063E-02
  0.776267965638E-02
  0.776266836128E-02
 -0.335647024357E-01
 -0.335648830937E-01
 -0.335647036837E-01
 -0.335643136065E-01
 -0.335646995003E-01
 -0.335642003485E-01
 -0.335647001598E-01
 -0.335605913347E-01
 -0.335647579720E-01
 -0.335612180841E-01
 -0.335636229547E-01
 -0.335511638331E-01
 -0.678168638643E-02
 -0.657306830552E-02
 -0.681835861075E-02
 -0.654466039758E-02
 -0.664448173524E-02
 -0.654551439379E-02
 -0.660028506557E-02
 -0.654678566113E-02
 -0.655865546635E-02
 -0.654723587275E-02
 -0.654332269653E-02
 -0.654714116325E-02
 -0.571428571429E-01
 -0.571428571429E-01
 -0.571428571429E-01
 -0.571428571429E-01
 -0.571428571429E-01
 -0.571428571429E-01
 -0.571428571429E-01
 -0.571428571429E-01
 -0.571428571429E-01
 -0.571428571429E-01
 -0.571428571429E-01
 -0.571428571429E-01
  0.776274001860E-02
  0.776266874254E-02
  0.776280958491E-02
  0.776266930436E-02
  0.776286773524E-02
  0.776266968641E-02
  0.776316645383E-02
  0.776267151014E-02
  0.776434996446E-02
  0.776267648310E-02
  0.776536275233E-02
  0.776267964722E-02
 -0.335648830981E-01
 -0.335595823211E-01
 -0.335643136313E-01
 -0.335819450416E-01
 -0.335642003595E-01
 -0.335607310997E-01
 -0.335605913372E-01
 -0.336215053733E-01
 -0.335612183836E-01
 -0.336869502095E-01
 -0.335511652694E-01
 -0.329604380672E-01
 -0.144747245837E-01
 -0.678644894408E-02
 -0.521792295980E-02
 -0.682174815450E-02
 -0.137806984955E-02
 -0.664450526877E-02
 -0.545580528085E-02
 -0.660042279637E-02
 -0.662898597588E-02
 -0.655876374336E-02
 -0.693030480857E-02
 -0.654332554731E-02
 -0.571428571429E-01
 -0.571428571429E-01
 -0.571428571429E-01
 -0.571428571429E-01
 -0.571428571429E-01
 -0.571428571429E-01
 -0.571428571429E-01
 -0.571428571429E-01
 -0.571428571429E-01
 -0.571428571429E-01
 -0.571428571429E-01
 -0.571428571429E-01
  0.776458667456E-02
  0.776274001855E-02
  0.776446853228E-02
  0.776280958460E-02
  0.776426960188E-02
  0.776286773427E-02
  0.776416302496E-02
  0.776316645182E-02
  0.776270694214E-02
  0.776434996433E-02
  0.775736274958E-02
  0.776536273125E-02
 -0.335595823073E-01
 -0.338776563203E-01
 -0.335819759194E-01
 -0.323916872720E-01
 -0.335608797666E-01
 -0.317522733040E-01
 -0.336225870506E-01
 -0.273948261961E-01
 -0.336939008911E-01
 -0.391790791655E-01
 -0.329634971270E-01
 -0.328026655166E-01
 -0.513217239514E-01
 -0.155809836504E-01
 -0.297067385277E-01
 -0.609209804817E-02
  0.978847694034E-02
 -0.253239870212E-02
 -0.318911496278E-01
 -0.578519913308E-02
 -0.335426746362E-01
 -0.663714619819E-02
 -0.328418169138E-02
 -0.693030791619E-02
 -0.571428571429E-01
 -0.571428571429E-01
 -0.571428571429E-01
 -0.571428571429E-01
 -0.571428571429E-01
 -0.571428571429E-01
 -0.571428571429E-01
 -0.571428571429E-01
 -0.571428571429E-01
 -0.571428571429E-01
 -0.571428571429E-01
 -0.571428571429E-01
  0.813815302982E-02
  0.776458455755E-02
  0.861157783049E-02
  0.776442307723E-02
  0.890679226367E-02
  0.776395707591E-02
  0.999117781496E-02
  0.776184934311E-02
  0.112954326071E-01
  0.775047192534E-02
  0.123724093343E-01
  0.771561243933E-02
 -0.338976881475E-01
 -0.523557404450E-01
 -0.324485763763E-01
 -0.481179266226E-01
 -0.319992689911E-01
 -0.245718799663E-01
 -0.275724622201E-01
 -0.148531084018E-01
 -0.392287596024E-01
 -0.571387744266E-01
 -0.330083276416E-01
 -0.357463892579E-01
 -0.571428571429E-01
 -0.521276681148E-01
 -0.539108581695E-01
 -0.315146935374E-01
 -0.232738446326E-01
  0.730209934634E-02
 -0.209075772143E-01
 -0.335562150816E-01
 -0.251616404306E-01
 -0.362718703187E-01
 -0.301494653884E-01
 -0.618584805286E-02
 -0.571428571429E-01
 -0.562185650359E-01
 -0.571428571429E-01
 -0.561795636375E-01
 -0.571428571429E-01
 -0.561709372138E-01
 -0.571428571429E-01
 -0.561676986130E-01
 -0.571428571429E-01
 -0.561715070914E-01
 -0.571428571429E-01
 -0.561707408585E-01
  0.926325756897E-04
  0.813708049499E-02
 -0.202656605435E-03
  0.860337855803E-02
 -0.483753062020E-03
  0.887252108389E-02
 -0.100878112561E-02
  0.987223886687E-02
 -0.229934400810E-02
  0.109328279525E-01
 -0.395872852940E-02
  0.114626075910E-01
 -0.524741261276E-01
 -0.425760401941E-01
 -0.480912920441E-01
 -0.164203938364E-01
 -0.243892207401E-01
 -0.222202125311E-01
 -0.152748898793E-01
 -0.425808961703E-01
 -0.571400771334E-01
 -0.571428571429E-01
 -0.386978906802E-01
 -0.571428571429E-01
 -0.571428571429E-01
 -0.571428571429E-01
 -0.571428571429E-01
 -0.570684533757E-01
 -0.381286725276E-01
 -0.407523144298E-01
 -0.295112102372E-01
 -0.336530897502E-01
 -0.308806550539E-01
 -0.308344996892E-01
 -0.378560637463E-01
 -0.519517876371E-01
 -0.519083559694E-01
 -0.519640468244E-01
 -0.519494319906E-01
 -0.519938387847E-01
 -0.519722871537E-01
 -0.520013154149E-01
 -0.519930452981E-01
 -0.520135412876E-01
 -0.520011984653E-01
 -0.520085855097E-01
  0.851353073490E-04
 -0.660820994528E-04
 -0.217726873864E-03
 -0.281158631301E-03
 -0.506438634779E-03
 -0.862550462695E-03
 -0.101827661922E-02
 -0.155327730920E-02
 -0.229078921715E-02
 -0.253699936189E-02
 -0.386890775072E-02
 -0.438295914003E-01
 -0.383393919833E-01
 -0.227235462071E-01