# vtk DataFile Version 3.0
MachLine results file. Generated by MachLine, USU AeroLab (c) 2022.
ASCII
DATASET POLYDATA
POINTS                3847 float
  0.100000000000E+01  0.000000000000E+00  0.000000000000E+00
  0.986936852140E+00  0.512820512820E-01 -0.114287734800E-02
  0.100000000000E+01  0.512820512820E-01  0.000000000000E+00
  0.986936852140E+00  0.000000000000E+00 -0.114287734800E-02
  0.969870673510E+00  0.512820512820E-01 -0.263597450740E-02
  0.969870673510E+00  0.000000000000E+00 -0.263597450740E-02
  0.947785033200E+00  0.512820512820E-01 -0.456821766120E-02
  0.947785033200E+00  0.000000000000E+00 -0.456821766120E-02
  0.919551441300E+00  0.512820512820E-01 -0.703833688330E-02
  0.919551441300E+00  0.000000000000E+00 -0.703833688330E-02
  0.884018106510E+00  0.512820512820E-01 -0.101471008550E-01
  0.884018106510E+00  0.000000000000E+00 -0.101471008550E-01
  0.840166851150E+00  0.512820512820E-01 -0.139835885800E-01
  0.840166851150E+00  0.000000000000E+00 -0.139835885800E-01
  0.787342649140E+00  0.512820512820E-01 -0.186051074160E-01
  0.787342649140E+00  0.000000000000E+00 -0.186051074160E-01
  0.725530751590E+00  0.512820512820E-01 -0.240129477220E-01
  0.725530751590E+00  0.000000000000E+00 -0.240129477220E-01
  0.655612654280E+00  0.512820512820E-01 -0.301299886120E-01
  0.655612654280E+00  0.000000000000E+00 -0.301299886120E-01
  0.579493951800E+00  0.512820512820E-01 -0.367895121620E-01
  0.579493951800E+00  0.000000000000E+00 -0.367895121620E-01
  0.500000000000E+00  0.512820512820E-01 -0.437443317630E-01
  0.500000000000E+00  0.000000000000E+00 -0.437443317630E-01
  0.420506048200E+00  0.000000000000E+00 -0.367895121620E-01
  0.420506048200E+00  0.512820512820E-01 -0.367895121620E-01
  0.344387345720E+00  0.000000000000E+00 -0.301299886120E-01
  0.344387345720E+00  0.512820512820E-01 -0.301299886120E-01
  0.274469248410E+00  0.000000000000E+00 -0.240129477220E-01
  0.274469248410E+00  0.512820512820E-01 -0.240129477220E-01
  0.212657350860E+00  0.000000000000E+00 -0.186051074160E-01
  0.212657350860E+00  0.512820512820E-01 -0.186051074160E-01
  0.159833148850E+00  0.000000000000E+00 -0.139835885800E-01
  0.159833148850E+00  0.512820512820E-01 -0.139835885800E-01
  0.115981893490E+00  0.000000000000E+00 -0.101471008550E-01
  0.115981893490E+00  0.512820512820E-01 -0.101471008550E-01
  0.804485587010E-01  0.000000000000E+00 -0.703833688330E-02
  0.804485587010E-01  0.512820512820E-01 -0.703833688330E-02
  0.522149667970E-01  0.000000000000E+00 -0.456821766120E-02
  0.522149667970E-01  0.512820512820E-01 -0.456821766120E-02
  0.301293264890E-01  0.000000000000E+00 -0.263597450740E-02
  0.301293264890E-01  0.512820512820E-01 -0.263597450740E-02
  0.130631478640E-01  0.000000000000E+00 -0.114287734800E-02
  0.130631478640E-01  0.512820512820E-01 -0.114287734800E-02
  0.000000000000E+00  0.000000000000E+00  0.000000000000E+00
  0.000000000000E+00  0.512820512820E-01  0.000000000000E+00
  0.130631478640E-01  0.512820512820E-01  0.114287734800E-02
  0.130631478640E-01  0.000000000000E+00  0.114287734800E-02
  0.301293264890E-01  0.512820512820E-01  0.263597450740E-02
  0.301293264890E-01  0.000000000000E+00  0.263597450740E-02
  0.522149667970E-01  0.512820512820E-01  0.456821766120E-02
  0.522149667970E-01  0.000000000000E+00  0.456821766120E-02
  0.804485587010E-01  0.512820512820E-01  0.703833688330E-02
  0.804485587010E-01  0.000000000000E+00  0.703833688330E-02
  0.115981893490E+00  0.512820512820E-01  0.101471008550E-01
  0.115981893490E+00  0.000000000000E+00  0.101471008550E-01
  0.159833148850E+00  0.512820512820E-01  0.139835885800E-01
  0.159833148850E+00  0.000000000000E+00  0.139835885800E-01
  0.212657350860E+00  0.512820512820E-01  0.186051074160E-01
  0.212657350860E+00  0.000000000000E+00  0.186051074160E-01
  0.274469248410E+00  0.512820512820E-01  0.240129477220E-01
  0.274469248410E+00  0.000000000000E+00  0.240129477220E-01
  0.344387345720E+00  0.512820512820E-01  0.301299886120E-01
  0.344387345720E+00  0.000000000000E+00  0.301299886120E-01
  0.420506048200E+00  0.512820512820E-01  0.367895121620E-01
  0.420506048200E+00  0.000000000000E+00  0.367895121620E-01
  0.500000000000E+00  0.512820512820E-01  0.437443317630E-01
  0.500000000000E+00  0.000000000000E+00  0.437443317630E-01
  0.579493951800E+00  0.000000000000E+00  0.367895121620E-01
  0.579493951800E+00  0.512820512820E-01  0.367895121620E-01
  0.655612654280E+00  0.000000000000E+00  0.301299886120E-01
  0.655612654280E+00  0.512820512820E-01  0.301299886120E-01
  0.725530751590E+00  0.000000000000E+00  0.240129477220E-01
  0.725530751590E+00  0.512820512820E-01  0.240129477220E-01
  0.787342649140E+00  0.000000000000E+00  0.186051074160E-01
  0.787342649140E+00  0.512820512820E-01  0.186051074160E-01
  0.840166851150E+00  0.000000000000E+00  0.139835885800E-01
  0.840166851150E+00  0.512820512820E-01  0.139835885800E-01
  0.884018106510E+00  0.000000000000E+00  0.101471008550E-01
  0.884018106510E+00  0.512820512820E-01  0.101471008550E-01
  0.919551441300E+00  0.000000000000E+00  0.703833688330E-02
  0.919551441300E+00  0.512820512820E-01  0.703833688330E-02
  0.947785033200E+00  0.000000000000E+00  0.456821766120E-02
  0.947785033200E+00  0.512820512820E-01  0.456821766120E-02
  0.969870673510E+00  0.000000000000E+00  0.263597450740E-02
  0.969870673510E+00  0.512820512820E-01  0.263597450740E-02
  0.986936852140E+00  0.000000000000E+00  0.114287734800E-02
  0.986936852140E+00  0.512820512820E-01  0.114287734800E-02
  0.986936852140E+00  0.102564102560E+00 -0.114287734800E-02
  0.100000000000E+01  0.102564102560E+00  0.000000000000E+00
  0.969870673510E+00  0.102564102560E+00 -0.263597450740E-02
  0.947785033200E+00  0.102564102560E+00 -0.456821766120E-02
  0.919551441300E+00  0.102564102560E+00 -0.703833688330E-02
  0.884018106510E+00  0.102564102560E+00 -0.101471008550E-01
  0.840166851150E+00  0.102564102560E+00 -0.139835885800E-01
  0.787342649140E+00  0.102564102560E+00 -0.186051074160E-01
  0.725530751590E+00  0.102564102560E+00 -0.240129477220E-01
  0.655612654280E+00  0.102564102560E+00 -0.301299886120E-01
  0.579493951800E+00  0.102564102560E+00 -0.367895121620E-01
  0.500000000000E+00  0.102564102560E+00 -0.437443317630E-01
  0.420506048200E+00  0.102564102560E+00 -0.367895121620E-01
  0.344387345720E+00  0.102564102560E+00 -0.301299886120E-01
  0.274469248410E+00  0.102564102560E+00 -0.240129477220E-01
  0.212657350860E+00  0.102564102560E+00 -0.186051074160E-01
  0.159833148850E+00  0.102564102560E+00 -0.139835885800E-01
  0.115981893490E+00  0.102564102560E+00 -0.101471008550E-01
  0.804485587010E-01  0.102564102560E+00 -0.703833688330E-02
  0.522149667970E-01  0.102564102560E+00 -0.456821766120E-02
  0.301293264890E-01  0.102564102560E+00 -0.263597450740E-02
  0.130631478640E-01  0.102564102560E+00 -0.114287734800E-02
  0.000000000000E+00  0.102564102560E+00  0.000000000000E+00
  0.130631478640E-01  0.102564102560E+00  0.114287734800E-02
  0.301293264890E-01  0.102564102560E+00  0.263597450740E-02
  0.522149667970E-01  0.102564102560E+00  0.456821766120E-02
  0.804485587010E-01  0.102564102560E+00  0.703833688330E-02
  0.115981893490E+00  0.102564102560E+00  0.101471008550E-01
  0.159833148850E+00  0.102564102560E+00  0.139835885800E-01
  0.212657350860E+00  0.102564102560E+00  0.186051074160E-01
  0.274469248410E+00  0.102564102560E+00  0.240129477220E-01
  0.344387345720E+00  0.102564102560E+00  0.301299886120E-01
  0.420506048200E+00  0.102564102560E+00  0.367895121620E-01
  0.500000000000E+00  0.102564102560E+00  0.437443317630E-01
  0.579493951800E+00  0.102564102560E+00  0.367895121620E-01
  0.655612654280E+00  0.102564102560E+00  0.301299886120E-01
  0.725530751590E+00  0.102564102560E+00  0.240129477220E-01
  0.787342649140E+00  0.102564102560E+00  0.186051074160E-01
  0.840166851150E+00  0.102564102560E+00  0.139835885800E-01
  0.884018106510E+00  0.102564102560E+00  0.101471008550E-01
  0.919551441300E+00  0.102564102560E+00  0.703833688330E-02
  0.947785033200E+00  0.102564102560E+00  0.456821766120E-02
  0.969870673510E+00  0.102564102560E+00  0.263597450740E-02
  0.986936852140E+00  0.102564102560E+00  0.114287734800E-02
  0.986936852140E+00  0.153846153850E+00 -0.114287734800E-02
  0.100000000000E+01  0.153846153850E+00  0.000000000000E+00
  0.969870673510E+00  0.153846153850E+00 -0.263597450740E-02
  0.947785033200E+00  0.153846153850E+00 -0.456821766120E-02
  0.919551441300E+00  0.153846153850E+00 -0.703833688330E-02
  0.884018106510E+00  0.153846153850E+00 -0.101471008550E-01
  0.840166851150E+00  0.153846153850E+00 -0.139835885800E-01
  0.787342649140E+00  0.153846153850E+00 -0.186051074160E-01
  0.725530751590E+00  0.153846153850E+00 -0.240129477220E-01
  0.655612654280E+00  0.153846153850E+00 -0.301299886120E-01
  0.579493951800E+00  0.153846153850E+00 -0.367895121620E-01
  0.500000000000E+00  0.153846153850E+00 -0.437443317630E-01
  0.420506048200E+00  0.153846153850E+00 -0.367895121620E-01
  0.344387345720E+00  0.153846153850E+00 -0.301299886120E-01
  0.274469248410E+00  0.153846153850E+00 -0.240129477220E-01
  0.212657350860E+00  0.153846153850E+00 -0.186051074160E-01
  0.159833148850E+00  0.153846153850E+00 -0.139835885800E-01
  0.115981893490E+00  0.153846153850E+00 -0.101471008550E-01
  0.804485587010E-01  0.153846153850E+00 -0.703833688330E-02
  0.522149667970E-01  0.153846153850E+00 -0.456821766120E-02
  0.301293264890E-01  0.153846153850E+00 -0.263597450740E-02
  0.130631478640E-01  0.153846153850E+00 -0.114287734800E-02
  0.000000000000E+00  0.153846153850E+00  0.000000000000E+00
  0.130631478640E-01  0.153846153850E+00  0.114287734800E-02
  0.301293264890E-01  0.153846153850E+00  0.263597450740E-02
  0.522149667970E-01  0.153846153850E+00  0.456821766120E-02
  0.804485587010E-01  0.153846153850E+00  0.703833688330E-02
  0.115981893490E+00  0.153846153850E+00  0.101471008550E-01
  0.159833148850E+00  0.153846153850E+00  0.139835885800E-01
[...]
CELL_DATA                7536
SCALARS C_p_ise float 1
LOOKUP_TABLE default
 -0.167216494435E-01
 -0.167215377830E-01
 -0.167216327915E-01
 -0.167216327915E-01
 -0.167216327973E-01
 -0.167216327973E-01
 -0.167216327997E-01
 -0.167216327997E-01
 -0.167216327998E-01
 -0.167216327998E-01
 -0.167216327956E-01
 -0.167216327956E-01
 -0.167216327992E-01
 -0.167216327992E-01
 -0.167216327952E-01
 -0.167216327952E-01
 -0.167216327980E-01
 -0.167216327980E-01
 -0.167216328000E-01
 -0.167216328000E-01
 -0.167216327966E-01
 -0.167216327966E-01
  0.317222635147E-01
  0.317222635147E-01
  0.317222634865E-01
  0.317222634865E-01
  0.317222635030E-01
  0.317222635030E-01
  0.317222635265E-01
  0.317222635265E-01
  0.317222634927E-01
  0.317222634927E-01
  0.317222635227E-01
  0.317222635227E-01
  0.317222634827E-01
  0.317222634827E-01
  0.317222635136E-01
  0.317222635136E-01
  0.317222634923E-01
  0.317222634923E-01
  0.317222635046E-01
  0.317222635046E-01
  0.317222635149E-01
  0.317222635149E-01
  0.272987190635E-01
  0.272987190635E-01
  0.272987190666E-01
  0.272987190666E-01
  0.272987190704E-01
  0.272987190704E-01
  0.272987190639E-01
  0.272987190639E-01
  0.272987190733E-01
  0.272987190733E-01
  0.272987190611E-01
  0.272987190611E-01
  0.272987190703E-01
  0.272987190703E-01
  0.272987190599E-01
  0.272987190599E-01
  0.272987190671E-01
  0.272987190671E-01
  0.272987190722E-01
  0.272987190722E-01
  0.272987190636E-01
  0.272987190636E-01
 -0.294689142712E-01
 -0.294689142712E-01
 -0.294689142730E-01
 -0.294689142730E-01
 -0.294689142719E-01
 -0.294689142719E-01
 -0.294689142704E-01
 -0.294689142704E-01
 -0.294689142726E-01
 -0.294689142726E-01
 -0.294689142706E-01
 -0.294689142706E-01
 -0.294689142729E-01
 -0.294689142729E-01
 -0.294689142729E-01
 -0.294689142729E-01
 -0.294689142716E-01
 -0.294689142716E-01
 -0.294689142684E-01
 -0.294689142684E-01
 -0.294690024559E-01
 -0.294688988319E-01
 -0.167216710343E-01
 -0.167216494435E-01
 -0.167216327915E-01
 -0.167216327915E-01
 -0.167216327973E-01
 -0.167216327973E-01
 -0.167216327997E-01
 -0.167216327997E-01
 -0.167216327998E-01
 -0.167216327998E-01
 -0.167216327956E-01
 -0.167216327956E-01
 -0.167216327992E-01
 -0.167216327992E-01
 -0.167216327952E-01
 -0.167216327952E-01
 -0.167216327980E-01
 -0.167216327980E-01
 -0.167216328000E-01
 -0.167216328000E-01
 -0.167216327966E-01
 -0.167216327966E-01
  0.317222635147E-01
  0.317222635147E-01
  0.317222634865E-01
  0.317222634865E-01
  0.317222635030E-01
  0.317222635030E-01
  0.317222635265E-01
  0.317222635265E-01
  0.317222634927E-01
  0.317222634927E-01
  0.317222635227E-01
  0.317222635227E-01
  0.317222634827E-01
  0.317222634827E-01
  0.317222635136E-01
  0.317222635136E-01
  0.317222634923E-01
  0.317222634923E-01
  0.317222635046E-01
  0.317222635046E-01
  0.317222635149E-01
  0.317222635149E-01
  0.272987190635E-01
  0.272987190635E-01
  0.272987190666E-01
  0.272987190666E-01
  0.272987190704E-01
  0.272987190704E-01
  0.272987190639E-01
  0.272987190639E-01
  0.272987190733E-01
  0.272987190733E-01
  0.272987190611E-01
  0.272987190611E-01
  0.272987190703E-01
  0.272987190703E-01
  0.272987190599E-01
  0.272987190599E-01
  0.272987190671E-01
  0.272987190671E-01
  0.272987190722E-01
  0.272987190722E-01
  0.272987190636E-01
  0.272987190636E-01
 -0.294689142712E-01
 -0.294689142712E-01
 -0.294689142730E-01
 -0.294689142730E-01
 -0.294689142719E-01
 -0.294689142719E-01
 -0.294689142704E-01
 -0.294689142704E-01
 -0.294689142726E-01
 -0.294689142726E-01
 -0.294689142706E-01
 -0.294689142706E-01
 -0.294689142729E-01
 -0.294689142729E-01
 -0.294689142729E-01
 -0.294689142729E-01
 -0.294689142716E-01
 -0.294689142716E-01
 -0.294689142684E-01
 -0.294689142684E-01
 -0.294688988319E-01
 -0.294688787951E-01
 -0.167216904253E-01
 -0.167216710343E-01
 -0.167216327915E-01
 -0.167216327915E-01
 -0.167216327973E-01
 -0.167216327973E-01
 -0.167216327997E-01
 -0.167216327997E-01
 -0.167216327998E-01
 -0.167216327998E-01
 -0.167216327956E-01
 -0.167216327956E-01
 -0.167216327992E-01
 -0.167216327992E-01
 -0.167216327952E-01
 -0.167216327952E-01
 -0.167216327980E-01
 -0.167216327980E-01
 -0.167216328000E-01
 -0.167216328000E-01
 -0.167216327966E-01
 -0.167216327966E-01
  0.317222635147E-01
  0.317222635147E-01
  0.317222634865E-01
  0.317222634865E-01
  0.317222635030E-01
  0.317222635030E-01
  0.317222635265E-01
  0.317222635265E-01
  0.317222634927E-01
  0.317222634927E-01
  0.317222635227E-01
  0.317222635227E-01
  0.317222634827E-01
  0.317222634827E-01
  0.317222635136E-01
  0.317222635136E-01
  0.317222634923E-01
  0.317222634923E-01
  0.317222635046E-01
  0.317222635046E-01
  0.317222635149E-01
  0.317222635149E-01
  0.272987190635E-01
  0.272987190635E-01
  0.272987190666E-01
  0.272987190666E-01
  0.272987190704E-01
  0.272987190704E-01
  0.272987190639E-01
  0.272987190639E-01
  0.272987190733E-01
  0.272987190733E-01
  0.272987190611E-01
  0.272987190611E-01
  0.272987190703E-01
  0.272987190703E-01
  0.272987190599E-01
  0.272987190599E-01
  0.272987190671E-01
  0.272987190671E-01
  0.272987190722E-01
  0.272987190722E-01
  0.272987190636E-01
  0.272987190636E-01
 -0.294689142712E-01
 -0.294689142712E-01
 -0.294689142730E-01
 -0.294689142730E-01
 -0.294689142719E-01
 -0.294689142719E-01
 -0.294689142704E-01
 -0.294689142704E-01
 -0.294689142726E-01
 -0.294689142726E-01
 -0.294689142706E-01
 -0.294689142706E-01
 -0.294689142729E-01
 -0.294689142729E-01
 -0.294689142729E-01
 -0.294689142729E-01
 -0.294689142716E-01
 -0.294689142716E-01
 -0.294689142684E-01
 -0.294689142684E-01
 -0.294688787951E-01
 -0.294688607996E-01
 -0.167217334990E-01
 -0.167216904253E-01
 -0.167216327915E-01
 -0.167216327915E-01
 -0.167216327973E-01
 -0.167216327973E-01
 -0.167216327997E-01
 -0.167216327997E-01
 -0.167216327998E-01
 -0.167216327998E-01
 -0.167216327956E-01
 -0.167216327956E-01
 -0.167216327992E-01
 -0.167216327992E-01
 -0.167216327952E-01
 -0.167216327952E-01
 -0.167216327980E-01
 -0.167216327980E-01
 -0.167216328000E-01
 -0.167216328000E-01
 -0.167216327966E-01
 -0.167216327966E-01
  0.317222635147E-01
  0.317222635147E-01
  0.317222634865E-01
  0.317222634865E-01
  0.317222635030E-01
  0.317222635030E-01
  0.317222635265E-01
  0.317222635265E-01
  0.317222634927E-01
  0.317222634927E-01
  0.317222635227E-01
  0.317222635227E-01
  0.317222634827E-01
  0.317222634827E-01
  0.317222635136E-01
  0.317222635136E-01
  0.317222634923E-01
  0.317222634923E-01
  0.317222635046E-01
  0.317222635046E-01
  0.317222635149E-01
  0.317222635149E-01
  0.272987190635E-01
  0.272987190635E-01
  0.272987190666E-01
  0.272987190666E-01
  0.272987190704E-01
  0.272987190704E-01
  0.272987190639E-01
  0.272987190639E-01
  0.272987190733E-01
  0.272987190733E-01
  0.272987190611E-01
  0.272987190611E-01
  0.272987190703E-01
  0.272987190703E-01
  0.272987190599E-01
  0.272987190599E-01
  0.272987190671E-01
  0.272987190671E-01
  0.272987190722E-01
  0.272987190722E-01
  0.272987190636E-01
  0.272987190636E-01
 -0.294689142712E-01
 -0.294689142712E-01
 -0.294689142730E-01
 -0.294689142730E-01
 -0.294689142719E-01
 -0.294689142719E-01
 -0.294689142704E-01
 -0.294689142704E-01
 -0.294689142726E-01
 -0.294689142726E-01
 -0.294689142706E-01
 -0.294689142706E-01
 -0.294689142729E-01
 -0.294689142729E-01
 -0.294689142729E-01
 -0.294689142729E-01
 -0.294689142716E-01
 -0.294689142716E-01
 -0.294689142684E-01
 -0.294689142684E-01
 -0.294688607996E-01
 -0.294688208259E-01
 -0.167216587747E-01
 -0.167217334990E-01
 -0.167216327915E-01
 -0.167216327915E-01
 -0.167216327973E-01
 -0.167216327973E-01
 -0.167216327997E-01
 -0.167216327997E-01
 -0.167216327998E-01
 -0.167216327998E-01
 -0.167216327956E-01
 -0.167216327956E-01
 -0.167216327992E-01
 -0.167216327992E-01
 -0.167216327952E-01
 -0.167216327952E-01
 -0.167216327980E-01
 -0.167216327980E-01
 -0.167216328000E-01
 -0.167216328000E-01
 -0.167216327966E-01
 -0.167216327966E-01
  0.317222635147E-01
  0.317222635147E-01
  0.317222634865E-01
  0.317222634865E-01
  0.317222635030E-01
  0.317222635030E-01
  0.317222635265E-01
  0.317222635265E-01
  0.317222634927E-01
  0.317222634927E-01
  0.317222635227E-01
  0.317222635227E-01
  0.317222634827E-01
  0.317222634827E-01
  0.317222635136E-01
  0.317222635136E-01
  0.317222634923E-01
  0.317222634923E-01
  0.317222635046E-01
  0.317222635046E-01
  0.317222635149E-01
  0.317222635149E-01
  0.272987190635E-01
  0.272987190635E-01
  0.272987190666E-01
  0.272987190666E-01
  0.272987190704E-01
  0.272987190704E-01
  0.272987190639E-01
  0.272987190639E-01
  0.272987190733E-01
  0.272987190733E-01
  0.272987190611E-01
  0.272987190611E-01
  0.272987190703E-01
  0.272987190703E-01
  0.272987190599E-01
  0.272987190599E-01
  0.272987190671E-01
  0.272987190671E-01
  0.272987190722E-01
  0.272987190722E-01
  0.272987190636E-01
  0.272987190636E-01
 -0.294689142712E-01
 -0.294689142712E-01
 -0.294689142730E-01
 -0.294689142730E-01
 -0.294689142719E-01
 -0.294689142719E-01
 -0.294689142704E-01
 -0.294689142704E-01
 -0.294689142726E-01
 -0.294689142726E-01
 -0.294689142706E-01
 -0.294689142706E-01
 -0.294689142729E-01
 -0.294689142729E-01
 -0.294689142729E-01
 -0.294689142729E-01
 -0.294689142716E-01
 -0.294689142716E-01
 -0.294689142684E-01
 -0.294689142684E-01
 -0.294688208259E-01
 -0.294688901723E-01
 -0.167216727609E-01
 -0.167216587747E-01
 -0.167216327915E-01
 -0.167216327915E-01
 -0.167216327973E-01
 -0.167216327973E-01
 -0.167216327997E-01
 -0.167216327997E-01
 -0.167216327998E-01
 -0.167216327998E-01
 -0.167216327956E-01
 -0.167216327956E-01
 -0.167216327992E-01
 -0.167216327992E-01
 -0.167216327952E-01
 -0.167216327952E-01
 -0.167216327980E-01
 -0.167216327980E-01
 -0.167216328000E-01
 -0.167216328000E-01
 -0.167216327966E-01
 -0.167216327966E-01
  0.317222635147E-01
  0.317222635147E-01
  0.317222634865E-01
  0.317222634865E-01
  0.317222635030E-01
  0.317222635030E-01
  0.317222635265E-01
  0.317222635265E-01
  0.317222634927E-01
  0.317222634927E-01
  0.317222635227E-01
  0.317222635227E-01
  0.317222634827E-01
  0.317222634827E-01
  0.317222635136E-01
  0.317222635136E-01
  0.317222634923E-01
  0.317222634923E-01
  0.317222635046E-01
  0.317222635046E-01
  0.317222635149E-01
  0.317222635149E-01
  0.272987190635E-01
  0.272987190635E-01
  0.272987190666E-01
  0.272987190666E-01
  0.272987190704E-01
  0.272987190704E-01
  0.272987190639E-01
  0.272987190639E-01
  0.272987190733E-01
  0.272987190733E-01
  0.272987190611E-01
  0.272987190611E-01
  0.272987190703E-01
  0.272987190703E-01
  0.272987190599E-01
  0.272987190599E-01
  0.272987190671E-01
  0.272987190671E-01
  0.272987190722E-01
  0.272987190722E-01
  0.272987190636E-01
  0.272987190636E-01
 -0.294689142712E-01
 -0.294689142712E-01
 -0.294689142730E-01
 -0.294689142730E-01
 -0.294689142719E-01
 -0.294689142719E-01
 -0.294689142704E-01
 -0.294689142704E-01
 -0.294689142726E-01
 -0.294689142726E-01
 -0.294689142706E-01
 -0.294689142706E-01
 -0.294689142729E-01
 -0.294689142729E-01
 -0.294689142729E-01
 -0.294689142729E-01
 -0.294689142716E-01
 -0.294689142716E-01
 -0.294689142684E-01
 -0.294689142684E-01
 -0.294688901723E-01
 -0.294688771927E-01
 -0.167216895702E-01
 -0.167216727609E-01
 -0.167216327915E-01
 -0.167216327915E-01
 -0.167216327973E-01
 -0.167216327973E-01
 -0.167216327997E-01
 -0.167216327997E-01
 -0.167216327998E-01
 -0.167216327998E-01
 -0.167216327956E-01
 -0.167216327956E-01
 -0.167216327992E-01
 -0.167216327992E-01
 -0.167216327952E-01
 -0.167216327952E-01
 -0.167216327980E-01
 -0.167216327980E-01
 -0.167216328000E-01
 -0.167216328000E-01
 -0.167216327966E-01
 -0.167216327966E-01
  0.317222635147E-01
  0.317222635147E-01
  0.317222634865E-01
  0.317222634865E-01
  0.317222635030E-01
  0.317222635030E-01
  0.317222635265E-01
  0.317222635265E-01
  0.317222634927E-01
  0.317222634927E-01
  0.317222635227E-01
  0.317222635227E-01
  0.317222634827E-01
  0.317222634827E-01
  0.317222635136E-01
  0.317222635136E-01
  0.317222634923E-01
  0.317222634923E-01
  0.317222635046E-01
  0.317222635046E-01
  0.317222635149E-01
  0.317222635149E-01
  0.272987190635E-01
  0.272987190635E-01
  0.272987190666E-01
  0.272987190666E-01
  0.272987190704E-01
  0.272987190704E-01
  0.272987190639E-01
  0.272987190639E-01
  0.272987190733E-01
  0.272987190733E-01
  0.272987190611E-01
  0.272987190611E-01
  0.272987190703E-01
  0.272987190703E-01
  0.272987190599E-01
  0.272987190599E-01
  0.272987190671E-01
  0.272987190671E-01
  0.272987190722E-01
  0.272987190722E-01
  0.272987190636E-01
  0.272987190636E-01
 -0.294689142712E-01
 -0.294689142712E-01
 -0.294689142730E-01
 -0.294689142730E-01
 -0.294689142719E-01
 -0.294689142719E-01
 -0.294689142704E-01
 -0.294689142704E-01
 -0.294689142726E-01
 -0.294689142726E-01
 -0.294689142706E-01
 -0.294689142706E-01
 -0.294689142729E-01
 -0.294689142729E-01
 -0.294689142729E-01
 -0.294689142729E-01
 -0.294689142716E-01
 -0.294689142716E-01
 -0.294689142684E-01
 -0.294689142684E-01
 -0.294688771927E-01
 -0.294688615932E-01
 -0.167217588650E-01
 -0.167216895702E-01
 -0.167216327916E-01
 -0.167216327915E-01
 -0.167216327973E-01
 -0.167216327973E-01
 -0.167216327997E-01
 -0.167216327997E-01
 -0.167216327998E-01
 -0.167216327998E-01
 -0.167216327956E-01
 -0.167216327956E-01
 -0.167216327992E-01
 -0.167216327992E-01
 -0.167216327952E-01
 -0.167216327952E-01
 -0.167216327980E-01
 -0.167216327980E-01
 -0.167216328000E-01
 -0.167216328000E-01
 -0.167216327966E-01
 -0.167216327966E-01
  0.317222635147E-01
  0.317222635147E-01
  0.317222634865E-01
  0.317222634865E-01
  0.317222635030E-01
  0.317222635030E-01
  0.317222635265E-01
  0.317222635265E-01
  0.317222634927E-01
  0.317222634927E-01
  0.317222635227E-01
  0.317222635227E-01
  0.317222634827E-01
  0.317222634827E-01
  0.317222635136E-01
  0.317222635136E-01
  0.317222634923E-01
  0.317222634923E-01
  0.317222635046E-01
  0.317222635046E-01
  0.317222635149E-01
  0.317222635149E-01
  0.272987190635E-01
  0.272987190635E-01
  0.272987190666E-01
  0.272987190666E-01
  0.272987190704E-01
  0.272987190704E-01
  0.272987190639E-01
  0.272987190639E-01
  0.272987190733E-01
  0.272987190733E-01
  0.272987190611E-01
  0.272987190611E-01
  0.272987190703E-01
  0.272987190703E-01
  0.272987190599E-01
  0.272987190599E-01
  0.272987190671E-01
  0.272987190671E-01
  0.272987190722E-01
  0.272987190722E-01
  0.272987190636E-01
  0.272987190636E-01
 -0.294689142712E-01
 -0.294689142712E-01
 -0.294689142730E-01
 -0.294689142730E-01
 -0.294689142719E-01
 -0.294689142719E-01
 -0.294689142704E-01
 -0.294689142704E-01
 -0.294689142726E-01
 -0.294689142726E-01
 -0.294689142706E-01
 -0.294689142706E-01
 -0.294689142729E-01
 -0.294689142729E-01
 -0.294689142729E-01
 -0.294689142729E-01
 -0.294689142716E-01
 -0.294689142716E-01
 -0.294689142684E-01
 -0.294689142684E-01
 -0.294688615932E-01
 -0.294687972855E-01
 -0.167216680822E-01
 -0.167217588650E-01
 -0.167216327915E-01
 -0.167216327916E-01
 -0.167216327973E-01
 -0.167216327973E-01
 -0.167216327997E-01
 -0.167216327997E-01
 -0.167216327998E-01
 -0.167216327998E-01
 -0.167216327956E-01
 -0.167216327956E-01
 -0.167216327992E-01
 -0.167216327992E-01
 -0.167216327952E-01
 -0.167216327952E-01
 -0.167216327980E-01
 -0.167216327980E-01
 -0.167216328000E-01
 -0.167216328000E-01
 -0.167216327966E-01
 -0.167216327966E-01
  0.317222635147E-01
  0.317222635147E-01
  0.317222634865E-01
  0.317222634865E-01
  0.317222635030E-01
  0.317222635030E-01
  0.317222635265E-01
  0.317222635265E-01
  0.317222634927E-01
  0.317222634927E-01
  0.317222635227E-01
  0.317222635227E-01
  0.317222634827E-01
  0.317222634827E-01
  0.317222635136E-01
  0.317222635136E-01
  0.317222634923E-01
  0.317222634923E-01
  0.317222635046E-01
  0.317222635046E-01
  0.317222635149E-01
  0.317222635149E-01
  0.272987190635E-01
  0.272987190635E-01
  0.272987190666E-01
  0.272987190666E-01
  0.272987190704E-01
  0.272987190704E-01
  0.272987190639E-01
  0.272987190639E-01
  0.272987190733E-01
  0.272987190733E-01
  0.272987190611E-01
  0.272987190611E-01
  0.272987190703E-01
  0.272987190703E-01
  0.272987190599E-01
  0.272987190599E-01
  0.272987190671E-01
  0.272987190671E-01
  0.272987190722E-01
  0.272987190722E-01
  0.272987190636E-01
  0.272987190636E-01
 -0.294689142712E-01
 -0.294689142712E-01
 -0.294689142730E-01
 -0.294689142730E-01
 -0.294689142719E-01
 -0.294689142719E-01
 -0.294689142704E-01
 -0.294689142704E-01
 -0.294689142726E-01
 -0.294689142726E-01
 -0.294689142706E-01
 -0.294689142706E-01
 -0.294689142729E-01
 -0.294689142729E-01
 -0.294689142729E-01
 -0.294689142729E-01
 -0.294689142716E-01
 -0.294689142716E-01
 -0.294689142684E-01
 -0.294689142684E-01
 -0.294687972855E-01
 -0.294688815347E-01
 -0.167216591073E-01
 -0.167216680822E-01
 -0.167216327916E-01
 -0.167216327915E-01
 -0.167216327973E-01
 -0.167216327973E-01
 -0.167216327997E-01
 -0.167216327997E-01
 -0.167216327998E-01
 -0.167216327998E-01
 -0.167216327956E-01
 -0.167216327956E-01
 -0.167216327992E-01
 -0.167216327992E-01
 -0.167216327952E-01
 -0.167216327952E-01
 -0.167216327980E-01
 -0.167216327980E-01
 -0.167216328000E-01
 -0.167216328000E-01
 -0.167216327966E-01
 -0.167216327966E-01
  0.317222635147E-01
  0.317222635147E-01
  0.317222634865E-01
  0.317222634865E-01
  0.317222635030E-01
  0.317222635030E-01
  0.317222635265E-01
  0.317222635265E-01
  0.317222634927E-01
  0.317222634927E-01
  0.317222635227E-01
  0.317222635227E-01
  0.317222634827E-01
  0.317222634827E-01
  0.317222635136E-01
  0.317222635136E-01
  0.317222634923E-01
  0.317222634923E-01
  0.317222635046E-01
  0.317222635046E-01
  0.317222635149E-01
  0.317222635149E-01
  0.272987190635E-01
  0.272987190635E-01
  0.272987190666E-01
  0.272987190666E-01
  0.272987190704E-01
  0.272987190704E-01
  0.272987190639E-01
  0.272987190639E-01
  0.272987190733E-01
  0.272987190733E-01
  0.272987190611E-01
  0.272987190611E-01
  0.272987190703E-01
  0.272987190703E-01
  0.272987190599E-01
  0.272987190599E-01
  0.272987190671E-01
  0.272987190671E-01
  0.272987190722E-01
  0.272987190722E-01
  0.272987190636E-01
  0.272987190636E-01
 -0.294689142712E-01
 -0.294689142712E-01
 -0.294689142730E-01
 -0.294689142730E-01
 -0.294689142719E-01
 -0.294689142719E-01
 -0.294689142704E-01
 -0.294689142704E-01
 -0.294689142726E-01
 -0.294689142726E-01
 -0.294689142706E-01
 -0.294689142706E-01
 -0.294689142729E-01
 -0.294689142729E-01
 -0.294689142729E-01
 -0.294689142729E-01
 -0.294689142716E-01
 -0.294689142716E-01
 -0.294689142684E-01
 -0.294689142684E-01
 -0.294688815347E-01
 -0.294688898637E-01
 -0.167217451229E-01
 -0.167216591073E-01
 -0.167216327915E-01
 -0.167216327916E-01
 -0.167216327973E-01
 -0.167216327973E-01
 -0.167216327997E-01
 -0.167216327997E-01
 -0.167216327998E-01
 -0.167216327998E-01
 -0.167216327956E-01
 -0.167216327956E-01
 -0.167216327992E-01
 -0.167216327992E-01
 -0.167216327952E-01
 -0.167216327952E-01
 -0.167216327980E-01
 -0.167216327980E-01
 -0.167216328000E-01
 -0.167216328000E-01
 -0.167216327966E-01
 -0.167216327966E-01
  0.317222635147E-01
  0.317222635147E-01
  0.317222634865E-01
  0.317222634865E-01
  0.317222635030E-01
  0.317222635030E-01
  0.317222635265E-01
  0.317222635265E-01
  0.317222634927E-01
  0.317222634927E-01
  0.317222635227E-01
  0.317222635227E-01
  0.317222634827E-01
  0.317222634827E-01
  0.317222635136E-01
  0.317222635136E-01
  0.317222634923E-01
  0.317222634923E-01
  0.317222635046E-01
  0.317222635046E-01
  0.317222635149E-01
  0.317222635149E-01
  0.272987190635E-01
  0.272987190635E-01
  0.272987190666E-01
  0.272987190666E-01
  0.272987190704E-01
  0.272987190704E-01
  0.272987190639E-01
  0.272987190639E-01
  0.272987190733E-01
  0.272987190733E-01
  0.272987190611E-01
  0.272987190611E-01
  0.272987190703E-01
  0.272987190703E-01
  0.272987190599E-01
  0.272987190599E-01
  0.272987190671E-01
  0.272987190671E-01
  0.272987190722E-01
  0.272987190722E-01
  0.272987190636E-01
  0.272987190636E-01
 -0.294689142712E-01
 -0.294689142712E-01