# vtk DataFile Version 3.0
MachLine results file. Generated by MachLine, USU AeroLab (c) 2022.
ASCII
DATASET POLYDATA
POINTS                1127 float
  0.100000000000E+01  0.000000000000E+00  0.000000000000E+00
  0.973034464140E+00  0.105263157890E+00 -0.235917869390E-02
  0.100000000000E+01  0.105263157890E+00  0.000000000000E+00
  0.973034464140E+00  0.000000000000E+00 -0.235917869390E-02
  0.929717765040E+00  0.105263157890E+00 -0.614889880620E-02
  0.929717765040E+00  0.000000000000E+00 -0.614889880620E-02
  0.863184801440E+00  0.105263157890E+00 -0.119697788720E-01
  0.863184801440E+00  0.000000000000E+00 -0.119697788720E-01
  0.767714243180E+00  0.105263157890E+00 -0.203223704200E-01
  0.767714243180E+00  0.000000000000E+00 -0.203223704200E-01
  0.643290544900E+00  0.105263157890E+00 -0.312080334940E-01
  0.643290544900E+00  0.000000000000E+00 -0.312080334940E-01
  0.500000000000E+00  0.105263157890E+00 -0.437443317630E-01
  0.500000000000E+00  0.000000000000E+00 -0.437443317630E-01
  0.356709455100E+00  0.000000000000E+00 -0.312080334940E-01
  0.356709455100E+00  0.105263157890E+00 -0.312080334940E-01
  0.232285756820E+00  0.000000000000E+00 -0.203223704200E-01
  0.232285756820E+00  0.105263157890E+00 -0.203223704200E-01
  0.136815198560E+00  0.000000000000E+00 -0.119697788720E-01
  0.136815198560E+00  0.105263157890E+00 -0.119697788720E-01
  0.702822349590E-01  0.000000000000E+00 -0.614889880620E-02
  0.702822349590E-01  0.105263157890E+00 -0.614889880620E-02
  0.269655358630E-01  0.000000000000E+00 -0.235917869390E-02
  0.269655358630E-01  0.105263157890E+00 -0.235917869390E-02
  0.000000000000E+00  0.000000000000E+00  0.000000000000E+00
  0.000000000000E+00  0.105263157890E+00  0.000000000000E+00
  0.269655358630E-01  0.105263157890E+00  0.235917869390E-02
  0.269655358630E-01  0.000000000000E+00  0.235917869390E-02
  0.702822349590E-01  0.105263157890E+00  0.614889880620E-02
  0.702822349590E-01  0.000000000000E+00  0.614889880620E-02
  0.136815198560E+00  0.105263157890E+00  0.119697788720E-01
  0.136815198560E+00  0.000000000000E+00  0.119697788720E-01
  0.232285756820E+00  0.105263157890E+00  0.203223704200E-01
  0.232285756820E+00  0.000000000000E+00  0.203223704200E-01
  0.356709455100E+00  0.105263157890E+00  0.312080334940E-01
  0.356709455100E+00  0.000000000000E+00  0.312080334940E-01
  0.500000000000E+00  0.105263157890E+00  0.437443317630E-01
  0.500000000000E+00  0.000000000000E+00  0.437443317630E-01
  0.643290544900E+00  0.000000000000E+00  0.312080334940E-01
  0.643290544900E+00  0.105263157890E+00  0.312080334940E-01
  0.767714243180E+00  0.000000000000E+00  0.203223704200E-01
  0.767714243180E+00  0.105263157890E+00  0.203223704200E-01
  0.863184801440E+00  0.000000000000E+00  0.119697788720E-01
  0.863184801440E+00  0.105263157890E+00  0.119697788720E-01
  0.929717765040E+00  0.000000000000E+00  0.614889880620E-02
  0.929717765040E+00  0.105263157890E+00  0.614889880620E-02
  0.973034464140E+00  0.000000000000E+00  0.235917869390E-02
  0.973034464140E+00  0.105263157890E+00  0.235917869390E-02
  0.973034464140E+00  0.210526315790E+00 -0.235917869390E-02
  0.100000000000E+01  0.210526315790E+00  0.000000000000E+00
  0.929717765040E+00  0.210526315790E+00 -0.614889880620E-02
  0.863184801440E+00  0.210526315790E+00 -0.119697788720E-01
  0.767714243180E+00  0.210526315790E+00 -0.203223704200E-01
  0.643290544900E+00  0.210526315790E+00 -0.312080334940E-01
  0.500000000000E+00  0.210526315790E+00 -0.437443317630E-01
  0.356709455100E+00  0.210526315790E+00 -0.312080334940E-01
  0.232285756820E+00  0.210526315790E+00 -0.203223704200E-01
  0.136815198560E+00  0.210526315790E+00 -0.119697788720E-01
  0.702822349590E-01  0.210526315790E+00 -0.614889880620E-02
  0.269655358630E-01  0.210526315790E+00 -0.235917869390E-02
  0.000000000000E+00  0.210526315790E+00  0.000000000000E+00
  0.269655358630E-01  0.210526315790E+00  0.235917869390E-02
  0.702822349590E-01  0.210526315790E+00  0.614889880620E-02
  0.136815198560E+00  0.210526315790E+00  0.119697788720E-01
  0.232285756820E+00  0.210526315790E+00  0.203223704200E-01
  0.356709455100E+00  0.210526315790E+00  0.312080334940E-01
  0.500000000000E+00  0.210526315790E+00  0.437443317630E-01
  0.643290544900E+00  0.210526315790E+00  0.312080334940E-01
  0.767714243180E+00  0.210526315790E+00  0.203223704200E-01
  0.863184801440E+00  0.210526315790E+00  0.119697788720E-01
  0.929717765040E+00  0.210526315790E+00  0.614889880620E-02
  0.973034464140E+00  0.210526315790E+00  0.235917869390E-02
  0.973034464140E+00  0.315789473680E+00 -0.235917869390E-02
  0.100000000000E+01  0.315789473680E+00  0.000000000000E+00
  0.929717765040E+00  0.315789473680E+00 -0.614889880620E-02
  0.863184801440E+00  0.315789473680E+00 -0.119697788720E-01
  0.767714243180E+00  0.315789473680E+00 -0.203223704200E-01
  0.643290544900E+00  0.315789473680E+00 -0.312080334940E-01
  0.500000000000E+00  0.315789473680E+00 -0.437443317630E-01
  0.356709455100E+00  0.315789473680E+00 -0.312080334940E-01
  0.232285756820E+00  0.315789473680E+00 -0.203223704200E-01
  0.136815198560E+00  0.315789473680E+00 -0.119697788720E-01
  0.702822349590E-01  0.315789473680E+00 -0.614889880620E-02
  0.269655358630E-01  0.315789473680E+00 -0.235917869390E-02
  0.000000000000E+00  0.315789473680E+00  0.000000000000E+00
  0.269655358630E-01  0.315789473680E+00  0.235917869390E-02
  0.702822349590E-01  0.315789473680E+00  0.614889880620E-02
  0.136815198560E+00  0.315789473680E+00  0.119697788720E-01
  0.232285756820E+00  0.315789473680E+00  0.203223704200E-01
  0.356709455100E+00  0.315789473680E+00  0.312080334940E-01
  0.500000000000E+00  0.315789473680E+00  0.437443317630E-01
  0.643290544900E+00  0.315789473680E+00  0.312080334940E-01
  0.767714243180E+00  0.315789473680E+00  0.203223704200E-01
  0.863184801440E+00  0.315789473680E+00  0.119697788720E-01
  0.929717765040E+00  0.315789473680E+00  0.614889880620E-02
  0.973034464140E+00  0.315789473680E+00  0.235917869390E-02
  0.973034464140E+00  0.421052631580E+00 -0.235917869390E-02
  0.100000000000E+01  0.421052631580E+00  0.000000000000E+00
  0.929717765040E+00  0.421052631580E+00 -0.614889880620E-02
  0.863184801440E+00  0.421052631580E+00 -0.119697788720E-01
  0.767714243180E+00  0.421052631580E+00 -0.203223704200E-01
  0.643290544900E+00  0.421052631580E+00 -0.312080334940E-01
  0.500000000000E+00  0.421052631580E+00 -0.437443317630E-01
  0.356709455100E+00  0.421052631580E+00 -0.312080334940E-01
  0.232285756820E+00  0.421052631580E+00 -0.203223704200E-01
  0.136815198560E+00  0.421052631580E+00 -0.119697788720E-01
  0.702822349590E-01  0.421052631580E+00 -0.614889880620E-02
  0.269655358630E-01  0.421052631580E+00 -0.235917869390E-02
  0.000000000000E+00  0.421052631580E+00  0.000000000000E+00
  0.269655358630E-01  0.421052631580E+00  0.235917869390E-02
  0.702822349590E-01  0.421052631580E+00  0.614889880620E-02
  0.136815198560E+00  0.421052631580E+00  0.119697788720E-01
  0.232285756820E+00  0.421052631580E+00  0.203223704200E-01
  0.356709455100E+00  0.421052631580E+00  0.312080334940E-01
  0.500000000000E+00  0.421052631580E+00  0.437443317630E-01
  0.643290544900E+00  0.421052631580E+00  0.312080334940E-01
  0.767714243180E+00  0.421052631580E+00  0.203223704200E-01
  0.863184801440E+00  0.421052631580E+00  0.119697788720E-01
  0.929717765040E+00  0.421052631580E+00  0.614889880620E-02
  0.973034464140E+00  0.421052631580E+00  0.235917869390E-02
  0.973034464140E+00  0.526315789470E+00 -0.235917869390E-02
  0.100000000000E+01  0.526315789470E+00  0.000000000000E+00
  0.929717765040E+00  0.526315789470E+00 -0.614889880620E-02
  0.863184801440E+00  0.526315789470E+00 -0.119697788720E-01
  0.767714243180E+00  0.526315789470E+00 -0.203223704200E-01
  0.643290544900E+00  0.526315789470E+00 -0.312080334940E-01
  0.500000000000E+00  0.526315789470E+00 -0.437443317630E-01
  0.356709455100E+00  0.526315789470E+00 -0.312080334940E-01
  0.232285756820E+00  0.526315789470E+00 -0.203223704200E-01
  0.136815198560E+00  0.526315789470E+00 -0.119697788720E-01
  0.702822349590E-01  0.526315789470E+00 -0.614889880620E-02
  0.269655358630E-01  0.526315789470E+00 -0.235917869390E-02
  0.000000000000E+00  0.526315789470E+00  0.000000000000E+00
  0.269655358630E-01  0.526315789470E+00  0.235917869390E-02
  0.702822349590E-01  0.526315789470E+00  0.614889880620E-02
  0.136815198560E+00  0.526315789470E+00  0.119697788720E-01
  0.232285756820E+00  0.526315789470E+00  0.203223704200E-01
  0.356709455100E+00  0.526315789470E+00  0.312080334940E-01
  0.500000000000E+00  0.526315789470E+00  0.437443317630E-01
  0.643290544900E+00  0.526315789470E+00  0.312080334940E-01
  0.767714243180E+00  0.526315789470E+00  0.203223704200E-01
  0.863184801440E+00  0.526315789470E+00  0.119697788720E-01
  0.929717765040E+00  0.526315789470E+00  0.614889880620E-02
  0.973034464140E+00  0.526315789470E+00  0.235917869390E-02
  0.973034464140E+00  0.631578947370E+00 -0.235917869390E-02
  0.100000000000E+01  0.631578947370E+00  0.000000000000E+00
  0.929717765040E+00  0.631578947370E+00 -0.614889880620E-02
  0.863184801440E+00  0.631578947370E+00 -0.119697788720E-01
  0.767714243180E+00  0.631578947370E+00 -0.203223704200E-01
  0.643290544900E+00  0.631578947370E+00 -0.312080334940E-01
  0.500000000000E+00  0.631578947370E+00 -0.437443317630E-01
  0.356709455100E+00  0.631578947370E+00 -0.312080334940E-01
  0.232285756820E+00  0.631578947370E+00 -0.203223704200E-01
  0.136815198560E+00  0.631578947370E+00 -0.119697788720E-01
  0.702822349590E-01  0.631578947370E+00 -0.614889880620E-02
  0.269655358630E-01  0.631578947370E+00 -0.235917869390E-02
  0.000000000000E+00  0.631578947370E+00  0.000000000000E+00
  0.269655358630E-01  0.631578947370E+00  0.235917869390E-02
  0.702822349590E-01  0.631578947370E+00  0.614889880620E-02
  0.136815198560E+00  0.631578947370E+00  0.119697788720E-01
  0.232285756820E+00  0.631578947370E+00  0.203223704200E-01
[...]
CELL_DATA                2176
SCALARS C_p_ise float 1
LOOKUP_TABLE default
 -0.206774408008E-01
 -0.206774337787E-01
 -0.206774276090E-01
 -0.206774276090E-01
 -0.206774276105E-01
 -0.206774276105E-01
 -0.206774276100E-01
 -0.206774276100E-01
 -0.206774276114E-01
 -0.206774276114E-01
 -0.206774276102E-01
 -0.206774276102E-01
  0.503215717626E-01
  0.503215717626E-01
  0.503215717609E-01
  0.503215717609E-01
  0.503215717629E-01
  0.503215717629E-01
  0.503215717625E-01
  0.503215717625E-01
  0.503215717619E-01
  0.503215717619E-01
  0.503215717623E-01
  0.503215717623E-01
  0.383987818917E-01
  0.383987818917E-01
  0.383987818925E-01
  0.383987818925E-01
  0.383987818913E-01
  0.383987818913E-01
  0.383987818904E-01
  0.383987818904E-01
  0.383987818946E-01
  0.383987818946E-01
  0.383987818911E-01
  0.383987818911E-01
 -0.269586023254E-01
 -0.269586023254E-01
 -0.269586023263E-01
 -0.269586023263E-01
 -0.269586023252E-01
 -0.269586023252E-01
 -0.269586023257E-01
 -0.269586023257E-01
 -0.269586023245E-01
 -0.269586023245E-01
 -0.269585964275E-01
 -0.269585897093E-01
 -0.206774418478E-01
 -0.206774408008E-01
 -0.206774276090E-01
 -0.206774276090E-01
 -0.206774276105E-01
 -0.206774276105E-01
 -0.206774276100E-01
 -0.206774276100E-01
 -0.206774276114E-01
 -0.206774276114E-01
 -0.206774276102E-01
 -0.206774276102E-01
  0.503215717626E-01
  0.503215717626E-01
  0.503215717609E-01
  0.503215717609E-01
  0.503215717629E-01
  0.503215717629E-01
  0.503215717625E-01
  0.503215717625E-01
  0.503215717619E-01
  0.503215717619E-01
  0.503215717623E-01
  0.503215717623E-01
  0.383987818917E-01
  0.383987818917E-01
  0.383987818925E-01
  0.383987818925E-01
  0.383987818913E-01
  0.383987818913E-01
  0.383987818904E-01
  0.383987818904E-01
  0.383987818946E-01
  0.383987818946E-01
  0.383987818911E-01
  0.383987818911E-01
 -0.269586023254E-01
 -0.269586023254E-01
 -0.269586023263E-01
 -0.269586023263E-01
 -0.269586023252E-01
 -0.269586023252E-01
 -0.269586023257E-01
 -0.269586023257E-01
 -0.269586023245E-01
 -0.269586023245E-01
 -0.269585897093E-01
 -0.269585887076E-01
 -0.206774631608E-01
 -0.206774418478E-01
 -0.206774276090E-01
 -0.206774276090E-01
 -0.206774276105E-01
 -0.206774276105E-01
 -0.206774276100E-01
 -0.206774276100E-01
 -0.206774276114E-01
 -0.206774276114E-01
 -0.206774276102E-01
 -0.206774276102E-01
  0.503215717626E-01
  0.503215717626E-01
  0.503215717609E-01
  0.503215717609E-01
  0.503215717629E-01
  0.503215717629E-01
  0.503215717625E-01
  0.503215717625E-01
  0.503215717619E-01
  0.503215717619E-01
  0.503215717623E-01
  0.503215717623E-01
  0.383987818917E-01
  0.383987818917E-01
  0.383987818925E-01
  0.383987818925E-01
  0.383987818913E-01
  0.383987818913E-01
  0.383987818904E-01
  0.383987818904E-01
  0.383987818946E-01
  0.383987818946E-01
  0.383987818911E-01
  0.383987818911E-01
 -0.269586023254E-01
 -0.269586023254E-01
 -0.269586023263E-01
 -0.269586023263E-01
 -0.269586023252E-01
 -0.269586023252E-01
 -0.269586023257E-01
 -0.269586023257E-01
 -0.269586023245E-01
 -0.269586023245E-01
 -0.269585887076E-01
 -0.269585683167E-01
 -0.206774189394E-01
 -0.206774631608E-01
 -0.206774276090E-01
 -0.206774276090E-01
 -0.206774276105E-01
 -0.206774276105E-01
 -0.206774276100E-01
 -0.206774276100E-01
 -0.206774276114E-01
 -0.206774276114E-01
 -0.206774276102E-01
 -0.206774276102E-01
  0.503215717626E-01
  0.503215717626E-01
  0.503215717609E-01
  0.503215717609E-01
  0.503215717629E-01
  0.503215717629E-01
  0.503215717625E-01
  0.503215717625E-01
  0.503215717619E-01
  0.503215717619E-01
  0.503215717623E-01
  0.503215717623E-01
  0.383987818917E-01
  0.383987818917E-01
  0.383987818925E-01
  0.383987818925E-01
  0.383987818913E-01
  0.383987818913E-01
  0.383987818904E-01
  0.383987818904E-01
  0.383987818946E-01
  0.383987818946E-01
  0.383987818911E-01
  0.383987818911E-01
 -0.269586023254E-01
 -0.269586023254E-01
 -0.269586023263E-01
 -0.269586023263E-01
 -0.269586023252E-01
 -0.269586023252E-01
 -0.269586023257E-01
 -0.269586023257E-01
 -0.269586023245E-01
 -0.269586023245E-01
 -0.269585683167E-01
 -0.269586106248E-01
 -0.206774320085E-01
 -0.206774189394E-01
 -0.206774276090E-01
 -0.206774276090E-01
 -0.206774276105E-01
 -0.206774276105E-01
 -0.206774276100E-01
 -0.206774276100E-01
 -0.206774276114E-01
 -0.206774276114E-01
 -0.206774276102E-01
 -0.206774276102E-01
  0.503215717626E-01
  0.503215717626E-01
  0.503215717609E-01
  0.503215717609E-01
  0.503215717629E-01
  0.503215717629E-01
  0.503215717625E-01
  0.503215717625E-01
  0.503215717619E-01
  0.503215717619E-01
  0.503215717623E-01
  0.503215717623E-01
  0.383987818917E-01
  0.383987818917E-01
  0.383987818925E-01
  0.383987818925E-01
  0.383987818913E-01
  0.383987818913E-01
  0.383987818904E-01
  0.383987818904E-01
  0.383987818946E-01
  0.383987818946E-01
  0.383987818911E-01
  0.383987818911E-01
 -0.269586023254E-01
 -0.269586023254E-01
 -0.269586023263E-01
 -0.269586023263E-01
 -0.269586023252E-01
 -0.269586023252E-01
 -0.269586023257E-01
 -0.269586023257E-01
 -0.269586023245E-01
 -0.269586023245E-01
 -0.269586106248E-01
 -0.269585981211E-01
 -0.206774284140E-01
 -0.206774320085E-01
 -0.206774276090E-01
 -0.206774276090E-01
 -0.206774276105E-01
 -0.206774276105E-01
 -0.206774276100E-01
 -0.206774276100E-01
 -0.206774276114E-01
 -0.206774276114E-01
 -0.206774276102E-01
 -0.206774276102E-01
  0.503215717626E-01
  0.503215717626E-01
  0.503215717609E-01
  0.503215717609E-01
  0.503215717629E-01
  0.503215717629E-01
  0.503215717625E-01
  0.503215717625E-01
  0.503215717619E-01
  0.503215717619E-01
  0.503215717623E-01
  0.503215717623E-01
  0.383987818917E-01
  0.383987818917E-01
  0.383987818925E-01
  0.383987818925E-01
  0.383987818913E-01
  0.383987818913E-01
  0.383987818904E-01
  0.383987818904E-01
  0.383987818946E-01
  0.383987818946E-01
  0.383987818911E-01
  0.383987818911E-01
 -0.269586023254E-01
 -0.269586023254E-01
 -0.269586023263E-01
 -0.269586023263E-01
 -0.269586023252E-01
 -0.269586023252E-01
 -0.269586023257E-01
 -0.269586023257E-01
 -0.269586023245E-01
 -0.269586023245E-01
 -0.269585981211E-01
 -0.269586015602E-01
 -0.206774482298E-01
 -0.206774284140E-01
 -0.206774276090E-01
 -0.206774276090E-01
 -0.206774276105E-01
 -0.206774276105E-01
 -0.206774276100E-01
 -0.206774276100E-01
 -0.206774276114E-01
 -0.206774276114E-01
 -0.206774276102E-01
 -0.206774276102E-01
  0.503215717626E-01
  0.503215717626E-01
  0.503215717609E-01
  0.503215717609E-01
  0.503215717629E-01
  0.503215717629E-01
  0.503215717625E-01
  0.503215717625E-01
  0.503215717619E-01
  0.503215717619E-01
  0.503215717623E-01
  0.503215717623E-01
  0.383987818917E-01
  0.383987818917E-01
  0.383987818925E-01
  0.383987818925E-01
  0.383987818913E-01
  0.383987818913E-01
  0.383987818904E-01
  0.383987818904E-01
  0.383987818946E-01
  0.383987818946E-01
  0.383987818911E-01
  0.383987818911E-01
 -0.269586023254E-01
 -0.269586023254E-01
 -0.269586023263E-01
 -0.269586023263E-01
 -0.269586023252E-01
 -0.269586023252E-01
 -0.269586023257E-01
 -0.269586023257E-01
 -0.269586023245E-01
 -0.269586023245E-01
 -0.269586015602E-01
 -0.269585826017E-01
 -0.206774046301E-01
 -0.206774482298E-01
 -0.206774276090E-01
 -0.206774276090E-01
 -0.206774276105E-01
 -0.206774276105E-01
 -0.206774276100E-01
 -0.206774276100E-01
 -0.206774276114E-01
 -0.206774276114E-01
 -0.206774276102E-01
 -0.206774276102E-01
  0.503215717626E-01
  0.503215717626E-01
  0.503215717609E-01
  0.503215717609E-01
  0.503215717629E-01
  0.503215717629E-01
  0.503215717625E-01
  0.503215717625E-01
  0.503215717619E-01
  0.503215717619E-01
  0.503215717623E-01
  0.503215717623E-01
  0.383987818917E-01
  0.383987818917E-01
  0.383987818925E-01
  0.383987818925E-01
  0.383987818913E-01
  0.383987818913E-01
  0.383987818904E-01
  0.383987818904E-01
  0.383987818946E-01
  0.383987818946E-01
  0.383987818911E-01
  0.383987818911E-01
 -0.269586023254E-01
 -0.269586023254E-01
 -0.269586023263E-01
 -0.269586023263E-01
 -0.269586023252E-01
 -0.269586023252E-01
 -0.269586023257E-01
 -0.269586023257E-01
 -0.269586023245E-01
 -0.269586023245E-01
 -0.269585826017E-01
 -0.269586243149E-01
 -0.206773953928E-01
 -0.206774046301E-01
 -0.206774276090E-01
 -0.206774276090E-01
 -0.206774276105E-01
 -0.206774276105E-01
 -0.206774276100E-01
 -0.206774276100E-01
 -0.206774276114E-01
 -0.206774276114E-01
 -0.206774276102E-01
 -0.206774276102E-01
  0.503215717626E-01
  0.503215717626E-01
  0.503215717609E-01
  0.503215717609E-01
  0.503215717629E-01
  0.503215717629E-01
  0.503215717625E-01
  0.503215717625E-01
  0.503215717619E-01
  0.503215717619E-01
  0.503215717623E-01
  0.503215717623E-01
  0.383987818917E-01
  0.383987818917E-01
  0.383987818925E-01
  0.383987818925E-01
  0.383987818913E-01
  0.383987818913E-01
  0.383987818904E-01
  0.383987818904E-01
  0.383987818946E-01
  0.383987818946E-01
  0.383987818911E-01
  0.383987818911E-01
 -0.269586023254E-01
 -0.269586023254E-01
 -0.269586023263E-01
 -0.269586023263E-01
 -0.269586023252E-01
 -0.269586023252E-01
 -0.269586023257E-01
 -0.269586023257E-01
 -0.269586023245E-01
 -0.269586023245E-01
 -0.269586243149E-01
 -0.269586331525E-01
 -0.206774236517E-01
 -0.206773953928E-01
 -0.206774276090E-01
 -0.206774276090E-01
 -0.206774276105E-01
 -0.206774276105E-01
 -0.206774276100E-01
 -0.206774276100E-01
 -0.206774276114E-01
 -0.206774276114E-01
 -0.206774276102E-01
 -0.206774276102E-01
  0.503215717626E-01
  0.503215717626E-01
  0.503215717609E-01
  0.503215717609E-01
  0.503215717629E-01
  0.503215717629E-01
  0.503215717625E-01
  0.503215717625E-01
  0.503215717619E-01
  0.503215717619E-01
  0.503215717623E-01
  0.503215717623E-01
  0.383987818917E-01
  0.383987818917E-01
  0.383987818925E-01
  0.383987818925E-01
  0.383987818913E-01
  0.383987818913E-01
  0.383987818904E-01
  0.383987818904E-01
  0.383987818946E-01
  0.383987818946E-01
  0.383987818911E-01
  0.383987818911E-01
 -0.269586023254E-01
 -0.269586023254E-01
 -0.269586023263E-01
 -0.269586023263E-01
 -0.269586023252E-01
 -0.269586023252E-01
 -0.269586023257E-01
 -0.269586023257E-01
 -0.269586023245E-01
 -0.269586023245E-01
 -0.269586331525E-01
 -0.269586061163E-01
 -0.206774363203E-01
 -0.206774236517E-01
 -0.206774276092E-01
 -0.206774276090E-01
 -0.206774276106E-01
 -0.206774276105E-01
 -0.206774276100E-01
 -0.206774276100E-01
 -0.206774276114E-01
 -0.206774276114E-01
 -0.206774276102E-01
 -0.206774276102E-01
  0.503215717626E-01
  0.503215717626E-01
  0.503215717609E-01
  0.503215717609E-01
  0.503215717629E-01
  0.503215717629E-01
  0.503215717625E-01
  0.503215717625E-01
  0.503215717619E-01
  0.503215717619E-01
  0.503215717623E-01
  0.503215717623E-01
  0.383987818917E-01
  0.383987818917E-01
  0.383987818925E-01
  0.383987818925E-01
  0.383987818913E-01
  0.383987818913E-01
  0.383987818904E-01
  0.383987818904E-01
  0.383987818946E-01
  0.383987818946E-01
  0.383987818911E-01
  0.383987818911E-01
 -0.269586023254E-01
 -0.269586023254E-01
 -0.269586023263E-01
 -0.269586023262E-01
 -0.269586023252E-01
 -0.269586023252E-01
 -0.269586023257E-01
 -0.269586023255E-01
 -0.269586023245E-01
 -0.269586023240E-01
 -0.269586061163E-01
 -0.269585939964E-01
 -0.206774340081E-01
 -0.206774363203E-01
 -0.206774276216E-01
 -0.206774276092E-01
 -0.206774276186E-01
 -0.206774276106E-01
 -0.206774276125E-01
 -0.206774276100E-01
 -0.206774276124E-01
 -0.206774276114E-01
 -0.206774276102E-01
 -0.206774276102E-01
  0.503215717626E-01
  0.503215717625E-01
  0.503215717609E-01
  0.503215717609E-01
  0.503215717629E-01
  0.503215717629E-01
  0.503215717625E-01
  0.503215717624E-01
  0.503215717619E-01
  0.503215717619E-01
  0.503215717623E-01
  0.503215717623E-01
  0.383987818917E-01
  0.383987818917E-01
  0.383987818925E-01
  0.383987818925E-01
  0.383987818913E-01
  0.383987818913E-01
  0.383987818905E-01
  0.383987818904E-01
  0.383987818947E-01
  0.383987818946E-01
  0.383987818912E-01
  0.383987818911E-01
 -0.269586023254E-01
 -0.269586023254E-01
 -0.269586023262E-01
 -0.269586023255E-01
 -0.269586023252E-01
 -0.269586023247E-01
 -0.269586023255E-01
 -0.269586023229E-01
 -0.269586023240E-01
 -0.269586023272E-01
 -0.269585939964E-01
 -0.269585961963E-01
 -0.206774672558E-01
 -0.206774340081E-01
 -0.206774276337E-01
 -0.206774276216E-01
 -0.206774275087E-01
 -0.206774276186E-01
 -0.206774275267E-01
 -0.206774276125E-01
 -0.206774276390E-01
 -0.206774276124E-01
 -0.206774276284E-01
 -0.206774276102E-01
  0.503215717625E-01
  0.503215717563E-01
  0.503215717609E-01
  0.503215717598E-01
  0.503215717629E-01
  0.503215717619E-01
  0.503215717624E-01
  0.503215717619E-01
  0.503215717619E-01
  0.503215717617E-01
  0.503215717623E-01
  0.503215717621E-01
  0.383987818919E-01
  0.383987818917E-01
  0.383987818929E-01
  0.383987818925E-01
  0.383987818918E-01
  0.383987818913E-01
  0.383987818922E-01
  0.383987818905E-01
  0.383987818980E-01
  0.383987818947E-01
  0.383987818956E-01
  0.383987818912E-01
 -0.269586023254E-01
 -0.269586023353E-01
 -0.269586023255E-01
 -0.269586022663E-01
 -0.269586023247E-01
 -0.269586022899E-01
 -0.269586023229E-01
 -0.269586017036E-01
 -0.269586023272E-01
 -0.269585998369E-01
 -0.269585961963E-01
 -0.269585676649E-01
 -0.206782615680E-01
 -0.206774672558E-01
 -0.206775142335E-01
 -0.206774276337E-01
 -0.206774705862E-01
 -0.206774275087E-01
 -0.206774461137E-01
 -0.206774275267E-01
 -0.206774314814E-01
 -0.206774276390E-01
 -0.206774267111E-01
 -0.206774276284E-01
  0.503215717563E-01
  0.503215716496E-01
  0.503215717598E-01
  0.503215717219E-01
  0.503215717619E-01
  0.503215717308E-01
  0.503215717619E-01
  0.503215717423E-01
  0.503215717617E-01
  0.503215717545E-01
  0.503215717621E-01
  0.503215717549E-01
  0.383987819055E-01
  0.383987818919E-01
  0.383987819134E-01
  0.383987818929E-01
  0.383987819216E-01
  0.383987818918E-01
  0.383987820213E-01
  0.383987818922E-01
  0.383987821690E-01
  0.383987818980E-01
  0.383987822646E-01
  0.383987818956E-01
 -0.269586023353E-01
 -0.269586015577E-01
 -0.269586022663E-01
 -0.269586020876E-01
 -0.269586022899E-01
 -0.269586041441E-01
 -0.269586017036E-01
 -0.269586153785E-01
 -0.269585998369E-01
 -0.269586829575E-01
 -0.269585676649E-01
 -0.269576342214E-01
 -0.207020451281E-01
 -0.206782615697E-01
 -0.206754951060E-01
 -0.206775142342E-01
 -0.206763397718E-01
 -0.206774705864E-01
 -0.206763928691E-01
 -0.206774461137E-01
 -0.206774014895E-01
 -0.206774314814E-01
 -0.206775570254E-01
 -0.206774267111E-01
  0.503215716496E-01
  0.503215455328E-01
  0.503215717219E-01
  0.503215679880E-01
  0.503215717308E-01
  0.503215686902E-01
  0.503215717423E-01
  0.503215700946E-01
  0.503215717545E-01
  0.503215713033E-01
  0.503215717549E-01
  0.503215713037E-01
  0.383987824038E-01
  0.383987819055E-01
  0.383987825692E-01
  0.383987819134E-01
  0.383987827871E-01
  0.383987819216E-01
  0.383987835111E-01
  0.383987820213E-01
  0.383987829010E-01
  0.383987821690E-01
  0.383987828425E-01
  0.383987822646E-01
 -0.269586015577E-01
 -0.269586948720E-01
 -0.269586020876E-01
 -0.269583031638E-01
 -0.269586041441E-01
 -0.269580033481E-01
 -0.269586153787E-01
 -0.269563717246E-01
 -0.269586829589E-01
 -0.269524829187E-01
 -0.269576342282E-01
 -0.269440752695E-01
 -0.207636769363E-01
 -0.207020532962E-01
 -0.208012890510E-01
 -0.206754988629E-01
 -0.207569789119E-01
 -0.206763408368E-01
 -0.207316794703E-01
 -0.206763928888E-01
 -0.206908139760E-01
 -0.206774015094E-01
 -0.206721119628E-01
 -0.206775570254E-01
  0.503215455326E-01
  0.503219567523E-01
  0.503215679880E-01
  0.503215942458E-01
  0.503215686902E-01
  0.503215883015E-01
  0.503215700946E-01
  0.503215664484E-01
  0.503215713033E-01
  0.503215605729E-01
  0.503215713037E-01
  0.503215605733E-01
  0.383988235568E-01
  0.383987824038E-01
  0.383988507884E-01
  0.383987825692E-01
  0.383988866653E-01
  0.383987827871E-01
  0.383993709120E-01
  0.383987835110E-01
  0.384001605756E-01
  0.383987828999E-01
  0.384006843520E-01
  0.383987828375E-01
 -0.269586948742E-01
 -0.269535088785E-01
 -0.269583031924E-01
 -0.269650848842E-01
 -0.269580033488E-01
 -0.269838151197E-01
 -0.269563718648E-01
 -0.270001664632E-01
 -0.269524836466E-01
 -0.270393169031E-01
 -0.269440774340E-01
 -0.266642884224E-01
 -0.226516269140E-01
 -0.207648302451E-01
 -0.206905291957E-01
 -0.208023880585E-01
 -0.195470703327E-01
 -0.207573676811E-01
 -0.194102836580E-01
 -0.207316800117E-01
 -0.204063727317E-01
 -0.206908662199E-01
 -0.208840953717E-01
 -0.206721163319E-01
  0.503219472553E-01
  0.502564157303E-01
  0.503215931137E-01
  0.503004234029E-01
  0.503215880536E-01
  0.503044554794E-01
  0.503215664269E-01
  0.503131408009E-01
  0.503215605723E-01
  0.503198389554E-01
  0.503215605732E-01
  0.503198389563E-01
  0.383989619783E-01
  0.383988235568E-01
  0.383981868580E-01
  0.383988507884E-01
  0.383971776504E-01
  0.383988866649E-01
  0.383874197404E-01
  0.383993708808E-01
  0.383734243375E-01
  0.384001601706E-01
  0.383660105793E-01
  0.384006826029E-01
 -0.269535096184E-01
 -0.270859111301E-01
 -0.269651009487E-01
 -0.264702656751E-01
 -0.269838522874E-01
 -0.257307307967E-01
 -0.270008242543E-01
 -0.259691280035E-01
 -0.270406754206E-01
 -0.265584578736E-01
 -0.266659287645E-01
 -0.251787026831E-01
 -0.373699465444E-01
 -0.227948880115E-01
 -0.325449155837E-01
 -0.207739880529E-01
 -0.222462942797E-01
 -0.196158097195E-01
 -0.289148507474E-01
 -0.194199733707E-01
 -0.274809813910E-01
 -0.204097691708E-01
 -0.198395016798E-01
 -0.208851225517E-01
  0.502540727952E-01
  0.511033952763E-01
  0.502999282343E-01
  0.507083053903E-01
  0.503043270346E-01
  0.506662144427E-01
  0.503131255655E-01
  0.505360199305E-01
  0.503198384453E-01
  0.503671210775E-01
  0.503198388812E-01
  0.503671209938E-01
  0.386066742497E-01
  0.383989613801E-01
  0.387964621865E-01
  0.383981769081E-01
  0.390460778878E-01
  0.383970946803E-01
  0.396300324365E-01
  0.383867722751E-01
  0.401161433838E-01
  0.383703691366E-01
  0.404266015743E-01
  0.383568136243E-01
 -0.270899224245E-01
 -0.277404704417E-01
 -0.264725615055E-01
 -0.317395147683E-01
 -0.257342677671E-01
 -0.334131148491E-01
 -0.260047082810E-01
 -0.239951438815E-01
 -0.265855591969E-01
 -0.349140995771E-01
 -0.252326000429E-01
 -0.948443860327E-02
 -0.463453786480E-01
 -0.375874771335E-01
 -0.253365908162E-01
 -0.329260423707E-01
 -0.166705783600E-01
 -0.229083377052E-01
 -0.222472840633E-01
 -0.296959450331E-01
 -0.269992859301E-01
 -0.283954231015E-01
 -0.257020423389E-01
 -0.206865578550E-01
  0.492797674522E-01
  0.364933383513E-01
  0.498229298289E-01
  0.374594085808E-01
  0.502958729381E-01
  0.376667920638E-01
  0.504110519306E-01
  0.378895046813E-01
  0.503349340130E-01
  0.380428887952E-01
  0.503623812833E-01
  0.380447947463E-01
  0.272059778283E-01
  0.386047501529E-01
  0.270704897054E-01
  0.387829144439E-01
  0.269465040982E-01
  0.389925586346E-01
  0.264507813580E-01
  0.394610467380E-01
  0.257951244879E-01
  0.396753966752E-01
  0.256182790441E-01
  0.395073978206E-01
 -0.281292211428E-01
 -0.294211204727E-01
 -0.321228046546E-01
 -0.258453547003E-01
 -0.336210019613E-01
 -0.159607254763E-01
 -0.240388151686E-01
  0.434000589508E-02
 -0.348707000057E-01
  0.196740513667E-01
 -0.959930223985E-02
  0.742843504838E-01
 -0.466706551099E-01
 -0.274263964318E-01
 -0.255672036370E-01
 -0.177860390067E-01
 -0.164934600852E-01
 -0.201782546723E-01
 -0.226122856644E-01
 -0.248441478010E-01
 -0.280919490131E-01
 -0.255155779743E-01
 -0.273649879754E-01
  0.261803773134E-01
  0.261597343961E-01
  0.264489880837E-01
  0.264612106778E-01
  0.264796462232E-01
  0.264326029141E-01
  0.264889372576E-01
  0.264528843723E-01
  0.265383890950E-01
  0.265532109408E-01
  0.265613284508E-01
  0.225927389128E-01
  0.225386941396E-01
  0.225490010789E-01
  0.224560055104E-01
  0.224541812846E-01
  0.222276610490E-01
  0.221720152792E-01
  0.220417214003E-01
  0.218863652453E-01
  0.219596324715E-01
  0.219551447958E-01
 -0.291644668204E-01
 -0.255845168701E-01
 -0.255012406878E-01