# vtk DataFile Version 3.0
MachLine results file. Generated by MachLine, USU AeroLab (c) 2022.
ASCII
DATASET POLYDATA
POINTS                1164 float
  0.100000000000E+01  0.000000000000E+00  0.000000000000E+00
  0.973034464140E+00  0.105263157890E+00 -0.235917869390E-02
  0.100000000000E+01  0.105263157890E+00  0.000000000000E+00
  0.973034464140E+00  0.000000000000E+00 -0.235917869390E-02
  0.929717765040E+00  0.105263157890E+00 -0.614889880620E-02
  0.929717765040E+00  0.000000000000E+00 -0.614889880620E-02
  0.863184801440E+00  0.105263157890E+00 -0.119697788720E-01
  0.863184801440E+00  0.000000000000E+00 -0.119697788720E-01
  0.767714243180E+00  0.105263157890E+00 -0.203223704200E-01
  0.767714243180E+00  0.000000000000E+00 -0.203223704200E-01
  0.643290544900E+00  0.105263157890E+00 -0.312080334940E-01
  0.643290544900E+00  0.000000000000E+00 -0.312080334940E-01
  0.500000000000E+00  0.105263157890E+00 -0.437443317630E-01
  0.500000000000E+00  0.000000000000E+00 -0.437443317630E-01
  0.356709455100E+00  0.000000000000E+00 -0.312080334940E-01
  0.356709455100E+00  0.105263157890E+00 -0.312080334940E-01
  0.232285756820E+00  0.000000000000E+00 -0.203223704200E-01
  0.232285756820E+00  0.105263157890E+00 -0.203223704200E-01
  0.136815198560E+00  0.000000000000E+00 -0.119697788720E-01
  0.136815198560E+00  0.105263157890E+00 -0.119697788720E-01
  0.702822349590E-01  0.000000000000E+00 -0.614889880620E-02
  0.702822349590E-01  0.105263157890E+00 -0.614889880620E-02
  0.269655358630E-01  0.000000000000E+00 -0.235917869390E-02
  0.269655358630E-01  0.105263157890E+00 -0.235917869390E-02
  0.000000000000E+00  0.000000000000E+00  0.000000000000E+00
  0.000000000000E+00  0.105263157890E+00  0.000000000000E+00
  0.269655358630E-01  0.105263157890E+00  0.235917869390E-02
  0.269655358630E-01  0.000000000000E+00  0.235917869390E-02
  0.702822349590E-01  0.105263157890E+00  0.614889880620E-02
  0.702822349590E-01  0.000000000000E+00  0.614889880620E-02
  0.136815198560E+00  0.105263157890E+00  0.119697788720E-01
  0.136815198560E+00  0.000000000000E+00  0.119697788720E-01
  0.232285756820E+00  0.105263157890E+00  0.203223704200E-01
  0.232285756820E+00  0.000000000000E+00  0.203223704200E-01
  0.356709455100E+00  0.105263157890E+00  0.312080334940E-01
  0.356709455100E+00  0.000000000000E+00  0.312080334940E-01
  0.500000000000E+00  0.105263157890E+00  0.437443317630E-01
  0.500000000000E+00  0.000000000000E+00  0.437443317630E-01
  0.643290544900E+00  0.000000000000E+00  0.312080334940E-01
  0.643290544900E+00  0.105263157890E+00  0.312080334940E-01
  0.767714243180E+00  0.000000000000E+00  0.203223704200E-01
  0.767714243180E+00  0.105263157890E+00  0.203223704200E-01
  0.863184801440E+00  0.000000000000E+00  0.119697788720E-01
  0.863184801440E+00  0.105263157890E+00  0.119697788720E-01
  0.929717765040E+00  0.000000000000E+00  0.614889880620E-02
  0.929717765040E+00  0.105263157890E+00  0.614889880620E-02
  0.973034464140E+00  0.000000000000E+00  0.235917869390E-02
  0.973034464140E+00  0.105263157890E+00  0.235917869390E-02
  0.973034464140E+00  0.210526315790E+00 -0.235917869390E-02
  0.100000000000E+01  0.210526315790E+00  0.000000000000E+00
  0.929717765040E+00  0.210526315790E+00 -0.614889880620E-02
  0.863184801440E+00  0.210526315790E+00 -0.119697788720E-01
  0.767714243180E+00  0.210526315790E+00 -0.203223704200E-01
  0.643290544900E+00  0.210526315790E+00 -0.312080334940E-01
  0.500000000000E+00  0.210526315790E+00 -0.437443317630E-01
  0.356709455100E+00  0.210526315790E+00 -0.312080334940E-01
  0.232285756820E+00  0.210526315790E+00 -0.203223704200E-01
  0.136815198560E+00  0.210526315790E+00 -0.119697788720E-01
  0.702822349590E-01  0.210526315790E+00 -0.614889880620E-02
  0.269655358630E-01  0.210526315790E+00 -0.235917869390E-02
  0.000000000000E+00  0.210526315790E+00  0.000000000000E+00
  0.269655358630E-01  0.210526315790E+00  0.235917869390E-02
  0.702822349590E-01  0.210526315790E+00  0.614889880620E-02
  0.136815198560E+00  0.210526315790E+00  0.119697788720E-01
  0.232285756820E+00  0.210526315790E+00  0.203223704200E-01
  0.356709455100E+00  0.210526315790E+00  0.312080334940E-01
  0.500000000000E+00  0.210526315790E+00  0.437443317630E-01
  0.643290544900E+00  0.210526315790E+00  0.312080334940E-01
  0.767714243180E+00  0.210526315790E+00  0.203223704200E-01
  0.863184801440E+00  0.210526315790E+00  0.119697788720E-01
  0.929717765040E+00  0.210526315790E+00  0.614889880620E-02
  0.973034464140E+00  0.210526315790E+00  0.235917869390E-02
  0.973034464140E+00  0.315789473680E+00 -0.235917869390E-02
  0.100000000000E+01  0.315789473680E+00  0.000000000000E+00
  0.929717765040E+00  0.315789473680E+00 -0.614889880620E-02
  0.863184801440E+00  0.315789473680E+00 -0.119697788720E-01
  0.767714243180E+00  0.315789473680E+00 -0.203223704200E-01
  0.643290544900E+00  0.315789473680E+00 -0.312080334940E-01
  0.500000000000E+00  0.315789473680E+00 -0.437443317630E-01
  0.356709455100E+00  0.315789473680E+00 -0.312080334940E-01
  0.232285756820E+00  0.315789473680E+00 -0.203223704200E-01
  0.136815198560E+00  0.315789473680E+00 -0.119697788720E-01
  0.702822349590E-01  0.315789473680E+00 -0.614889880620E-02
  0.269655358630E-01  0.315789473680E+00 -0.235917869390E-02
  0.000000000000E+00  0.315789473680E+00  0.000000000000E+00
  0.269655358630E-01  0.315789473680E+00  0.235917869390E-02
  0.702822349590E-01  0.315789473680E+00  0.614889880620E-02
  0.136815198560E+00  0.315789473680E+00  0.119697788720E-01
  0.232285756820E+00  0.315789473680E+00  0.203223704200E-01
  0.356709455100E+00  0.315789473680E+00  0.312080334940E-01
  0.500000000000E+00  0.315789473680E+00  0.437443317630E-01
  0.643290544900E+00  0.315789473680E+00  0.312080334940E-01
  0.767714243180E+00  0.315789473680E+00  0.203223704200E-01
  0.863184801440E+00  0.315789473680E+00  0.119697788720E-01
  0.929717765040E+00  0.315789473680E+00  0.614889880620E-02
  0.973034464140E+00  0.315789473680E+00  0.235917869390E-02
  0.973034464140E+00  0.421052631580E+00 -0.235917869390E-02
  0.100000000000E+01  0.421052631580E+00  0.000000000000E+00
  0.929717765040E+00  0.421052631580E+00 -0.614889880620E-02
  0.863184801440E+00  0.421052631580E+00 -0.119697788720E-01
  0.767714243180E+00  0.421052631580E+00 -0.203223704200E-01
  0.643290544900E+00  0.421052631580E+00 -0.312080334940E-01
  0.500000000000E+00  0.421052631580E+00 -0.437443317630E-01
  0.356709455100E+00  0.421052631580E+00 -0.312080334940E-01
  0.232285756820E+00  0.421052631580E+00 -0.203223704200E-01
  0.136815198560E+00  0.421052631580E+00 -0.119697788720E-01
  0.702822349590E-01  0.421052631580E+00 -0.614889880620E-02
  0.269655358630E-01  0.421052631580E+00 -0.235917869390E-02
  0.000000000000E+00  0.421052631580E+00  0.000000000000E+00
  0.269655358630E-01  0.421052631580E+00  0.235917869390E-02
  0.702822349590E-01  0.421052631580E+00  0.614889880620E-02
  0.136815198560E+00  0.421052631580E+00  0.119697788720E-01
  0.232285756820E+00  0.421052631580E+00  0.203223704200E-01
  0.356709455100E+00  0.421052631580E+00  0.312080334940E-01
  0.500000000000E+00  0.421052631580E+00  0.437443317630E-01
  0.643290544900E+00  0.421052631580E+00  0.312080334940E-01
  0.767714243180E+00  0.421052631580E+00  0.203223704200E-01
  0.863184801440E+00  0.421052631580E+00  0.119697788720E-01
  0.929717765040E+00  0.421052631580E+00  0.614889880620E-02
  0.973034464140E+00  0.421052631580E+00  0.235917869390E-02
  0.973034464140E+00  0.526315789470E+00 -0.235917869390E-02
  0.100000000000E+01  0.526315789470E+00  0.000000000000E+00
  0.929717765040E+00  0.526315789470E+00 -0.614889880620E-02
  0.863184801440E+00  0.526315789470E+00 -0.119697788720E-01
  0.767714243180E+00  0.526315789470E+00 -0.203223704200E-01
  0.643290544900E+00  0.526315789470E+00 -0.312080334940E-01
  0.500000000000E+00  0.526315789470E+00 -0.437443317630E-01
  0.356709455100E+00  0.526315789470E+00 -0.312080334940E-01
  0.232285756820E+00  0.526315789470E+00 -0.203223704200E-01
  0.136815198560E+00  0.526315789470E+00 -0.119697788720E-01
  0.702822349590E-01  0.526315789470E+00 -0.614889880620E-02
  0.269655358630E-01  0.526315789470E+00 -0.235917869390E-02
  0.000000000000E+00  0.526315789470E+00  0.000000000000E+00
  0.269655358630E-01  0.526315789470E+00  0.235917869390E-02
  0.702822349590E-01  0.526315789470E+00  0.614889880620E-02
  0.136815198560E+00  0.526315789470E+00  0.119697788720E-01
  0.232285756820E+00  0.526315789470E+00  0.203223704200E-01
  0.356709455100E+00  0.526315789470E+00  0.312080334940E-01
  0.500000000000E+00  0.526315789470E+00  0.437443317630E-01
  0.643290544900E+00  0.526315789470E+00  0.312080334940E-01
  0.767714243180E+00  0.526315789470E+00  0.203223704200E-01
  0.863184801440E+00  0.526315789470E+00  0.119697788720E-01
  0.929717765040E+00  0.526315789470E+00  0.614889880620E-02
  0.973034464140E+00  0.526315789470E+00  0.235917869390E-02
  0.973034464140E+00  0.631578947370E+00 -0.235917869390E-02
  0.100000000000E+01  0.631578947370E+00  0.000000000000E+00
  0.929717765040E+00  0.631578947370E+00 -0.614889880620E-02
  0.863184801440E+00  0.631578947370E+00 -0.119697788720E-01
  0.767714243180E+00  0.631578947370E+00 -0.203223704200E-01
  0.643290544900E+00  0.631578947370E+00 -0.312080334940E-01
  0.500000000000E+00  0.631578947370E+00 -0.437443317630E-01
  0.356709455100E+00  0.631578947370E+00 -0.312080334940E-01
  0.232285756820E+00  0.631578947370E+00 -0.203223704200E-01
  0.136815198560E+00  0.631578947370E+00 -0.119697788720E-01
  0.702822349590E-01  0.631578947370E+00 -0.614889880620E-02
  0.269655358630E-01  0.631578947370E+00 -0.235917869390E-02
  0.000000000000E+00  0.631578947370E+00  0.000000000000E+00
  0.269655358630E-01  0.631578947370E+00  0.235917869390E-02
  0.702822349590E-01  0.631578947370E+00  0.614889880620E-02
  0.136815198560E+00  0.631578947370E+00  0.119697788720E-01
  0.232285756820E+00  0.631578947370E+00  0.203223704200E-01
[...]
CELL_DATA                2176
SCALARS C_p_ise float 1
LOOKUP_TABLE default
 -0.185686322591E-05
 -0.161889577547E-05
 -0.736344896879E-06
 -0.800674299991E-06
 -0.335957500720E-06
 -0.182157475998E-06
 -0.322773668352E-06
 -0.281100980010E-06
 -0.414286026805E-06
 -0.364349266180E-06
 -0.299825225904E-06
 -0.198889486785E-06
 -0.571428571429E-01
 -0.571428571429E-01
 -0.571428571429E-01
 -0.571428571429E-01
 -0.571428571429E-01
 -0.571428571429E-01
 -0.571428571429E-01
 -0.571428571429E-01
 -0.571428571429E-01
 -0.571428571429E-01
 -0.571428571429E-01
 -0.571428571429E-01
  0.442150280769E-06
  0.172067694620E-06
  0.437043231230E-06
  0.178103077226E-06
  0.431680187418E-06
  0.183726091128E-06
  0.424605664343E-06
  0.193044334372E-06
  0.404942066977E-06
  0.211288420982E-06
  0.387757580609E-06
  0.224538221603E-06
 -0.352472152002E-01
 -0.352472422323E-01
 -0.352469522273E-01
 -0.352469805163E-01
 -0.352467809044E-01
 -0.352468549133E-01
 -0.352470981773E-01
 -0.352471346565E-01
 -0.352471673821E-01
 -0.352470993704E-01
 -0.352454751142E-01
 -0.352453722001E-01
 -0.165900960103E-05
 -0.185686627740E-05
 -0.868006328262E-06
 -0.736347860261E-06
 -0.143874618517E-06
 -0.335960675280E-06
 -0.279370677068E-06
 -0.322776921737E-06
 -0.332420497928E-06
 -0.414289459595E-06
 -0.163917456434E-06
 -0.299829012862E-06
 -0.571428571429E-01
 -0.571428571429E-01
 -0.571428571429E-01
 -0.571428571429E-01
 -0.571428571429E-01
 -0.571428571429E-01
 -0.571428571429E-01
 -0.571428571429E-01
 -0.571428571429E-01
 -0.571428571429E-01
 -0.571428571429E-01
 -0.571428571429E-01
  0.129774251573E-06
  0.442145359664E-06
  0.135937467314E-06
  0.437038562584E-06
  0.142380637198E-06
  0.431675880260E-06
  0.150946956344E-06
  0.424601828047E-06
  0.174124453040E-06
  0.404938723543E-06
  0.194174900882E-06
  0.387754699118E-06
 -0.352472422338E-01
 -0.352472228100E-01
 -0.352469805178E-01
 -0.352469558383E-01
 -0.352468549148E-01
 -0.352468195189E-01
 -0.352471346580E-01
 -0.352470794106E-01
 -0.352470993719E-01
 -0.352471838310E-01
 -0.352453722016E-01
 -0.352453704851E-01
 -0.150408171524E-06
 -0.165901780963E-05
 -0.389895278298E-06
 -0.868015119134E-06
 -0.299851596936E-06
 -0.143883165668E-06
 -0.162654481287E-06
 -0.279379373858E-06
 -0.246671547036E-06
 -0.332429477374E-06
 -0.264391511218E-06
 -0.163925782643E-06
 -0.571428571429E-01
 -0.571428571429E-01
 -0.571428571429E-01
 -0.571428571429E-01
 -0.571428571429E-01
 -0.571428571429E-01
 -0.571428571429E-01
 -0.571428571429E-01
 -0.571428571429E-01
 -0.571428571429E-01
 -0.571428571429E-01
 -0.571428571429E-01
  0.518314985420E-06
  0.129770026153E-06
  0.504352186656E-06
  0.135932586190E-06
  0.490473784533E-06
  0.142374772759E-06
  0.470078130022E-06
  0.150939731089E-06
  0.419639294881E-06
  0.174115708683E-06
  0.377908976747E-06
  0.194164728993E-06
 -0.352472228153E-01
 -0.352472713134E-01
 -0.352469558436E-01
 -0.352471597654E-01
 -0.352468195238E-01
 -0.352472337620E-01
 -0.352470794149E-01
 -0.352474966341E-01
 -0.352471838349E-01
 -0.352470750029E-01
 -0.352453704891E-01
 -0.352471471474E-01
  0.144664320424E-05
 -0.150409158734E-06
  0.430315753938E-06
 -0.389896153814E-06
  0.478626622894E-06
 -0.299853578678E-06
  0.359912615736E-06
 -0.162658627742E-06
  0.562471844897E-06
 -0.246679360538E-06
  0.427978789081E-06
 -0.264403393897E-06
 -0.571428571429E-01
 -0.571428571429E-01
 -0.571428571429E-01
 -0.571428571429E-01
 -0.571428571429E-01
 -0.571428571429E-01
 -0.571428571429E-01
 -0.571428571429E-01
 -0.571428571429E-01
 -0.571428571429E-01
 -0.571428571429E-01
 -0.571428571429E-01
 -0.583282272850E-06
  0.518287823414E-06
 -0.578718995151E-06
  0.504327975064E-06
 -0.571971170528E-06
  0.490453843912E-06
 -0.568302322585E-06
  0.470063840170E-06
 -0.539054863604E-06
  0.419631328898E-06
 -0.504683777575E-06
  0.377906995221E-06
 -0.352472713141E-01
 -0.352474319855E-01
 -0.352471597661E-01
 -0.352476981401E-01
 -0.352472337622E-01
 -0.352479334940E-01
 -0.352474966338E-01
 -0.352475111175E-01
 -0.352470750026E-01
 -0.352475272457E-01
 -0.352471471474E-01
 -0.352485151985E-01
  0.471841313919E-06
  0.144664877966E-05
  0.111572770853E-05
  0.430322055462E-06
  0.597910282973E-06
  0.478633908215E-06
  0.444117981235E-06
  0.359921508889E-06
  0.633167484069E-06
  0.562482376194E-06
  0.552095110949E-06
  0.427992959511E-06
 -0.571428571429E-01
 -0.571428571429E-01
 -0.571428571429E-01
 -0.571428571429E-01
 -0.571428571429E-01
 -0.571428571429E-01
 -0.571428571429E-01
 -0.571428571429E-01
 -0.571428571429E-01
 -0.571428571429E-01
 -0.571428571429E-01
 -0.571428571429E-01
 -0.957577930892E-06
 -0.583251532550E-06
 -0.938244849908E-06
 -0.578689586441E-06
 -0.919402800927E-06
 -0.571943840365E-06
 -0.890662271707E-06
 -0.568278072599E-06
 -0.822292695154E-06
 -0.539034788462E-06
 -0.765667976462E-06
 -0.504668304499E-06
 -0.352474319806E-01
 -0.352474745141E-01
 -0.352476981361E-01
 -0.352478239259E-01
 -0.352479334907E-01
 -0.352477427950E-01
 -0.352475111144E-01
 -0.352471209246E-01
 -0.352475272430E-01
 -0.352477708309E-01
 -0.352485151961E-01
 -0.352478688215E-01
 -0.178289331381E-05
  0.471843219303E-06
 -0.491792453034E-06
  0.111573006335E-05
 -0.614563123718E-06
  0.597914072272E-06
 -0.479037664818E-06
  0.444122520741E-06
 -0.798283507894E-06
  0.633172299366E-06
 -0.573550457249E-06
  0.552098966785E-06
 -0.571428571429E-01
 -0.571428571429E-01
 -0.571428571429E-01
 -0.571428571429E-01
 -0.571428571429E-01
 -0.571428571429E-01
 -0.571428571429E-01
 -0.571428571429E-01
 -0.571428571429E-01
 -0.571428571429E-01
 -0.571428571429E-01
 -0.571428571429E-01
  0.684522401657E-06
 -0.957578315251E-06
  0.685589887439E-06
 -0.938243719048E-06
  0.682853770595E-06
 -0.919399800026E-06
  0.689551586700E-06
 -0.890657515118E-06
  0.670117342898E-06
 -0.822287217593E-06
  0.635725972766E-06
 -0.765663476100E-06
 -0.352474745123E-01
 -0.352471287889E-01
 -0.352478239243E-01
 -0.352467641010E-01
 -0.352477427938E-01
 -0.352463813449E-01
 -0.352471209240E-01
 -0.352470381818E-01
 -0.352477708303E-01
 -0.352470865730E-01
 -0.352478688211E-01
 -0.352459033418E-01
 -0.555159425503E-06
 -0.178289941369E-05
 -0.119628691033E-05
 -0.491798690673E-06
 -0.120414743209E-05
 -0.614569250322E-06
 -0.641821411795E-06
 -0.479044229307E-06
 -0.923174924734E-06
 -0.798290261533E-06
 -0.100344932113E-05
 -0.573555850452E-06
 -0.571428571429E-01
 -0.571428571429E-01
 -0.571428571429E-01
 -0.571428571429E-01
 -0.571428571429E-01
 -0.571428571429E-01
 -0.571428571429E-01
 -0.571428571429E-01
 -0.571428571429E-01
 -0.571428571429E-01
 -0.571428571429E-01
 -0.571428571429E-01
  0.204150733683E-05
  0.684530387117E-06
  0.198263713886E-05
  0.685595982081E-06
  0.192476677157E-05
  0.682856861786E-06
  0.183791386387E-05
  0.689550307050E-06
  0.163225998948E-05
  0.670110816944E-06
  0.146413184284E-05
  0.635714466237E-06
 -0.352471287944E-01
 -0.352471877682E-01
 -0.352467641059E-01
 -0.352467808942E-01
 -0.352463813491E-01
 -0.352470856445E-01
 -0.352470381851E-01
 -0.352478488345E-01
 -0.352470865754E-01
 -0.352465152384E-01
 -0.352459033441E-01
 -0.352470486263E-01
 -0.145737148344E-05
 -0.555161291110E-06
 -0.305153153844E-06
 -0.119628905036E-05
  0.178011605358E-05
 -0.120415788934E-05
  0.591156538819E-06
 -0.641838199567E-06
  0.122312782051E-05
 -0.923206369435E-06
  0.146854765933E-05
 -0.100350506517E-05
 -0.571428571429E-01
 -0.571428571429E-01
 -0.571428571429E-01
 -0.571428571429E-01
 -0.571428571429E-01
 -0.571428571429E-01
 -0.571428571429E-01
 -0.571428571429E-01
 -0.571428571429E-01
 -0.571428571429E-01
 -0.571428571429E-01
 -0.571428571429E-01
 -0.284609626518E-05
  0.204134673276E-05
 -0.276699753400E-05
  0.198250085152E-05
 -0.268228100324E-05
  0.192466327755E-05
 -0.257500543908E-05
  0.183784879531E-05
 -0.225719969641E-05
  0.163222979745E-05
 -0.196676671072E-05
  0.146412696122E-05
 -0.352471877690E-01
 -0.352474757984E-01
 -0.352467808945E-01
 -0.352476944355E-01
 -0.352470856442E-01
 -0.352475529075E-01
 -0.352478488343E-01
 -0.352463970532E-01
 -0.352465152390E-01
 -0.352482351738E-01
 -0.352470486264E-01
 -0.352443919092E-01
 -0.609565712410E-05
 -0.145739072037E-05
  0.148397021528E-06
 -0.305174209141E-06
 -0.122273191104E-05
  0.178010605767E-05
 -0.718465636622E-06
  0.591159196706E-06
 -0.117584717548E-05
  0.122314532789E-05
 -0.978947484612E-06
  0.146858551707E-05
 -0.571428571429E-01
 -0.571428571429E-01
 -0.571428571429E-01
 -0.571428571429E-01
 -0.571428571429E-01
 -0.571428571429E-01
 -0.571428571429E-01
 -0.571428571429E-01
 -0.571428571429E-01
 -0.571428571429E-01
 -0.571428571429E-01
 -0.571428571429E-01
  0.139809056130E-05
 -0.284592899539E-05
  0.137971206357E-05
 -0.276684180330E-05
  0.135297350930E-05
 -0.268214476190E-05
  0.133760343054E-05
 -0.257490055769E-05
  0.122703236882E-05
 -0.225713906685E-05
  0.110233554859E-05
 -0.196675473836E-05
 -0.352474758042E-01
 -0.352472231773E-01
 -0.352476944434E-01
 -0.352468017892E-01
 -0.352475529181E-01
 -0.352459560801E-01
 -0.352463970660E-01
 -0.352464665532E-01
 -0.352482351874E-01
 -0.352469779033E-01
 -0.352443919232E-01
 -0.352423956475E-01
 -0.142353411674E-04
 -0.609573129688E-05
 -0.566256269456E-05
  0.148339823713E-06
 -0.236284578163E-05
 -0.122278141135E-05
 -0.262559403247E-05
 -0.718510066016E-06
 -0.342886016895E-05
 -0.117587684376E-05
 -0.219468689719E-05
 -0.978976131792E-06
 -0.571428571429E-01
 -0.571428571429E-01
 -0.571428571429E-01
 -0.571428571429E-01
 -0.571428571429E-01
 -0.571428571429E-01
 -0.571428571429E-01
 -0.571428571429E-01
 -0.571428571429E-01
 -0.571428571429E-01
 -0.571428571429E-01
 -0.571428571429E-01
  0.271649297801E-05
  0.139808430754E-05
  0.271833710467E-05
  0.137969938327E-05
  0.271705441577E-05
  0.135295164806E-05
  0.272394659427E-05
  0.133757006876E-05
  0.271338426248E-05
  0.122698708226E-05
  0.268634062125E-05
  0.110228150707E-05
 -0.352472231959E-01
 -0.352465625854E-01
 -0.352468018085E-01
 -0.352443592054E-01
 -0.352459561063E-01
 -0.352430579412E-01
 -0.352464665901E-01
 -0.352453046897E-01
 -0.352469779420E-01
 -0.352460643627E-01
 -0.352423956866E-01
 -0.352326472861E-01
 -0.196397223764E-04
 -0.142357771457E-04
 -0.827851667889E-05
 -0.566299642155E-05
 -0.315291278504E-05
 -0.236329182898E-05
 -0.347868342633E-05
 -0.262602894163E-05
 -0.439340452530E-05
 -0.342928430571E-05
 -0.290840935996E-05
 -0.219510967694E-05
 -0.571428571429E-01
 -0.571428571429E-01
 -0.571428571429E-01
 -0.571428571429E-01
 -0.571428571429E-01
 -0.571428571429E-01
 -0.571428571429E-01
 -0.571428571429E-01
 -0.571428571429E-01
 -0.571428571429E-01
 -0.571428571429E-01
 -0.571428571429E-01
  0.388663208106E-05
  0.271609251119E-05
  0.386833824818E-05
  0.271792835840E-05
  0.384864616915E-05
  0.271663324604E-05
  0.382394086842E-05
  0.272350841140E-05
  0.375158268395E-05
  0.271292612941E-05
  0.368428797458E-05
  0.268586289077E-05
 -0.352465628153E-01
 -0.352464077575E-01
 -0.352443594270E-01
 -0.352434807955E-01
 -0.352430581620E-01
 -0.352419841528E-01
 -0.352453049166E-01
 -0.352449042798E-01
 -0.352460645904E-01
 -0.352453097085E-01
 -0.352326475054E-01
 -0.352264526606E-01
 -0.167187786945E-04
 -0.196408981088E-04
 -0.974362591800E-05
 -0.827970084633E-05
 -0.249459507643E-05
 -0.315414013285E-05
 -0.340092132689E-05
 -0.347992543787E-05
 -0.437641230606E-05
 -0.439466522177E-05
 -0.261983843044E-05
 -0.290971247704E-05
 -0.571428571429E-01
 -0.571428571429E-01
 -0.571428571429E-01
 -0.571428571429E-01
 -0.571428571429E-01
 -0.571428571429E-01
 -0.571428571429E-01
 -0.571428571429E-01
 -0.571428571429E-01
 -0.571428571429E-01
 -0.571428571429E-01
 -0.571428571429E-01
  0.291579793510E-05
  0.388517571267E-05
  0.294737938983E-05
  0.386690441095E-05
  0.297896827507E-05
  0.384724576297E-05
  0.302481191046E-05
  0.382258640954E-05
  0.312741301420E-05
  0.375028080302E-05
  0.320595719067E-05
  0.368304037063E-05
 -0.352464083688E-01
 -0.352460923765E-01
 -0.352434814044E-01
 -0.352429877895E-01
 -0.352419847624E-01
 -0.352416159922E-01
 -0.352449048925E-01
 -0.352453478047E-01
 -0.352453103135E-01
 -0.352452583428E-01
 -0.352264532506E-01
 -0.352280816030E-01
 -0.603122466772E-05
 -0.167204042361E-04
 -0.224972897965E-05
 -0.974540229624E-05
 -0.290158807944E-05
 -0.249638172792E-05
 -0.116505524394E-05
 -0.340281266415E-05
 -0.125539169676E-05
 -0.437852832532E-05
 -0.209944396016E-05
 -0.262199825416E-05
 -0.571428571429E-01
 -0.571428571429E-01
 -0.571428571429E-01
 -0.571428571429E-01
 -0.571428571429E-01
 -0.571428571429E-01
 -0.571428571429E-01
 -0.571428571429E-01
 -0.571428571429E-01
 -0.571428571429E-01
 -0.571428571429E-01
 -0.571428571429E-01
  0.545600731680E-05
  0.291398834566E-05
  0.524237921589E-05
  0.294550114727E-05
  0.503777645328E-05
  0.297699317416E-05
  0.471526938423E-05
  0.302271723635E-05
  0.401219995595E-05
  0.312522120166E-05
  0.347650417931E-05
  0.320371058925E-05
 -0.352460935152E-01
 -0.352475867257E-01
 -0.352429888666E-01
 -0.352470944577E-01
 -0.352416169425E-01
 -0.352484120045E-01
 -0.352453486113E-01
 -0.352486586578E-01
 -0.352452591001E-01
 -0.352451930744E-01
 -0.352280823685E-01
 -0.352417189618E-01
 -0.303532700944E-04
 -0.603183293303E-05
 -0.474218360879E-05
 -0.225011605246E-05
  0.732308011174E-05
 -0.290220128288E-05
  0.418069558769E-06
 -0.116577741550E-05
  0.250432043156E-05
 -0.125628791179E-05
  0.576039434253E-05
 -0.210086659968E-05
 -0.571428571429E-01
 -0.571428571429E-01
 -0.571428571429E-01
 -0.571428571429E-01
 -0.571428571429E-01
 -0.571428571429E-01
 -0.571428571429E-01
 -0.571428571429E-01
 -0.571428571429E-01
 -0.571428571429E-01
 -0.571428571429E-01
 -0.571428571429E-01
 -0.141857324408E-04
  0.545127080226E-05
 -0.136540639785E-04
  0.523838183262E-05
 -0.131144274532E-04
  0.503481346498E-05
 -0.123525135125E-04
  0.471359938804E-05
 -0.103890500757E-04
  0.401181994507E-05
 -0.871460675837E-05
  0.347721396877E-05
 -0.352475864080E-01
 -0.352472696048E-01
 -0.352470942712E-01
 -0.352461595945E-01
 -0.352484119920E-01
 -0.352418743832E-01
 -0.352486588363E-01
 -0.352379206700E-01
 -0.352451934219E-01
 -0.352520763352E-01
 -0.352417193177E-01
 -0.352101960647E-01
 -0.750218719900E-04
 -0.303577678747E-04
 -0.123958213745E-04
 -0.474678691595E-05
 -0.175855714832E-04
  0.731980118966E-05
 -0.127419224098E-04
  0.416168683604E-06
 -0.189734798394E-04
  0.250433660038E-05
 -0.155905274929E-04
  0.576239586714E-05
 -0.571428571429E-01
 -0.571428571429E-01
 -0.571428571429E-01
 -0.571428571429E-01
 -0.571428571429E-01
 -0.571428571429E-01
 -0.571428571429E-01
 -0.571428571429E-01
 -0.571428571429E-01
 -0.571428571429E-01
 -0.571428571429E-01
 -0.571428571429E-01
  0.242775298961E-04
 -0.141770339744E-04
  0.238773913456E-04
 -0.136460874604E-04
  0.234175180279E-04
 -0.131077528759E-04
  0.229166320796E-04
 -0.123480936386E-04
  0.211666924290E-04
 -0.103879839675E-04
  0.194645636164E-04
 -0.871766808327E-05
 -0.352472716537E-01
 -0.352449018740E-01
 -0.352461617307E-01
 -0.352354156740E-01
 -0.352418768396E-01
 -0.352282395140E-01
 -0.352379234322E-01
 -0.352360497951E-01
 -0.352520792146E-01
 -0.352352247608E-01
 -0.352101990187E-01
 -0.351945192968E-01
 -0.629911942811E-03
 -0.750692717696E-04
 -0.200529605050E-03
 -0.124272627106E-04
 -0.115313066742E-03
 -0.176058348557E-04
 -0.670421047460E-04
 -0.127558121298E-04
 -0.310163308463E-04
 -0.189863235297E-04
 -0.115426693873E-04
 -0.156059659887E-04
 -0.571428571429E-01
 -0.571428571429E-01
 -0.571428571429E-01
 -0.571428571429E-01
 -0.571428571429E-01
 -0.571428571429E-01
 -0.571428571429E-01
 -0.571428571429E-01
 -0.571428571429E-01
 -0.571428571429E-01
 -0.571428571429E-01
 -0.571428571429E-01
  0.127807488478E-04
  0.242549960327E-04
  0.132685548584E-04
  0.238556089072E-04
  0.137488698871E-04
  0.233968862423E-04
  0.144678066043E-04
  0.228977016439E-04
  0.165299825628E-04
  0.211498077747E-04
  0.183634998406E-04
  0.194500266946E-04
 -0.352449076074E-01
 -0.352339820973E-01
 -0.352354217960E-01
 -0.352508358276E-01
 -0.352282441271E-01
 -0.352118093630E-01
 -0.352360552030E-01
 -0.353161765240E-01
 -0.352352271766E-01
 -0.353849499445E-01
 -0.351945188103E-01
 -0.342662653378E-01
 -0.182244428044E-01
 -0.643429204730E-03
  0.139319163153E-01
 -0.201459088658E-03
  0.325400727287E-02
 -0.115275993038E-03
  0.125403379601E-02
 -0.674385409344E-04
 -0.229229667080E-03
 -0.312812417544E-04
 -0.380995155345E-03
 -0.116032125967E-04
 -0.571428571429E-01
 -0.571428571429E-01
 -0.571428571429E-01
 -0.571428571429E-01
 -0.571428571429E-01
 -0.571428571429E-01
 -0.571428571429E-01
 -0.571428571429E-01
 -0.571428571429E-01
 -0.571428571429E-01
 -0.571428571429E-01
 -0.571428571429E-01
  0.496479833313E-04
  0.127512123819E-04
  0.453115067435E-04
  0.132354919517E-04
  0.411787281590E-04
  0.137109689229E-04
  0.346043085446E-04
  0.144244316817E-04
  0.176105852905E-04
  0.164851690762E-04
  0.156264435048E-05
  0.183236141218E-04
 -0.352340014580E-01
 -0.359237355519E-01
 -0.352508353303E-01
 -0.335019487443E-01
 -0.352120555440E-01
 -0.335593092700E-01
 -0.353170531830E-01
 -0.245514087196E-01
 -0.353971379486E-01
 -0.437263396811E-01
 -0.342729008733E-01
 -0.416896183980E-01
 -0.571428571429E-01
 -0.196634962241E-01
  0.274338838511E+00
  0.846482567832E-02
 -0.391008381604E-01
  0.447642081478E-03
 -0.386716792398E-01
  0.446559540445E-03
 -0.409816840833E-01
 -0.271572942898E-03
  0.953450185552E-02
 -0.380718017046E-03
 -0.571428571429E-01
 -0.571428571429E-01
 -0.571428571429E-01
 -0.571428571429E-01
 -0.571428571429E-01
 -0.571428571429E-01
 -0.571428571429E-01
 -0.571428571429E-01
 -0.571428571429E-01
 -0.571428571429E-01
 -0.571428571429E-01
 -0.571428571429E-01
  0.113215029739E-03
  0.494024396010E-04
  0.674726655204E-03
  0.449104174692E-04
  0.120212600506E-02
  0.401541689603E-04
  0.208011522100E-02
  0.308244520282E-04
  0.378526946056E-02
  0.471876180327E-06
  0.521486689738E-02
 -0.563410624677E-04
 -0.359522910085E-01
 -0.571428571429E-01
 -0.337682610171E-01
 -0.571413685253E-01
 -0.344360016110E-01
 -0.303450560503E-01
 -0.250855103319E-01
 -0.492821265577E-01
 -0.438407274349E-01
 -0.571428571429E-01
 -0.419401761523E-01
 -0.539419035725E-01
 -0.571428571429E-01
 -0.571428571429E-01
 -0.549424364063E-01
  0.271459014844E+00
 -0.254705207157E-01
 -0.385318227259E-01
 -0.207992000797E-01
 -0.398440141364E-01
 -0.217974029034E-01
 -0.441951365189E-01
 -0.355256260507E-01
  0.511287860532E-02
 -0.571428571429E-01
 -0.571428571429E-01
 -0.571428571429E-01
 -0.571428571429E-01
 -0.571428571429E-01
 -0.571428571429E-01
 -0.571428571429E-01
 -0.571428571429E-01
 -0.571428571429E-01
 -0.571428571429E-01
 -0.571428571429E-01
 -0.571428571429E-01
 -0.104116772400E-01
  0.106666374074E-03
 -0.107408310880E-01
  0.648500070046E-03
 -0.111528255413E-01
  0.111475879943E-02
 -0.115513664317E-01
  0.182316441327E-02
 -0.130571130928E-01
  0.306440611592E-02
 -0.150393245241E-01
  0.348416701348E-02
 -0.571428571429E-01
 -0.551800782499E-01
 -0.571406793838E-01
 -0.469524185956E-01
 -0.300762694995E-01
 -0.569796712115E-01
 -0.494624373123E-01
 -0.571428571429E-01
 -0.571428571429E-01
 -0.571428571429E-01
 -0.548683504428E-01
 -0.571428571429E-01
 -0.571428571429E-01
 -0.571428571429E-01
 -0.571428571429E-01
 -0.571428571427E-01
 -0.491283946579E-01
 -0.506969820473E-01
 -0.336201424467E-01
 -0.356274415085E-01
 -0.297884763888E-01
 -0.332561993171E-01
 -0.456069246016E-01
 -0.571428571429E-01
 -0.571428571429E-01
 -0.571428571429E-01
 -0.571428571429E-01
 -0.571428571429E-01
 -0.571428571429E-01
 -0.571428571429E-01
 -0.571428571429E-01
 -0.571428571429E-01
 -0.571428571429E-01
 -0.571428571429E-01
 -0.111014990897E-01
 -0.112746204752E-01
 -0.114983757778E-01
 -0.116228360502E-01
 -0.120036125875E-01
 -0.122625746554E-01
 -0.123779034321E-01
 -0.130484475943E-01
 -0.139616630451E-01
 -0.143495581721E-01
 -0.159527209395E-01
 -0.559920125713E-01
 -0.503009528583E-01
 -0.359652199149E-01