# vtk DataFile Version 3.0
MachLine results file. Generated by MachLine, USU AeroLab (c) 2023.
ASCII
DATASET POLYDATA
POINTS                 464 float
  0.409563802390E+01  0.344827586210E+00  0.000000000000E+00
  0.400000000000E+01  0.000000000000E+00  0.000000000000E+00
  0.598027928577E+02  0.344827586210E+00  0.487374452524E+01
  0.598020663795E+02  0.000000000000E+00  0.488204820953E+01
  0.419127604770E+01  0.689655172410E+00  0.000000000000E+00
  0.409563802390E+01  0.344827586210E+00  0.000000000000E+00
  0.598035193360E+02  0.689655172410E+00  0.486544084097E+01
  0.598027928577E+02  0.344827586210E+00  0.487374452524E+01
  0.428691407160E+01  0.103448275860E+01  0.000000000000E+00
  0.419127604770E+01  0.689655172410E+00  0.000000000000E+00
  0.598042458142E+02  0.103448275860E+01  0.485713715669E+01
  0.598035193360E+02  0.689655172410E+00  0.486544084097E+01
  0.438255209540E+01  0.137931034480E+01  0.000000000000E+00
  0.428691407160E+01  0.103448275860E+01  0.000000000000E+00
  0.598049722924E+02  0.137931034480E+01  0.484883347241E+01
  0.598042458142E+02  0.103448275860E+01  0.485713715669E+01
  0.447819011930E+01  0.172413793100E+01  0.000000000000E+00
  0.438255209540E+01  0.137931034480E+01  0.000000000000E+00
  0.598056987707E+02  0.172413793100E+01  0.484052978813E+01
  0.598049722924E+02  0.137931034480E+01  0.484883347241E+01
  0.457382814320E+01  0.206896551720E+01  0.000000000000E+00
  0.447819011930E+01  0.172413793100E+01  0.000000000000E+00
  0.598064252489E+02  0.206896551720E+01  0.483222610385E+01
  0.598056987707E+02  0.172413793100E+01  0.484052978813E+01
  0.466946616700E+01  0.241379310340E+01  0.000000000000E+00
  0.457382814320E+01  0.206896551720E+01  0.000000000000E+00
  0.598071517272E+02  0.241379310340E+01  0.482392241957E+01
  0.598064252489E+02  0.206896551720E+01  0.483222610385E+01
  0.476510419090E+01  0.275862068970E+01  0.000000000000E+00
  0.466946616700E+01  0.241379310340E+01  0.000000000000E+00
  0.598078782054E+02  0.275862068970E+01  0.481561873529E+01
  0.598071517272E+02  0.241379310340E+01  0.482392241957E+01
  0.486074221470E+01  0.310344827590E+01  0.000000000000E+00
  0.476510419090E+01  0.275862068970E+01  0.000000000000E+00
  0.598086046836E+02  0.310344827590E+01  0.480731505101E+01
  0.598078782054E+02  0.275862068970E+01  0.481561873529E+01
  0.495638023860E+01  0.344827586210E+01  0.000000000000E+00
  0.486074221470E+01  0.310344827590E+01  0.000000000000E+00
  0.598093311619E+02  0.344827586210E+01  0.479901136673E+01
  0.598086046836E+02  0.310344827590E+01  0.480731505101E+01
  0.505201826240E+01  0.379310344830E+01  0.000000000000E+00
  0.495638023860E+01  0.344827586210E+01  0.000000000000E+00
  0.598100576401E+02  0.379310344830E+01  0.479070768246E+01
  0.598093311619E+02  0.344827586210E+01  0.479901136673E+01
  0.514765628630E+01  0.413793103450E+01  0.000000000000E+00
  0.505201826240E+01  0.379310344830E+01  0.000000000000E+00
  0.598107841184E+02  0.413793103450E+01  0.478240399817E+01
  0.598100576401E+02  0.379310344830E+01  0.479070768246E+01
  0.524329431020E+01  0.448275862070E+01  0.000000000000E+00
  0.514765628630E+01  0.413793103450E+01  0.000000000000E+00
  0.598115105966E+02  0.448275862070E+01  0.477410031389E+01
  0.598107841184E+02  0.413793103450E+01  0.478240399817E+01
  0.533893233400E+01  0.482758620690E+01  0.000000000000E+00
  0.524329431020E+01  0.448275862070E+01  0.000000000000E+00
  0.598122370748E+02  0.482758620690E+01  0.476579662962E+01
  0.598115105966E+02  0.448275862070E+01  0.477410031389E+01
  0.543457035790E+01  0.517241379310E+01  0.000000000000E+00
  0.533893233400E+01  0.482758620690E+01  0.000000000000E+00
  0.598129635531E+02  0.517241379310E+01  0.475749294533E+01
  0.598122370748E+02  0.482758620690E+01  0.476579662962E+01
  0.553020838170E+01  0.551724137930E+01  0.000000000000E+00
  0.543457035790E+01  0.517241379310E+01  0.000000000000E+00
  0.598136900313E+02  0.551724137930E+01  0.474918926106E+01
  0.598129635531E+02  0.517241379310E+01  0.475749294533E+01
  0.562584640560E+01  0.586206896550E+01  0.000000000000E+00
  0.553020838170E+01  0.551724137930E+01  0.000000000000E+00
  0.598144165096E+02  0.586206896550E+01  0.474088557678E+01
  0.598136900313E+02  0.551724137930E+01  0.474918926106E+01
  0.572148442950E+01  0.620689655170E+01  0.000000000000E+00
  0.562584640560E+01  0.586206896550E+01  0.000000000000E+00
  0.598151429878E+02  0.620689655170E+01  0.473258189249E+01
  0.598144165096E+02  0.586206896550E+01  0.474088557678E+01
  0.581712245330E+01  0.655172413790E+01  0.000000000000E+00
  0.572148442950E+01  0.620689655170E+01  0.000000000000E+00
  0.598158694660E+02  0.655172413790E+01  0.472427820822E+01
  0.598151429878E+02  0.620689655170E+01  0.473258189249E+01
  0.591276047720E+01  0.689655172410E+01  0.000000000000E+00
  0.581712245330E+01  0.655172413790E+01  0.000000000000E+00
  0.598165959443E+02  0.689655172410E+01  0.471597452394E+01
  0.598158694660E+02  0.655172413790E+01  0.472427820822E+01
  0.600839850100E+01  0.724137931030E+01  0.000000000000E+00
  0.591276047720E+01  0.689655172410E+01  0.000000000000E+00
  0.598173224225E+02  0.724137931030E+01  0.470767083966E+01
  0.598165959443E+02  0.689655172410E+01  0.471597452394E+01
  0.610403652490E+01  0.758620689660E+01  0.000000000000E+00
  0.600839850100E+01  0.724137931030E+01  0.000000000000E+00
  0.598180489008E+02  0.758620689660E+01  0.469936715538E+01
  0.598173224225E+02  0.724137931030E+01  0.470767083966E+01
  0.619967454870E+01  0.793103448280E+01  0.000000000000E+00
  0.610403652490E+01  0.758620689660E+01  0.000000000000E+00
  0.598187753790E+02  0.793103448280E+01  0.469106347110E+01
  0.598180489008E+02  0.758620689660E+01  0.469936715538E+01
  0.629531257260E+01  0.827586206900E+01  0.000000000000E+00
  0.619967454870E+01  0.793103448280E+01  0.000000000000E+00
  0.598195018572E+02  0.827586206900E+01  0.468275978682E+01
  0.598187753790E+02  0.793103448280E+01  0.469106347110E+01
  0.639095059650E+01  0.862068965520E+01  0.000000000000E+00
  0.629531257260E+01  0.827586206900E+01  0.000000000000E+00
  0.598202283355E+02  0.862068965520E+01  0.467445610254E+01
  0.598195018572E+02  0.827586206900E+01  0.468275978682E+01
  0.648658862030E+01  0.896551724140E+01  0.000000000000E+00
  0.639095059650E+01  0.862068965520E+01  0.000000000000E+00
  0.598209548137E+02  0.896551724140E+01  0.466615241826E+01
  0.598202283355E+02  0.862068965520E+01  0.467445610254E+01
  0.658222664420E+01  0.931034482760E+01  0.000000000000E+00
  0.648658862030E+01  0.896551724140E+01  0.000000000000E+00
  0.598216812920E+02  0.931034482760E+01  0.465784873398E+01
  0.598209548137E+02  0.896551724140E+01  0.466615241826E+01
  0.667786466800E+01  0.965517241380E+01  0.000000000000E+00
  0.658222664420E+01  0.931034482760E+01  0.000000000000E+00
  0.598224077702E+02  0.965517241380E+01  0.464954504971E+01
  0.598216812920E+02  0.931034482760E+01  0.465784873398E+01
  0.677350269190E+01  0.100000000000E+02  0.000000000000E+00
  0.667786466800E+01  0.965517241380E+01  0.000000000000E+00
  0.598231342484E+02  0.100000000000E+02  0.464124136542E+01
  0.598224077702E+02  0.965517241380E+01  0.464954504971E+01
  0.400000000000E+01  0.000000000000E+00  0.000000000000E+00
  0.409563802390E+01 -0.344827586210E+00  0.000000000000E+00
  0.598020663795E+02  0.000000000000E+00  0.488204820953E+01
  0.598027928577E+02 -0.344827586210E+00  0.487374452524E+01
  0.409563802390E+01 -0.344827586210E+00  0.000000000000E+00
  0.419127604770E+01 -0.689655172410E+00  0.000000000000E+00
  0.598027928577E+02 -0.344827586210E+00  0.487374452524E+01
  0.598035193360E+02 -0.689655172410E+00  0.486544084097E+01
  0.419127604770E+01 -0.689655172410E+00  0.000000000000E+00
  0.428691407160E+01 -0.103448275860E+01  0.000000000000E+00
  0.598035193360E+02 -0.689655172410E+00  0.486544084097E+01
  0.598042458142E+02 -0.103448275860E+01  0.485713715669E+01
  0.428691407160E+01 -0.103448275860E+01  0.000000000000E+00
  0.438255209540E+01 -0.137931034480E+01  0.000000000000E+00
  0.598042458142E+02 -0.103448275860E+01  0.485713715669E+01
  0.598049722924E+02 -0.137931034480E+01  0.484883347241E+01
  0.438255209540E+01 -0.137931034480E+01  0.000000000000E+00
  0.447819011930E+01 -0.172413793100E+01  0.000000000000E+00
  0.598049722924E+02 -0.137931034480E+01  0.484883347241E+01
  0.598056987707E+02 -0.172413793100E+01  0.484052978813E+01
  0.447819011930E+01 -0.172413793100E+01  0.000000000000E+00
  0.457382814320E+01 -0.206896551720E+01  0.000000000000E+00
  0.598056987707E+02 -0.172413793100E+01  0.484052978813E+01
  0.598064252489E+02 -0.206896551720E+01  0.483222610385E+01
  0.457382814320E+01 -0.206896551720E+01  0.000000000000E+00
  0.466946616700E+01 -0.241379310340E+01  0.000000000000E+00
  0.598064252489E+02 -0.206896551720E+01  0.483222610385E+01
  0.598071517272E+02 -0.241379310340E+01  0.482392241957E+01
  0.466946616700E+01 -0.241379310340E+01  0.000000000000E+00
  0.476510419090E+01 -0.275862068970E+01  0.000000000000E+00
  0.598071517272E+02 -0.241379310340E+01  0.482392241957E+01
  0.598078782054E+02 -0.275862068970E+01  0.481561873529E+01
  0.476510419090E+01 -0.275862068970E+01  0.000000000000E+00
  0.486074221470E+01 -0.310344827590E+01  0.000000000000E+00
  0.598078782054E+02 -0.275862068970E+01  0.481561873529E+01
  0.598086046836E+02 -0.310344827590E+01  0.480731505101E+01
  0.486074221470E+01 -0.310344827590E+01  0.000000000000E+00
  0.495638023860E+01 -0.344827586210E+01  0.000000000000E+00
  0.598086046836E+02 -0.310344827590E+01  0.480731505101E+01
  0.598093311619E+02 -0.344827586210E+01  0.479901136673E+01
  0.495638023860E+01 -0.344827586210E+01  0.000000000000E+00
  0.505201826240E+01 -0.379310344830E+01  0.000000000000E+00
  0.598093311619E+02 -0.344827586210E+01  0.479901136673E+01
  0.598100576401E+02 -0.379310344830E+01  0.479070768246E+01
  0.505201826240E+01 -0.379310344830E+01  0.000000000000E+00
[...]
POINT_DATA                 464
SCALARS mu float 1
LOOKUP_TABLE default
 -0.121820776585E+00
 -0.213694245734E+00
 -0.121820776585E+00
 -0.213694245734E+00
 -0.279268320495E+00
 -0.121820776585E+00
 -0.279268320495E+00
 -0.121820776585E+00
 -0.242852612796E+00
 -0.279268320495E+00
 -0.242852612796E+00
 -0.279268320495E+00
 -0.173916805102E+00
 -0.242852612796E+00
 -0.173916805102E+00
 -0.242852612796E+00
 -0.256106325281E+00
 -0.173916805102E+00
 -0.256106325281E+00
 -0.173916805102E+00
 -0.238210830779E+00
 -0.256106325281E+00
 -0.238210830779E+00
 -0.256106325281E+00
 -0.194228253157E+00
 -0.238210830779E+00
 -0.194228253157E+00
 -0.238210830779E+00
 -0.239874647890E+00
 -0.194228253157E+00
 -0.239874647890E+00
 -0.194228253157E+00
 -0.225750287847E+00
 -0.239874647890E+00
 -0.225750287847E+00
 -0.239874647890E+00
 -0.200664914385E+00
 -0.225750287847E+00
 -0.200664914385E+00
 -0.225750287847E+00
 -0.225939105497E+00
 -0.200664914385E+00
 -0.225939105497E+00
 -0.200664914385E+00
 -0.212699929271E+00
 -0.225939105497E+00
 -0.212699929271E+00
 -0.225939105497E+00
 -0.199851286400E+00
 -0.212699929271E+00
 -0.199851286400E+00
 -0.212699929271E+00
 -0.212387833593E+00
 -0.199851286400E+00
 -0.212387833593E+00
 -0.199851286400E+00
 -0.200324482859E+00
 -0.212387833593E+00
 -0.200324482859E+00
 -0.212387833593E+00
 -0.193904575808E+00
 -0.200324482859E+00
 -0.193904575808E+00
 -0.200324482859E+00
 -0.197871708419E+00
 -0.193904575808E+00
 -0.197871708419E+00
 -0.193904575808E+00
 -0.187598586264E+00
 -0.197871708419E+00
 -0.187598586264E+00
 -0.197871708419E+00
 -0.183198832335E+00
 -0.187598586264E+00
 -0.183198832335E+00
 -0.187598586264E+00
 -0.182091200788E+00
 -0.183198832335E+00
 -0.182091200788E+00
 -0.183198832335E+00
 -0.173427979182E+00
 -0.182091200788E+00
 -0.173427979182E+00
 -0.182091200788E+00
 -0.168081670133E+00
 -0.173427979182E+00
 -0.168081670133E+00
 -0.173427979182E+00
 -0.165294691477E+00
 -0.168081670133E+00
 -0.165294691477E+00
 -0.168081670133E+00
 -0.154701503846E+00
 -0.165294691477E+00
 -0.154701503846E+00
 -0.165294691477E+00
 -0.144325719882E+00
 -0.154701503846E+00
 -0.144325719882E+00
 -0.154701503846E+00
 -0.145327016893E+00
 -0.144325719882E+00
 -0.145327016893E+00
 -0.144325719882E+00
 -0.985122092905E-01
 -0.145327016893E+00
 -0.985122092905E-01
 -0.145327016893E+00
 -0.119743603160E+00
 -0.985122092905E-01
 -0.119743603160E+00
 -0.985122092905E-01
  0.000000000000E+00
 -0.119743603160E+00
  0.000000000000E+00
 -0.119743603160E+00
 -0.213694245734E+00
 -0.121820776378E+00
 -0.213694245734E+00
 -0.121820776378E+00
 -0.121820776378E+00
 -0.279268320096E+00
 -0.121820776378E+00
 -0.279268320096E+00
 -0.279268320096E+00
 -0.242852612158E+00
 -0.279268320096E+00
 -0.242852612158E+00
 -0.242852612158E+00
 -0.173916804110E+00
 -0.242852612158E+00
 -0.173916804110E+00
 -0.173916804110E+00
 -0.256106323939E+00
 -0.173916804110E+00
 -0.256106323939E+00
 -0.256106323939E+00
 -0.238210829575E+00
 -0.256106323939E+00
 -0.238210829575E+00
 -0.238210829575E+00
 -0.194228252855E+00
 -0.238210829575E+00
 -0.194228252855E+00
 -0.194228252855E+00
 -0.239874648253E+00
 -0.194228252855E+00
 -0.239874648253E+00
 -0.239874648253E+00
 -0.225750287402E+00
 -0.239874648253E+00
 -0.225750287402E+00
 -0.225750287402E+00
 -0.200664913412E+00
 -0.225750287402E+00
 -0.200664913412E+00
 -0.200664913412E+00
 -0.225939107641E+00
 -0.200664913412E+00
 -0.225939107641E+00
 -0.225939107641E+00
 -0.212699936393E+00
 -0.225939107641E+00
 -0.212699936393E+00
 -0.212699936393E+00
 -0.199851294766E+00
 -0.212699936393E+00
 -0.199851294766E+00
 -0.199851294766E+00
 -0.212387839447E+00
 -0.199851294766E+00
 -0.212387839447E+00
 -0.212387839447E+00
 -0.200324486462E+00
 -0.212387839447E+00
 -0.200324486462E+00
 -0.200324486462E+00
 -0.193904578001E+00
 -0.200324486462E+00
 -0.193904578001E+00
 -0.193904578001E+00
 -0.197871708971E+00
 -0.193904578001E+00
 -0.197871708971E+00
 -0.197871708971E+00
 -0.187598584801E+00
 -0.197871708971E+00
 -0.187598584801E+00
 -0.187598584801E+00
 -0.183198828330E+00
 -0.187598584801E+00
 -0.183198828330E+00
 -0.183198828330E+00
 -0.182091194460E+00
 -0.183198828330E+00
 -0.182091194460E+00
 -0.182091194460E+00
 -0.173427974152E+00
 -0.182091194460E+00
 -0.173427974152E+00
 -0.173427974152E+00
 -0.168081666551E+00
 -0.173427974152E+00
 -0.168081666551E+00
 -0.168081666551E+00
 -0.165294663192E+00
 -0.168081666551E+00
 -0.165294663192E+00
 -0.165294663192E+00
 -0.154701431929E+00
 -0.165294663192E+00
 -0.154701431929E+00
 -0.154701431929E+00
 -0.144325659707E+00
 -0.154701431929E+00
 -0.144325659707E+00
 -0.144325659707E+00
 -0.145326966025E+00
 -0.144325659707E+00
 -0.145326966025E+00
 -0.145326966025E+00
 -0.985121769052E-01
 -0.145326966025E+00
 -0.985121769052E-01
 -0.985121769052E-01
 -0.119743615818E+00
 -0.985121769052E-01
 -0.119743615818E+00
 -0.119743615818E+00
  0.000000000000E+00
 -0.119743615818E+00
  0.000000000000E+00
  0.309530903114E+00
  0.142653728413E+00
  0.309530903114E+00
  0.142653728413E+00
  0.197567028250E-01
  0.309530903114E+00
  0.197567028250E-01
  0.309530903114E+00
  0.814649962196E-01
  0.197567028250E-01
  0.814649962196E-01
  0.197567028250E-01
  0.195025522749E+00
  0.814649962196E-01
  0.195025522749E+00
  0.814649962196E-01
  0.350538784980E-01
  0.195025522749E+00
  0.350538784980E-01
  0.195025522749E+00
  0.571428201475E-01
  0.350538784980E-01
  0.571428201475E-01
  0.350538784980E-01
  0.121809714966E+00
  0.571428201475E-01
  0.121809714966E+00
  0.571428201475E-01
  0.263195398494E-01
  0.121809714966E+00
  0.263195398494E-01
  0.121809714966E+00
  0.400203414344E-01
  0.263195398494E-01
  0.400203414344E-01
  0.263195398494E-01
  0.703863277918E-01
  0.400203414344E-01
  0.703863277918E-01
  0.400203414344E-01
  0.121299283412E-01
  0.703863277918E-01
  0.121299283412E-01
  0.703863277918E-01
  0.243768614545E-01
  0.121299283412E-01
  0.243768614545E-01
  0.121299283412E-01
  0.334595304744E-01
  0.243768614545E-01
  0.334595304744E-01
  0.243768614545E-01
 -0.112252324247E-02
  0.334595304744E-01
 -0.112252324247E-02
  0.334595304744E-01
  0.914194762415E-02
 -0.112252324247E-02
  0.914194762415E-02
 -0.112252324247E-02
  0.675944516442E-02
  0.914194762415E-02
  0.675944516442E-02
  0.914194762415E-02
 -0.122595093460E-01
  0.675944516442E-02
 -0.122595093460E-01
  0.675944516442E-02
 -0.580898821605E-02
 -0.122595093460E-01
 -0.580898821605E-02
 -0.122595093460E-01
 -0.125582941156E-01
 -0.580898821605E-02
 -0.125582941156E-01
 -0.580898821605E-02
 -0.225044260201E-01
 -0.125582941156E-01
 -0.225044260201E-01
 -0.125582941156E-01
 -0.203825572543E-01
 -0.225044260201E-01
 -0.203825572543E-01
 -0.225044260201E-01
 -0.270316199671E-01
 -0.203825572543E-01
 -0.270316199671E-01
 -0.203825572543E-01
 -0.344593732558E-01
 -0.270316199671E-01
 -0.344593732558E-01
 -0.270316199671E-01
 -0.342320490674E-01
 -0.344593732558E-01
 -0.342320490674E-01
 -0.344593732558E-01
 -0.391607286009E-01
 -0.342320490674E-01
 -0.391607286009E-01
 -0.342320490674E-01
 -0.537564701836E-01
 -0.391607286009E-01
 -0.537564701836E-01
 -0.391607286009E-01
 -0.301958867052E-01
 -0.537564701836E-01
 -0.301958867052E-01
 -0.537564701836E-01
 -0.683950878383E-01
 -0.301958867052E-01
 -0.683950878383E-01
 -0.301958867052E-01
  0.000000000000E+00
 -0.683950878383E-01
  0.000000000000E+00
 -0.683950878383E-01
  0.142653728413E+00
  0.309530903201E+00
  0.142653728413E+00
  0.309530903201E+00
  0.309530903201E+00
  0.197567029947E-01
  0.309530903201E+00
  0.197567029947E-01
  0.197567029947E-01
  0.814649964734E-01
  0.197567029947E-01
  0.814649964734E-01
  0.814649964734E-01
  0.195025523091E+00
  0.814649964734E-01
  0.195025523091E+00
  0.195025523091E+00
  0.350538789338E-01
  0.195025523091E+00
  0.350538789338E-01
  0.571428206843E-01
  0.121809715611E+00
  0.571428206843E-01
  0.121809715611E+00
  0.350538789338E-01
  0.571428206843E-01
  0.350538789338E-01
  0.571428206843E-01
  0.121809715611E+00
  0.263195406088E-01
  0.121809715611E+00
  0.263195406088E-01
  0.263195406088E-01
  0.400203423089E-01
  0.263195406088E-01
  0.400203423089E-01
  0.400203423089E-01
  0.703863287762E-01
  0.400203423089E-01
  0.703863287762E-01
  0.703863287762E-01
  0.121299294277E-01
  0.703863287762E-01
  0.121299294277E-01
  0.121299294277E-01
  0.243768626417E-01
  0.121299294277E-01
  0.243768626417E-01
  0.243768626417E-01
  0.334595317719E-01
  0.243768626417E-01
  0.334595317719E-01
  0.334595317719E-01
 -0.112252181507E-02
  0.334595317719E-01
 -0.112252181507E-02
 -0.112252181507E-02
  0.914194921234E-02
 -0.112252181507E-02
  0.914194921234E-02
  0.914194921234E-02
  0.675944695604E-02
  0.914194921234E-02
  0.675944695604E-02
  0.675944695604E-02
 -0.122595073013E-01
  0.675944695604E-02
 -0.122595073013E-01
 -0.122595073013E-01
 -0.580898579924E-02
 -0.122595073013E-01
 -0.580898579924E-02
 -0.580898579924E-02
 -0.125582909973E-01
 -0.580898579924E-02
 -0.125582909973E-01
 -0.125582909973E-01
 -0.225044238004E-01
 -0.125582909973E-01
 -0.225044238004E-01
 -0.225044238004E-01
 -0.203825668745E-01
 -0.225044238004E-01
 -0.203825668745E-01
 -0.203825668745E-01
 -0.270316453680E-01
 -0.203825668745E-01
 -0.270316453680E-01
 -0.270316453680E-01
 -0.344593389161E-01
 -0.270316453680E-01
 -0.344593389161E-01
 -0.344593389161E-01
 -0.342318790823E-01
 -0.344593389161E-01
 -0.342318790823E-01
 -0.342318790823E-01
 -0.391605920024E-01
 -0.342318790823E-01
 -0.391605920024E-01
 -0.391605920024E-01
 -0.537564034417E-01
 -0.391605920024E-01
 -0.537564034417E-01
 -0.537564034417E-01
 -0.301958192075E-01
 -0.537564034417E-01
 -0.301958192075E-01
 -0.301958192075E-01
 -0.683951511185E-01
 -0.301958192075E-01
 -0.683951511185E-01
 -0.683951511185E-01
  0.000000000000E+00
 -0.683951511185E-01
  0.000000000000E+00
