# vtk DataFile Version 3.0
MachLine results file. Generated by MachLine, USU AeroLab (c) 2023.
ASCII
DATASET POLYDATA
POINTS                 296 float
  0.100000000000E+01  0.995317481950E+01  0.000000000000E+00
  0.200000000000E+02  0.995317481950E+01  0.000000000000E+00
  0.100000000000E+01  0.998594649000E+01  0.000000000000E+00
  0.200000000000E+02  0.998594649000E+01  0.000000000000E+00
  0.100000000000E+01  0.953283861050E+01  0.000000000000E+00
  0.200000000000E+02  0.953283861050E+01  0.000000000000E+00
  0.100000000000E+01  0.784310156050E+01  0.000000000000E+00
  0.200000000000E+02  0.784310156050E+01  0.000000000000E+00
  0.100000000000E+01  0.176072503700E+01  0.000000000000E+00
  0.200000000000E+02  0.176072503700E+01  0.000000000000E+00
  0.100000000000E+01  0.400160059800E+01  0.000000000000E+00
  0.200000000000E+02  0.400160059800E+01  0.000000000000E+00
  0.100000000000E+01  0.990951735950E+01  0.000000000000E+00
  0.200000000000E+02  0.990951735950E+01  0.000000000000E+00
  0.100000000000E+01  0.967054814500E+01  0.000000000000E+00
  0.200000000000E+02  0.967054814500E+01  0.000000000000E+00
  0.100000000000E+01  0.985134921950E+01  0.000000000000E+00
  0.200000000000E+02  0.985134921950E+01  0.000000000000E+00
  0.100000000000E+01  0.977384212900E+01  0.000000000000E+00
  0.200000000000E+02  0.977384212900E+01  0.000000000000E+00
  0.100000000000E+01  0.910382621650E+01  0.000000000000E+00
  0.200000000000E+02  0.910382621650E+01  0.000000000000E+00
  0.100000000000E+01  0.304122535800E+01  0.000000000000E+00
  0.200000000000E+02  0.304122535800E+01  0.000000000000E+00
  0.100000000000E+01  0.934912895100E+01  0.000000000000E+00
  0.200000000000E+02  0.934912895100E+01  0.000000000000E+00
  0.100000000000E+01  0.272110027750E+01  0.000000000000E+00
  0.200000000000E+02  0.272110027750E+01  0.000000000000E+00
  0.100000000000E+01  0.528210091900E+01  0.000000000000E+00
  0.200000000000E+02  0.528210091900E+01  0.000000000000E+00
  0.100000000000E+01  0.496197583900E+01  0.000000000000E+00
  0.200000000000E+02  0.496197583900E+01  0.000000000000E+00
  0.100000000000E+01  0.656260124000E+01  0.000000000000E+00
  0.200000000000E+02  0.656260124000E+01  0.000000000000E+00
  0.100000000000E+01  0.816322664100E+01  0.000000000000E+00
  0.200000000000E+02  0.816322664100E+01  0.000000000000E+00
  0.100000000000E+01  0.336135043800E+01  0.000000000000E+00
  0.200000000000E+02  0.336135043800E+01  0.000000000000E+00
  0.100000000000E+01  0.880347680100E+01  0.000000000000E+00
  0.200000000000E+02  0.880347680100E+01  0.000000000000E+00
  0.100000000000E+01  0.240097519700E+01  0.000000000000E+00
  0.200000000000E+02  0.240097519700E+01  0.000000000000E+00
  0.100000000000E+01  0.848335172100E+01  0.000000000000E+00
  0.200000000000E+02  0.848335172100E+01  0.000000000000E+00
  0.100000000000E+01  0.368147551800E+01  0.000000000000E+00
  0.200000000000E+02  0.368147551800E+01  0.000000000000E+00
  0.100000000000E+01  0.560222599900E+01  0.000000000000E+00
  0.200000000000E+02  0.560222599900E+01  0.000000000000E+00
  0.100000000000E+01  0.624247615950E+01  0.000000000000E+00
  0.200000000000E+02  0.624247615950E+01  0.000000000000E+00
  0.100000000000E+01  0.112047487680E+01  0.000000000000E+00
  0.200000000000E+02  0.112047487680E+01  0.000000000000E+00
  0.100000000000E+01  0.800349796500E+00  0.000000000000E+00
  0.200000000000E+02  0.800349796500E+00  0.000000000000E+00
  0.100000000000E+01  0.688272632000E+01  0.000000000000E+00
  0.200000000000E+02  0.688272632000E+01  0.000000000000E+00
  0.100000000000E+01  0.160081088100E+00  0.000000000000E+00
  0.200000000000E+02  0.160081088100E+00  0.000000000000E+00
  0.100000000000E+01  0.208085011700E+01  0.000000000000E+00
  0.200000000000E+02  0.208085011700E+01  0.000000000000E+00
  0.100000000000E+01  0.720285140000E+01  0.000000000000E+00
  0.200000000000E+02  0.720285140000E+01  0.000000000000E+00
  0.100000000000E+01  0.432172567850E+01  0.000000000000E+00
  0.200000000000E+02  0.432172567850E+01  0.000000000000E+00
  0.100000000000E+01  0.480224716300E+00  0.000000000000E+00
  0.200000000000E+02  0.480224716300E+00  0.000000000000E+00
  0.100000000000E+01  0.592235107900E+01  0.000000000000E+00
  0.200000000000E+02  0.592235107900E+01  0.000000000000E+00
  0.100000000000E+01  0.464185075900E+01  0.000000000000E+00
  0.200000000000E+02  0.464185075900E+01  0.000000000000E+00
  0.100000000000E+01  0.752297648000E+01  0.000000000000E+00
  0.200000000000E+02  0.752297648000E+01  0.000000000000E+00
  0.100000000000E+01  0.144059995700E+01  0.000000000000E+00
  0.200000000000E+02  0.144059995700E+01  0.000000000000E+00
  0.100000000000E+01 -0.998594649000E+01  0.000000000000E+00
  0.200000000000E+02 -0.998594649000E+01  0.000000000000E+00
  0.100000000000E+01 -0.995317481950E+01  0.000000000000E+00
  0.200000000000E+02 -0.995317481950E+01  0.000000000000E+00
  0.100000000000E+01 -0.967054814500E+01  0.000000000000E+00
  0.200000000000E+02 -0.967054814500E+01  0.000000000000E+00
  0.100000000000E+01 -0.985134921950E+01  0.000000000000E+00
  0.200000000000E+02 -0.985134921950E+01  0.000000000000E+00
  0.100000000000E+01 -0.977384212900E+01  0.000000000000E+00
  0.200000000000E+02 -0.977384212900E+01  0.000000000000E+00
  0.100000000000E+01 -0.990951735950E+01  0.000000000000E+00
  0.200000000000E+02 -0.990951735950E+01  0.000000000000E+00
  0.100000000000E+01 -0.304122535800E+01  0.000000000000E+00
  0.200000000000E+02 -0.304122535800E+01  0.000000000000E+00
  0.100000000000E+01 -0.464185075900E+01  0.000000000000E+00
  0.200000000000E+02 -0.464185075900E+01  0.000000000000E+00
  0.100000000000E+01 -0.368147551800E+01  0.000000000000E+00
  0.200000000000E+02 -0.368147551800E+01  0.000000000000E+00
  0.100000000000E+01 -0.720285140000E+01  0.000000000000E+00
  0.200000000000E+02 -0.720285140000E+01  0.000000000000E+00
  0.100000000000E+01 -0.848335172100E+01  0.000000000000E+00
  0.200000000000E+02 -0.848335172100E+01  0.000000000000E+00
  0.100000000000E+01 -0.240097519700E+01  0.000000000000E+00
  0.200000000000E+02 -0.240097519700E+01  0.000000000000E+00
  0.100000000000E+01 -0.160081088100E+00  0.000000000000E+00
  0.200000000000E+02 -0.160081088100E+00  0.000000000000E+00
  0.100000000000E+01 -0.480224716300E+00  0.000000000000E+00
  0.200000000000E+02 -0.480224716300E+00  0.000000000000E+00
  0.100000000000E+01 -0.400160059800E+01  0.000000000000E+00
  0.200000000000E+02 -0.400160059800E+01  0.000000000000E+00
  0.100000000000E+01 -0.432172567850E+01  0.000000000000E+00
  0.200000000000E+02 -0.432172567850E+01  0.000000000000E+00
  0.100000000000E+01 -0.144059995700E+01  0.000000000000E+00
  0.200000000000E+02 -0.144059995700E+01  0.000000000000E+00
  0.100000000000E+01 -0.112047487680E+01  0.000000000000E+00
  0.200000000000E+02 -0.112047487680E+01  0.000000000000E+00
  0.100000000000E+01 -0.496197583900E+01  0.000000000000E+00
  0.200000000000E+02 -0.496197583900E+01  0.000000000000E+00
  0.100000000000E+01 -0.800349796500E+00  0.000000000000E+00
  0.200000000000E+02 -0.800349796500E+00  0.000000000000E+00
  0.100000000000E+01 -0.272110027750E+01  0.000000000000E+00
  0.200000000000E+02 -0.272110027750E+01  0.000000000000E+00
  0.100000000000E+01 -0.560222599900E+01  0.000000000000E+00
  0.200000000000E+02 -0.560222599900E+01  0.000000000000E+00
  0.100000000000E+01 -0.656260124000E+01  0.000000000000E+00
  0.200000000000E+02 -0.656260124000E+01  0.000000000000E+00
  0.100000000000E+01 -0.816322664100E+01  0.000000000000E+00
  0.200000000000E+02 -0.816322664100E+01  0.000000000000E+00
  0.100000000000E+01 -0.752297648000E+01  0.000000000000E+00
  0.200000000000E+02 -0.752297648000E+01  0.000000000000E+00
  0.100000000000E+01 -0.528210091900E+01  0.000000000000E+00
  0.200000000000E+02 -0.528210091900E+01  0.000000000000E+00
  0.100000000000E+01 -0.910382621650E+01  0.000000000000E+00
  0.200000000000E+02 -0.910382621650E+01  0.000000000000E+00
  0.100000000000E+01 -0.688272632000E+01  0.000000000000E+00
  0.200000000000E+02 -0.688272632000E+01  0.000000000000E+00
  0.100000000000E+01 -0.953283861050E+01  0.000000000000E+00
  0.200000000000E+02 -0.953283861050E+01  0.000000000000E+00
  0.100000000000E+01 -0.336135043800E+01  0.000000000000E+00
  0.200000000000E+02 -0.336135043800E+01  0.000000000000E+00
  0.100000000000E+01 -0.880347680100E+01  0.000000000000E+00
  0.200000000000E+02 -0.880347680100E+01  0.000000000000E+00
  0.100000000000E+01 -0.208085011700E+01  0.000000000000E+00
  0.200000000000E+02 -0.208085011700E+01  0.000000000000E+00
  0.100000000000E+01 -0.934912895100E+01  0.000000000000E+00
  0.200000000000E+02 -0.934912895100E+01  0.000000000000E+00
  0.100000000000E+01 -0.784310156050E+01  0.000000000000E+00
  0.200000000000E+02 -0.784310156050E+01  0.000000000000E+00
  0.100000000000E+01 -0.592235107900E+01  0.000000000000E+00
  0.200000000000E+02 -0.592235107900E+01  0.000000000000E+00
  0.100000000000E+01 -0.176072503700E+01  0.000000000000E+00
  0.200000000000E+02 -0.176072503700E+01  0.000000000000E+00
  0.100000000000E+01 -0.624247615950E+01  0.000000000000E+00
  0.200000000000E+02 -0.624247615950E+01  0.000000000000E+00
  0.100000000000E+01  0.995317481950E+01  0.500000000000E+01
  0.200000000000E+02  0.995317481950E+01  0.500000000000E+01
  0.100000000000E+01  0.998594649000E+01  0.500000000000E+01
  0.200000000000E+02  0.998594649000E+01  0.500000000000E+01
  0.100000000000E+01  0.934912895100E+01  0.500000000000E+01
  0.200000000000E+02  0.934912895100E+01  0.500000000000E+01
  0.100000000000E+01  0.985134921950E+01  0.500000000000E+01
  0.200000000000E+02  0.985134921950E+01  0.500000000000E+01
  0.100000000000E+01  0.967054814500E+01  0.500000000000E+01
  0.200000000000E+02  0.967054814500E+01  0.500000000000E+01
  0.100000000000E+01  0.977384212900E+01  0.500000000000E+01
  0.200000000000E+02  0.977384212900E+01  0.500000000000E+01
  0.100000000000E+01  0.953283861050E+01  0.500000000000E+01
[...]
POINT_DATA                 296
SCALARS Gamma float 1
LOOKUP_TABLE default
  0.295616263450E-02
  0.295616263450E-02
  0.128035118398E-02
  0.128035118398E-02
 -0.220566368628E-02
 -0.220566368628E-02
  0.282785991009E-01
  0.282785991009E-01
  0.409307382802E-01
  0.409307382802E-01
 -0.234502124414E-02
 -0.234502124414E-02
 -0.772663095527E-02
 -0.772663095527E-02
  0.106977585343E-01
  0.106977585343E-01
  0.679468074885E-02
  0.679468074885E-02
 -0.726910245576E-02
 -0.726910245576E-02
  0.411482319788E-02
  0.411482319788E-02
  0.728704195504E-02
  0.728704195504E-02
 -0.577861001390E-02
 -0.577861001390E-02
  0.150427259766E-01
  0.150427259766E-01
 -0.315079722607E-01
 -0.315079722607E-01
  0.248261945191E-01
  0.248261945191E-01
  0.632921801906E-01
  0.632921801906E-01
  0.535410594364E-02
  0.535410594364E-02
 -0.254785220344E-01
 -0.254785220344E-01
 -0.859022968968E-02
 -0.859022968968E-02
 -0.112175464118E-01
 -0.112175464118E-01
 -0.122284287241E-01
 -0.122284287241E-01
  0.457621031256E-02
  0.457621031256E-02
  0.115471742383E-01
  0.115471742383E-01
 -0.266550334005E-01
 -0.266550334005E-01
 -0.282413861128E-01
 -0.282413861128E-01
 -0.612487505610E-02
 -0.612487505610E-02
 -0.299549184942E-01
 -0.299549184942E-01
  0.460535806291E-02
  0.460535806291E-02
  0.212726891388E-02
  0.212726891388E-02
  0.983691340511E-03
  0.983691340511E-03
  0.200970761027E-01
  0.200970761027E-01
  0.219151637075E-01
  0.219151637075E-01
 -0.216675227180E-02
 -0.216675227180E-02
 -0.318522344935E-01
 -0.318522344935E-01
 -0.120552167348E-01
 -0.120552167348E-01
 -0.256443927180E-01
 -0.256443927180E-01
 -0.393440530731E-02
 -0.393440530731E-02
  0.338185112725E-03
  0.338185112725E-03
 -0.203710709190E-01
 -0.203710709190E-01
 -0.815469787122E-02
 -0.815469787122E-02
  0.137622612211E-02
  0.137622612211E-02
  0.124967772672E-01
  0.124967772672E-01
  0.216333412068E-01
  0.216333412068E-01
 -0.131772277404E-01
 -0.131772277404E-01
 -0.187567926657E-01
 -0.187567926657E-01
 -0.243792284726E-01
 -0.243792284726E-01
 -0.236228472903E-01
 -0.236228472903E-01
  0.251343440388E-02
  0.251343440388E-02
  0.126338549203E-01
  0.126338549203E-01
 -0.175382347737E-01
 -0.175382347737E-01
  0.177053229868E-01
  0.177053229868E-01
 -0.178951900548E-01
 -0.178951900548E-01
  0.610020380346E-01
  0.610020380346E-01
 -0.210429026572E-01
 -0.210429026572E-01
  0.122889753356E-01
  0.122889753356E-01
 -0.116850517458E-01
 -0.116850517458E-01
 -0.295913813433E-01
 -0.295913813433E-01
  0.217972544431E-01
  0.217972544431E-01
  0.112406809836E-03
  0.112406809836E-03
  0.176545656704E-01
  0.176545656704E-01
  0.459315746504E-01
  0.459315746504E-01
 -0.320301351735E-02
 -0.320301351735E-02
  0.597294989820E-03
  0.597294989820E-03
 -0.149353864212E-01
 -0.149353864212E-01
  0.275681524317E-01
  0.275681524317E-01
  0.232595124027E-01
  0.232595124027E-01
  0.275358086573E-01
  0.275358086573E-01
 -0.416915795628E-01
 -0.416915795628E-01
 -0.211158352970E-01
 -0.211158352970E-01
 -0.268579895712E-01
 -0.268579895712E-01
 -0.268497292248E-01
 -0.268497292248E-01
  0.128174433765E-01
  0.128174433765E-01
  0.258756274278E-01
  0.258756274278E-01
  0.804444271884E-02
  0.804444271884E-02
 -0.319104031332E-02
 -0.319104031332E-02
  0.148725149655E-01
  0.148725149655E-01
  0.584342544246E-02
  0.584342544246E-02
  0.782080623653E-02
  0.782080623653E-02
 -0.214257303961E-01
 -0.214257303961E-01
 -0.327232344912E-02
 -0.327232344912E-02
  0.457884686792E-03
  0.457884686792E-03
 -0.157495825105E-01
 -0.157495825105E-01
 -0.656241569110E-01
 -0.656241569110E-01
  0.232008293772E-01
  0.232008293772E-01
  0.117634400330E-02
  0.117634400330E-02
  0.122535691784E-01
  0.122535691784E-01
 -0.124445758010E-01
 -0.124445758010E-01
  0.195682102726E-01
  0.195682102726E-01
 -0.918669713212E-02
 -0.918669713212E-02
 -0.127086607469E-02
 -0.127086607469E-02
  0.281265451279E-01
  0.281265451279E-01
  0.710326118325E-02
  0.710326118325E-02
 -0.601844714497E-01
 -0.601844714497E-01
  0.246915805845E-01
  0.246915805845E-01
 -0.339516616713E-01
 -0.339516616713E-01
  0.137562642401E-01
  0.137562642401E-01
 -0.260627643765E-01
 -0.260627643765E-01
 -0.163312451057E-02
 -0.163312451057E-02
 -0.818831727337E-02
 -0.818831727337E-02
  0.453389700415E-02
  0.453389700415E-02
 -0.341634107957E-02
 -0.341634107957E-02
  0.129992050625E-01
  0.129992050625E-01
  0.152852535746E-01
  0.152852535746E-01
  0.710399569417E-01
  0.710399569417E-01
 -0.193936895199E-01
 -0.193936895199E-01
 -0.453837527510E-01
 -0.453837527510E-01
  0.318635730578E-01
  0.318635730578E-01
 -0.115301044062E-01
 -0.115301044062E-01
  0.763280598933E-02
  0.763280598933E-02
  0.109649020846E-01
  0.109649020846E-01
 -0.221257179389E-02
 -0.221257179389E-02
  0.150969427083E-02
  0.150969427083E-02
  0.260286895698E-02
  0.260286895698E-02
 -0.387123853392E-01
 -0.387123853392E-01
 -0.139664944174E-02
 -0.139664944174E-02
  0.226789167428E-01
  0.226789167428E-01
 -0.919623733703E-02
 -0.919623733703E-02
  0.119127853588E-01
  0.119127853588E-01
 -0.270148293679E-02
 -0.270148293679E-02
 -0.809181825426E-02
 -0.809181825426E-02
 -0.121049376747E-01
 -0.121049376747E-01
 -0.597178246695E-03
 -0.597178246695E-03
 -0.139050517001E-01
 -0.139050517001E-01
  0.421927318493E-01
  0.421927318493E-01
 -0.148985366576E-01
 -0.148985366576E-01
 -0.940451643860E-02
 -0.940451643860E-02
  0.734552054356E-02
  0.734552054356E-02
  0.661259760876E-02
  0.661259760876E-02
  0.513762075917E-03
  0.513762075917E-03
  0.293184626615E-01
  0.293184626615E-01
 -0.191667641286E-01
 -0.191667641286E-01
 -0.397006754024E-01
 -0.397006754024E-01
 -0.433134434283E-01
 -0.433134434283E-01
  0.119868605417E-01
  0.119868605417E-01
  0.389284413394E-01
  0.389284413394E-01
  0.129592333876E-01
  0.129592333876E-01
  0.398499273364E-01
  0.398499273364E-01
  0.121384243188E-03
  0.121384243188E-03
  0.640182297228E-02
  0.640182297228E-02
 -0.117547901764E-01
 -0.117547901764E-01
 -0.777015007652E-02
 -0.777015007652E-02
  0.157719682692E-02
  0.157719682692E-02
 -0.224327370774E-01
 -0.224327370774E-01
  0.446070051991E-01
  0.446070051991E-01
 -0.287570029123E-01
 -0.287570029123E-01
  0.343009421499E-01
  0.343009421499E-01
 -0.862929714903E-02
 -0.862929714903E-02
