# vtk DataFile Version 3.0
MachLine results file. Generated by MachLine, USU AeroLab (c) 2022.
ASCII
DATASET POLYDATA
POINTS                1848 float
  0.000000000000E+00  0.000000000000E+00  0.000000000000E+00
  0.147665724158E+00  0.000000000000E+00 -0.234920635819E+00
  0.147665724158E+00  0.000000000000E+00  0.234920635819E+00
  0.339639574289E+00  0.339639574289E+00  0.000000000000E+00
  0.473465979099E+00  0.000000000000E+00 -0.436293870211E+00
  0.473465979099E+00  0.000000000000E+00  0.436293870211E+00
  0.487305283546E+00  0.339639574289E+00 -0.234920650721E+00
  0.487305283546E+00  0.339639574289E+00  0.234920650721E+00
  0.735364913940E+00  0.735364913940E+00  0.000000000000E+00
  0.813105583191E+00  0.339639574289E+00 -0.436293929815E+00
  0.813105583191E+00  0.339639574289E+00  0.436293929815E+00
  0.883030653000E+00  0.735364913940E+00 -0.234920680523E+00
  0.883030653000E+00  0.735364913940E+00  0.234920680523E+00
  0.944064557552E+00  0.000000000000E+00 -0.604293465614E+00
  0.944064557552E+00  0.000000000000E+00  0.604293465614E+00
  0.119528055191E+01  0.119528055191E+01  0.000000000000E+00
  0.120883107185E+01  0.735364913940E+00 -0.436293989420E+00
  0.120883107185E+01  0.735364913940E+00  0.436293989420E+00
  0.128370416164E+01  0.339639574289E+00 -0.604293525219E+00
  0.128370416164E+01  0.339639574289E+00  0.604293525219E+00
  0.134294629097E+01  0.119528055191E+01 -0.234920725226E+00
  0.134294629097E+01  0.119528055191E+01  0.234920725226E+00
  0.157641971111E+01  0.000000000000E+00 -0.760520398617E+00
  0.157641971111E+01  0.000000000000E+00  0.760520398617E+00
  0.166874670982E+01  0.119528055191E+01 -0.436294049025E+00
  0.166874670982E+01  0.119528055191E+01  0.436294049025E+00
  0.167942965031E+01  0.735364913940E+00 -0.604293584824E+00
  0.167942965031E+01  0.735364913940E+00  0.604293584824E+00
  0.172824025154E+01  0.172824025154E+01  0.000000000000E+00
  0.187590610981E+01  0.172824025154E+01 -0.234920769930E+00
  0.187590610981E+01  0.172824025154E+01  0.234920769930E+00
  0.191605937481E+01  0.339639574289E+00 -0.760520458221E+00
  0.191605937481E+01  0.339639574289E+00  0.760520458221E+00
  0.213934540749E+01  0.119528055191E+01 -0.604293704033E+00
  0.213934540749E+01  0.119528055191E+01  0.604293704033E+00
  0.220170640945E+01  0.172824025154E+01 -0.436294138432E+00
  0.220170640945E+01  0.172824025154E+01  0.436294138432E+00
  0.231178498268E+01  0.735364913940E+00 -0.760520577431E+00
  0.231178498268E+01  0.735364913940E+00  0.760520577431E+00
  0.234375929832E+01  0.234375929832E+01  0.000000000000E+00
  0.239635515213E+01  0.000000000000E+00 -0.902061045170E+00
  0.239635515213E+01  0.000000000000E+00  0.902061045170E+00
  0.249142503738E+01  0.234375929832E+01 -0.234920814633E+00
  0.249142503738E+01  0.234375929832E+01  0.234920814633E+00
  0.267230534554E+01  0.172824025154E+01 -0.604293823242E+00
  0.267230534554E+01  0.172824025154E+01  0.604293823242E+00
  0.273599505424E+01  0.339639574289E+00 -0.902061164379E+00
  0.273599505424E+01  0.339639574289E+00  0.902061164379E+00
  0.277170085907E+01  0.119528055191E+01 -0.760520696640E+00
  0.277170085907E+01  0.119528055191E+01  0.760520696640E+00
  0.281722569466E+01  0.234375929832E+01 -0.436294227839E+00
  0.281722569466E+01  0.234375929832E+01  0.436294227839E+00
  0.305185556412E+01  0.305185556412E+01  0.000000000000E+00
  0.313172078133E+01  0.735364913940E+00 -0.902061283588E+00
  0.313172078133E+01  0.735364913940E+00  0.902061283588E+00
  0.319952154160E+01  0.305185556412E+01 -0.234920859337E+00
  0.319952154160E+01  0.305185556412E+01  0.234920859337E+00
  0.328782463074E+01  0.234375929832E+01 -0.604293942451E+00
  0.328782463074E+01  0.234375929832E+01  0.604293942451E+00
  0.330466079712E+01  0.172824025154E+01 -0.760520815849E+00
  0.330466079712E+01  0.172824025154E+01  0.760520815849E+00
  0.342464399338E+01  0.000000000000E+00 -0.102348911762E+01
  0.342464399338E+01  0.000000000000E+00  0.102348911762E+01
  0.352532196045E+01  0.305185556412E+01 -0.436294317245E+00
  0.352532196045E+01  0.305185556412E+01  0.436294317245E+00
  0.359163665771E+01  0.119528055191E+01 -0.902061402798E+00
  0.359163665771E+01  0.119528055191E+01  0.902061402798E+00
  0.376428389549E+01  0.339639574289E+00 -0.102348923683E+01
  0.376428389549E+01  0.339639574289E+00  0.102348923683E+01
  0.386280250549E+01  0.386280250549E+01  0.000000000000E+00
  0.392018008232E+01  0.234375929832E+01 -0.760520994663E+00
  0.392018008232E+01  0.234375929832E+01  0.760520994663E+00
  0.399592113495E+01  0.305185556412E+01 -0.604294061661E+00
  0.399592113495E+01  0.305185556412E+01  0.604294061661E+00
  0.401046848297E+01  0.386280250549E+01 -0.234920918941E+00
  0.401046848297E+01  0.386280250549E+01  0.234920918941E+00
  0.412459707260E+01  0.172824025154E+01 -0.902061522007E+00
  0.412459707260E+01  0.172824025154E+01  0.902061522007E+00
  0.416000986099E+01  0.735364913940E+00 -0.102348935604E+01
  0.416000986099E+01  0.735364913940E+00  0.102348935604E+01
  0.433626890182E+01  0.386280250549E+01 -0.436294436455E+00
  0.433626890182E+01  0.386280250549E+01  0.436294436455E+00
  0.461992597580E+01  0.119528055191E+01 -0.102348947525E+01
  0.461992597580E+01  0.119528055191E+01  0.102348947525E+01
  0.462827682495E+01  0.305185556412E+01 -0.760521173477E+00
  0.462827682495E+01  0.305185556412E+01  0.760521173477E+00
  0.466872262955E+01  0.000000000000E+00 -0.111146688461E+01
  0.466872262955E+01  0.000000000000E+00  0.111146688461E+01
  0.474011659622E+01  0.234375929832E+01 -0.902061700821E+00
  0.474011659622E+01  0.234375929832E+01  0.902061700821E+00
  0.478677463531E+01  0.478677463531E+01  0.000000000000E+00
  0.480686807632E+01  0.386280250549E+01 -0.604294240475E+00
  0.480686807632E+01  0.386280250549E+01  0.604294240475E+00
  0.493444061279E+01  0.478677463531E+01 -0.234920993447E+00
  0.493444061279E+01  0.478677463531E+01  0.234920993447E+00
  0.500836277008E+01  0.339639574289E+00 -0.111146700382E+01
  0.500836277008E+01  0.339639574289E+00  0.111146700382E+01
  0.515288639069E+01  0.172824025154E+01 -0.102348971367E+01
  0.515288639069E+01  0.172824025154E+01  0.102348971367E+01
  0.526024150848E+01  0.478677463531E+01 -0.436294555664E+00
  0.526024150848E+01  0.478677463531E+01  0.436294555664E+00
  0.540408849716E+01  0.735364913940E+00 -0.111146712303E+01
  0.540408849716E+01  0.735364913940E+00  0.111146712303E+01
  0.543922424316E+01  0.386280250549E+01 -0.760521352291E+00
  0.543922424316E+01  0.386280250549E+01  0.760521352291E+00
  0.544821310043E+01  0.305185556412E+01 -0.902061939240E+00
  0.544821310043E+01  0.305185556412E+01  0.902061939240E+00
  0.573084068298E+01  0.478677463531E+01 -0.604294419289E+00
  0.573084068298E+01  0.478677463531E+01  0.604294419289E+00
  0.576840591431E+01  0.234375929832E+01 -0.102348983288E+01
  0.576840591431E+01  0.234375929832E+01  0.102348983288E+01
  0.583337688446E+01  0.583337688446E+01  0.000000000000E+00
  0.586400508881E+01  0.119528055191E+01 -0.111146736145E+01
  0.586400508881E+01  0.119528055191E+01  0.111146736145E+01
  0.598104286194E+01  0.583337688446E+01 -0.234921067953E+00
  0.598104286194E+01  0.583337688446E+01  0.234921067953E+00
  0.611307668686E+01  0.000000000000E+00 -0.114008128643E+01
  0.611307668686E+01  0.000000000000E+00  0.114008128643E+01
  0.625916051865E+01  0.386280250549E+01 -0.902062177658E+00
  0.625916051865E+01  0.386280250549E+01  0.902062177658E+00
  0.630684375763E+01  0.583337688446E+01 -0.436294704676E+00
  0.630684375763E+01  0.583337688446E+01  0.436294704676E+00
  0.636319684982E+01  0.478677463531E+01 -0.760521590710E+00
  0.636319684982E+01  0.478677463531E+01  0.760521590710E+00
  0.639696550369E+01  0.172824025154E+01 -0.111146748066E+01
  0.639696550369E+01  0.172824025154E+01  0.111146748066E+01
  0.645271682739E+01  0.339639574289E+00 -0.114008140564E+01
  0.645271682739E+01  0.339639574289E+00  0.114008140564E+01
  0.647650289536E+01  0.305185556412E+01 -0.102349007130E+01
  0.647650289536E+01  0.305185556412E+01  0.102349007130E+01
  0.677744340897E+01  0.583337688446E+01 -0.604294598103E+00
  0.677744340897E+01  0.583337688446E+01  0.604294598103E+00
  0.684844303131E+01  0.735364913940E+00 -0.114008152485E+01
  0.684844303131E+01  0.735364913940E+00  0.114008152485E+01
  0.701104879379E+01  0.701104879379E+01  0.000000000000E+00
  0.701248550415E+01  0.234375929832E+01 -0.111146771908E+01
  0.701248550415E+01  0.234375929832E+01  0.111146771908E+01
  0.715871477127E+01  0.701104879379E+01 -0.234921157360E+00
  0.715871477127E+01  0.701104879379E+01  0.234921157360E+00
  0.718313360214E+01  0.478677463531E+01 -0.902062416077E+00
  0.718313360214E+01  0.478677463531E+01  0.902062416077E+00
  0.728745079041E+01  0.386280250549E+01 -0.102349042892E+01
  0.728745079041E+01  0.386280250549E+01  0.102349042892E+01
  0.730835962296E+01  0.119528055191E+01 -0.114008176327E+01
  0.730835962296E+01  0.119528055191E+01  0.114008176327E+01
  0.740979957581E+01  0.583337688446E+01 -0.760521829128E+00
  0.740979957581E+01  0.583337688446E+01  0.760521829128E+00
  0.748451566696E+01  0.701104879379E+01 -0.436294883490E+00
  0.748451566696E+01  0.701104879379E+01  0.436294883490E+00
  0.771254587173E+01  0.000000000000E+00 -0.108925735950E+01
  0.771254587173E+01  0.000000000000E+00  0.108925735950E+01
  0.772058296204E+01  0.305185556412E+01 -0.111146795750E+01
  0.772058296204E+01  0.305185556412E+01  0.111146795750E+01
  0.784132003784E+01  0.172824025154E+01 -0.114008188248E+01
  0.784132003784E+01  0.172824025154E+01  0.114008188248E+01
  0.795511531830E+01  0.701104879379E+01 -0.604294836521E+00
  0.795511531830E+01  0.701104879379E+01  0.604294836521E+00
  0.805218601227E+01  0.339639574289E+00 -0.108925747871E+01
  0.805218601227E+01  0.339639574289E+00  0.108925747871E+01
  0.821142387390E+01  0.478677463531E+01 -0.102349066734E+01
  0.821142387390E+01  0.478677463531E+01  0.102349066734E+01
[...]
CELL_DATA                3576
SCALARS C_p_inc float 1
LOOKUP_TABLE default
  0.215279790145E+00
  0.189793891051E+00
  0.164528003590E+00
  0.147091754410E+00
  0.140450708676E+00
  0.131523834182E+00
  0.126100231552E+00
  0.121414152721E+00
  0.116264287559E+00
  0.113248703136E+00
  0.108149958184E+00
  0.105943384743E+00
  0.100547100795E+00
  0.986196537841E-01
  0.928879232910E-01
  0.910965039441E-01
  0.858949317399E-01
  0.844200948711E-01
  0.838252839528E-01
  0.838149720292E-01
  0.928678551965E-01
  0.906707790080E-01
  0.117227741569E+00
  0.110783124640E+00
  0.173765718491E+00
  0.158457201194E+00
  0.249965129555E+00
  0.230039096007E+00
  0.330563868111E+00
  0.308023576794E+00
  0.417186921022E+00
  0.390726853446E+00
  0.518297141527E+00
  0.488717580051E+00
  0.638385816361E+00
  0.614167785976E+00
  0.769484936321E+00
  0.774873145314E+00
  0.745592522208E+00
  0.651863413901E+00
 -0.190388539318E+00
  0.170012245659E+00
 -0.645657890846E+00
 -0.280491573823E+00
 -0.669116746810E+00
 -0.484955779078E+00
 -0.630724839127E+00
 -0.543325488529E+00
 -0.616760026039E+00
 -0.574532362428E+00
 -0.612002724964E+00
 -0.589517977152E+00
 -0.618312170281E+00
 -0.603912790919E+00
 -0.620762758896E+00
 -0.616088300180E+00
 -0.587729354182E+00
 -0.597954680987E+00
 -0.521144489514E+00
 -0.535336891105E+00
 -0.462416669507E+00
 -0.447733362966E+00
 -0.387961837040E+00
 -0.372351017626E+00
 -0.315748975363E+00
 -0.300295133297E+00
 -0.251568975351E+00
 -0.235767735866E+00
 -0.194737079630E+00
 -0.177607438662E+00
 -0.143201168332E+00
 -0.123133429931E+00
 -0.942655336783E-01
 -0.689063611835E-01
 -0.449379850130E-01
 -0.923344360780E-02
  0.116472408203E-01
  0.646131018522E-01
  0.109770008234E+00
  0.168103297782E+00
  0.205903048153E+00
  0.213741081450E+00
  0.164671303580E+00
  0.164291544505E+00
  0.146820638954E+00
  0.140401854244E+00
  0.131381814030E+00
  0.126084385219E+00
  0.119655746490E+00
  0.116258125130E+00
  0.110470760339E+00
  0.108149057831E+00
  0.102308662878E+00
  0.100550100899E+00
  0.942403036055E-01
  0.928920887185E-01
  0.865899628955E-01
  0.858869907036E-01
  0.830326005201E-01
  0.837672314523E-01
  0.906610340789E-01
  0.874685543802E-01
  0.110905179702E+00
  0.103638995974E+00
  0.158871176861E+00
  0.145867189269E+00
  0.229945835140E+00
  0.214413222862E+00
  0.306313098481E+00
  0.291003275236E+00
  0.385311770048E+00
  0.371985264472E+00
  0.473626340584E+00
  0.465152144456E+00
  0.574201420091E+00
  0.573062773600E+00
  0.671152062317E+00
  0.661967969113E+00
  0.515100604960E+00
  0.402437180102E+00
 -0.463317602434E+00
 -0.261215421753E+00
 -0.835814173795E+00
 -0.613423762689E+00
 -0.811580030505E+00
 -0.654861559322E+00
 -0.725208820299E+00
 -0.629330989146E+00
 -0.676437474764E+00
 -0.619145500685E+00
 -0.648975024832E+00
 -0.614827340835E+00
 -0.641063115383E+00
 -0.621025031134E+00
 -0.630981786224E+00
 -0.623900382461E+00
 -0.584502972592E+00
 -0.590844439457E+00
 -0.510606808216E+00
 -0.523216088296E+00
 -0.447604679797E+00
 -0.434697995570E+00
 -0.372100203763E+00
 -0.357385006234E+00
 -0.300096337999E+00
 -0.284357661594E+00
 -0.235640547197E+00
 -0.218638446287E+00
 -0.177540686838E+00
 -0.158342334052E+00
 -0.123120166215E+00
 -0.100193746131E+00
 -0.689626231799E-01
 -0.405131061638E-01
 -0.946213441519E-02
  0.229356620457E-01
  0.636263038033E-01
  0.874958255950E-01
  0.163644864273E+00
  0.173827324265E+00
  0.197132236370E+00
  0.205316706568E+00
  0.160015507225E+00
  0.164373586060E+00
  0.146517505262E+00
  0.146676558096E+00
  0.134423833572E+00
  0.131329374301E+00
  0.122905834193E+00
  0.119635494762E+00
  0.112888038973E+00
  0.110464001800E+00
  0.104060607703E+00
  0.102310114862E+00
  0.954689870551E-01
  0.942465107291E-01
  0.871020453700E-01
  0.865871539803E-01
  0.821754556305E-01
  0.829783015124E-01
  0.875846070725E-01
  0.844774013169E-01
  0.104044492305E+00
  0.975915446277E-01
  0.146423641863E+00
  0.136068721883E+00
  0.213876942212E+00
  0.201926405969E+00
  0.288073108786E+00
  0.277381650763E+00
  0.364992906095E+00
  0.357658120254E+00
  0.451044197589E+00
  0.448642758759E+00
  0.548065509356E+00
  0.549094712177E+00
  0.626439361610E+00
  0.611236022487E+00
  0.383141279007E+00
  0.274671319354E+00
 -0.672060395496E+00
 -0.496776468195E+00
 -0.100492128038E+01
 -0.816405958930E+00
 -0.934192894183E+00
 -0.793542073169E+00
 -0.810818168399E+00
 -0.716556036984E+00
 -0.735458725060E+00
 -0.673482896488E+00
 -0.688518884954E+00
 -0.648979505393E+00
 -0.665960613275E+00
 -0.642815721005E+00
 -0.642618128074E+00
 -0.634487142429E+00
 -0.584011309695E+00
 -0.588883437449E+00
 -0.502081395143E+00
 -0.514199445100E+00
 -0.434568337862E+00
 -0.422168669423E+00
 -0.357050368300E+00
 -0.342310419239E+00
 -0.284070274559E+00
 -0.267639197006E+00
 -0.218445382834E+00
 -0.200121109715E+00
 -0.158241712853E+00
 -0.137277438912E+00
 -0.100199073987E+00
 -0.760986713094E-01
 -0.407084273444E-01
 -0.157149297494E-01
  0.222726301203E-01
  0.417397724451E-01
  0.859859053154E-01
  0.973170061108E-01
  0.170861793673E+00
  0.177955846273E+00
  0.194233177697E+00
  0.196894329969E+00
  0.156519084568E+00
  0.159814376741E+00
  0.144035715374E+00
  0.146364451154E+00
  0.134279476032E+00
  0.134332929364E+00
  0.124730554818E+00
  0.122863395968E+00
  0.115029797586E+00
  0.112871550981E+00
  0.105766961441E+00
  0.104058577401E+00
  0.966439578491E-01
  0.954758532207E-01
  0.875784443538E-01
  0.871054240260E-01
  0.814600983622E-01
  0.821411820788E-01
  0.846212491416E-01
  0.819487664292E-01
  0.979733807011E-01
  0.926789801378E-01
  0.136405292550E+00
  0.128490876047E+00
  0.201058380057E+00
  0.192282552991E+00
  0.274191810080E+00
  0.267057289701E+00
  0.351139922896E+00
  0.347464957817E+00
  0.437526210580E+00
  0.437894710006E+00
  0.532787147914E+00
  0.533919613859E+00
  0.593643117927E+00
  0.575334293198E+00
  0.273495892188E+00
  0.168816321778E+00
 -0.857087481807E+00
 -0.692861787708E+00
 -0.115899829714E+01
 -0.988646054168E+00
 -0.104725673868E+01
 -0.917664077100E+00
 -0.892006641048E+00
 -0.801109718144E+00
 -0.793809663976E+00
 -0.730887570683E+00
 -0.729095589077E+00
 -0.687488169512E+00
 -0.692045289169E+00
 -0.667570515111E+00
 -0.655422795300E+00
 -0.646620870597E+00
 -0.585132234352E+00
 -0.589146651478E+00
 -0.494761338231E+00
 -0.506645116758E+00
 -0.422206614383E+00
 -0.409975445426E+00
 -0.341995155362E+00
 -0.327014412150E+00
 -0.267311611217E+00
 -0.250146442413E+00
 -0.199881378928E+00
 -0.180509863387E+00
 -0.137157732714E+00
 -0.115687823786E+00
 -0.761572337225E-01
 -0.544941630417E-01
 -0.160845712383E-01
  0.156249821089E-02
  0.409186295671E-01
  0.522803312266E-01
  0.959571850736E-01
  0.101948967375E+00
  0.175507975578E+00
  0.176470077060E+00
  0.195137268113E+00
  0.193990448692E+00
  0.155082884987E+00
  0.156363284700E+00
  0.141975635069E+00
  0.143907421569E+00
  0.132800090076E+00
  0.134180888734E+00
  0.124731428776E+00
  0.124667239025E+00
  0.116250834798E+00
  0.114998666204E+00
  0.107210398544E+00
  0.105757951866E+00
  0.977548787235E-01
  0.966496868426E-01
  0.880913760430E-01
  0.875885924147E-01
  0.809921663611E-01
  0.814500047151E-01
  0.820809294397E-01
  0.800368886451E-01
  0.929746219077E-01
  0.889819372234E-01
  0.128638432384E+00
  0.122997144624E+00
  0.191323138246E+00
  0.185465581233E+00
  0.264121378840E+00
  0.259940756290E+00
  0.342005027615E+00
  0.340889986905E+00
  0.429542318899E+00
  0.431441259754E+00
  0.523220553280E+00
  0.524061298275E+00
  0.566661327250E+00
  0.546557395200E+00
  0.174526199604E+00
  0.727259602182E-01
 -0.102945213271E+01
 -0.870922643229E+00
 -0.130378883235E+01
 -0.114504167728E+01
 -0.115395745960E+01
 -0.103282235416E+01
 -0.969568496477E+00
 -0.882789653401E+00
 -0.850576571909E+00
 -0.789022463700E+00
 -0.769181335382E+00
 -0.727907331642E+00
 -0.718110703158E+00
 -0.693884947570E+00
 -0.668838870179E+00
 -0.659897999844E+00
 -0.587235939319E+00
 -0.590848651355E+00
 -0.488235269050E+00
 -0.500052568118E+00
 -0.410249484489E+00
 -0.398015784540E+00
 -0.326781278956E+00
 -0.311505382811E+00
 -0.249822294184E+00
 -0.232143403685E+00
 -0.180254944771E+00
 -0.160750259911E+00
 -0.115582650146E+00
 -0.958847654320E-01
 -0.546242281086E-01
 -0.378729730442E-01
  0.113793520292E-02
  0.127753726058E-01
  0.515539055830E-01
  0.582488119616E-01
  0.100892611794E+00
  0.103335432748E+00
  0.174857337052E+00
  0.172322019336E+00
  0.195789399881E+00
  0.194789998477E+00
  0.154359676113E+00
  0.154912462671E+00
  0.140556785377E+00
  0.141851255101E+00
  0.131252143035E+00
  0.132702841728E+00
  0.123727006047E+00
  0.124658025673E+00
  0.116301086464E+00
  0.116204267089E+00
  0.108041133568E+00
  0.107190127171E+00
  0.986856734490E-01
  0.977560086022E-01
  0.886570895088E-01
  0.881061501878E-01
  0.808375112066E-01
  0.810041162173E-01
  0.801436429991E-01
  0.788382842472E-01
  0.891867131378E-01
  0.865587014016E-01
  0.123014885676E+00
  0.119484491577E+00
  0.184562147368E+00
  0.181277921045E+00
  0.257500436427E+00
  0.255815273121E+00
  0.336645999820E+00
  0.337493182237E+00
  0.425445455237E+00
  0.428330520818E+00
  0.517259489494E+00
  0.517746431634E+00
  0.543103626954E+00
  0.521843801949E+00
  0.816009500988E-01
 -0.178954025642E-01
 -0.119358868638E+01
 -0.103887128702E+01
 -0.144174864811E+01
 -0.129184606986E+01
 -0.125545138621E+01
 -0.114177292330E+01
 -0.104348834122E+01
 -0.961601743878E+00
 -0.904961507776E+00
 -0.846442559848E+00
 -0.807783435095E+00
 -0.768458140464E+00
 -0.743390218324E+00
 -0.720419192206E+00
 -0.682186516726E+00
 -0.673734755692E+00
 -0.589719076709E+00
 -0.593387254021E+00
 -0.482142044188E+00
 -0.494044663762E+00
 -0.398530899010E+00
 -0.386210861394E+00
 -0.311382373468E+00
 -0.295957058775E+00
 -0.231854299483E+00
 -0.214323129222E+00
 -0.160515505294E+00
 -0.142436891874E+00
 -0.958216575749E-01
 -0.797398257019E-01
 -0.380310950197E-01
 -0.260366186011E-01
  0.124175873214E-01
  0.200964130528E-01
  0.577281123600E-01
  0.618769021238E-01
  0.102681760297E+00
  0.104027195556E+00
  0.171558057847E+00
  0.170065132846E+00
  0.194590602147E+00
  0.195399795779E+00
  0.153216030667E+00
  0.154163925586E+00
  0.139236000594E+00
  0.140419474041E+00
  0.129819650201E+00
  0.131148317249E+00
  0.122429810111E+00
  0.123646547961E+00
  0.115554144751E+00
  0.116242315423E+00
  0.108088208619E+00
  0.108006903224E+00
  0.992392984687E-01
  0.986773698484E-01
  0.892121067733E-01
  0.886713457263E-01
  0.810027691329E-01
  0.808638772613E-01
  0.789164898195E-01
  0.783710298226E-01
  0.866845858535E-01
  0.853904966564E-01
  0.119425198343E+00
  0.117802827536E+00
  0.180510884317E+00
  0.179434108152E+00
  0.253946697164E+00
  0.254348568645E+00
  0.334432616252E+00
  0.336838877000E+00
  0.424319390065E+00
  0.427900513412E+00
  0.513842040011E+00
  0.513976059143E+00
  0.521822358503E+00
  0.499749499098E+00
 -0.736988377747E-02
 -0.104750465768E+00
 -0.135105807534E+01
 -0.119999295151E+01
 -0.157351522535E+01
 -0.143170646429E+01
 -0.135181480866E+01
 -0.124556768676E+01
 -0.111335554841E+01
 -0.103715734588E+01
 -0.956256688147E+00
 -0.901953885192E+00
 -0.844165951557E+00
 -0.807863344977E+00
 -0.767274758495E+00
 -0.746285564675E+00
 -0.694873957809E+00
 -0.687477376530E+00
 -0.592089276057E+00
 -0.596181032802E+00
 -0.476223712081E+00
 -0.488265659058E+00
 -0.386928262602E+00
 -0.374604275275E+00
 -0.295946690438E+00
 -0.280847256963E+00
 -0.214095600510E+00
 -0.197825920964E+00
 -0.142256894064E+00
 -0.127037087025E+00
 -0.797168624714E-01
 -0.675728949963E-01
 -0.261662556390E-01
 -0.176831331372E-01
  0.198646607189E-01
  0.252901160675E-01
  0.615896342786E-01
  0.648539955111E-01
  0.103727392634E+00
  0.105604496093E+00
  0.169811087131E+00
  0.170959059086E+00
  0.191455427640E+00
  0.194231695409E+00
  0.151493680733E+00
  0.153014316037E+00
  0.137795388331E+00
  0.139087261169E+00
  0.128416239558E+00
  0.129704903157E+00
  0.121088482225E+00
  0.122339547014E+00
  0.114465620962E+00
  0.115484371517E+00
  0.107530724608E+00
  0.108039852613E+00
  0.992993004113E-01
  0.992171815007E-01
  0.896285640703E-01
  0.892188333965E-01
  0.814173070954E-01
  0.810326922392E-01
  0.784236407408E-01
  0.785718199422E-01
  0.854567926976E-01
  0.853727325547E-01
  0.117708954486E+00
  0.117745626313E+00
  0.178836381494E+00
  0.179600078884E+00
  0.253029932290E+00
  0.255122246884E+00
  0.334828154188E+00
  0.338453604475E+00
  0.425528921866E+00
  0.429597280532E+00
  0.512304391694E+00
  0.512089180643E+00
  0.502163880376E+00
  0.479523900492E+00
 -0.932936739048E-01
 -0.188365167145E+00
 -0.150192118304E+01
 -0.135533254693E+01
 -0.169872690940E+01
 -0.156531902773E+01
 -0.144257550759E+01
 -0.134419684440E+01
 -0.117861666422E+01
 -0.110879026171E+01
 -0.100386584121E+01
 -0.954552793527E+00
 -0.877766966118E+00
 -0.845160325923E+00
 -0.789234582948E+00
 -0.770765731522E+00
 -0.706413831016E+00
 -0.700492359910E+00
 -0.594001987117E+00
 -0.598707401499E+00
 -0.470399177871E+00
 -0.482426659737E+00
 -0.375460582129E+00
 -0.363483861619E+00
 -0.280941834196E+00
 -0.266986659017E+00
 -0.197685939205E+00
 -0.183795546278E+00
 -0.126929651160E+00
 -0.115077199414E+00
 -0.675695844172E-01
 -0.586713869411E-01
 -0.177554971973E-01
 -0.115505583190E-01
  0.251870404707E-01
  0.294473956901E-01
  0.647530848930E-01
  0.678283076238E-01
  0.105529306464E+00
  0.108185654907E+00
  0.170933770654E+00
  0.174576504074E+00
  0.193301398122E+00
  0.191235466067E+00
  0.151344718349E+00
  0.151319978386E+00
  0.136953034265E+00
  0.137648072281E+00
  0.127285116915E+00
  0.128293803534E+00
  0.119863509811E+00
  0.120987614028E+00
  0.113320226942E+00
  0.114384096784E+00
  0.106681661317E+00
  0.107468554266E+00
  0.989541567082E-01
  0.992611343170E-01
  0.898114548531E-01
  0.896211366156E-01
  0.819507769795E-01
  0.814393969860E-01
  0.786036865864E-01
  0.793002085863E-01
  0.853989694759E-01
  0.863184417259E-01
  0.117646498006E+00
  0.119042217628E+00
  0.179173022783E+00
  0.181402564067E+00
  0.254281391202E+00
  0.257678045895E+00
  0.337309684540E+00
  0.341832395779E+00
  0.428528296938E+00
  0.432892582974E+00
  0.512122800872E+00
  0.511560231570E+00
  0.483682557443E+00
  0.460736878434E+00
 -0.176440862684E+00
 -0.268652549695E+00
 -0.164543080093E+01
 -0.150468804469E+01
 -0.181653713627E+01
 -0.169229570624E+01
 -0.152705057565E+01
 -0.143707951422E+01
 -0.123872145175E+01
 -0.117575001629E+01
 -0.104730605736E+01
 -0.100343111928E+01
 -0.908154998044E+00
 -0.879626360641E+00
 -0.808876346241E+00
 -0.793233670935E+00
 -0.716494284635E+00
 -0.712219125610E+00
 -0.595328890003E+00
 -0.600560893076E+00
 -0.464844438992E+00
 -0.476396572386E+00
 -0.364414104358E+00
 -0.353410884744E+00
 -0.267181632486E+00
 -0.255241095081E+00
 -0.183759900982E+00
 -0.172790837302E+00
 -0.115038676861E+00
 -0.106226235665E+00
 -0.586719134914E-01
 -0.521637502289E-01
 -0.115663165835E-01
 -0.692577773729E-02
  0.294407456654E-01
  0.326930974926E-01
  0.678370350467E-01
  0.699529138396E-01
  0.108187204807E+00
  0.109038580966E+00
  0.174457845859E+00
  0.172943269704E+00
  0.193223449473E+00
  0.192931120501E+00
  0.151107061639E+00
  0.151139382402E+00
  0.136438862670E+00
  0.136794271593E+00
  0.126517111830E+00
  0.127153762851E+00
  0.118914442772E+00
  0.119752314281E+00
  0.112314997693E+00
  0.113226712287E+00
  0.105801005263E+00
  0.106605730463E+00
  0.984148416050E-01
  0.988995695923E-01
  0.897883121842E-01
  0.897858449812E-01
  0.824846027566E-01
  0.819558550918E-01
  0.793147522909E-01
  0.803667910196E-01
  0.863197211400E-01
  0.879754531846E-01
  0.118953697103E+00
  0.121365665972E+00
  0.181126270694E+00
  0.184436209903E+00
  0.257220518958E+00
  0.261543541276E+00
  0.341357678993E+00
  0.346464921051E+00
  0.432800912626E+00
  0.437274346504E+00
  0.512830994334E+00
  0.511931067631E+00
  0.466056745651E+00
  0.443132087849E+00
 -0.256670631876E+00
 -0.345181626468E+00
 -0.178045566784E+01
 -0.164715377194E+01
 -0.192594459263E+01
 -0.181172341677E+01
 -0.160455172987E+01
 -0.152342644684E+01
 -0.129321371668E+01
 -0.123734374753E+01
 -0.108623955519E+01
 -0.104796188807E+01
 -0.935069988559E+00
 -0.910710752931E+00
 -0.826014038146E+00
 -0.813199681893E+00
 -0.725053154839E+00
 -0.722261848474E+00
 -0.596216905224E+00
 -0.601550474684E+00
 -0.459979764841E+00
 -0.470325404505E+00
 -0.354368720271E+00
 -0.345025961090E+00
 -0.255534527025E+00
 -0.246104763065E+00
 -0.172857566326E+00
 -0.164691485865E+00
 -0.106243274423E+00
 -0.998633360958E-01
 -0.521632706877E-01
 -0.474577561637E-01
 -0.689870392158E-02
 -0.354214203533E-02
  0.327566009439E-01
  0.350833047408E-01
  0.700618785603E-01
  0.716335393769E-01
  0.109217298170E+00
  0.110263215039E+00
  0.173311416531E+00
  0.174135946922E+00
  0.192777216468E+00
  0.192860947925E+00
  0.150690614381E+00
  0.150882163849E+00
  0.135934926848E+00
  0.136261326795E+00
  0.125894387220E+00
  0.126370556329E+00
  0.118181098089E+00
  0.118790246447E+00
  0.111518449822E+00
  0.112208868004E+00
  0.105047241332E+00
  0.105711493487E+00
  0.978781309878E-01
  0.983444148910E-01
  0.896794742738E-01
  0.897435706538E-01
  0.829807572372E-01
  0.824677093436E-01
  0.803648662633E-01
  0.815953064023E-01
  0.879606056390E-01
  0.900657602443E-01
  0.121291825555E+00
  0.124358580968E+00
  0.184277326613E+00
  0.188279736290E+00
  0.261367513652E+00
  0.266249298565E+00
  0.346466583874E+00
  0.351857878808E+00
  0.437857141284E+00
  0.442263331410E+00
  0.514013354891E+00
  0.512804415978E+00
  0.449084196040E+00
  0.426571983788E+00
 -0.333542168317E+00
 -0.417342863872E+00
 -0.190577893395E+01
 -0.178148308747E+01
 -0.202603547452E+01
 -0.192252955177E+01
 -0.167454034568E+01
 -0.160246449794E+01
 -0.134181896510E+01
 -0.129301704451E+01
 -0.112054032557E+01
 -0.108770738326E+01
 -0.958487344026E+00
 -0.938061097650E+00
 -0.840726857460E+00
 -0.830395444514E+00
 -0.732306281928E+00
 -0.730495355415E+00
 -0.597042537042E+00
 -0.601803717269E+00
 -0.456274048515E+00
 -0.464685848785E+00
 -0.345988369580E+00
 -0.338726143191E+00
 -0.246487522956E+00
 -0.239547420549E+00
 -0.164844063971E+00
 -0.159024841245E+00
 -0.999232778164E-01
 -0.954128126017E-01
 -0.474581182212E-01
 -0.440959411066E-01
 -0.348418611361E-02
 -0.996190727461E-03
  0.352055287010E-01
  0.370863623006E-01
  0.718297654423E-01
  0.733199473278E-01
  0.110549765314E+00
  0.111833201308E+00
  0.174580190036E+00
  0.175940792816E+00
  0.192568850435E+00
  0.192422312740E+00
  0.150407861533E+00
  0.150459728499E+00
  0.135550048249E+00
  0.135746612305E+00
  0.125407023674E+00
  0.125735132464E+00
  0.117609750271E+00
  0.118043775732E+00
  0.110904180289E+00
  0.111399285976E+00
  0.104464312430E+00
  0.104944414245E+00
  0.974545220229E-01
  0.977929317551E-01
  0.896037876258E-01
  0.896167551588E-01
  0.834714813104E-01
  0.829413108930E-01
  0.815767840720E-01
  0.828756296272E-01
  0.900383918648E-01
  0.923441628988E-01
  0.124295448920E+00
  0.127678046498E+00
  0.188199094143E+00
  0.192528129276E+00
  0.266255681404E+00
  0.271353397245E+00
  0.352159038276E+00
  0.357558358318E+00
  0.443249616347E+00
  0.447434179680E+00
  0.515319449353E+00
  0.513852868619E+00
  0.432682363785E+00
  0.411005432163E+00
 -0.406420331278E+00
 -0.484491512834E+00
 -0.202035146802E+01
 -0.190636553404E+01
 -0.211619026315E+01
 -0.202374373232E+01
 -0.173677180380E+01
 -0.167359962827E+01
 -0.138453243531E+01
 -0.134243577291E+01
 -0.115035294428E+01
 -0.112248083265E+01
 -0.978650074901E+00
 -0.961598458867E+00
 -0.853347381973E+00
 -0.844863398072E+00
 -0.738664742170E+00
 -0.737137861344E+00
 -0.598221765780E+00
 -0.601766563421E+00
 -0.453986860659E+00
 -0.460086827582E+00
 -0.339682503687E+00
 -0.334510193604E+00
 -0.240000717252E+00
 -0.235190686771E+00
 -0.159242809974E+00
 -0.155241106613E+00
 -0.955069006197E-01
 -0.923652468548E-01