# vtk DataFile Version 3.0
MachLine results file. Generated by MachLine, USU AeroLab (c) 2022.
ASCII
DATASET POLYDATA
POINTS                 144 float
  0.000000000000E+00  0.000000000000E+00  0.000000000000E+00
  0.113538098335E+01  0.000000000000E+00 -0.658124566078E+00
  0.113538098335E+01  0.000000000000E+00  0.658124566078E+00
  0.192375373840E+01  0.192375373840E+01  0.000000000000E+00
  0.305913543701E+01  0.192375373840E+01 -0.658124983311E+00
  0.305913543701E+01  0.192375373840E+01  0.658124983311E+00
  0.423028087616E+01  0.000000000000E+00 -0.108747220039E+01
  0.423028087616E+01  0.000000000000E+00  0.108747220039E+01
  0.547033166885E+01  0.547033166885E+01  0.000000000000E+00
  0.615403699875E+01  0.192375373840E+01 -0.108747279644E+01
  0.615403699875E+01  0.192375373840E+01  0.108747279644E+01
  0.660571479797E+01  0.547033166885E+01 -0.658125698566E+00
  0.660571479797E+01  0.547033166885E+01  0.658125698566E+00
  0.939508819580E+01  0.000000000000E+00 -0.980745851994E+00
  0.939508819580E+01  0.000000000000E+00  0.980745851994E+00
  0.970061969757E+01  0.547033166885E+01 -0.108747410774E+01
  0.970061969757E+01  0.547033166885E+01  0.108747410774E+01
  0.113188476562E+02  0.192375373840E+01 -0.980746448040E+00
  0.113188476562E+02  0.192375373840E+01  0.980746448040E+00
  0.113820018768E+02  0.113820018768E+02  0.000000000000E+00
  0.125173873901E+02  0.113820018768E+02 -0.658127009869E+00
  0.125173873901E+02  0.113820018768E+02  0.658127009869E+00
  0.145402030945E+02  0.000000000000E+00 -0.479613035917E+00
  0.145402030945E+02  0.000000000000E+00  0.479613035917E+00
  0.148654365540E+02  0.547033166885E+01 -0.980747580528E+00
  0.148654365540E+02  0.547033166885E+01  0.980747580528E+00
  0.156122989655E+02  0.113820018768E+02 -0.108747613430E+01
  0.156122989655E+02  0.113820018768E+02  0.108747613430E+01
  0.164639663696E+02  0.192375373840E+01 -0.479613333941E+00
  0.164639663696E+02  0.192375373840E+01  0.479613333941E+00
  0.176505107880E+02  0.000000000000E+00 -0.144198849797E+00
  0.176505107880E+02  0.000000000000E+00  0.144198849797E+00
  0.190000000000E+02  0.000000000000E+00  0.000000000000E+00
  0.195742740631E+02  0.192375373840E+01 -0.144198939204E+00
  0.195742740631E+02  0.192375373840E+01  0.144198939204E+00
  0.197561950684E+02  0.197561950684E+02  0.000000000000E+00
  0.200105609894E+02  0.547033166885E+01 -0.479613870382E+00
  0.200105609894E+02  0.547033166885E+01  0.479613870382E+00
  0.207771244049E+02  0.113820018768E+02 -0.980749428272E+00
  0.207771244049E+02  0.113820018768E+02  0.980749428272E+00
  0.208915824890E+02  0.197561950684E+02 -0.658128738403E+00
  0.208915824890E+02  0.197561950684E+02  0.658128738403E+00
  0.209237651825E+02  0.192375373840E+01  0.000000000000E+00
  0.231208724976E+02  0.547033166885E+01 -0.144199103117E+00
  0.231208724976E+02  0.547033166885E+01  0.144199103117E+00
  0.239865016937E+02  0.197561950684E+02 -0.108747911453E+01
  0.239865016937E+02  0.197561950684E+02  0.108747911453E+01
  0.244703655243E+02  0.547033166885E+01  0.000000000000E+00
  0.259222583771E+02  0.113820018768E+02 -0.479614794254E+00
  0.259222583771E+02  0.113820018768E+02  0.479614794254E+00
  0.290325775146E+02  0.113820018768E+02 -0.144199386239E+00
  0.290325775146E+02  0.113820018768E+02  0.144199386239E+00
  0.291513423920E+02  0.197561950684E+02 -0.980752110481E+00
  0.291513423920E+02  0.197561950684E+02  0.980752110481E+00
  0.292438049316E+02  0.292438049316E+02  0.000000000000E+00
  0.303791980743E+02  0.292438049316E+02 -0.658130764961E+00
  0.303791980743E+02  0.292438049316E+02  0.658130764961E+00
  0.303820724487E+02  0.113820018768E+02  0.000000000000E+00
  0.334741249084E+02  0.292438049316E+02 -0.108748245239E+01
  0.334741249084E+02  0.292438049316E+02  0.108748245239E+01
  0.342964897156E+02  0.197561950684E+02 -0.479616105556E+00
  0.342964897156E+02  0.197561950684E+02  0.479616105556E+00
  0.374068183899E+02  0.197561950684E+02 -0.144199773669E+00
  0.374068183899E+02  0.197561950684E+02  0.144199773669E+00
  0.376179962158E+02  0.376179962158E+02  0.000000000000E+00
  0.386389808655E+02  0.292438049316E+02 -0.980755090714E+00
  0.386389808655E+02  0.292438049316E+02  0.980755090714E+00
  0.387533912659E+02  0.376179962158E+02 -0.658132553101E+00
  0.387533912659E+02  0.376179962158E+02  0.658132553101E+00
  0.387563171387E+02  0.197561950684E+02  0.000000000000E+00
  0.418483314514E+02  0.376179962158E+02 -0.108748543262E+01
  0.418483314514E+02  0.376179962158E+02  0.108748543262E+01
  0.435296669006E+02  0.435296669006E+02  0.000000000000E+00
  0.437841453552E+02  0.292438049316E+02 -0.479617565870E+00
  0.437841453552E+02  0.292438049316E+02  0.479617565870E+00
  0.446650657654E+02  0.435296669006E+02 -0.658133804798E+00
  0.446650657654E+02  0.435296669006E+02  0.658133804798E+00
  0.468944816589E+02  0.292438049316E+02 -0.144200220704E+00
  0.468944816589E+02  0.292438049316E+02  0.144200220704E+00
  0.470131988525E+02  0.376179962158E+02 -0.980757772923E+00
  0.470131988525E+02  0.376179962158E+02  0.980757772923E+00
  0.470762481689E+02  0.470762481689E+02  0.000000000000E+00
  0.477600097656E+02  0.435296669006E+02 -0.108748745918E+01
  0.477600097656E+02  0.435296669006E+02  0.108748745918E+01
  0.482116432190E+02  0.470762481689E+02 -0.658134579659E+00
  0.482116432190E+02  0.470762481689E+02  0.658134579659E+00
  0.482439842224E+02  0.292438049316E+02  0.000000000000E+00
  0.490000000000E+02  0.490000000000E+02  0.000000000000E+00
  0.501353988647E+02  0.490000000000E+02 -0.658134996891E+00
  0.501353988647E+02  0.490000000000E+02  0.658134996891E+00
  0.506007728577E+02  0.494653701782E+02 -0.465371757746E+00
  0.506007728577E+02  0.494653701782E+02  0.465371757746E+00
  0.507935333252E+02  0.496581344604E+02 -0.771266485397E-15
  0.513065910339E+02  0.470762481689E+02 -0.108748877048E+01
  0.513065910339E+02  0.470762481689E+02  0.108748877048E+01
  0.521583786011E+02  0.376179962158E+02 -0.479618877172E+00
  0.521583786011E+02  0.376179962158E+02  0.479618877172E+00
  0.529248886108E+02  0.435296669006E+02 -0.980759620667E+00
  0.529248886108E+02  0.435296669006E+02  0.980759620667E+00
  0.532303466797E+02  0.490000000000E+02 -0.108748936653E+01
  0.532303466797E+02  0.490000000000E+02  0.108748936653E+01
  0.539993209839E+02  0.497689704895E+02 -0.768971264362E+00
  0.539993209839E+02  0.497689704895E+02  0.768971264362E+00
  0.543178405762E+02  0.500874900818E+02 -0.157378642191E-15
  0.552687225342E+02  0.376179962158E+02 -0.144200608134E+00
  0.552687225342E+02  0.376179962158E+02  0.144200608134E+00
  0.564714775085E+02  0.470762481689E+02 -0.980760753155E+00
  0.564714775085E+02  0.470762481689E+02  0.980760753155E+00
  0.566182289124E+02  0.376179962158E+02  0.000000000000E+00
  0.580700759888E+02  0.435296669006E+02 -0.479619771242E+00
  0.580700759888E+02  0.435296669006E+02  0.479619771242E+00
  0.583952369690E+02  0.490000000000E+02 -0.980761349201E+00
  0.583952369690E+02  0.490000000000E+02  0.980761349201E+00
  0.590887413025E+02  0.496935043335E+02 -0.693503141403E+00
  0.590887413025E+02  0.496935043335E+02  0.693503141403E+00
  0.593759994507E+02  0.499807624817E+02  0.000000000000E+00
  0.611804275513E+02  0.435296669006E+02 -0.144200876355E+00
  0.611804275513E+02  0.435296669006E+02  0.144200876355E+00
  0.616166725159E+02  0.470762481689E+02 -0.479620337486E+00
  0.616166725159E+02  0.470762481689E+02  0.479620337486E+00
  0.625299339294E+02  0.435296669006E+02  0.000000000000E+00
  0.635404319763E+02  0.490000000000E+02 -0.479620635509E+00
  0.635404319763E+02  0.490000000000E+02  0.479620635509E+00
  0.638795776367E+02  0.493391418457E+02 -0.339143037796E+00
  0.638795776367E+02  0.493391418457E+02  0.339143037796E+00
  0.640200576782E+02  0.494796218872E+02  0.296956834055E-15
  0.647270278931E+02  0.470762481689E+02 -0.144201040268E+00
  0.647270278931E+02  0.470762481689E+02  0.144201040268E+00
  0.660765380859E+02  0.470762481689E+02  0.000000000000E+00
  0.666507873535E+02  0.490000000000E+02 -0.144201144576E+00
  0.666507873535E+02  0.490000000000E+02  0.144201144576E+00
  0.667527542114E+02  0.491019668579E+02 -0.101965606213E+00
  0.667527542114E+02  0.491019668579E+02  0.101965606213E+00
  0.667949905396E+02  0.491441993713E+02 -0.260488604752E-16
  0.680002975464E+02  0.490000000000E+02  0.000000000000E+00
  0.625299339294E+02  0.435296669006E+02  0.000000000000E+00
  0.566182289124E+02  0.376179962158E+02  0.000000000000E+00
  0.209237651825E+02  0.192375373840E+01  0.000000000000E+00
  0.190000000000E+02  0.000000000000E+00  0.000000000000E+00
  0.244703655243E+02  0.547033166885E+01  0.000000000000E+00
  0.303820724487E+02  0.113820018768E+02  0.000000000000E+00
  0.660765380859E+02  0.470762481689E+02  0.000000000000E+00
  0.387563171387E+02  0.197561950684E+02  0.000000000000E+00
  0.482439842224E+02  0.292438049316E+02  0.000000000000E+00
POLYGONS                 256                1024
3                  32                  33                  42
3                  32                  30                  33
3                  30                  28                  33
3                  30                  22                  28
3                  22                  17                  28
3                  22                  13                  17
3                  13                   6                  17
3                  17                   6                   9
3                   6                   1                   9
3                   9                   1                   4
3                   1                   0                   4
3                   4                   0                   3
3                   0                   5                   3
3                   0                   2                   5
3                   2                  10                   5
3                   2                   7                  10
[...]
CELL_DATA                 256
SCALARS C_p_inc float 1
LOOKUP_TABLE default
  0.149064245645E+00
  0.136955198866E+00
  0.103633433863E+00
  0.917203793323E-01
  0.675893630699E-01
  0.596408519267E-01
  0.117094725405E+00
  0.924332082096E-01
  0.322851577081E+00
  0.269165280539E+00
  0.627415997913E+00
  0.614636155376E+00
 -0.776440850017E+00
 -0.861507881648E-01
 -0.762874354501E+00
 -0.549110291211E+00
 -0.516564850799E+00
 -0.533166197465E+00
 -0.366339209578E+00
 -0.299315749174E+00
 -0.163596140422E+00
 -0.779756119892E-01
  0.117372549399E-01
  0.104158417535E+00
  0.141189001812E+00
  0.147899562379E+00
  0.100475302441E+00
  0.103462289022E+00
  0.704290467859E-01
  0.676873051558E-01
  0.930669623279E-01
  0.878646748009E-01
  0.258339888229E+00
  0.267042587037E+00
  0.539063935846E+00
  0.492972179522E+00
 -0.114283245858E+01
 -0.731513631715E+00
 -0.931182946356E+00
 -0.760814933621E+00
 -0.532076371427E+00
 -0.538495462658E+00
 -0.300203125769E+00
 -0.240376040052E+00
 -0.776778627236E-01
 -0.273842992463E-01
  0.100791251441E+00
  0.118122130781E+00
  0.138243735435E+00
  0.140400172043E+00
  0.956893876860E-01
  0.100127115083E+00
  0.694664654238E-01
  0.704219987111E-01
  0.877604458328E-01
  0.970109759849E-01
  0.264336153543E+00
  0.287452630694E+00
  0.499983935899E+00
  0.452556625294E+00
 -0.140222401202E+01
 -0.113260535002E+01
 -0.103276894441E+01
 -0.937261919246E+00
 -0.538685918079E+00
 -0.551735904799E+00
 -0.242251709672E+00
 -0.214044070276E+00
 -0.273763758808E-01
 -0.111878046239E-01
  0.118414332855E+00
  0.126220434494E+00
  0.134489126355E+00
  0.137207527617E+00
  0.907993264294E-01
  0.951740530870E-01
  0.668658345288E-01
  0.692471237239E-01
  0.967203261282E-01
  0.101984083103E+00
  0.287964100866E+00
  0.304422361469E+00
  0.465963093609E+00
  0.433109001979E+00
 -0.154025831453E+01
 -0.140155038115E+01
 -0.108340508259E+01
 -0.104121184499E+01
 -0.547769192434E+00
 -0.549590881833E+00
 -0.216000883044E+00
 -0.206789249898E+00
 -0.111648912812E-01
 -0.175954952368E-02
  0.127681672295E+00
  0.135843220408E+00
  0.123031976106E+00
  0.132703431949E+00
  0.767702456553E-01
  0.898966802244E-01
  0.551721279425E-01
  0.664493633855E-01
  0.101332542797E+00
  0.952025807450E-01
  0.303658984889E+00
  0.305312429644E+00
  0.437607817767E+00
  0.428286068804E+00
 -0.157657966506E+01
 -0.154066942071E+01
 -0.109107692098E+01
 -0.108830122074E+01
 -0.540192814793E+00
 -0.553734581038E+00
 -0.208747257993E+00
 -0.191230160794E+00
 -0.192746494985E-02
  0.194109864117E-01
  0.137794749795E+00
  0.157663196933E+00
  0.103674198312E+00
  0.118659052308E+00
  0.471466388379E-01
  0.744590403865E-01
  0.220386438910E-01
  0.542219940051E-01
  0.933422961117E-01
  0.657937107746E-01
  0.301471191751E+00
  0.285327167056E+00
  0.423056026410E+00
  0.439407502021E+00
 -0.151544435089E+01
 -0.157742379878E+01
 -0.104980067633E+01
 -0.109677307844E+01
 -0.501747887613E+00
 -0.548101576897E+00
 -0.193312014482E+00
 -0.148070521598E+00
  0.188286060991E-01
  0.740904816941E-01
  0.160571351229E+00
  0.213651843366E+00
  0.176113936139E+00
  0.864509450413E-01
 -0.616049785091E-02
  0.371495969325E-01
 -0.489874161810E-01
  0.183194883800E-01
  0.591236080154E-01
 -0.317042237576E-02
  0.273949714974E+00
  0.234372551074E+00
  0.418675765337E+00
  0.459105207153E+00
 -0.137932675418E+01
 -0.151672531565E+01
 -0.968421034914E+00
 -0.105896558127E+01
 -0.434928410978E+00
 -0.515644586182E+00
 -0.149686025048E+00
 -0.829298126385E-01
  0.731182003664E-01
  0.161732662389E+00
  0.217375147423E+00
  0.414291656530E+00
 -0.221125232169E+02
 -0.619405546932E-01
  0.663983634464E+00
 -0.164744424983E+00
 -0.459773425489E+00
 -0.662348699486E-01
 -0.294003958400E-01
 -0.106736934196E+00
  0.200999929781E+00
  0.132648441371E+00
  0.403595087118E+00
  0.471282940010E+00
 -0.119704981325E+01
 -0.138051620380E+01
 -0.851882567114E+00
 -0.985637977803E+00
 -0.355681954834E+00
 -0.461182030097E+00
 -0.844246289591E-01
 -0.279614817859E+00
  0.141341308484E+00
  0.778814131777E+00
 -0.259687652062E+00
 -0.211988268049E+02
 -0.397610631259E+08
 -0.207980017979E+05
 -0.116982828164E+05
  0.841589599153E+00
  0.168607456951E+00
 -0.462585816424E+00
 -0.235209352922E+00
 -0.250137754620E+00
  0.300939718390E-01
  0.794117421742E-02
  0.252424187227E+00
  0.425679055774E+00
 -0.903784477423E+00
 -0.119764091708E+01
 -0.589350007268E+00
 -0.937237139779E+00
 -0.366326743543E+00
 -0.410640853286E+00
 -0.349472425813E+00
 -0.741081811186E+00
  0.810153858262E+00
 -0.115764043841E+05
 -0.206116352926E+05
 -0.397647608014E+08
 -0.828229815576E+08
 -0.470632533334E+06
 -0.175354701007E+05
 -0.221393588193E+02
 -0.777548406076E+00
 -0.787062243995E+00
 -0.497295855434E+00
 -0.325169599506E+00
 -0.339998867865E+00
 -0.219404644572E+00
 -0.913222537421E+00
 -0.578344538898E+00
 -0.818458020352E+00
 -0.616003691218E+00
 -0.558562676970E+00
  0.650971358144E+00
 -0.405893865444E+02
 -0.177899228458E+05
 -0.467439015499E+06
 -0.827988174628E+08
 -0.566069907670E+08
 -0.563291183568E+06
 -0.209804434974E+05
 -0.328660749955E+02
 -0.787778544183E+00
 -0.114900714594E+01
 -0.837539702331E+00
 -0.657710915021E+00
 -0.698236225776E+00
 -0.558394822769E+00
 -0.794090729947E+00
 -0.777221241766E+00
 -0.799656648267E+00
 -0.895810871399E+00
 -0.889761470949E+00
  0.898014343066E+00
 -0.645697947619E+02
 -0.212292135459E+05
 -0.558428942745E+06
 -0.565866880582E+08
SCALARS sigma float 1
LOOKUP_TABLE default
  0.000000000000E+00
  0.000000000000E+00
  0.000000000000E+00
  0.000000000000E+00
  0.000000000000E+00
  0.000000000000E+00
  0.000000000000E+00
  0.000000000000E+00
  0.000000000000E+00
  0.000000000000E+00
  0.000000000000E+00
  0.000000000000E+00
  0.000000000000E+00
  0.000000000000E+00
  0.000000000000E+00
  0.000000000000E+00
  0.000000000000E+00
  0.000000000000E+00
  0.000000000000E+00
  0.000000000000E+00
  0.000000000000E+00
  0.000000000000E+00
  0.000000000000E+00
  0.000000000000E+00
  0.000000000000E+00
  0.000000000000E+00
  0.000000000000E+00
  0.000000000000E+00
  0.000000000000E+00
  0.000000000000E+00
  0.000000000000E+00
  0.000000000000E+00
  0.000000000000E+00
  0.000000000000E+00
  0.000000000000E+00
  0.000000000000E+00
  0.000000000000E+00
  0.000000000000E+00
  0.000000000000E+00
  0.000000000000E+00
  0.000000000000E+00
  0.000000000000E+00
  0.000000000000E+00
  0.000000000000E+00
  0.000000000000E+00
  0.000000000000E+00
  0.000000000000E+00
  0.000000000000E+00
  0.000000000000E+00
  0.000000000000E+00
  0.000000000000E+00
  0.000000000000E+00
  0.000000000000E+00
  0.000000000000E+00
  0.000000000000E+00
  0.000000000000E+00
  0.000000000000E+00
  0.000000000000E+00
  0.000000000000E+00
  0.000000000000E+00
  0.000000000000E+00
  0.000000000000E+00
  0.000000000000E+00
  0.000000000000E+00
  0.000000000000E+00
  0.000000000000E+00
  0.000000000000E+00
  0.000000000000E+00
  0.000000000000E+00
  0.000000000000E+00
  0.000000000000E+00
  0.000000000000E+00
  0.000000000000E+00
  0.000000000000E+00
  0.000000000000E+00
  0.000000000000E+00
  0.000000000000E+00
  0.000000000000E+00
  0.000000000000E+00
  0.000000000000E+00
  0.000000000000E+00
  0.000000000000E+00
  0.000000000000E+00
  0.000000000000E+00
  0.000000000000E+00
  0.000000000000E+00
  0.000000000000E+00
  0.000000000000E+00
  0.000000000000E+00
  0.000000000000E+00
  0.000000000000E+00
  0.000000000000E+00
  0.000000000000E+00
  0.000000000000E+00
  0.000000000000E+00
  0.000000000000E+00
  0.000000000000E+00
  0.000000000000E+00
  0.000000000000E+00
  0.000000000000E+00
  0.000000000000E+00
  0.000000000000E+00
  0.000000000000E+00
  0.000000000000E+00
  0.000000000000E+00
  0.000000000000E+00
  0.000000000000E+00
  0.000000000000E+00
  0.000000000000E+00
  0.000000000000E+00
  0.000000000000E+00
  0.000000000000E+00
  0.000000000000E+00
  0.000000000000E+00
  0.000000000000E+00
  0.000000000000E+00
  0.000000000000E+00
  0.000000000000E+00
  0.000000000000E+00
  0.000000000000E+00
  0.000000000000E+00
  0.000000000000E+00
  0.000000000000E+00
  0.000000000000E+00
  0.000000000000E+00
  0.000000000000E+00
  0.000000000000E+00
  0.000000000000E+00
  0.000000000000E+00
  0.000000000000E+00
  0.000000000000E+00
  0.000000000000E+00
  0.000000000000E+00
  0.000000000000E+00
  0.000000000000E+00
  0.000000000000E+00
  0.000000000000E+00
  0.000000000000E+00
  0.000000000000E+00
  0.000000000000E+00
  0.000000000000E+00
  0.000000000000E+00
  0.000000000000E+00
  0.000000000000E+00
  0.000000000000E+00
  0.000000000000E+00
  0.000000000000E+00
  0.000000000000E+00
  0.000000000000E+00
  0.000000000000E+00
  0.000000000000E+00
  0.000000000000E+00
  0.000000000000E+00
  0.000000000000E+00
  0.000000000000E+00
  0.000000000000E+00
  0.000000000000E+00
  0.000000000000E+00
  0.000000000000E+00
  0.000000000000E+00
  0.000000000000E+00
  0.000000000000E+00
  0.000000000000E+00
  0.000000000000E+00
  0.000000000000E+00
  0.000000000000E+00
  0.000000000000E+00
  0.000000000000E+00
  0.000000000000E+00
  0.000000000000E+00
  0.000000000000E+00
  0.000000000000E+00
  0.000000000000E+00
  0.000000000000E+00
  0.000000000000E+00
  0.000000000000E+00
  0.000000000000E+00
  0.000000000000E+00
  0.000000000000E+00
  0.000000000000E+00
  0.000000000000E+00
  0.000000000000E+00
  0.000000000000E+00
  0.000000000000E+00
  0.000000000000E+00
  0.000000000000E+00
  0.000000000000E+00
  0.000000000000E+00
  0.000000000000E+00
  0.000000000000E+00
  0.000000000000E+00
  0.000000000000E+00
  0.000000000000E+00
  0.000000000000E+00
  0.000000000000E+00
  0.000000000000E+00
  0.000000000000E+00
  0.000000000000E+00
  0.000000000000E+00
  0.000000000000E+00
  0.000000000000E+00
  0.000000000000E+00
  0.000000000000E+00
  0.000000000000E+00
  0.000000000000E+00
  0.000000000000E+00
  0.000000000000E+00
  0.000000000000E+00
  0.000000000000E+00
  0.000000000000E+00
  0.000000000000E+00
  0.000000000000E+00
  0.000000000000E+00
  0.000000000000E+00
  0.000000000000E+00
  0.000000000000E+00
  0.000000000000E+00
  0.000000000000E+00
  0.000000000000E+00
  0.000000000000E+00
  0.000000000000E+00
  0.000000000000E+00
  0.000000000000E+00
  0.000000000000E+00
  0.000000000000E+00
  0.000000000000E+00
  0.000000000000E+00
  0.000000000000E+00
  0.000000000000E+00
  0.000000000000E+00
  0.000000000000E+00
  0.000000000000E+00
  0.000000000000E+00
  0.000000000000E+00
  0.000000000000E+00
  0.000000000000E+00
  0.000000000000E+00
  0.000000000000E+00
  0.000000000000E+00
  0.000000000000E+00
  0.000000000000E+00
  0.000000000000E+00
  0.000000000000E+00
  0.000000000000E+00
  0.000000000000E+00
  0.000000000000E+00
  0.000000000000E+00
  0.000000000000E+00
  0.000000000000E+00
  0.000000000000E+00
  0.000000000000E+00
  0.000000000000E+00
  0.000000000000E+00
  0.000000000000E+00
  0.000000000000E+00
  0.000000000000E+00
SCALARS inclination float 1
LOOKUP_TABLE default
  0.100000000000E+01
  0.100000000000E+01
  0.100000000000E+01
  0.100000000000E+01
  0.100000000000E+01
  0.100000000000E+01
  0.100000000000E+01
  0.100000000000E+01
  0.100000000000E+01
  0.100000000000E+01
  0.100000000000E+01
  0.100000000000E+01
  0.100000000000E+01
  0.100000000000E+01
  0.100000000000E+01
  0.100000000000E+01
  0.100000000000E+01
  0.100000000000E+01
  0.100000000000E+01
  0.100000000000E+01
  0.100000000000E+01
  0.100000000000E+01
  0.100000000000E+01
  0.100000000000E+01
  0.100000000000E+01
  0.100000000000E+01
  0.100000000000E+01
  0.100000000000E+01
  0.100000000000E+01
  0.100000000000E+01
  0.100000000000E+01
  0.100000000000E+01
  0.100000000000E+01
  0.100000000000E+01
  0.100000000000E+01
  0.100000000000E+01
  0.100000000000E+01
  0.100000000000E+01
  0.100000000000E+01
  0.100000000000E+01
  0.100000000000E+01
  0.100000000000E+01
  0.100000000000E+01
  0.100000000000E+01
  0.100000000000E+01
  0.100000000000E+01
  0.100000000000E+01
  0.100000000000E+01
  0.100000000000E+01
  0.100000000000E+01
  0.100000000000E+01
  0.100000000000E+01
  0.100000000000E+01
  0.100000000000E+01
  0.100000000000E+01
  0.100000000000E+01
  0.100000000000E+01
  0.100000000000E+01
  0.100000000000E+01
  0.100000000000E+01
  0.100000000000E+01
  0.100000000000E+01
  0.100000000000E+01
  0.100000000000E+01
  0.100000000000E+01
  0.100000000000E+01
  0.100000000000E+01
  0.100000000000E+01
  0.100000000000E+01
  0.100000000000E+01
  0.100000000000E+01
  0.100000000000E+01
  0.100000000000E+01
  0.100000000000E+01
  0.100000000000E+01
  0.100000000000E+01
  0.100000000000E+01
  0.100000000000E+01
  0.100000000000E+01
  0.100000000000E+01
  0.100000000000E+01
  0.100000000000E+01
  0.100000000000E+01
  0.100000000000E+01
  0.100000000000E+01
  0.100000000000E+01
  0.100000000000E+01
  0.100000000000E+01
  0.100000000000E+01
  0.100000000000E+01
  0.100000000000E+01
  0.100000000000E+01
  0.100000000000E+01
  0.100000000000E+01
  0.100000000000E+01
  0.100000000000E+01
  0.100000000000E+01
  0.100000000000E+01
  0.100000000000E+01
  0.100000000000E+01
  0.100000000000E+01
  0.100000000000E+01
  0.100000000000E+01
  0.100000000000E+01
  0.100000000000E+01
  0.100000000000E+01
  0.100000000000E+01
  0.100000000000E+01
  0.100000000000E+01
  0.100000000000E+01
  0.100000000000E+01
  0.100000000000E+01
  0.100000000000E+01
  0.100000000000E+01
  0.100000000000E+01
  0.100000000000E+01
  0.100000000000E+01
  0.100000000000E+01
  0.100000000000E+01
  0.100000000000E+01
  0.100000000000E+01
  0.100000000000E+01
  0.100000000000E+01
  0.100000000000E+01
  0.100000000000E+01
  0.100000000000E+01
  0.100000000000E+01
  0.100000000000E+01
  0.100000000000E+01
  0.100000000000E+01
  0.100000000000E+01
  0.100000000000E+01
  0.100000000000E+01
  0.100000000000E+01
  0.100000000000E+01
  0.100000000000E+01
  0.100000000000E+01
  0.100000000000E+01
  0.100000000000E+01
  0.100000000000E+01
  0.100000000000E+01
  0.100000000000E+01
  0.100000000000E+01
  0.100000000000E+01
  0.100000000000E+01
  0.100000000000E+01
  0.100000000000E+01
  0.100000000000E+01
  0.100000000000E+01
  0.100000000000E+01
  0.100000000000E+01
  0.100000000000E+01
  0.100000000000E+01
  0.100000000000E+01
  0.100000000000E+01
  0.100000000000E+01
  0.100000000000E+01
  0.100000000000E+01
  0.100000000000E+01
  0.100000000000E+01
  0.100000000000E+01
  0.100000000000E+01
  0.100000000000E+01
  0.100000000000E+01
  0.100000000000E+01
  0.100000000000E+01
  0.100000000000E+01
  0.100000000000E+01
  0.100000000000E+01
  0.100000000000E+01
  0.100000000000E+01
  0.100000000000E+01
  0.100000000000E+01
  0.100000000000E+01
  0.100000000000E+01
  0.100000000000E+01
  0.100000000000E+01
  0.100000000000E+01
  0.100000000000E+01
  0.100000000000E+01
  0.100000000000E+01
  0.100000000000E+01
  0.100000000000E+01
  0.100000000000E+01
  0.100000000000E+01
  0.100000000000E+01
  0.100000000000E+01
  0.100000000000E+01
  0.100000000000E+01
  0.100000000000E+01
  0.100000000000E+01
  0.100000000000E+01
  0.100000000000E+01
  0.100000000000E+01
  0.100000000000E+01
  0.100000000000E+01
  0.100000000000E+01
  0.100000000000E+01
  0.100000000000E+01
  0.100000000000E+01
  0.100000000000E+01
  0.100000000000E+01
  0.100000000000E+01
  0.100000000000E+01
  0.100000000000E+01
  0.100000000000E+01
  0.100000000000E+01
  0.100000000000E+01
  0.100000000000E+01
  0.100000000000E+01
  0.100000000000E+01
  0.100000000000E+01
  0.100000000000E+01
  0.100000000000E+01
  0.100000000000E+01
  0.100000000000E+01
  0.100000000000E+01
  0.100000000000E+01
  0.100000000000E+01
  0.100000000000E+01
  0.100000000000E+01
  0.100000000000E+01
  0.100000000000E+01
  0.100000000000E+01
  0.100000000000E+01
  0.100000000000E+01
  0.100000000000E+01
  0.100000000000E+01
  0.100000000000E+01
  0.100000000000E+01
  0.100000000000E+01
  0.100000000000E+01
  0.100000000000E+01
  0.100000000000E+01
  0.100000000000E+01
  0.100000000000E+01
  0.100000000000E+01
  0.100000000000E+01
  0.100000000000E+01
  0.100000000000E+01
  0.100000000000E+01
  0.100000000000E+01
  0.100000000000E+01
  0.100000000000E+01
  0.100000000000E+01
  0.100000000000E+01
  0.100000000000E+01
  0.100000000000E+01
  0.100000000000E+01
  0.100000000000E+01
  0.100000000000E+01
  0.100000000000E+01
  0.100000000000E+01
  0.100000000000E+01
  0.100000000000E+01
  0.100000000000E+01
VECTORS v float
  0.149514437791E+03  0.293988799538E+01  0.156621201645E+02
  0.150576877964E+03  0.263369408404E+01  0.158083775056E+02
  0.153430642394E+03 -0.220084457410E+00  0.165696358766E+02
  0.154453801411E+03  0.418219995779E+00  0.166111276980E+02
  0.156627459890E+03 -0.175544944324E+01  0.154264518966E+02
  0.157313054514E+03 -0.618853226012E+00  0.153825259768E+02
  0.153086089550E+03  0.360812050176E+01  0.308883369612E+01
  0.155193203959E+03 -0.416741549327E+01  0.329305086693E+01
  0.131827321489E+03  0.191984900737E+02 -0.156247155619E+02
  0.138049173078E+03  0.224962942921E+01 -0.188391252767E+02
  0.742890215511E+02  0.660098077077E+02 -0.479905353410E+01
  0.720178925985E+02  0.710764188499E+02 -0.545726072378E+00
  0.176679337126E+03 -0.335850256773E+02  0.121879919705E+03
  0.151106506020E+03  0.234648350744E+02  0.739876046656E+02
  0.210632743039E+03 -0.360614154522E+02  0.342232464903E+02
  0.200596642512E+03 -0.872221190770E+01  0.290382740482E+02
  0.200500684982E+03 -0.862624392304E+01 -0.432143013550E+01
  0.201421575464E+03 -0.120244540696E+02 -0.441068503837E+01
  0.189631807705E+03 -0.234646880566E+00 -0.184929420746E+02
  0.184649585642E+03 -0.849429799555E+01 -0.188121653048E+02
  0.174824962923E+03  0.133037341178E+01 -0.187095777712E+02
  0.168204705874E+03 -0.279972677955E+01 -0.184410543868E+02
  0.161114668847E+03  0.429034531641E+01 -0.167573653322E+02
  0.153339082570E+03  0.653126532976E+01 -0.156870435129E+02
  0.150151174844E+03  0.589732997614E+01  0.154141364689E+02
  0.149551967616E+03  0.626434161738E+01  0.153108959073E+02
  0.153713175216E+03  0.210311000772E+01  0.163495682739E+02
  0.153457677309E+03  0.213164379982E+01  0.163189403017E+02
  0.156405267039E+03 -0.815959952953E+00  0.153133049248E+02
  0.156637287889E+03 -0.709652480327E+00  0.153255481319E+02
  0.155195295329E+03  0.732340664267E+00  0.319184317844E+01
  0.155640611809E+03 -0.362440441005E+00  0.322366992056E+01
  0.138326770647E+03  0.169514165819E+02 -0.168380969179E+02
  0.137275989021E+03  0.189707178873E+02 -0.164121968724E+02
  0.746609415905E+02  0.815857946928E+02  0.401399970949E+01
  0.673127762533E+02  0.933412156159E+02  0.150874047700E+02
  0.195071779720E+03 -0.344177878504E+02  0.133023803241E+03
  0.181806843794E+03 -0.131968603444E+02  0.113034066138E+03
  0.217946395498E+03 -0.493364113075E+02  0.370794675036E+02
  0.210646950833E+03 -0.353089640944E+02  0.341208313324E+02
  0.200168807785E+03 -0.248307926244E+02 -0.464943436018E+01
  0.200493427715E+03 -0.256288491328E+02 -0.467263123985E+01
  0.184637569499E+03 -0.977293733005E+01 -0.189355346939E+02
  0.180184027893E+03 -0.118134670481E+02 -0.187005105978E+02
  0.168238410666E+03  0.132206305728E+00 -0.181285088398E+02
  0.164269968368E+03  0.575395636268E+00 -0.176527578258E+02
  0.153394619388E+03  0.114508073764E+02 -0.151673001504E+02
  0.151837956366E+03  0.124042556123E+02 -0.148990790557E+02
  0.150362932533E+03  0.730103311601E+01  0.152867795425E+02
  0.150168703304E+03  0.745003079215E+01  0.152500956730E+02
  0.154112150517E+03  0.350656040761E+01  0.162412362767E+02
  0.153731344171E+03  0.368360183115E+01  0.161810869978E+02
  0.156501944045E+03  0.912989058005E+00  0.151543208784E+02
  0.156421605948E+03  0.922663274347E+00  0.151455538501E+02
  0.155641493310E+03  0.170277450062E+01  0.318101145259E+01
  0.154826566635E+03  0.323055014262E+01  0.313260098116E+01
  0.137309539937E+03  0.207475970690E+02 -0.161703492432E+02
  0.134406109383E+03  0.252456228522E+02 -0.151435577827E+02
  0.671113741856E+02  0.925403918187E+02  0.147399506129E+02
  0.603344967145E+02  0.101643575035E+03  0.239448362488E+02