# vtk DataFile Version 3.0
MachLine results file. Generated by MachLine, USU AeroLab (c) 2022.
ASCII
DATASET POLYDATA
POINTS                 144 float
  0.000000000000E+00  0.000000000000E+00  0.000000000000E+00
  0.113538098335E+01  0.000000000000E+00 -0.658124566078E+00
  0.113538098335E+01  0.000000000000E+00  0.658124566078E+00
  0.192375373840E+01  0.192375373840E+01  0.000000000000E+00
  0.305913543701E+01  0.192375373840E+01 -0.658124983311E+00
  0.305913543701E+01  0.192375373840E+01  0.658124983311E+00
  0.423028087616E+01  0.000000000000E+00 -0.108747220039E+01
  0.423028087616E+01  0.000000000000E+00  0.108747220039E+01
  0.547033166885E+01  0.547033166885E+01  0.000000000000E+00
  0.615403699875E+01  0.192375373840E+01 -0.108747279644E+01
  0.615403699875E+01  0.192375373840E+01  0.108747279644E+01
  0.660571479797E+01  0.547033166885E+01 -0.658125698566E+00
  0.660571479797E+01  0.547033166885E+01  0.658125698566E+00
  0.939508819580E+01  0.000000000000E+00 -0.980745851994E+00
  0.939508819580E+01  0.000000000000E+00  0.980745851994E+00
  0.970061969757E+01  0.547033166885E+01 -0.108747410774E+01
  0.970061969757E+01  0.547033166885E+01  0.108747410774E+01
  0.113188476562E+02  0.192375373840E+01 -0.980746448040E+00
  0.113188476562E+02  0.192375373840E+01  0.980746448040E+00
  0.113820018768E+02  0.113820018768E+02  0.000000000000E+00
  0.125173873901E+02  0.113820018768E+02 -0.658127009869E+00
  0.125173873901E+02  0.113820018768E+02  0.658127009869E+00
  0.145402030945E+02  0.000000000000E+00 -0.479613035917E+00
  0.145402030945E+02  0.000000000000E+00  0.479613035917E+00
  0.148654365540E+02  0.547033166885E+01 -0.980747580528E+00
  0.148654365540E+02  0.547033166885E+01  0.980747580528E+00
  0.156122989655E+02  0.113820018768E+02 -0.108747613430E+01
  0.156122989655E+02  0.113820018768E+02  0.108747613430E+01
  0.164639663696E+02  0.192375373840E+01 -0.479613333941E+00
  0.164639663696E+02  0.192375373840E+01  0.479613333941E+00
  0.176505107880E+02  0.000000000000E+00 -0.144198849797E+00
  0.176505107880E+02  0.000000000000E+00  0.144198849797E+00
  0.190000000000E+02  0.000000000000E+00  0.000000000000E+00
  0.195742740631E+02  0.192375373840E+01 -0.144198939204E+00
  0.195742740631E+02  0.192375373840E+01  0.144198939204E+00
  0.197561950684E+02  0.197561950684E+02  0.000000000000E+00
  0.200105609894E+02  0.547033166885E+01 -0.479613870382E+00
  0.200105609894E+02  0.547033166885E+01  0.479613870382E+00
  0.207771244049E+02  0.113820018768E+02 -0.980749428272E+00
  0.207771244049E+02  0.113820018768E+02  0.980749428272E+00
  0.208915824890E+02  0.197561950684E+02 -0.658128738403E+00
  0.208915824890E+02  0.197561950684E+02  0.658128738403E+00
  0.209237651825E+02  0.192375373840E+01  0.000000000000E+00
  0.231208724976E+02  0.547033166885E+01 -0.144199103117E+00
  0.231208724976E+02  0.547033166885E+01  0.144199103117E+00
  0.239865016937E+02  0.197561950684E+02 -0.108747911453E+01
  0.239865016937E+02  0.197561950684E+02  0.108747911453E+01
  0.244703655243E+02  0.547033166885E+01  0.000000000000E+00
  0.259222583771E+02  0.113820018768E+02 -0.479614794254E+00
  0.259222583771E+02  0.113820018768E+02  0.479614794254E+00
  0.290325775146E+02  0.113820018768E+02 -0.144199386239E+00
  0.290325775146E+02  0.113820018768E+02  0.144199386239E+00
  0.291513423920E+02  0.197561950684E+02 -0.980752110481E+00
  0.291513423920E+02  0.197561950684E+02  0.980752110481E+00
  0.292438049316E+02  0.292438049316E+02  0.000000000000E+00
  0.303791980743E+02  0.292438049316E+02 -0.658130764961E+00
  0.303791980743E+02  0.292438049316E+02  0.658130764961E+00
  0.303820724487E+02  0.113820018768E+02  0.000000000000E+00
  0.334741249084E+02  0.292438049316E+02 -0.108748245239E+01
  0.334741249084E+02  0.292438049316E+02  0.108748245239E+01
  0.342964897156E+02  0.197561950684E+02 -0.479616105556E+00
  0.342964897156E+02  0.197561950684E+02  0.479616105556E+00
  0.374068183899E+02  0.197561950684E+02 -0.144199773669E+00
  0.374068183899E+02  0.197561950684E+02  0.144199773669E+00
  0.376179962158E+02  0.376179962158E+02  0.000000000000E+00
  0.386389808655E+02  0.292438049316E+02 -0.980755090714E+00
  0.386389808655E+02  0.292438049316E+02  0.980755090714E+00
  0.387533912659E+02  0.376179962158E+02 -0.658132553101E+00
  0.387533912659E+02  0.376179962158E+02  0.658132553101E+00
  0.387563171387E+02  0.197561950684E+02  0.000000000000E+00
  0.418483314514E+02  0.376179962158E+02 -0.108748543262E+01
  0.418483314514E+02  0.376179962158E+02  0.108748543262E+01
  0.435296669006E+02  0.435296669006E+02  0.000000000000E+00
  0.437841453552E+02  0.292438049316E+02 -0.479617565870E+00
  0.437841453552E+02  0.292438049316E+02  0.479617565870E+00
  0.446650657654E+02  0.435296669006E+02 -0.658133804798E+00
  0.446650657654E+02  0.435296669006E+02  0.658133804798E+00
  0.468944816589E+02  0.292438049316E+02 -0.144200220704E+00
  0.468944816589E+02  0.292438049316E+02  0.144200220704E+00
  0.470131988525E+02  0.376179962158E+02 -0.980757772923E+00
  0.470131988525E+02  0.376179962158E+02  0.980757772923E+00
  0.470762481689E+02  0.470762481689E+02  0.000000000000E+00
  0.477600097656E+02  0.435296669006E+02 -0.108748745918E+01
  0.477600097656E+02  0.435296669006E+02  0.108748745918E+01
  0.482116432190E+02  0.470762481689E+02 -0.658134579659E+00
  0.482116432190E+02  0.470762481689E+02  0.658134579659E+00
  0.482439842224E+02  0.292438049316E+02  0.000000000000E+00
  0.490000000000E+02  0.490000000000E+02  0.000000000000E+00
  0.501353988647E+02  0.490000000000E+02 -0.658134996891E+00
  0.501353988647E+02  0.490000000000E+02  0.658134996891E+00
  0.506007728577E+02  0.494653701782E+02 -0.465371757746E+00
  0.506007728577E+02  0.494653701782E+02  0.465371757746E+00
  0.507935333252E+02  0.496581344604E+02 -0.771266485397E-15
  0.513065910339E+02  0.470762481689E+02 -0.108748877048E+01
  0.513065910339E+02  0.470762481689E+02  0.108748877048E+01
  0.521583786011E+02  0.376179962158E+02 -0.479618877172E+00
  0.521583786011E+02  0.376179962158E+02  0.479618877172E+00
  0.529248886108E+02  0.435296669006E+02 -0.980759620667E+00
  0.529248886108E+02  0.435296669006E+02  0.980759620667E+00
  0.532303466797E+02  0.490000000000E+02 -0.108748936653E+01
  0.532303466797E+02  0.490000000000E+02  0.108748936653E+01
  0.539993209839E+02  0.497689704895E+02 -0.768971264362E+00
  0.539993209839E+02  0.497689704895E+02  0.768971264362E+00
  0.543178405762E+02  0.500874900818E+02 -0.157378642191E-15
  0.552687225342E+02  0.376179962158E+02 -0.144200608134E+00
  0.552687225342E+02  0.376179962158E+02  0.144200608134E+00
  0.564714775085E+02  0.470762481689E+02 -0.980760753155E+00
  0.564714775085E+02  0.470762481689E+02  0.980760753155E+00
  0.566182289124E+02  0.376179962158E+02  0.000000000000E+00
  0.580700759888E+02  0.435296669006E+02 -0.479619771242E+00
  0.580700759888E+02  0.435296669006E+02  0.479619771242E+00
  0.583952369690E+02  0.490000000000E+02 -0.980761349201E+00
  0.583952369690E+02  0.490000000000E+02  0.980761349201E+00
  0.590887413025E+02  0.496935043335E+02 -0.693503141403E+00
  0.590887413025E+02  0.496935043335E+02  0.693503141403E+00
  0.593759994507E+02  0.499807624817E+02  0.000000000000E+00
  0.611804275513E+02  0.435296669006E+02 -0.144200876355E+00
  0.611804275513E+02  0.435296669006E+02  0.144200876355E+00
  0.616166725159E+02  0.470762481689E+02 -0.479620337486E+00
  0.616166725159E+02  0.470762481689E+02  0.479620337486E+00
  0.625299339294E+02  0.435296669006E+02  0.000000000000E+00
  0.635404319763E+02  0.490000000000E+02 -0.479620635509E+00
  0.635404319763E+02  0.490000000000E+02  0.479620635509E+00
  0.638795776367E+02  0.493391418457E+02 -0.339143037796E+00
  0.638795776367E+02  0.493391418457E+02  0.339143037796E+00
  0.640200576782E+02  0.494796218872E+02  0.296956834055E-15
  0.647270278931E+02  0.470762481689E+02 -0.144201040268E+00
  0.647270278931E+02  0.470762481689E+02  0.144201040268E+00
  0.660765380859E+02  0.470762481689E+02  0.000000000000E+00
  0.666507873535E+02  0.490000000000E+02 -0.144201144576E+00
  0.666507873535E+02  0.490000000000E+02  0.144201144576E+00
  0.667527542114E+02  0.491019668579E+02 -0.101965606213E+00
  0.667527542114E+02  0.491019668579E+02  0.101965606213E+00
  0.667949905396E+02  0.491441993713E+02 -0.260488604752E-16
  0.680002975464E+02  0.490000000000E+02  0.000000000000E+00
  0.190000000000E+02  0.000000000000E+00  0.000000000000E+00
  0.209237651825E+02  0.192375373840E+01  0.000000000000E+00
  0.244703655243E+02  0.547033166885E+01  0.000000000000E+00
  0.303820724487E+02  0.113820018768E+02  0.000000000000E+00
  0.387563171387E+02  0.197561950684E+02  0.000000000000E+00
  0.482439842224E+02  0.292438049316E+02  0.000000000000E+00
  0.566182289124E+02  0.376179962158E+02  0.000000000000E+00
  0.625299339294E+02  0.435296669006E+02  0.000000000000E+00
  0.660765380859E+02  0.470762481689E+02  0.000000000000E+00
POLYGONS                 256                1024
3                  32                  33                  42
3                  32                  30                  33
3                  30                  28                  33
3                  30                  22                  28
3                  22                  17                  28
3                  22                  13                  17
3                  13                   6                  17
3                  17                   6                   9
3                   6                   1                   9
3                   9                   1                   4
3                   1                   0                   4
3                   4                   0                   3
3                   0                   5                   3
3                   0                   2                   5
3                   2                  10                   5
3                   2                   7                  10
[...]
CELL_DATA                 256
SCALARS C_p_inc float 1
LOOKUP_TABLE default
  0.148590367204E+00
  0.136485305395E+00
  0.103225249206E+00
  0.913585003529E-01
  0.672833615968E-01
  0.593776051003E-01
  0.116949695167E+00
  0.922457518771E-01
  0.322787497561E+00
  0.269071758154E+00
  0.627399175244E+00
  0.614628045489E+00
 -0.776502590576E+00
 -0.861772355495E-01
 -0.763015449065E+00
 -0.549190914884E+00
 -0.516786700800E+00
 -0.533333746790E+00
 -0.366624735194E+00
 -0.299637603935E+00
 -0.163938742130E+00
 -0.783386150776E-01
  0.114697663043E-01
  0.103841099127E+00
  0.140688447941E+00
  0.147430305577E+00
  0.999991959977E-01
  0.103056046978E+00
  0.700442132950E-01
  0.673805303748E-01
  0.928822513113E-01
  0.876113923500E-01
  0.258250503848E+00
  0.266916638638E+00
  0.539063455567E+00
  0.492996363169E+00
 -0.114295828911E+01
 -0.731573986306E+00
 -0.931433683367E+00
 -0.760951155426E+00
 -0.532403896539E+00
 -0.538716549409E+00
 -0.300533245540E+00
 -0.240787687812E+00
 -0.780406638843E-01
 -0.278485231102E-01
  0.100473854005E+00
  0.117668399670E+00
  0.137643163789E+00
  0.139906689199E+00
  0.950824978601E-01
  0.996565515223E-01
  0.689592296979E-01
  0.700396578322E-01
  0.875098249412E-01
  0.966666901848E-01
  0.264217886698E+00
  0.287288443775E+00
  0.500052833368E+00
  0.452668044682E+00
 -0.140247293456E+01
 -0.113274522860E+01
 -0.103321843309E+01
 -0.937528487128E+00
 -0.539196305905E+00
 -0.552073670916E+00
 -0.242682605995E+00
 -0.214634441796E+00
 -0.278403538010E-01
 -0.118337344340E-01
  0.117971029823E+00
  0.125601941017E+00
  0.133586654409E+00
  0.136628075892E+00
  0.899030162162E-01
  0.945835715583E-01
  0.661675501283E-01
  0.687506403106E-01
  0.963851803980E-01
  0.101549321741E+00
  0.287841518936E+00
  0.304264551896E+00
  0.466253465508E+00
  0.433439886888E+00
 -0.154068021610E+01
 -0.140187479796E+01
 -0.108414352757E+01
 -0.104176330683E+01
 -0.548541893646E+00
 -0.550165747419E+00
 -0.216638736600E+00
 -0.207674943221E+00
 -0.118157123268E-01
 -0.274083341526E-02
  0.127083104915E+00
  0.134933795721E+00
  0.120883646273E+00
  0.131876275622E+00
  0.748806905383E-01
  0.890627679980E-01
  0.541530567172E-01
  0.657918403299E-01
  0.100948229161E+00
  0.948626987690E-01
  0.303678917737E+00
  0.305422736312E+00
  0.438556901009E+00
  0.429169501411E+00
 -0.157698507122E+01
 -0.154137001511E+01
 -0.109194111421E+01
 -0.108943370277E+01
 -0.541126767801E+00
 -0.554775031154E+00
 -0.209775068279E+00
 -0.192658584497E+00
 -0.293777824478E-02
  0.173330600033E-01
  0.136921050974E+00
  0.155578302785E+00
  0.938539670930E-01
  0.116959795097E+00
  0.407555582536E-01
  0.729700463474E-01
  0.218089617605E-01
  0.534170304275E-01
  0.932959508676E-01
  0.673754655057E-01
  0.302269309666E+00
  0.287062445277E+00
  0.425924042976E+00
  0.441640122167E+00
 -0.151431105984E+01
 -0.157873558636E+01
 -0.104876561871E+01
 -0.109908015445E+01
 -0.500678565142E+00
 -0.550261887436E+00
 -0.195315718070E+00
 -0.149275032298E+00
  0.165371494937E-01
  0.670856975192E-01
  0.158544543246E+00
  0.204204639322E+00
  0.494219911347E-01
  0.837591891954E-01
 -0.780445435155E-02
  0.355353583819E-01
 -0.269416440139E-01
  0.196910489328E-01
  0.628194414152E-01
  0.126681252350E-01
  0.278149031792E+00
  0.242963575768E+00
  0.426340396399E+00
  0.464378436123E+00
 -0.137143847404E+01
 -0.151799231106E+01
 -0.956667029321E+00
 -0.106276793780E+01
 -0.416432994327E+00
 -0.520969476284E+00
 -0.153602288623E+00
 -0.652233038855E-01
  0.637783398910E-01
  0.154573032879E+00
  0.207355029783E+00
  0.294517645597E+00
 -0.576040992299E-01
  0.223217516621E-01
 -0.840625277665E-01
 -0.216282164061E-01
 -0.745180146799E-01
 -0.344193467191E-01
 -0.160544975534E-03
 -0.422829863263E-01
  0.216803498260E+00
  0.157776065173E+00
  0.419604569977E+00
  0.482392703202E+00
 -0.117564437467E+01
 -0.137690390101E+01
 -0.816064513121E+00
 -0.985857814520E+00
 -0.280563074785E+00
 -0.470116574858E+00
 -0.761082338772E-01
  0.211535470417E-01
  0.139496778786E+00
  0.248549057936E+00
  0.284769244583E+00
  0.428813802218E+00
 -0.321898935898E+00
 -0.141142049379E+00
 -0.223640316464E+00
 -0.131630749797E+00
 -0.157491248784E+00
 -0.106542732242E+00
 -0.868458991203E-01
 -0.906652575687E-01
  0.742479923706E-01
  0.558768493546E-01
  0.282339641714E+00
  0.447181269998E+00
 -0.864497014728E+00
 -0.118155902296E+01
 -0.527540650934E+00
 -0.927112996796E+00
 -0.170246221245E+00
 -0.445834209447E+00
 -0.310007617500E-01
  0.774425799616E-02
  0.165083623964E+00
  0.237382569392E+00
  0.338607144955E+00
  0.543226025681E+00
 -0.126136306765E+01
 -0.126223484497E+01
 -0.612336063182E+00
 -0.621574858890E+00
 -0.338391615970E+00
 -0.328304820723E+00
 -0.289351254941E+00
 -0.235843966719E+00
 -0.274004417311E+00
 -0.168370756234E+00
 -0.878333109355E+00
 -0.505189477137E+00
 -0.794214233849E+00
 -0.311043681756E+00
 -0.661425964053E+00
 -0.267981739883E+00
 -0.668547603048E+00
 -0.427892943489E+00
 -0.126646673112E+01
 -0.783716179291E+00
 -0.262462177328E+01
 -0.267472091856E+01
 -0.121527331904E+01
 -0.127961021307E+01
 -0.647943046621E+00
 -0.683669608849E+00
 -0.570984584488E+00
 -0.569706620451E+00
 -0.623746073844E+00
 -0.507429199164E+00
 -0.753854891311E+00
 -0.700801762476E+00
 -0.745936813635E+00
 -0.555450603512E+00
 -0.835401189772E+00
 -0.653213802842E+00
 -0.126230423868E+01
 -0.118996804727E+01
 -0.263754095786E+01
 -0.243631464377E+01
SCALARS sigma float 1
LOOKUP_TABLE default
  0.763041865654E-01
  0.763041032653E-01
  0.753306731084E-01
  0.753307385083E-01
  0.856579754645E-01
  0.856579616232E-01
  0.161848302644E+00
  0.161848315977E+00
  0.312679206242E+00
  0.312679192377E+00
  0.581707895865E+00
  0.581707896417E+00
  0.299839640117E+00
  0.299839638978E+00
 -0.449737160777E-01
 -0.449736992759E-01
 -0.202467200587E+00
 -0.202467213449E+00
 -0.275403875304E+00
 -0.275403861130E+00
 -0.284974251309E+00
 -0.284974315733E+00
 -0.284075389213E+00
 -0.284075310058E+00
  0.763042154594E-01
  0.763041863396E-01
  0.753306847438E-01
  0.753306724920E-01
  0.856579682404E-01
  0.856579756057E-01
  0.161848315818E+00
  0.161848306054E+00
  0.312679193125E+00
  0.312679229431E+00
  0.581707889938E+00
  0.581707860583E+00
  0.299839584669E+00
  0.299839636777E+00
 -0.449736739824E-01
 -0.449737161853E-01
 -0.202467209896E+00
 -0.202467200387E+00
 -0.275403861584E+00
 -0.275403868806E+00
 -0.284974313401E+00
 -0.284974301682E+00
 -0.284075309217E+00
 -0.284075281900E+00
  0.763041574787E-01
  0.763042154447E-01
  0.753307424426E-01
  0.753306848834E-01
  0.856579692499E-01
  0.856579682925E-01
  0.161848306131E+00
  0.161848305852E+00
  0.312679228782E+00
  0.312679170227E+00
  0.581707858171E+00
  0.581707838351E+00
  0.299839550270E+00
  0.299839583426E+00
 -0.449737406592E-01
 -0.449736738891E-01
 -0.202467210267E+00
 -0.202467209993E+00
 -0.275403868973E+00
 -0.275403868054E+00
 -0.284974302210E+00
 -0.284974247926E+00
 -0.284075281845E+00
 -0.284075335891E+00
  0.763041723128E-01
  0.763041575500E-01
  0.753307758356E-01
  0.753307427208E-01
  0.856579557130E-01
  0.856579692122E-01
  0.161848305828E+00
  0.161848309148E+00
  0.312679171564E+00
  0.312679225646E+00
  0.581707853354E+00
  0.581708034272E+00
  0.299839853424E+00
  0.299839558003E+00
 -0.449736796991E-01
 -0.449737408516E-01
 -0.202467206984E+00
 -0.202467210238E+00
 -0.275403867933E+00
 -0.275403880777E+00
 -0.284974248978E+00
 -0.284974217943E+00
 -0.284075336157E+00
 -0.284075322429E+00
  0.763041435505E-01
  0.763041723806E-01
  0.753307153697E-01
  0.753307757251E-01
  0.856579847901E-01
  0.856579556511E-01
  0.161848309158E+00
  0.161848301036E+00
  0.312679224885E+00
  0.312679295786E+00
  0.581708006846E+00
  0.581707628490E+00
  0.299839225545E+00
  0.299839839287E+00
 -0.449735996063E-01
 -0.449736795896E-01
 -0.202467214962E+00
 -0.202467206996E+00
 -0.275403880578E+00
 -0.275403852926E+00
 -0.284974217525E+00
 -0.284974273991E+00
 -0.284075322682E+00
 -0.284075349469E+00
  0.763041580374E-01
  0.763041432747E-01
  0.753306830082E-01
  0.753307150298E-01
  0.856580068159E-01
  0.856579847326E-01
  0.161848301018E+00
  0.161848289203E+00
  0.312679294666E+00
  0.312679109982E+00
  0.581707644926E+00
  0.581707843138E+00
  0.299839557676E+00
  0.299839234017E+00
 -0.449738082760E-01
 -0.449735994451E-01
 -0.202467226520E+00
 -0.202467214940E+00
 -0.275403852741E+00
 -0.275403831730E+00
 -0.284974272705E+00
 -0.284974302716E+00
 -0.284075348443E+00
 -0.284075334716E+00
  0.763039621134E-01
  0.763041581611E-01
  0.753307456523E-01
  0.753306833776E-01
  0.856579667189E-01
  0.856580069619E-01
  0.161848289251E+00
  0.161848300331E+00
  0.312679109223E+00
  0.312679177442E+00
  0.581707810406E+00
  0.581707541381E+00
  0.299839090760E+00
  0.299839540804E+00
 -0.449737303780E-01
 -0.449738081669E-01
 -0.202467215740E+00
 -0.202467226580E+00
 -0.275403832199E+00
 -0.275403870846E+00
 -0.284974304114E+00
 -0.284974245382E+00
 -0.284075335176E+00
 -0.284075517966E+00
  0.763041400126E-01
  0.763039621108E-01
  0.753307488860E-01
  0.753307460336E-01
  0.856580008656E-01
  0.856579672294E-01
  0.161848300351E+00
  0.161848296277E+00
  0.312679187781E+00
  0.312679189756E+00
  0.581707711176E+00
  0.581708480478E+00
  0.299840543852E+00
  0.299839178280E+00
 -0.449737295691E-01
 -0.449737318651E-01
 -0.202467219731E+00
 -0.202467215764E+00
 -0.275403872488E+00
 -0.275403839503E+00
 -0.284974246824E+00
 -0.284974244096E+00
 -0.284075517956E+00
 -0.284075351065E+00
  0.763040657613E-01
  0.763041416994E-01
  0.753306885048E-01
  0.753307492320E-01
  0.856579438025E-01
  0.856579999043E-01
  0.161848296204E+00
  0.161848311442E+00
  0.312679175849E+00
  0.312679222883E+00
  0.581708292421E+00
  0.581707916306E+00
  0.299839670891E+00
  0.299840446918E+00
 -0.449736705734E-01
 -0.449737275688E-01
 -0.202467204938E+00
 -0.202467219639E+00
 -0.275403836412E+00
 -0.275403893863E+00
 -0.284974245405E+00
 -0.284974305226E+00
 -0.284075357345E+00
 -0.284075429505E+00
  0.733830540713E-01
  0.724753216046E-01
  0.724746976584E-01
  0.820757051062E-01
  0.820758841071E-01
  0.150641548696E+00
  0.150641615089E+00
  0.276817800759E+00
  0.276817898820E+00
  0.493429300663E+00
  0.254336712587E+00
 -0.398152281112E-01
 -0.398156054802E-01
 -0.188447693804E+00
 -0.188447893218E+00
 -0.263887003025E+00
 -0.263887073028E+00
 -0.274170155903E+00
 -0.274169993736E+00
 -0.273200679357E+00
 -0.298743911146E-01
 -0.308789438453E-01
 -0.308714068790E-01
 -0.203261867147E-01
 -0.203280987645E-01
  0.518711547128E-01
  0.518711976122E-01
  0.173731374930E+00
  0.173731378569E+00
  0.372461043777E+00
  0.285339334465E+00
  0.499489205679E-01
  0.499493699028E-01
 -0.900798360900E-01
 -0.900792560202E-01
 -0.171618965217E+00
 -0.171619241389E+00
 -0.183441100882E+00
 -0.183438840124E+00
 -0.182313631073E+00
SCALARS inclination float 1
LOOKUP_TABLE default
  0.100000000000E+01
  0.100000000000E+01
  0.100000000000E+01
  0.100000000000E+01
  0.100000000000E+01
  0.100000000000E+01
  0.100000000000E+01
  0.100000000000E+01
  0.100000000000E+01
  0.100000000000E+01
  0.100000000000E+01
  0.100000000000E+01
  0.100000000000E+01
  0.100000000000E+01
  0.100000000000E+01
  0.100000000000E+01
  0.100000000000E+01
  0.100000000000E+01
  0.100000000000E+01
  0.100000000000E+01
  0.100000000000E+01
  0.100000000000E+01
  0.100000000000E+01
  0.100000000000E+01
  0.100000000000E+01
  0.100000000000E+01
  0.100000000000E+01
  0.100000000000E+01
  0.100000000000E+01
  0.100000000000E+01
  0.100000000000E+01
  0.100000000000E+01
  0.100000000000E+01
  0.100000000000E+01
  0.100000000000E+01
  0.100000000000E+01
  0.100000000000E+01
  0.100000000000E+01
  0.100000000000E+01
  0.100000000000E+01
  0.100000000000E+01
  0.100000000000E+01
  0.100000000000E+01
  0.100000000000E+01
  0.100000000000E+01
  0.100000000000E+01
  0.100000000000E+01
  0.100000000000E+01
  0.100000000000E+01
  0.100000000000E+01
  0.100000000000E+01
  0.100000000000E+01
  0.100000000000E+01
  0.100000000000E+01
  0.100000000000E+01
  0.100000000000E+01
  0.100000000000E+01
  0.100000000000E+01
  0.100000000000E+01
  0.100000000000E+01
  0.100000000000E+01
  0.100000000000E+01
  0.100000000000E+01
  0.100000000000E+01
  0.100000000000E+01
  0.100000000000E+01
  0.100000000000E+01
  0.100000000000E+01
  0.100000000000E+01
  0.100000000000E+01
  0.100000000000E+01
  0.100000000000E+01
  0.100000000000E+01
  0.100000000000E+01
  0.100000000000E+01
  0.100000000000E+01
  0.100000000000E+01
  0.100000000000E+01
  0.100000000000E+01
  0.100000000000E+01
  0.100000000000E+01
  0.100000000000E+01
  0.100000000000E+01
  0.100000000000E+01
  0.100000000000E+01
  0.100000000000E+01
  0.100000000000E+01
  0.100000000000E+01
  0.100000000000E+01
  0.100000000000E+01
  0.100000000000E+01
  0.100000000000E+01
  0.100000000000E+01
  0.100000000000E+01
  0.100000000000E+01
  0.100000000000E+01
  0.100000000000E+01
  0.100000000000E+01
  0.100000000000E+01
  0.100000000000E+01
  0.100000000000E+01
  0.100000000000E+01
  0.100000000000E+01
  0.100000000000E+01
  0.100000000000E+01
  0.100000000000E+01
  0.100000000000E+01
  0.100000000000E+01
  0.100000000000E+01
  0.100000000000E+01
  0.100000000000E+01
  0.100000000000E+01
  0.100000000000E+01
  0.100000000000E+01
  0.100000000000E+01
  0.100000000000E+01
  0.100000000000E+01
  0.100000000000E+01
  0.100000000000E+01
  0.100000000000E+01
  0.100000000000E+01
  0.100000000000E+01
  0.100000000000E+01
  0.100000000000E+01
  0.100000000000E+01
  0.100000000000E+01
  0.100000000000E+01
  0.100000000000E+01
  0.100000000000E+01
  0.100000000000E+01
  0.100000000000E+01
  0.100000000000E+01
  0.100000000000E+01
  0.100000000000E+01
  0.100000000000E+01
  0.100000000000E+01
  0.100000000000E+01
  0.100000000000E+01
  0.100000000000E+01
  0.100000000000E+01
  0.100000000000E+01
  0.100000000000E+01
  0.100000000000E+01
  0.100000000000E+01
  0.100000000000E+01
  0.100000000000E+01
  0.100000000000E+01
  0.100000000000E+01
  0.100000000000E+01
  0.100000000000E+01
  0.100000000000E+01
  0.100000000000E+01
  0.100000000000E+01
  0.100000000000E+01
  0.100000000000E+01
  0.100000000000E+01
  0.100000000000E+01
  0.100000000000E+01
  0.100000000000E+01
  0.100000000000E+01
  0.100000000000E+01
  0.100000000000E+01
  0.100000000000E+01
  0.100000000000E+01
  0.100000000000E+01
  0.100000000000E+01
  0.100000000000E+01
  0.100000000000E+01
  0.100000000000E+01
  0.100000000000E+01
  0.100000000000E+01
  0.100000000000E+01
  0.100000000000E+01
  0.100000000000E+01
  0.100000000000E+01
  0.100000000000E+01
  0.100000000000E+01
  0.100000000000E+01
  0.100000000000E+01
  0.100000000000E+01
  0.100000000000E+01
  0.100000000000E+01
  0.100000000000E+01
  0.100000000000E+01
  0.100000000000E+01
  0.100000000000E+01
  0.100000000000E+01
  0.100000000000E+01
  0.100000000000E+01
  0.100000000000E+01
  0.100000000000E+01
  0.100000000000E+01
  0.100000000000E+01
  0.100000000000E+01
  0.100000000000E+01
  0.100000000000E+01
  0.100000000000E+01
  0.100000000000E+01
  0.100000000000E+01
  0.100000000000E+01
  0.100000000000E+01
  0.100000000000E+01
  0.100000000000E+01
  0.100000000000E+01
  0.100000000000E+01
  0.100000000000E+01
  0.100000000000E+01
  0.100000000000E+01
  0.100000000000E+01
  0.100000000000E+01
  0.100000000000E+01
  0.100000000000E+01
  0.100000000000E+01
  0.100000000000E+01
  0.100000000000E+01
  0.100000000000E+01
  0.100000000000E+01
  0.100000000000E+01
  0.100000000000E+01
  0.100000000000E+01
  0.100000000000E+01
  0.100000000000E+01
  0.100000000000E+01
  0.100000000000E+01
  0.100000000000E+01
  0.100000000000E+01
  0.100000000000E+01
  0.100000000000E+01
  0.100000000000E+01
  0.100000000000E+01
  0.100000000000E+01
  0.100000000000E+01
  0.100000000000E+01
  0.100000000000E+01
  0.100000000000E+01
  0.100000000000E+01
  0.100000000000E+01
  0.100000000000E+01
  0.100000000000E+01
  0.100000000000E+01
  0.100000000000E+01
  0.100000000000E+01
  0.100000000000E+01
  0.100000000000E+01
  0.100000000000E+01
  0.100000000000E+01
  0.100000000000E+01
  0.100000000000E+01
  0.100000000000E+01
  0.100000000000E+01
  0.100000000000E+01
  0.100000000000E+01
  0.100000000000E+01
  0.100000000000E+01
  0.100000000000E+01
  0.100000000000E+01
VECTORS v float
  0.149556136745E+03  0.293194495270E+01  0.156674246307E+02
  0.150617916236E+03  0.262594145004E+01  0.158135910326E+02
  0.153465552442E+03 -0.221708837934E+00  0.165735757364E+02
  0.154484529279E+03  0.413986527469E+00  0.166148979158E+02
  0.156653180896E+03 -0.175467602362E+01  0.154288817839E+02
  0.157335000243E+03 -0.624338551666E+00  0.153851977575E+02
  0.153098577233E+03  0.361209324892E+01  0.308900964857E+01
  0.155209015857E+03 -0.417570954200E+01  0.329354899826E+01
  0.131833504659E+03  0.191998247646E+02 -0.156253881792E+02
  0.138057990024E+03  0.224378948630E+01 -0.188411585885E+02
  0.742915677537E+02  0.660102385102E+02 -0.480027972757E+01
  0.720216892471E+02  0.710740600601E+02 -0.549294077583E+00
  0.176682096419E+03 -0.335863471118E+02  0.121882285102E+03
  0.151108382074E+03  0.234654840380E+02  0.739883159498E+02
  0.210640461423E+03 -0.360666088210E+02  0.342250377041E+02
  0.200601960469E+03 -0.872086630537E+01  0.290388251231E+02
  0.200515042510E+03 -0.863393790271E+01 -0.432188581344E+01
  0.201432843477E+03 -0.120207473245E+02 -0.441084128418E+01
  0.189651569757E+03 -0.239434197844E+00 -0.184953331795E+02
  0.184672540332E+03 -0.849379247806E+01 -0.188143518476E+02
  0.174850688611E+03  0.132810791826E+01 -0.187125963292E+02
  0.168233019497E+03 -0.280037776724E+01 -0.184441779199E+02
  0.161136389098E+03  0.429628773393E+01 -0.167590512596E+02
  0.153366135699E+03  0.653567081404E+01 -0.156894635084E+02
  0.150195393357E+03  0.588232026998E+01  0.154204652677E+02
  0.149593604643E+03  0.625091305889E+01  0.153167799113E+02
  0.153753876984E+03  0.209061671416E+01  0.163553048167E+02
  0.153492469997E+03  0.211981042327E+01  0.163239684465E+02
  0.156437505432E+03 -0.825239022389E+00  0.153173487199E+02
  0.156662885832E+03 -0.721974080191E+00  0.153292414924E+02
  0.155211109683E+03  0.729802682592E+00  0.319222241457E+01
  0.155662172842E+03 -0.379106249982E+00  0.322445985220E+01
  0.138335623141E+03  0.169474593272E+02 -0.168398739810E+02
  0.137289527862E+03  0.189577548143E+02 -0.164158734147E+02
  0.746645649982E+02  0.815827470568E+02  0.401013283313E+01
  0.673185230373E+02  0.933347710526E+02  0.150803380462E+02
  0.195075933287E+03 -0.344226391974E+02  0.133029022946E+03
  0.181809370056E+03 -0.131991083661E+02  0.113036833556E+03
  0.217958449822E+03 -0.493481873945E+02  0.370827734351E+02
  0.210654701098E+03 -0.353124690128E+02  0.341223927347E+02
  0.200188597645E+03 -0.248463371524E+02 -0.465016452129E+01
  0.200507787590E+03 -0.256310444034E+02 -0.467297333847E+01
  0.184660419025E+03 -0.978362227716E+01 -0.189388009488E+02
  0.180213498095E+03 -0.118211185248E+02 -0.187041262438E+02
  0.168266657873E+03  0.125777829722E+00 -0.181322482565E+02
  0.164307016437E+03  0.567984293506E+00 -0.176575523162E+02
  0.153421652179E+03  0.114534113695E+02 -0.151699104710E+02
  0.151877597397E+03  0.123991371205E+02 -0.149038618057E+02
  0.150416591413E+03  0.726933595599E+01  0.152959002266E+02
  0.150212816103E+03  0.742565665922E+01  0.152574138111E+02
  0.154164228529E+03  0.347422101411E+01  0.162503398336E+02
  0.153771879482E+03  0.365662876208E+01  0.161883670926E+02
  0.156544486096E+03  0.884009240476E+00  0.151612871062E+02
  0.156453671057E+03  0.894945075858E+00  0.151513767446E+02
  0.155663054108E+03  0.168556064242E+01  0.318181270418E+01
  0.154856771350E+03  0.319713118800E+01  0.313391572246E+01
  0.137323008542E+03  0.207309142485E+02 -0.161745320727E+02
  0.134426811691E+03  0.252177335033E+02 -0.151502987736E+02
  0.671158169201E+02  0.925287620487E+02  0.147306341733E+02
  0.603420967644E+02  0.101627704134E+03  0.239312312960E+02