# vtk DataFile Version 3.0
TriPan results file. Generated by TriPan, USU AeroLab (c) 2021.
ASCII
DATASET POLYDATA
POINTS                7064 float
  0.248117048081E-05  0.000000000000E+00 -0.200896182535E-21
  0.390009530229E-01  0.000000000000E+00 -0.109216802644E+00
  0.390009530229E-01  0.000000000000E+00  0.109216802644E+00
  0.147667587429E+00  0.000000000000E+00 -0.234918546461E+00
  0.147667587429E+00  0.000000000000E+00  0.234918546461E+00
  0.161140126811E+00  0.161136763467E+00 -0.907747527188E-22
  0.200138918513E+00  0.161136784202E+00 -0.109217282026E+00
  0.200138918513E+00  0.161136784202E+00  0.109217282026E+00
  0.290267336203E+00  0.000000000000E+00 -0.347330612704E+00
  0.290267336203E+00  0.000000000000E+00  0.347330612704E+00
  0.308805753889E+00  0.161136845646E+00 -0.234918966854E+00
  0.308805753889E+00  0.161136845646E+00  0.234918966854E+00
  0.335007894265E+00  0.335004341377E+00 -0.239726178949E-22
  0.374006676601E+00  0.335004371478E+00 -0.109217238696E+00
  0.374006676601E+00  0.335004371478E+00  0.109217238696E+00
  0.451405695827E+00  0.161137052624E+00 -0.347330980480E+00
  0.451405695827E+00  0.161137052624E+00  0.347330980480E+00
  0.473467227553E+00  0.000000000000E+00 -0.436290954441E+00
  0.473467227553E+00  0.000000000000E+00  0.436290954441E+00
  0.482673530543E+00  0.335004444157E+00 -0.234918888772E+00
  0.482673530543E+00  0.335004444157E+00  0.234918888772E+00
  0.522508472950E+00  0.522504716366E+00  0.126735146352E-22
  0.561507275069E+00  0.522504756486E+00 -0.109217191547E+00
  0.561507275069E+00  0.522504756486E+00  0.109217191547E+00
  0.625273429732E+00  0.335004664083E+00 -0.347330881903E+00
  0.625273429732E+00  0.335004664083E+00  0.347330881903E+00
  0.634605647116E+00  0.161137252065E+00 -0.436291201616E+00
  0.634605647116E+00  0.161137252065E+00  0.436291201616E+00
  0.670174087105E+00  0.522504841270E+00 -0.234918819742E+00
  0.670174087105E+00  0.522504841270E+00  0.234918819742E+00
  0.689336105034E+00  0.000000000000E+00 -0.522846809678E+00
  0.689336105034E+00  0.000000000000E+00  0.522846809678E+00
  0.724592348672E+00  0.724588373564E+00  0.000000000000E+00
  0.763591140102E+00  0.724588424374E+00 -0.109217140388E+00
  0.763591140102E+00  0.724588424374E+00  0.109217140388E+00
  0.808473398767E+00  0.335004875579E+00 -0.436291120216E+00
  0.808473398767E+00  0.335004875579E+00  0.436291120216E+00
  0.812774031945E+00  0.522505075150E+00 -0.347330805804E+00
  0.812774031945E+00  0.522505075150E+00  0.347330805804E+00
  0.850474557516E+00  0.161137351158E+00 -0.522846992743E+00
  0.850474557516E+00  0.161137351158E+00  0.522846992743E+00
  0.872257939128E+00  0.724588522168E+00 -0.234918744568E+00
  0.872257939128E+00  0.724588522168E+00  0.234918744568E+00
  0.942256171024E+00  0.942251961910E+00  0.284004058967E-22
  0.944065572333E+00  0.000000000000E+00 -0.604289928279E+00
  0.944065572333E+00  0.000000000000E+00  0.604289928279E+00
  0.981254891470E+00  0.942252024099E+00 -0.109217085037E+00
  0.981254891470E+00  0.942252024099E+00  0.109217085037E+00
  0.995973988017E+00  0.522505299608E+00 -0.436291030581E+00
  0.995973988017E+00  0.522505299608E+00  0.436291030581E+00
  0.101485792856E+01  0.724588771058E+00 -0.347330722008E+00
  0.101485792856E+01  0.724588771058E+00  0.347330722008E+00
  0.102434236145E+01  0.335004981989E+00 -0.522846935900E+00
  0.102434236145E+01  0.335004981989E+00  0.522846935900E+00
  0.108992173615E+01  0.942252135844E+00 -0.234918677862E+00
  0.108992173615E+01  0.942252135844E+00  0.234918677862E+00
  0.110520403330E+01  0.161137444330E+00 -0.604290132511E+00
  0.110520403330E+01  0.161137444330E+00  0.604290132511E+00
  0.117654153149E+01  0.117653707225E+01 -0.601761213589E-22
  0.119805781112E+01  0.724589009429E+00 -0.436290932283E+00
  0.119805781112E+01  0.724589009429E+00  0.436290932283E+00
  0.121184288325E+01  0.522505413871E+00 -0.522846810817E+00
  0.121184288325E+01  0.522505413871E+00  0.522846810817E+00
  0.121554029945E+01  0.117653714653E+01 -0.109217025314E+00
  0.121554029945E+01  0.117653714653E+01  0.109217025314E+00
  0.123252164987E+01  0.942252400848E+00 -0.347330630148E+00
  0.123252164987E+01  0.942252400848E+00  0.347330630148E+00
  0.123833332178E+01  0.000000000000E+00 -0.683992575719E+00
  0.123833332178E+01  0.000000000000E+00  0.683992575719E+00
  0.127907177119E+01  0.335005081612E+00 -0.604290012508E+00
  0.127907177119E+01  0.335005081612E+00  0.604290012508E+00
  0.132420706960E+01  0.117653727320E+01 -0.234918589542E+00
  0.132420706960E+01  0.117653727320E+01  0.234918589542E+00
  0.139947185373E+01  0.161137516738E+00 -0.683992760737E+00
  0.139947185373E+01  0.161137516738E+00  0.683992760737E+00
  0.141392675754E+01  0.724589132110E+00 -0.522846736253E+00
  0.141392675754E+01  0.724589132110E+00  0.522846736253E+00
  0.141572163672E+01  0.942252654127E+00 -0.436290824909E+00
  0.141572163672E+01  0.942252654127E+00  0.436290824909E+00
  0.142853317529E+01  0.142852844923E+01 -0.143497736444E-21
  0.146657240526E+01  0.522505520421E+00 -0.604289943199E+00
  0.146657240526E+01  0.522505520421E+00  0.604289943199E+00
  0.146680696606E+01  0.117653755546E+01 -0.347330529873E+00
  0.146680696606E+01  0.117653755546E+01  0.347330529873E+00
  0.146753193045E+01  0.142852853631E+01 -0.109216961055E+00
  0.146753193045E+01  0.142852853631E+01  0.109216961055E+00
  0.157333958654E+01  0.335005159101E+00 -0.683992698276E+00
  0.157333958654E+01  0.335005159101E+00  0.683992698276E+00
  0.157619868467E+01  0.142852867891E+01 -0.234918494249E+00
  0.157619868467E+01  0.142852867891E+01  0.234918494249E+00
  0.157642056144E+01  0.000000000000E+00 -0.760516189264E+00
  0.157642056144E+01  0.000000000000E+00  0.760516189264E+00
  0.163159057413E+01  0.942252785815E+00 -0.522846592560E+00
  0.163159057413E+01  0.942252785815E+00  0.522846592560E+00
  0.165000693697E+01  0.117653782469E+01 -0.436290708060E+00
  0.165000693697E+01  0.117653782469E+01  0.436290708060E+00
  0.166865627212E+01  0.724589246086E+00 -0.604289804906E+00
  0.166865627212E+01  0.724589246086E+00  0.604289804906E+00
  0.169935572313E+01  0.169935071303E+01  0.118317441648E-21
  0.171879856266E+01  0.142852897964E+01 -0.347330420851E+00
  0.171879856266E+01  0.142852897964E+01  0.347330420851E+00
  0.173755909906E+01  0.161137591741E+00 -0.760516356356E+00
  0.173755909906E+01  0.161137591741E+00  0.760516356356E+00
  0.173835434555E+01  0.169935081364E+01 -0.109216899558E+00
  0.173835434555E+01  0.169935081364E+01  0.109216899558E+00
  0.176084021515E+01  0.522505603365E+00 -0.683992567137E+00
  0.176084021515E+01  0.522505603365E+00  0.683992567137E+00
  0.184702120201E+01  0.169935097321E+01 -0.234918391742E+00
  0.184702120201E+01  0.169935097321E+01  0.234918391742E+00
  0.186587586475E+01  0.117653796600E+01 -0.522846498523E+00
  0.186587586475E+01  0.117653796600E+01  0.522846498523E+00
  0.188632008077E+01  0.942252907738E+00 -0.604289716380E+00
  0.188632008077E+01  0.942252907738E+00  0.604289716380E+00
  0.190199851656E+01  0.142852926588E+01 -0.436290581359E+00
  0.190199851656E+01  0.142852926588E+01  0.436290581359E+00
  0.191142682723E+01  0.335005238732E+00 -0.760516232872E+00
  0.191142682723E+01  0.335005238732E+00  0.760516232872E+00
  0.196138828406E+01  0.000000000000E+00 -0.833664252954E+00
  0.196138828406E+01  0.000000000000E+00  0.833664252954E+00
  0.196292407617E+01  0.724589334880E+00 -0.683992486046E+00
  0.196292407617E+01  0.724589334880E+00  0.683992486046E+00
  0.198962106032E+01  0.169935129362E+01 -0.347330302783E+00
  0.198962106032E+01  0.169935129362E+01  0.347330302783E+00
  0.199017003531E+01  0.199016472345E+01  0.179204840377E-21
  0.202916876266E+01  0.199016483834E+01 -0.109216825788E+00
  0.202916876266E+01  0.199016483834E+01  0.109216825788E+00
  0.209892745088E+01  0.522505687967E+00 -0.760516159807E+00
  0.209892745088E+01  0.522505687967E+00  0.760516159807E+00
  0.211786743409E+01  0.142852941745E+01 -0.522846394139E+00
  0.211786743409E+01  0.142852941745E+01  0.522846394139E+00
  0.212060548212E+01  0.117653809641E+01 -0.604289617574E+00
  0.212060548212E+01  0.117653809641E+01  0.604289617574E+00
  0.212252694648E+01  0.161137667481E+00 -0.833664346748E+00
  0.212252694648E+01  0.161137667481E+00  0.833664346748E+00
  0.213783548188E+01  0.199016501594E+01 -0.234918296716E+00
  0.213783548188E+01  0.199016501594E+01  0.234918296716E+00
  0.217282099607E+01  0.169935159800E+01 -0.436290474266E+00
  0.217282099607E+01  0.169935159800E+01  0.436290474266E+00
  0.218058787856E+01  0.942253002792E+00 -0.683992394927E+00
  0.218058787856E+01  0.942253002792E+00  0.683992394927E+00
  0.228043543846E+01  0.199016535729E+01 -0.347330175398E+00
  0.228043543846E+01  0.199016535729E+01  0.347330175398E+00
  0.229639467055E+01  0.335005318579E+00 -0.833664281975E+00
  0.229639467055E+01  0.335005318579E+00  0.833664281975E+00
  0.230101130656E+01  0.724589424811E+00 -0.760516077064E+00
  0.230101130656E+01  0.724589424811E+00  0.760516077064E+00
  0.230216808568E+01  0.230216245402E+01  0.132995971380E-21
  0.234116679803E+01  0.230216258391E+01 -0.109216747083E+00
  0.234116679803E+01  0.230216258391E+01  0.109216747083E+00
  0.237259704239E+01  0.142852955692E+01 -0.604289508070E+00
  0.237259704239E+01  0.142852955692E+01  0.604289508070E+00
  0.238869002190E+01  0.169935176048E+01 -0.522846219438E+00
  0.238869002190E+01  0.169935176048E+01  0.522846219438E+00
  0.239635584192E+01  0.000000000000E+00 -0.902056088369E+00
  0.239635584192E+01  0.000000000000E+00  0.902056088369E+00
  0.241487327321E+01  0.117653819815E+01 -0.683992293322E+00
  0.241487327321E+01  0.117653819815E+01  0.683992293322E+00
  0.244983373656E+01  0.230216278062E+01 -0.234918179192E+00
  0.244983373656E+01  0.230216278062E+01  0.234918179192E+00
  0.246363523572E+01  0.199016568095E+01 -0.436290326871E+00
  0.246363523572E+01  0.199016568095E+01  0.436290326871E+00
[...]
POINT_DATA                7064
SCALARS phi float 1
LOOKUP_TABLE default
 -0.243962304997E-05
 -0.184446970370E-01
 -0.582510598818E-01
 -0.102384375265E+00
 -0.188005384790E+00
 -0.158441820492E+00
 -0.176884305040E+00
 -0.216690842605E+00
 -0.222110806102E+00
 -0.348702759553E+00
 -0.260824191623E+00
 -0.346445354369E+00
 -0.329398156109E+00
 -0.347840639343E+00
 -0.387647161116E+00
 -0.380550821977E+00
 -0.507142909472E+00
 -0.386031263712E+00
 -0.545046686412E+00
 -0.431780550515E+00
 -0.517401684801E+00
 -0.513759020272E+00
 -0.532201531551E+00
 -0.572008036139E+00
 -0.551507142570E+00
 -0.678099194136E+00
 -0.544471360500E+00
 -0.703486873288E+00
 -0.616141405505E+00
 -0.701762514632E+00
 -0.582511845122E+00
 -0.773074371349E+00
 -0.712458982815E+00
 -0.730901492907E+00
 -0.770707978849E+00
 -0.715427695412E+00
 -0.874443178532E+00
 -0.735868043735E+00
 -0.862460067565E+00
 -0.740951985961E+00
 -0.931514578910E+00
 -0.814841358445E+00
 -0.900462440174E+00
 -0.926478004342E+00
 -0.818134014429E+00
 -0.103838019969E+01
 -0.944920454725E+00
 -0.984726920494E+00
 -0.899788586298E+00
 -0.105880403675E+01
 -0.934568042092E+00
 -0.106116003538E+01
 -0.911908367808E+00
 -0.110247094004E+01
 -0.102886036723E+01
 -0.111448142464E+01
 -0.976574159754E+00
 -0.119682041945E+01
 -0.115684023479E+01
 -0.109848851502E+01
 -0.125750392964E+01
 -0.109626919883E+01
 -0.128683172547E+01
 -0.117528274278E+01
 -0.121508918678E+01
 -0.114858698101E+01
 -0.127517894082E+01
 -0.109294956937E+01
 -0.134224506231E+01
 -0.114753048817E+01
 -0.136777670413E+01
 -0.125922258720E+01
 -0.134484361243E+01
 -0.125138978799E+01
 -0.150068534837E+01
 -0.129496917355E+01
 -0.148553167302E+01
 -0.131250755930E+01
 -0.147152293479E+01
 -0.140461225522E+01
 -0.133189141942E+01
 -0.155213761012E+01
 -0.137894918619E+01
 -0.150554110945E+01
 -0.142305476233E+01
 -0.146286118291E+01
 -0.142234610093E+01
 -0.167164163853E+01
 -0.150699459675E+01
 -0.159261558724E+01
 -0.141143018603E+01
 -0.168861632082E+01
 -0.150898821560E+01
 -0.169955066270E+01
 -0.154286975184E+01
 -0.170188508474E+01
 -0.153059139846E+01
 -0.175083753875E+01
 -0.167089985447E+01
 -0.162672118009E+01
 -0.175331306362E+01
 -0.156987041349E+01
 -0.184705660918E+01
 -0.168934224226E+01
 -0.172914864043E+01
 -0.160670703808E+01
 -0.185600252789E+01
 -0.177328218468E+01
 -0.185890313782E+01
 -0.173935039451E+01
 -0.192991280733E+01
 -0.174461042264E+01
 -0.196485653067E+01
 -0.179064173222E+01
 -0.194965701895E+01
 -0.174082673298E+01
 -0.201801288367E+01
 -0.177662141272E+01
 -0.208046789916E+01
 -0.180540700094E+01
 -0.205470246120E+01
 -0.189300875151E+01
 -0.201960059200E+01
 -0.195684445410E+01
 -0.197528695852E+01
 -0.201509332980E+01
 -0.192518765467E+01
 -0.220237377873E+01
 -0.198712236075E+01
 -0.217768473553E+01
 -0.197497271129E+01
 -0.219521878331E+01
 -0.193506177625E+01
 -0.223890829688E+01
 -0.205922676988E+01
 -0.214484768838E+01
 -0.205692928380E+01
 -0.221594453149E+01
 -0.201942601944E+01
 -0.226872144649E+01
 -0.217895343921E+01
 -0.230554523328E+01
 -0.210601808101E+01
 -0.240986457803E+01
 -0.212388761258E+01
 -0.240107370648E+01
 -0.226361806828E+01
 -0.228206057229E+01
 -0.232186691489E+01
 -0.222274466955E+01
 -0.244299070166E+01
 -0.225341003113E+01
 -0.244397234223E+01
 -0.219184197655E+01
 -0.252061530712E+01
 -0.224978830202E+01
 -0.249908369203E+01
 -0.236600060636E+01
 -0.245162148202E+01
 -0.234287383898E+01
 -0.250188903295E+01
 -0.229037911575E+01
 -0.259422558579E+01
 -0.233790662581E+01
 -0.261509268585E+01
 -0.235028245042E+01
 -0.267905583260E+01
 -0.248572702293E+01
 -0.261231876709E+01
 -0.259241720866E+01
 -0.248903232060E+01
 -0.270927830875E+01
 -0.249756025383E+01
 -0.274685560283E+01
 -0.261085971110E+01
 -0.265066602589E+01
 -0.253935457104E+01
 -0.272991683617E+01
 -0.248907906920E+01
 -0.279292550871E+01
 -0.252123875170E+01
 -0.285001211008E+01
 -0.256826890274E+01
 -0.284545492504E+01
 -0.264964764089E+01
 -0.280866277722E+01
 -0.269479973151E+01
 -0.278042056695E+01
 -0.265940136225E+01
 -0.301129599419E+01
 -0.270309807764E+01
 -0.300694448287E+01
 -0.270559979354E+01
 -0.303437310302E+01
 -0.281452636595E+01
 -0.294111805668E+01
 -0.277497685151E+01
 -0.299522279156E+01
 -0.276384789800E+01
 -0.301314320186E+01
 -0.284612835710E+01
 -0.303669057214E+01
 -0.294445503109E+01
 -0.281604108295E+01
 -0.309322706348E+01
 -0.296289753216E+01
 -0.300270381732E+01
 -0.281784160484E+01
 -0.316973628482E+01
 -0.297844672689E+01
 -0.313746181245E+01
 -0.290429974298E+01
 -0.323307302171E+01
 -0.293346034947E+01
 -0.323730671653E+01
 -0.304683753833E+01
 -0.313245833072E+01
 -0.298879791396E+01
 -0.334069254835E+01
 -0.304979265605E+01
 -0.329908791053E+01
 -0.308175062805E+01
 -0.330199651572E+01
 -0.308232872073E+01
 -0.335951465530E+01
 -0.316656415529E+01
 -0.329315578900E+01
 -0.317492743208E+01
 -0.336548959283E+01
 -0.311831873625E+01
 -0.344709200220E+01
 -0.332095242741E+01
 -0.318123252423E+01
 -0.348507884904E+01
 -0.317315894172E+01
 -0.352505354885E+01
 -0.333939492735E+01
 -0.337920118102E+01
 -0.318078349953E+01
 -0.355381355977E+01
 -0.333048449266E+01
 -0.348949952343E+01
 -0.342333468427E+01
 -0.350895543075E+01
 -0.335656619044E+01
 -0.360586139118E+01
 -0.336827347198E+01
 -0.364545935629E+01
 -0.334868123790E+01
 -0.367745446542E+01
 -0.341054969299E+01
 -0.363079552394E+01
 -0.333922399382E+01
 -0.371225407682E+01
 -0.337185912211E+01
 -0.372375369840E+01
 -0.344752015621E+01
 -0.375136643453E+01
 -0.354306127735E+01
 -0.366965286134E+01
 -0.352696542069E+01
 -0.371752752292E+01
 -0.351018027838E+01
 -0.388321035922E+01
 -0.372312700738E+01
 -0.359645317332E+01
 -0.392522635832E+01
 -0.374156950782E+01
 -0.378137572545E+01
 -0.358587811166E+01
 -0.393777267508E+01
 -0.370698183551E+01
 -0.386599679660E+01
 -0.368536548164E+01
 -0.393466062420E+01
 -0.367504723361E+01
 -0.395223306322E+01
 -0.382550924797E+01
 -0.391112994572E+01
 -0.376258767099E+01
 -0.398283344084E+01
 -0.369454131393E+01
 -0.406757134576E+01
 -0.373346489045E+01
 -0.403731113966E+01
 -0.375698272901E+01
 -0.414814463512E+01
 -0.381624037491E+01
 -0.416813489980E+01
 -0.390346274593E+01
 -0.409402478539E+01
 -0.394523605613E+01
 -0.407182757598E+01
 -0.386274103450E+01
 -0.419151417271E+01
 -0.389324148018E+01
 -0.426627150287E+01
 -0.391542344286E+01
 -0.430658541116E+01
 -0.400384650634E+01
 -0.428103229847E+01
 -0.415218090857E+01
 -0.403740321663E+01
 -0.428669829653E+01
 -0.410915658884E+01
 -0.426817148709E+01
 -0.417062364149E+01
 -0.421042982672E+01
 -0.404023841112E+01
 -0.434408460502E+01
 -0.406401254052E+01
 -0.441590702277E+01
 -0.413908498509E+01
 -0.435933068943E+01
 -0.408637974616E+01
 -0.447754166884E+01
 -0.410726048793E+01
 -0.448029045428E+01
 -0.425456336704E+01
 -0.434018401328E+01
 -0.414868576318E+01
 -0.447745887195E+01
 -0.430563701762E+01
 -0.449619899010E+01
 -0.437429014949E+01
 -0.450088161259E+01
 -0.427074099123E+01
 -0.466190290835E+01
 -0.435588446774E+01
 -0.463307019610E+01
 -0.433030062073E+01
 -0.468219507781E+01
 -0.436903768783E+01
 -0.467288382186E+01
 -0.433762320540E+01
 -0.471065315491E+01
 -0.441390074527E+01
 -0.466319577973E+01
 -0.438799714190E+01
 -0.479309227048E+01
 -0.460928743398E+01
 -0.453821066126E+01
 -0.469722549275E+01
 -0.445545974682E+01
 -0.478423279992E+01
 -0.462773016661E+01
 -0.466753631498E+01
 -0.454125971398E+01
 -0.476150534844E+01
 -0.446944117577E+01
 -0.486060304031E+01
 -0.454643739362E+01
 -0.495153257946E+01
 -0.471166987294E+01
 -0.479729047042E+01
 -0.458539535612E+01
 -0.495842528469E+01
 -0.461624535548E+01
 -0.496813976125E+01
 -0.473469153469E+01
 -0.492525345777E+01
 -0.473238151911E+01
 -0.500956720085E+01
 -0.472107563111E+01
 -0.502492172238E+01
 -0.468346015813E+01
 -0.507462200978E+01
 -0.483139663153E+01
 -0.495798803451E+01
 -0.471739416268E+01
 -0.512248930292E+01
 -0.481607546470E+01
 -0.506537042752E+01
 -0.478425900644E+01
 -0.511303202100E+01
 -0.485168296320E+01
 -0.522471286655E+01
 -0.499531711604E+01
 -0.515433188782E+01
 -0.497031375000E+01
 -0.519055933203E+01
 -0.509557300125E+01
 -0.492301885430E+01
 -0.527491322598E+01
 -0.490175493557E+01
 -0.530685007028E+01
 -0.491382242455E+01
 -0.530498421592E+01
 -0.511401573392E+01
 -0.515382184378E+01
 -0.519795542323E+01
 -0.528357596397E+01
 -0.509757314368E+01
 -0.540141918756E+01
 -0.513455621885E+01
 -0.541174184942E+01
 -0.507151848457E+01
 -0.548514157139E+01
 -0.519179798100E+01
 -0.538235982895E+01
 -0.513629694315E+01
 -0.546506991452E+01
 -0.510045511654E+01
 -0.550555019870E+01
 -0.513762770425E+01
 -0.551065753453E+01
 -0.516159503992E+01
 -0.555275681035E+01
 -0.524512949084E+01
 -0.549442439936E+01
 -0.531768215441E+01
 -0.544427349403E+01
 -0.525181858825E+01
 -0.560371289948E+01
 -0.522995874279E+01
 -0.564358188145E+01
 -0.531447456392E+01
 -0.571956963323E+01
 -0.542742018361E+01
 -0.564766568731E+01
 -0.548160261622E+01
 -0.564061731380E+01
 -0.540091550864E+01
 -0.581453860176E+01
 -0.561210190491E+01
 -0.542788264254E+01
 -0.581904438776E+01
 -0.544440166710E+01
 -0.581743146322E+01
 -0.563054416778E+01
 -0.567035024030E+01
 -0.549974783542E+01
 -0.580359382729E+01
 -0.551279445969E+01
 -0.584156736147E+01
 -0.556361071550E+01
 -0.584079626871E+01
 -0.554483680451E+01
 -0.594993185703E+01
 -0.571448430707E+01
 -0.580010479412E+01
 -0.567808346676E+01
 -0.586864523576E+01
 -0.560385651927E+01
 -0.595575078712E+01
 -0.558527674691E+01
 -0.599889983456E+01
 -0.570223590332E+01
 -0.595153075327E+01
 -0.583421054391E+01
 -0.596080181720E+01
 -0.571382735710E+01
 -0.610498907270E+01
 -0.577320091621E+01
 -0.614623067356E+01
 -0.578397692415E+01
 -0.619759995933E+01
 -0.579260943724E+01
 -0.619770442541E+01
 -0.580295055512E+01
 -0.621847457150E+01
 -0.591370564534E+01
 -0.613395108847E+01
 -0.599813145110E+01
 -0.615714607110E+01
 -0.591496914418E+01
 -0.624374199345E+01
 -0.592880231284E+01
 -0.623264824819E+01
 -0.598035401898E+01
 -0.633224823874E+01
 -0.602071711836E+01
 -0.629790261159E+01
 -0.615985404592E+01
 -0.596139082096E+01
 -0.637691488496E+01
 -0.617829677841E+01
 -0.621810280946E+01
 -0.599799589870E+01
 -0.641161892110E+01
 -0.602060131491E+01
 -0.641176299634E+01
 -0.605889703517E+01
 -0.646399199818E+01
 -0.619461227587E+01
 -0.638517398407E+01
 -0.626223642820E+01
 -0.634785685937E+01
 -0.612523931070E+01
 -0.649826902458E+01
 -0.618852182323E+01
 -0.643781661056E+01
 -0.613234758331E+01
 -0.654787160188E+01
 -0.622835860388E+01
 -0.664198160958E+01
 -0.638196310770E+01
 -0.650855431191E+01
 -0.634402313432E+01
 -0.667279594823E+01
 -0.631670881783E+01
 -0.673223283104E+01
 -0.638590870700E+01
 -0.668975458142E+01
 -0.643023444082E+01
 -0.665047981969E+01
 -0.634940102752E+01
 -0.674056267016E+01
 -0.634484221362E+01
 -0.674993714706E+01
 -0.638252869721E+01
 -0.673442286421E+01
 -0.654588351641E+01
 -0.670489806659E+01
 -0.650700302831E+01
 -0.678418845743E+01
 -0.647613076319E+01
 -0.688975370464E+01
 -0.650173680471E+01
 -0.687476647041E+01
 -0.651540899105E+01
 -0.693093295191E+01
 -0.673970758408E+01
 -0.675815031638E+01
 -0.679795630744E+01
 -0.657740003343E+01
 -0.698647627331E+01
 -0.670505060769E+01
 -0.695434532860E+01
 -0.674236480011E+01
 -0.693292642253E+01
 -0.665161616614E+01
 -0.705671106547E+01
 -0.684208994649E+01
 -0.692771031989E+01
 -0.670143894751E+01
 -0.709260054667E+01
 -0.672942796129E+01
 -0.714495190951E+01
 -0.673584031035E+01
 -0.714491654999E+01
 -0.674241882512E+01
 -0.715604174151E+01
 -0.680112998944E+01
 -0.712990274183E+01
 -0.681158314963E+01
 -0.716347728100E+01
 -0.687219460790E+01
 -0.717604041721E+01
 -0.696181659918E+01
 -0.708840773191E+01
 -0.697798694017E+01
 -0.719823225140E+01
 -0.690391147698E+01
 -0.727694108981E+01
 -0.690679704800E+01
 -0.731587328579E+01
 -0.702353132276E+01
 -0.730071670562E+01
 -0.695979066186E+01
 -0.737531459352E+01
 -0.698041540432E+01
 -0.738551026491E+01
 -0.712573697762E+01
 -0.728475145529E+01
 -0.702836399840E+01
 -0.744198688532E+01
 -0.707793690443E+01
 -0.746909845538E+01
 -0.709115830106E+01
 -0.750023449020E+01
 -0.735241315115E+01
 -0.725280309568E+01
 -0.750209774670E+01
 -0.737085541480E+01
 -0.741066136485E+01
 -0.720756328510E+01
 -0.762308715267E+01
 -0.732221777129E+01
 -0.751277932680E+01
 -0.726868999793E+01
 -0.762058406748E+01
 -0.728741588216E+01
 -0.761618856881E+01
 -0.728985844912E+01
 -0.769893462952E+01
 -0.745479549378E+01
 -0.754041580781E+01
 -0.733296591231E+01
 -0.770599551110E+01
 -0.733245378725E+01
 -0.773754860440E+01
 -0.738872337271E+01
 -0.769256911298E+01
 -0.733513794543E+01
 -0.774876079836E+01
 -0.738489818419E+01
 -0.778189820188E+01
 -0.757452211912E+01
 -0.770111317838E+01
 -0.755784036583E+01
 -0.777808560645E+01
 -0.748011157045E+01
 -0.787127306850E+01
 -0.747385134178E+01
 -0.788937518445E+01
 -0.750387790625E+01
 -0.791295403074E+01
 -0.757128426901E+01
 -0.784846958037E+01
 -0.754333893039E+01
 -0.794033894338E+01
 -0.773844246680E+01
 -0.789745686969E+01
 -0.766393717779E+01
 -0.807755999209E+01
 -0.770895126910E+01
 -0.811404603809E+01
 -0.771429566586E+01
 -0.811129567714E+01
 -0.775497587270E+01
 -0.810686989789E+01
 -0.773424060288E+01
 -0.814331671101E+01
 -0.783265604084E+01
 -0.808195061895E+01
 -0.775979604061E+01
 -0.817531985399E+01
 -0.780394462765E+01
 -0.813271726630E+01
 -0.779007322296E+01
 -0.816310275977E+01
 -0.799857228361E+01
 -0.793492323896E+01
 -0.812548472518E+01
 -0.801701548560E+01
 -0.805682139385E+01
 -0.793647582961E+01
 -0.824032151899E+01
 -0.789865691657E+01
 -0.829565687935E+01
 -0.790916602098E+01
 -0.830032746148E+01
 -0.810095554436E+01
 -0.818657579780E+01
 -0.798201320019E+01
 -0.839108928788E+01
 -0.801597602343E+01
 -0.842959879441E+01
 -0.806656998171E+01
 -0.848209376127E+01
 -0.817054581882E+01
 -0.839079098635E+01
 -0.822068166769E+01
 -0.834727266281E+01
 -0.815113814101E+01
 -0.842832337775E+01
 -0.809735753098E+01
 -0.849435748518E+01
 -0.811112637571E+01
 -0.851622113527E+01
 -0.821566497554E+01
 -0.859518582422E+01
 -0.827150507970E+01
 -0.862339905653E+01
 -0.824830078353E+01
 -0.865737684654E+01
 -0.827635863298E+01
 -0.864938810354E+01
 -0.838460245846E+01
 -0.854361678484E+01
 -0.831137649485E+01
 -0.870837643676E+01
 -0.835169754469E+01
 -0.868047013172E+01
 -0.836627283423E+01
 -0.875743425613E+01
 -0.837410618887E+01
 -0.875362702851E+01
 -0.844536195083E+01
 -0.869465645348E+01
 -0.839247396765E+01
 -0.880609669058E+01
 -0.839536967662E+01
 -0.881089341775E+01
 -0.851632921204E+01
 -0.882017484737E+01
 -0.858108274003E+01
 -0.877164415514E+01
 -0.867861491778E+01
 -0.869705812086E+01
 -0.873686398680E+01
 -0.854506292242E+01
 -0.892458376047E+01
 -0.853424641530E+01
 -0.894332244926E+01
 -0.854173967918E+01
 -0.893873956147E+01
 -0.854018081939E+01
 -0.894527552144E+01
 -0.878099721882E+01
 -0.886661741632E+01
 -0.876384309134E+01
 -0.904102827260E+01
 -0.872942417108E+01
 -0.910894496076E+01
 -0.881670530500E+01
 -0.903695039755E+01
 -0.874740851562E+01
 -0.916293221363E+01
 -0.890072425457E+01
 -0.902731517370E+01
 -0.879288782214E+01
 -0.916591726586E+01
 -0.878951133571E+01
 -0.918651119775E+01
 -0.881925706234E+01
 -0.917115096543E+01
 -0.879464906745E+01
 -0.920827178107E+01
 -0.884102035133E+01
 -0.925009635172E+01
 -0.885255917488E+01
 -0.924372053044E+01
 -0.893155092904E+01
 -0.926032343954E+01
 -0.892812384557E+01
 -0.930764462681E+01
 -0.906464501390E+01
 -0.922365926265E+01
 -0.899728764722E+01
 -0.940238228724E+01
 -0.909152141409E+01
 -0.934081586104E+01
 -0.905904047267E+01
 -0.941649179240E+01
 -0.905579985348E+01
 -0.945279969106E+01
 -0.912903510086E+01
 -0.943288065778E+01
 -0.912390645283E+01
 -0.953943010301E+01
 -0.914214374476E+01
 -0.952166451387E+01
 -0.926112527358E+01
 -0.945168661638E+01
 -0.916982004087E+01
 -0.957889600309E+01
 -0.939277219635E+01
 -0.921748084588E+01
 -0.957493174814E+01
 -0.922370350399E+01
 -0.963732616023E+01
 -0.941121446189E+01
 -0.945102028804E+01
 -0.934064073529E+01
 -0.971367010505E+01
 -0.949515447851E+01
 -0.958077461432E+01
 -0.934174548176E+01
 -0.973874529051E+01
 -0.941000348106E+01
 -0.968718860484E+01
 -0.937250692655E+01
 -0.975202763621E+01
 -0.936908835670E+01
 -0.976024968532E+01
 -0.938843758393E+01
 -0.974588847960E+01
 -0.939911135493E+01
 -0.975100522451E+01
 -0.949674782352E+01
 -0.971699283983E+01
 -0.961488148073E+01
 -0.974147233433E+01
 -0.948357395872E+01
 -0.988866857586E+01
 -0.954425678702E+01
 -0.987302926177E+01
 -0.952185887419E+01
 -0.993093479357E+01
 -0.952608154526E+01
 -0.994160518635E+01
 -0.957279881495E+01
 -0.993024970170E+01
 -0.962027858037E+01
 -0.999979926997E+01
 -0.964851941413E+01
 -0.100455191896E+02
 -0.977880220850E+01
 -0.993781639003E+01
 -0.968081030268E+01
 -0.100944329405E+02
 -0.977156392049E+01
 -0.100208582887E+02
 -0.977519548036E+01
 -0.100790409785E+02
 -0.977149943088E+01
 -0.101289503062E+02
 -0.990315931902E+01
 -0.102356100341E+02
 -0.997528338940E+01
 -0.101658446594E+02
 -0.988656709522E+01
 -0.102660877605E+02
 -0.989835680545E+01
 -0.103074326773E+02
 -0.992049502050E+01
 -0.102935243565E+02
 -0.991684126225E+01
 -0.103080025168E+02
 -0.101410563078E+02
 -0.995513597408E+01
 -0.103706595580E+02
 -0.998551933333E+01
 -0.103429701945E+02
 -0.997731909973E+01
 -0.103743188372E+02
 -0.101594985752E+02
 -0.101993043590E+02
 -0.100118172158E+02
 -0.103637110275E+02
 -0.100001031546E+02
 -0.104051977013E+02
 -0.100616004875E+02
 -0.103940512346E+02
 -0.100900459760E+02
 -0.103672310193E+02
 -0.102434385688E+02
 -0.103290586486E+02
 -0.102109059242E+02
 -0.104311508638E+02
 -0.101904171573E+02
 -0.105191895725E+02
 -0.101725127204E+02
 -0.105520333571E+02
 -0.101670966282E+02
 -0.105807191997E+02
 -0.102158815585E+02
 -0.105733324027E+02
 -0.102325572314E+02
 -0.105650079661E+02
 -0.103631646026E+02
 -0.104897553910E+02
 -0.103005319133E+02
 -0.107096077329E+02
 -0.103293579289E+02
 -0.107263576238E+02
 -0.104169184571E+02
 -0.107493691998E+02
 -0.105270853044E+02
 -0.106860994082E+02
 -0.104552379542E+02
 -0.107590833924E+02
 -0.104857219981E+02
 -0.107350163089E+02
 -0.104122437024E+02
 -0.108277672681E+02
 -0.104636541526E+02
 -0.108211049766E+02
 -0.104792866712E+02
 -0.108588072313E+02
 -0.104966955397E+02
 -0.108878567604E+02
 -0.105332008631E+02
 -0.109062301626E+02
 -0.105478560305E+02
 -0.109529505466E+02
 -0.106156190674E+02
 -0.109480698164E+02
 -0.107235664633E+02
 -0.109141276609E+02
 -0.106579766404E+02
 -0.110098703920E+02
 -0.107370170652E+02
 -0.110418319180E+02
 -0.106836257942E+02
 -0.110972483389E+02
 -0.107058558557E+02
 -0.111028555034E+02
 -0.107299426587E+02
 -0.110873934809E+02
 -0.109232346993E+02
 -0.107295863355E+02
 -0.111386620982E+02
 -0.108042031047E+02
 -0.110813880886E+02
 -0.109416769678E+02
 -0.109814827125E+02
 -0.108296389640E+02
 -0.111620897176E+02
 -0.108080863534E+02
 -0.111876068759E+02
 -0.108704596218E+02
 -0.111992319760E+02
 -0.108954582475E+02
 -0.112002731187E+02
 -0.110256169398E+02
 -0.111112369643E+02
 -0.109591889723E+02
 -0.111794338572E+02
 -0.108985300195E+02
 -0.113140535192E+02
 -0.110158882855E+02
 -0.113733390806E+02
 -0.111453438808E+02
 -0.112719346050E+02
 -0.110664149803E+02
 -0.113712298609E+02
 -0.110600011721E+02
 -0.113924519498E+02
 -0.111094013744E+02
 -0.115005625584E+02
 -0.111080309590E+02
 -0.115050305547E+02
 -0.111693950616E+02
 -0.114732404608E+02
 -0.111277102998E+02
 -0.115328047820E+02
 -0.111601251789E+02
 -0.115396456590E+02
 -0.112340050340E+02
 -0.114832992876E+02
 -0.111793602908E+02
 -0.115523895083E+02
 -0.113092645514E+02
 -0.114682785894E+02
 -0.111866940569E+02
 -0.115957698017E+02
 -0.112507762057E+02
 -0.115555910941E+02
 -0.112313796213E+02
 -0.116450020920E+02
 -0.113077737595E+02
 -0.116402245373E+02
 -0.113226622052E+02
 -0.116801129911E+02
 -0.113380200237E+02
 -0.116899137356E+02
 -0.115057456941E+02
 -0.116963068204E+02
 -0.114494768158E+02
 -0.117542917103E+02
 -0.114150591768E+02
 -0.118305826499E+02
 -0.115495517500E+02
 -0.118258448993E+02
 -0.115524870561E+02