# vtk DataFile Version 3.0
MachLine results file. Generated by MachLine, USU AeroLab (c) 2022.
ASCII
DATASET POLYDATA
POINTS                7064 float
  0.000000000000E+00  0.000000000000E+00  0.000000000000E+00
  0.389988087118E-01  0.000000000000E+00 -0.109218262136E+00
  0.389988087118E-01  0.000000000000E+00  0.109218262136E+00
  0.147665724158E+00  0.000000000000E+00 -0.234920635819E+00
  0.147665724158E+00  0.000000000000E+00  0.234920635819E+00
  0.161138445139E+00  0.161138445139E+00  0.000000000000E+00
  0.200137257576E+00  0.161138445139E+00 -0.109218269587E+00
  0.200137257576E+00  0.161138445139E+00  0.109218269587E+00
  0.290265858173E+00  0.000000000000E+00 -0.347333192825E+00
  0.290265858173E+00  0.000000000000E+00  0.347333192825E+00
  0.308804154396E+00  0.161138445139E+00 -0.234920650721E+00
  0.308804154396E+00  0.161138445139E+00  0.234920650721E+00
  0.335006117821E+00  0.335006117821E+00  0.000000000000E+00
  0.374004930258E+00  0.335006117821E+00 -0.109218277037E+00
  0.374004930258E+00  0.335006117821E+00  0.109218277037E+00
  0.451404303312E+00  0.161138445139E+00 -0.347333222628E+00
  0.451404303312E+00  0.161138445139E+00  0.347333222628E+00
  0.473465979099E+00  0.000000000000E+00 -0.436293870211E+00
  0.473465979099E+00  0.000000000000E+00  0.436293870211E+00
  0.482671856880E+00  0.335006117821E+00 -0.234920650721E+00
  0.482671856880E+00  0.335006117821E+00  0.234920650721E+00
  0.522506594658E+00  0.522506594658E+00  0.000000000000E+00
  0.561505436897E+00  0.522506594658E+00 -0.109218284488E+00
  0.561505436897E+00  0.522506594658E+00  0.109218284488E+00
  0.625271975994E+00  0.335006117821E+00 -0.347333222628E+00
  0.625271975994E+00  0.335006117821E+00  0.347333222628E+00
  0.634604454041E+00  0.161138445139E+00 -0.436293900013E+00
  0.634604454041E+00  0.161138445139E+00  0.436293900013E+00
  0.670172333717E+00  0.522506594658E+00 -0.234920665622E+00
  0.670172333717E+00  0.522506594658E+00  0.234920665622E+00
  0.689334988594E+00  0.000000000000E+00 -0.522850036621E+00
  0.689334988594E+00  0.000000000000E+00  0.522850036621E+00
  0.724590361118E+00  0.724590361118E+00  0.000000000000E+00
  0.763589203358E+00  0.724590361118E+00 -0.109218291938E+00
  0.763589203358E+00  0.724590361118E+00  0.109218291938E+00
  0.808472156525E+00  0.335006117821E+00 -0.436293929815E+00
  0.808472156525E+00  0.335006117821E+00  0.436293929815E+00
  0.812772512436E+00  0.522506594658E+00 -0.347333252430E+00
  0.812772512436E+00  0.522506594658E+00  0.347333252430E+00
  0.850473463535E+00  0.161138445139E+00 -0.522850036621E+00
  0.850473463535E+00  0.161138445139E+00  0.522850036621E+00
  0.872256100178E+00  0.724590361118E+00 -0.234920680523E+00
  0.872256100178E+00  0.724590361118E+00  0.234920680523E+00
  0.942254066467E+00  0.942254066467E+00  0.000000000000E+00
  0.944064557552E+00  0.000000000000E+00 -0.604293465614E+00
  0.944064557552E+00  0.000000000000E+00  0.604293465614E+00
  0.981252849102E+00  0.942254066467E+00 -0.109218299389E+00
  0.981252849102E+00  0.942254066467E+00  0.109218299389E+00
  0.995972692966E+00  0.522506594658E+00 -0.436293959618E+00
  0.995972692966E+00  0.522506594658E+00  0.436293959618E+00
  0.101485633850E+01  0.724590361118E+00 -0.347333282232E+00
  0.101485633850E+01  0.724590361118E+00  0.347333282232E+00
  0.102434122562E+01  0.335006117821E+00 -0.522850096226E+00
  0.102434122562E+01  0.335006117821E+00  0.522850096226E+00
  0.108991980553E+01  0.942254066467E+00 -0.234920710325E+00
  0.108991980553E+01  0.942254066467E+00  0.234920710325E+00
  0.110520303249E+01  0.161138445139E+00 -0.604293525219E+00
  0.110520303249E+01  0.161138445139E+00  0.604293525219E+00
  0.117653930187E+01  0.117653930187E+01  0.000000000000E+00
  0.119805645943E+01  0.724590361118E+00 -0.436293989420E+00
  0.119805645943E+01  0.724590361118E+00  0.436293989420E+00
  0.121184170246E+01  0.522506594658E+00 -0.522850096226E+00
  0.121184170246E+01  0.522506594658E+00  0.522850096226E+00
  0.121553814411E+01  0.117653930187E+01 -0.109218306839E+00
  0.121553814411E+01  0.117653930187E+01  0.109218306839E+00
  0.123251998425E+01  0.942254066467E+00 -0.347333312035E+00
  0.123251998425E+01  0.942254066467E+00  0.347333312035E+00
  0.123833239079E+01  0.000000000000E+00 -0.683996438980E+00
  0.123833239079E+01  0.000000000000E+00  0.683996438980E+00
  0.127907073498E+01  0.335006117821E+00 -0.604293525219E+00
  0.127907073498E+01  0.335006117821E+00  0.604293525219E+00
  0.132420504093E+01  0.117653930187E+01 -0.234920725226E+00
  0.132420504093E+01  0.117653930187E+01  0.234920725226E+00
  0.139947092533E+01  0.161138445139E+00 -0.683996498585E+00
  0.139947092533E+01  0.161138445139E+00  0.683996498585E+00
  0.141392552853E+01  0.724590361118E+00 -0.522850155830E+00
  0.141392552853E+01  0.724590361118E+00  0.522850155830E+00
  0.141572022438E+01  0.942254066467E+00 -0.436294019222E+00
  0.141572022438E+01  0.942254066467E+00  0.436294019222E+00
  0.142853081226E+01  0.142853081226E+01  0.000000000000E+00
  0.146657133102E+01  0.522506594658E+00 -0.604293584824E+00
  0.146657133102E+01  0.522506594658E+00  0.604293584824E+00
  0.146680521965E+01  0.117653930187E+01 -0.347333341837E+00
  0.146680521965E+01  0.117653930187E+01  0.347333341837E+00
  0.146752965450E+01  0.142853081226E+01 -0.109218314290E+00
  0.146752965450E+01  0.142853081226E+01  0.109218314290E+00
  0.157333862782E+01  0.335006117821E+00 -0.683996558189E+00
  0.157333862782E+01  0.335006117821E+00  0.683996558189E+00
  0.157619655132E+01  0.142853081226E+01 -0.234920740128E+00
  0.157619655132E+01  0.142853081226E+01  0.234920740128E+00
  0.157641971111E+01  0.000000000000E+00 -0.760520398617E+00
  0.157641971111E+01  0.000000000000E+00  0.760520398617E+00
  0.163158929348E+01  0.942254066467E+00 -0.522850155830E+00
  0.163158929348E+01  0.942254066467E+00  0.522850155830E+00
  0.165000545979E+01  0.117653930187E+01 -0.436294049025E+00
  0.165000545979E+01  0.117653930187E+01  0.436294049025E+00
  0.166865515709E+01  0.724590361118E+00 -0.604293584824E+00
  0.166865515709E+01  0.724590361118E+00  0.604293584824E+00
  0.169935321808E+01  0.169935321808E+01  0.000000000000E+00
  0.171879673004E+01  0.142853081226E+01 -0.347333371639E+00
  0.171879673004E+01  0.142853081226E+01  0.347333371639E+00
  0.173755824566E+01  0.161138445139E+00 -0.760520458221E+00
  0.173755824566E+01  0.161138445139E+00  0.760520458221E+00
  0.173835194111E+01  0.169935321808E+01 -0.109218329191E+00
  0.173835194111E+01  0.169935321808E+01  0.109218329191E+00
  0.176083922386E+01  0.522506594658E+00 -0.683996558189E+00
  0.176083922386E+01  0.522506594658E+00  0.683996558189E+00
  0.184701895714E+01  0.169935321808E+01 -0.234920755029E+00
  0.184701895714E+01  0.169935321808E+01  0.234920755029E+00
  0.186587452888E+01  0.117653930187E+01 -0.522850215435E+00
  0.186587452888E+01  0.117653930187E+01  0.522850215435E+00
  0.188631892204E+01  0.942254066467E+00 -0.604293644428E+00
  0.188631892204E+01  0.942254066467E+00  0.604293644428E+00
  0.190199697018E+01  0.142853081226E+01 -0.436294078827E+00
  0.190199697018E+01  0.142853081226E+01  0.436294078827E+00
  0.191142594814E+01  0.335006117821E+00 -0.760520458221E+00
  0.191142594814E+01  0.335006117821E+00  0.760520458221E+00
  0.196138751507E+01  0.000000000000E+00 -0.833668828011E+00
  0.196138751507E+01  0.000000000000E+00  0.833668828011E+00
  0.196292304993E+01  0.724590361118E+00 -0.683996617794E+00
  0.196292304993E+01  0.724590361118E+00  0.683996617794E+00
  0.198961913586E+01  0.169935321808E+01 -0.347333401442E+00
  0.198961913586E+01  0.169935321808E+01  0.347333401442E+00
  0.199016737938E+01  0.199016737938E+01  0.000000000000E+00
  0.202916622162E+01  0.199016737938E+01 -0.109218336642E+00
  0.202916622162E+01  0.199016737938E+01  0.109218336642E+00
  0.209892654419E+01  0.522506594658E+00 -0.760520517826E+00
  0.209892654419E+01  0.522506594658E+00  0.760520517826E+00
  0.211786603928E+01  0.142853081226E+01 -0.522850275040E+00
  0.211786603928E+01  0.142853081226E+01  0.522850275040E+00
  0.212060427666E+01  0.117653930187E+01 -0.604293704033E+00
  0.212060427666E+01  0.117653930187E+01  0.604293704033E+00
  0.212252616882E+01  0.161138445139E+00 -0.833668828011E+00
  0.212252616882E+01  0.161138445139E+00  0.833668828011E+00
  0.213783311844E+01  0.199016737938E+01 -0.234920784831E+00
  0.213783311844E+01  0.199016737938E+01  0.234920784831E+00
  0.217281937599E+01  0.169935321808E+01 -0.436294138432E+00
  0.217281937599E+01  0.169935321808E+01  0.436294138432E+00
  0.218058681488E+01  0.942254066467E+00 -0.683996677399E+00
  0.218058681488E+01  0.942254066467E+00  0.683996677399E+00
  0.228043341637E+01  0.199016737938E+01 -0.347333431244E+00
  0.228043341637E+01  0.199016737938E+01  0.347333431244E+00
  0.229639387131E+01  0.335006117821E+00 -0.833668887615E+00
  0.229639387131E+01  0.335006117821E+00  0.833668887615E+00
  0.230101037025E+01  0.724590361118E+00 -0.760520577431E+00
  0.230101037025E+01  0.724590361118E+00  0.760520577431E+00
  0.230216526985E+01  0.230216526985E+01  0.000000000000E+00
  0.234116411209E+01  0.230216526985E+01 -0.109218344092E+00
  0.234116411209E+01  0.230216526985E+01  0.109218344092E+00
  0.237259578705E+01  0.142853081226E+01 -0.604293763638E+00
  0.237259578705E+01  0.142853081226E+01  0.604293763638E+00
  0.238868856430E+01  0.169935321808E+01 -0.522850275040E+00
  0.238868856430E+01  0.169935321808E+01  0.522850275040E+00
  0.239635515213E+01  0.000000000000E+00 -0.902061045170E+00
  0.239635515213E+01  0.000000000000E+00  0.902061045170E+00
  0.241487216949E+01  0.117653930187E+01 -0.683996737003E+00
  0.241487216949E+01  0.117653930187E+01  0.683996737003E+00
  0.244983124733E+01  0.230216526985E+01 -0.234920799732E+00
  0.244983124733E+01  0.230216526985E+01  0.234920799732E+00
  0.246363353729E+01  0.199016737938E+01 -0.436294168234E+00
  0.246363353729E+01  0.199016737938E+01  0.436294168234E+00
[...]
CELL_DATA               13888
SCALARS C_p_inc float 1
LOOKUP_TABLE default
  0.296028119987E+00
  0.234588332642E+00
  0.210830289776E+00
  0.182563468221E+00
  0.177814765586E+00
  0.162605127320E+00
  0.158941004278E+00
  0.150045630134E+00
  0.146753206506E+00
  0.141030368019E+00
  0.137959245587E+00
  0.134030746393E+00
  0.131159330997E+00
  0.128338632105E+00
  0.125642279857E+00
  0.123530472720E+00
  0.120903300468E+00
  0.119216972086E+00
  0.116448398112E+00
  0.114976019559E+00
  0.112136721570E+00
  0.110870463366E+00
  0.108307764219E+00
  0.107305962609E+00
  0.104908175464E+00
  0.104022635527E+00
  0.100886673443E+00
  0.998046397578E-01
  0.970423087713E-01
  0.962545740231E-01
  0.935299367790E-01
  0.926759463441E-01
  0.888387039372E-01
  0.876970027404E-01
  0.865807346975E-01
  0.864257539109E-01
  0.856121010169E-01
  0.851351130360E-01
  0.872937185374E-01
  0.878983529823E-01
  0.916056112921E-01
  0.910955241629E-01
  0.995401948949E-01
  0.978519722704E-01
  0.112857440832E+00
  0.110070461880E+00
  0.127611893711E+00
  0.124298705299E+00
  0.156894025415E+00
  0.149405083757E+00
  0.193803443759E+00
  0.185091970426E+00
  0.233065175902E+00
  0.223234720541E+00
  0.273883997256E+00
  0.263047163209E+00
  0.315195621419E+00
  0.303534377217E+00
  0.355874992687E+00
  0.343373560340E+00
  0.398546453908E+00
  0.384084441914E+00
  0.446183942287E+00
  0.429236063912E+00
  0.498067778903E+00
  0.479193024220E+00
  0.555606139127E+00
  0.534940233673E+00
  0.616731706179E+00
  0.595774444526E+00
  0.687740460601E+00
  0.667977153677E+00
  0.761452347039E+00
  0.748692923932E+00
  0.836137872207E+00
  0.841844340705E+00
  0.854677540272E+00
  0.856530897067E+00
  0.720753803645E+00
  0.598306259518E+00
  0.127354703027E+00
  0.340546936311E+00
 -0.205535298801E+00
  0.355777218479E-01
 -0.482167099399E+00
 -0.225086966008E+00
 -0.584152735211E+00
 -0.415332982181E+00
 -0.563712067336E+00
 -0.454547314634E+00
 -0.574270534574E+00
 -0.507301370695E+00
 -0.576870829038E+00
 -0.529849427952E+00
 -0.586592361815E+00
 -0.554954387476E+00
 -0.593214146196E+00
 -0.571142139873E+00
 -0.596839748127E+00
 -0.582952743474E+00
 -0.597067977695E+00
 -0.587902423330E+00
 -0.601005768457E+00
 -0.593010992250E+00
 -0.609482011077E+00
 -0.602722419490E+00
 -0.618031759578E+00
 -0.612904117020E+00
 -0.624270863775E+00
 -0.620906378283E+00
 -0.626860134574E+00
 -0.625342666191E+00
 -0.611467141596E+00
 -0.617150107665E+00
 -0.580125422395E+00
 -0.585556403749E+00
 -0.549570164942E+00
 -0.556019276790E+00
 -0.513639403249E+00
 -0.521255818012E+00
 -0.483231336028E+00
 -0.476628030478E+00
 -0.447437176766E+00
 -0.439594513157E+00
 -0.408552229775E+00
 -0.401595843365E+00
 -0.372784622316E+00
 -0.364633391977E+00
 -0.334304770533E+00
 -0.326796126138E+00
 -0.300488329864E+00
 -0.293171724423E+00
 -0.268925539213E+00
 -0.261203618730E+00
 -0.238401508171E+00
 -0.230876223663E+00
 -0.210900567005E+00
 -0.203044443290E+00
 -0.184525006469E+00
 -0.176059581090E+00
 -0.158784473765E+00
 -0.149700725338E+00
 -0.134066857263E+00
 -0.124250127345E+00
 -0.110294690090E+00
 -0.993582080170E-01
 -0.867963733340E-01
 -0.742586433361E-01
 -0.629838681334E-01
 -0.482180863961E-01
 -0.382682970360E-01
 -0.203179143856E-01
 -0.117884148799E-01
  0.109976101801E-01
  0.181101362408E-01
  0.486518300830E-01
  0.555009166565E-01
  0.945378189412E-01
  0.132316331626E+00
  0.140799329636E+00
  0.245678589568E+00
  0.291042856559E+00
  0.207714511686E+00
  0.210249116294E+00
  0.185809541721E+00
  0.177697608337E+00
  0.167199072432E+00
  0.158905587662E+00
  0.152923308168E+00
  0.146738003543E+00
  0.142360471170E+00
  0.137951204764E+00
  0.134344723934E+00
  0.131154478541E+00
  0.128017229411E+00
  0.125639031092E+00
  0.122751700570E+00
  0.120901000515E+00
  0.117969014501E+00
  0.116447009768E+00
  0.113417522538E+00
  0.112136256584E+00
  0.109366408696E+00
  0.108307765813E+00
  0.105829647255E+00
  0.104908387321E+00
  0.101803500434E+00
  0.100887804840E+00
  0.978151596719E-01
  0.970431282242E-01
  0.942571906020E-01
  0.935308356584E-01
  0.895519471912E-01
  0.888391552364E-01
  0.867692715879E-01
  0.865730120155E-01
  0.856278175365E-01
  0.855993406096E-01
  0.866472814200E-01
  0.872659388422E-01
  0.910819598179E-01
  0.900530165290E-01
  0.978489595944E-01
  0.958703957666E-01
  0.110088644221E+00
  0.107039254196E+00
  0.124333499098E+00
  0.120144511859E+00
  0.149551013229E+00
  0.142791618164E+00
  0.185229607177E+00
  0.177145926829E+00
  0.223299042578E+00
  0.214407810185E+00
  0.262946277876E+00
  0.253508809178E+00
  0.303150856405E+00
  0.293386988753E+00
  0.342591586402E+00
  0.332565420589E+00
  0.382650866774E+00
  0.372188497734E+00
  0.426518356049E+00
  0.415759505476E+00
  0.474185740191E+00
  0.463734401265E+00
  0.525813596669E+00
  0.516548328630E+00
  0.579842821945E+00
  0.572792951097E+00
  0.638713056909E+00
  0.635154221945E+00
  0.697164003361E+00
  0.696934554800E+00
  0.744752267844E+00
  0.740923756393E+00
  0.713294662546E+00
  0.683213659352E+00
  0.466023732706E+00
  0.363552140797E+00
 -0.981697532431E-01
  0.195117885801E-01
 -0.370877567361E+00
 -0.227045699439E+00
 -0.624723414266E+00
 -0.472337378659E+00
 -0.706586736202E+00
 -0.571189329247E+00
 -0.656601826451E+00
 -0.559327996598E+00
 -0.646405554753E+00
 -0.573983760930E+00
 -0.631090901456E+00
 -0.578077733398E+00
 -0.627594310587E+00
 -0.588552856115E+00
 -0.623672139880E+00
 -0.595317612978E+00
 -0.619051239917E+00
 -0.598882846788E+00
 -0.613436952179E+00
 -0.598765750759E+00
 -0.613835654456E+00
 -0.602328705024E+00
 -0.619725807137E+00
 -0.610622373198E+00
 -0.625886452725E+00
 -0.619094478411E+00
 -0.629721740366E+00
 -0.625310558929E+00
 -0.629375376333E+00
 -0.627974876163E+00
 -0.609255543302E+00
 -0.612626844956E+00
 -0.576189542131E+00
 -0.580967286698E+00
 -0.544242747638E+00
 -0.550258430797E+00
 -0.507194933558E+00
 -0.514167061827E+00
 -0.476611955455E+00
 -0.470271313350E+00
 -0.439526489535E+00
 -0.432499888064E+00
 -0.401540143939E+00
 -0.394512363710E+00
 -0.364558397044E+00
 -0.356947339143E+00
 -0.326742322223E+00
 -0.319224395912E+00
 -0.293129914708E+00
 -0.285579797536E+00
 -0.261168486747E+00
 -0.253366618116E+00
 -0.230853481042E+00
 -0.222909396596E+00
 -0.203027524581E+00
 -0.194674895567E+00
 -0.176048544007E+00
 -0.167085519891E+00
 -0.149696864385E+00
 -0.140003421719E+00
 -0.124252719459E+00
 -0.113605796280E+00
 -0.993665977767E-01
 -0.873917278832E-01
 -0.742742618587E-01
 -0.604843292499E-01
 -0.482445917002E-01
 -0.320072909205E-01
 -0.203634784102E-01
 -0.908501182453E-03
  0.109103107969E-01
  0.339496594611E-01
  0.484399412942E-01
  0.726275728875E-01
  0.939218003671E-01
  0.115305325914E+00
  0.139937907088E+00
  0.198323296940E+00
  0.240049425564E+00
  0.246487327161E+00
  0.198129756270E+00
  0.207126158327E+00
  0.183095003159E+00
  0.185492139234E+00
  0.169804279824E+00
  0.167074693059E+00
  0.157356774332E+00
  0.152872872315E+00
  0.146491992728E+00
  0.142336467408E+00
  0.137646208303E+00
  0.134331428102E+00
  0.130564870886E+00
  0.128008932508E+00
  0.124736084819E+00
  0.122746118111E+00
  0.119567123499E+00
  0.117965430202E+00
  0.114745934197E+00
  0.113415748703E+00
  0.110474562225E+00
  0.109365845157E+00
  0.106772512738E+00
  0.105829688563E+00
  0.102670781633E+00
  0.101804661299E+00
  0.985766065467E-01
  0.978169905246E-01
  0.949163202514E-01
  0.942590552729E-01
  0.901249751378E-01
  0.895531558364E-01
  0.869696591202E-01
  0.867618807048E-01
  0.855035194843E-01
  0.856115824520E-01
  0.859925197600E-01
  0.866099203142E-01
  0.900641364505E-01
  0.888724181314E-01
  0.959186384010E-01
  0.939020357999E-01
  0.107141235303E+00
  0.104084594507E+00
  0.120327434727E+00
  0.116097057207E+00
  0.143100519054E+00
  0.137026353453E+00
  0.177391578746E+00
  0.169999889883E+00
  0.214461890691E+00
  0.206433201762E+00
  0.253229014739E+00
  0.244910285761E+00
  0.292616544548E+00
  0.284270934267E+00
  0.331154479611E+00
  0.322946145223E+00
  0.369840113680E+00
  0.361884671619E+00
  0.411843079203E+00
  0.404394713400E+00
  0.457382622581E+00
  0.450912229083E+00
  0.506493521927E+00
  0.501628635277E+00
  0.557539687411E+00
  0.554751705591E+00
  0.612111227511E+00
  0.611495095265E+00
  0.663977405891E+00
  0.663690814233E+00
  0.697291159275E+00
  0.688412352470E+00
  0.636381039465E+00
  0.600693990776E+00
  0.329914944466E+00
  0.236816397669E+00
 -0.252676091000E+00
 -0.152813184784E+00
 -0.503324080953E+00
 -0.385308416236E+00
 -0.744495478546E+00
 -0.618422027191E+00
 -0.808229474552E+00
 -0.691863392089E+00
 -0.736360254136E+00
 -0.647732601266E+00
 -0.710730089819E+00
 -0.640876671273E+00
 -0.681916323104E+00
 -0.628315333656E+00
 -0.667787098258E+00
 -0.626512978138E+00
 -0.654925825719E+00
 -0.623681475750E+00
 -0.643125483184E+00
 -0.619680092249E+00
 -0.632087541929E+00
 -0.614278939212E+00
 -0.628607859062E+00
 -0.614696566867E+00
 -0.631481736525E+00
 -0.620630839720E+00
 -0.634921733984E+00
 -0.626892800687E+00
 -0.636027286630E+00
 -0.630888751672E+00
 -0.632291292956E+00
 -0.630848959133E+00
 -0.608465478491E+00
 -0.610911155332E+00
 -0.573216654333E+00
 -0.577584997594E+00
 -0.539630588166E+00
 -0.545463665068E+00
 -0.501424161724E+00
 -0.508191769418E+00
 -0.470212694869E+00
 -0.464056359663E+00
 -0.432385384515E+00
 -0.425641767832E+00
 -0.394395203245E+00
 -0.387329272567E+00
 -0.356827311827E+00
 -0.349324063720E+00
 -0.319131456123E+00
 -0.311537506056E+00
 -0.285504309859E+00
 -0.277734696308E+00
 -0.253308453626E+00
 -0.245280844800E+00
 -0.222867949975E+00
 -0.214544074167E+00
 -0.194644148349E+00
 -0.185819193354E+00
 -0.167066584575E+00
 -0.157574885671E+00
 -0.139997358590E+00
 -0.129673461522E+00
 -0.113611813661E+00
 -0.102195764221E+00
 -0.874109094871E-01
 -0.745603398268E-01
 -0.605222369599E-01
 -0.458780447558E-01
 -0.320769786889E-01
 -0.154189765213E-01
 -0.104136133696E-02
  0.172074511966E-01
  0.336751924655E-01
  0.517850723165E-01
  0.720599595325E-01
  0.884369706479E-01
  0.114246375702E+00
  0.129307652346E+00
  0.194041560813E+00
  0.197621898709E+00
  0.251188650589E+00
  0.240055526680E+00
  0.197350287598E+00
  0.197969701330E+00
  0.180250257454E+00
  0.182854978417E+00
  0.168639338800E+00
  0.169628241970E+00
  0.158637227945E+00
  0.157259581059E+00
  0.149160231621E+00
  0.146442394710E+00
  0.140500534989E+00
  0.137619549590E+00
  0.133059830102E+00
  0.130549135200E+00
  0.126777882829E+00
  0.124726049513E+00
  0.121226428324E+00
  0.119560768075E+00
  0.116117631606E+00
  0.114742469219E+00
  0.111620579722E+00
  0.110473079008E+00
  0.107737859182E+00
  0.106772150488E+00
  0.103517847604E+00
  0.102671878151E+00
  0.993198455438E-01
  0.985788968898E-01
  0.955327825901E-01
  0.949186523383E-01
  0.906154936160E-01
  0.901264175887E-01
  0.871686757363E-01
  0.869636154089E-01
  0.853214143257E-01
  0.854857980875E-01
  0.853446231415E-01
  0.859542561498E-01
  0.889004800113E-01
  0.876540480681E-01
  0.939750816691E-01
  0.919837820235E-01
  0.104220501127E+00
  0.101252063220E+00
  0.116325561022E+00
  0.112238573703E+00
  0.137342884167E+00
  0.131855973111E+00
  0.170213823156E+00
  0.163537471971E+00
  0.206384761476E+00
  0.199171506672E+00
  0.244440103679E+00
  0.237106355625E+00
  0.283215990738E+00
  0.276060919615E+00
  0.321157532027E+00
  0.314395967379E+00
  0.359105014663E+00
  0.352945907302E+00
  0.400121608386E+00
  0.394841413435E+00
  0.444507205605E+00
  0.440434880201E+00
  0.492276870456E+00
  0.489749164959E+00
  0.541671116571E+00
  0.540767138757E+00
  0.593556347365E+00
  0.593707554798E+00
  0.640601071056E+00
  0.639303230969E+00
  0.662153107809E+00
  0.650443150946E+00
  0.577196209006E+00
  0.539525427192E+00
  0.222887665467E+00
  0.135444596366E+00
 -0.382415441157E+00
 -0.290961458065E+00
 -0.617852797627E+00
 -0.513133926319E+00
 -0.850176090778E+00
 -0.738506125784E+00
 -0.899143359646E+00
 -0.794627097483E+00
 -0.808961346398E+00
 -0.726870998858E+00
 -0.770569477794E+00
 -0.703813380149E+00
 -0.730489828325E+00
 -0.677592849304E+00
 -0.707273031822E+00
 -0.665266082315E+00
 -0.686638559757E+00
 -0.653739544499E+00
 -0.668418582689E+00
 -0.642818372009E+00
 -0.652224138500E+00
 -0.632285715267E+00
 -0.644770648903E+00
 -0.629094824237E+00
 -0.644414510237E+00
 -0.632209044350E+00
 -0.644895633554E+00
 -0.635910434172E+00
 -0.642975864986E+00
 -0.637338569339E+00
 -0.635711199933E+00
 -0.634055680372E+00
 -0.608603414640E+00
 -0.610419758051E+00
 -0.570944606655E+00
 -0.574987782595E+00
 -0.535560275104E+00
 -0.541231813718E+00
 -0.496109113769E+00
 -0.502771270303E+00
 -0.464001946713E+00
 -0.457998952893E+00
 -0.425515162534E+00
 -0.418920124684E+00
 -0.387178912299E+00
 -0.380093714343E+00
 -0.349173371785E+00
 -0.341689581708E+00
 -0.311413482732E+00
 -0.303708904154E+00
 -0.277630481452E+00
 -0.269652236741E+00
 -0.245199431541E+00
 -0.236905845352E+00
 -0.214483284245E+00
 -0.205778498675E+00
 -0.185773805302E+00
 -0.176491819351E+00
 -0.157546763223E+00
 -0.147535831081E+00
 -0.129664240654E+00
 -0.118747555453E+00
 -0.102206189094E+00
 -0.901652097412E-01
 -0.745951615217E-01
 -0.612493147467E-01
 -0.459506912412E-01
 -0.313393394807E-01
 -0.155587379801E-01
 -0.273996974216E-03
  0.169423963450E-01
  0.315349420821E-01
  0.512998938594E-01
  0.635770388928E-01
  0.875824079068E-01
  0.958945432445E-01
  0.127756492159E+00
  0.128805733086E+00
  0.194724633400E+00
  0.177541105331E+00
  0.235879128549E+00
  0.249883456019E+00
  0.193563727801E+00
  0.197048687145E+00
  0.178044626701E+00
  0.180065997400E+00
  0.166960257103E+00
  0.168486698631E+00
  0.158050444665E+00
  0.158522297077E+00
  0.149988071542E+00
  0.149086418396E+00
  0.142293410424E+00
  0.140456929188E+00
  0.135127751978E+00
  0.133033882811E+00
  0.128703580786E+00
  0.126761733958E+00
  0.122879818483E+00
  0.121216333921E+00
  0.117508165147E+00
  0.116111869814E+00
  0.112789594024E+00
  0.111617742827E+00
  0.108721227068E+00
  0.107736794689E+00
  0.104358569956E+00
  0.103518691985E+00
  0.100043376460E+00
  0.993223128926E-01
  0.961208666645E-01
  0.955355217639E-01
  0.910527775518E-01
  0.906173561920E-01
  0.873536661381E-01
  0.871641414928E-01
  0.851264566747E-01
  0.853043216240E-01
  0.847091299883E-01
  0.853082061628E-01
  0.876922944699E-01
  0.864571667311E-01
  0.920694172882E-01
  0.901373980148E-01
  0.101400543576E+00
  0.985782492486E-01
  0.112475736734E+00
  0.108627664777E+00
  0.132147518635E+00
  0.127180855903E+00
  0.163699213057E+00
  0.157756283623E+00
  0.199031842522E+00
  0.192626564469E+00
  0.236500509576E+00
  0.230083472143E+00
  0.274832325663E+00
  0.268725085625E+00
  0.312412716089E+00
  0.306850630118E+00
  0.350005325702E+00
  0.345220323228E+00
  0.390571789913E+00
  0.386818399060E+00
  0.434398447627E+00
  0.431887487049E+00
  0.481441021814E+00
  0.480289796689E+00
  0.529815422672E+00
  0.529835098849E+00
  0.579664576101E+00
  0.579923427611E+00
  0.622566563790E+00
  0.620278790524E+00
  0.633564305831E+00
  0.620135053589E+00
  0.527209601531E+00
  0.488879318007E+00
  0.130324688746E+00
  0.468884278387E-01
 -0.498403124915E+00
 -0.411532045364E+00
 -0.721508932881E+00
 -0.624769235220E+00
 -0.946924548919E+00
 -0.844387448390E+00
 -0.983087024535E+00
 -0.886688634977E+00
 -0.876670153392E+00
 -0.799618582188E+00
 -0.827153895176E+00
 -0.763231994150E+00
 -0.777227228349E+00
 -0.725425937719E+00
 -0.746025177352E+00
 -0.703905455393E+00
 -0.718476328202E+00
 -0.684628181579E+00
 -0.694398694005E+00
 -0.667400669655E+00
 -0.673279740617E+00
 -0.651899932390E+00
 -0.661852404479E+00
 -0.644931888546E+00
 -0.658159144142E+00
 -0.644984257810E+00
 -0.655519542771E+00
 -0.645879821666E+00
 -0.650372348860E+00
 -0.644434765513E+00
 -0.639674770161E+00
 -0.637702562401E+00
 -0.609443710116E+00
 -0.610792906591E+00
 -0.569249355178E+00
 -0.573017474068E+00
 -0.531967945778E+00
 -0.537473548033E+00
 -0.491148375625E+00
 -0.497757313298E+00
 -0.457976961938E+00
 -0.452110861849E+00
 -0.418801348244E+00
 -0.412284101516E+00
 -0.379929804807E+00
 -0.372840922906E+00
 -0.341521088820E+00
 -0.334011332597E+00
 -0.303562578700E+00
 -0.295726385506E+00
 -0.269526004597E+00
 -0.261339868437E+00
 -0.236804920142E+00
 -0.228225722109E+00
 -0.205700958716E+00
 -0.196622958526E+00
 -0.176433919816E+00
 -0.166721944458E+00
 -0.147500432740E+00
 -0.137024247363E+00
 -0.118737709969E+00
 -0.107367401468E+00
 -0.901847028099E-01
 -0.778501502025E-01
 -0.613086681844E-01
 -0.481546728307E-01
 -0.314617362367E-01
 -0.180652201956E-01
 -0.499894444995E-03
  0.120539317646E-01
  0.311491113864E-01
  0.416187662318E-01
  0.629676668083E-01
  0.704404763881E-01
  0.950161141986E-01
  0.993848428363E-01
  0.127783376688E+00
  0.131334993747E+00
  0.177472691958E+00
  0.192037920984E+00
  0.229223128328E+00
  0.235944334291E+00
  0.188934138732E+00
  0.193328206571E+00
  0.174928723921E+00
  0.177858976023E+00
  0.164821757558E+00
  0.166820201276E+00
  0.156715920399E+00
  0.157940208843E+00
  0.149586461522E+00
  0.149904671838E+00
  0.142887106388E+00
  0.142235803150E+00
  0.136427082638E+00
  0.135090454592E+00
  0.130266807369E+00
  0.128679791224E+00
  0.124400342165E+00
  0.122864846641E+00
  0.118861706597E+00
  0.117499337658E+00
  0.113954667295E+00
  0.112784869214E+00
  0.109710516992E+00
  0.108719077154E+00
  0.105196403667E+00
  0.104358912838E+00
  0.100750817274E+00
  0.100045809094E+00
  0.966887579480E-01
  0.961239890120E-01
  0.914569378482E-01
  0.910553617317E-01
  0.875242567130E-01
  0.873509573577E-01
  0.849436521090E-01
  0.851120278377E-01
  0.841006200888E-01
  0.846769433237E-01
  0.865013889265E-01
  0.853216952306E-01
  0.902291052445E-01
  0.883921214500E-01
  0.987283627650E-01
  0.960959790278E-01
  0.108856149647E+00
  0.105308894981E+00
  0.127438158864E+00
  0.122972139061E+00
  0.157864086288E+00
  0.152638599351E+00
  0.192415346433E+00
  0.186807621107E+00
  0.229390957688E+00
  0.223836953765E+00
  0.267408020365E+00
  0.262239070344E+00
  0.304799839871E+00
  0.300258027254E+00
  0.342284750127E+00
  0.338596894245E+00
  0.382733987807E+00
  0.380113444969E+00
  0.426369586598E+00
  0.424934371256E+00
  0.473041569554E+00
  0.472754560586E+00
  0.520719532046E+00
  0.521215116028E+00
  0.568836493951E+00
  0.568978813105E+00
  0.607884729079E+00
  0.604769112051E+00
  0.609008601904E+00
  0.594477667482E+00
  0.482819249691E+00
  0.444373878712E+00
  0.463668241435E-01
 -0.340838596193E-01
 -0.605796468144E+00
 -0.521592099288E+00
 -0.818010687483E+00
 -0.726471892693E+00
 -0.103758578704E+01
 -0.941326412839E+00
 -0.106214448416E+01
 -0.971670652625E+00
 -0.940824814745E+00
 -0.867736108453E+00
 -0.881262576468E+00
 -0.819817523699E+00
 -0.822470671614E+00
 -0.771856246709E+00
 -0.784089043981E+00
 -0.742186575108E+00
 -0.750261185723E+00
 -0.715939514187E+00
 -0.720742788789E+00
 -0.692894010472E+00
 -0.694900102591E+00
 -0.672580849245E+00
 -0.679534465139E+00
 -0.661772634099E+00
 -0.672440154874E+00
 -0.658617592774E+00
 -0.666560161779E+00
 -0.656520382897E+00
 -0.658091465939E+00
 -0.651962309029E+00
 -0.644109495491E+00
 -0.641828011057E+00
 -0.610820754394E+00
 -0.611821401507E+00
 -0.568027997682E+00
 -0.571565923652E+00
 -0.528784843701E+00
 -0.534139405890E+00
 -0.486474539469E+00
 -0.493058094131E+00
 -0.452139768045E+00
 -0.446383148789E+00
 -0.412186851297E+00
 -0.405708239188E+00
 -0.372679243836E+00
 -0.365583871058E+00
 -0.333835953065E+00
 -0.326269401529E+00
 -0.295565995547E+00
 -0.287586283593E+00
 -0.261198018593E+00
 -0.252799862636E+00
 -0.228109447198E+00
 -0.219244378527E+00
 -0.196531895584E+00
 -0.187108338680E+00
 -0.166654313971E+00
 -0.156574206779E+00
 -0.136984434262E+00
 -0.126171846494E+00
 -0.107360875890E+00
 -0.958116302782E-01
 -0.778848530123E-01
 -0.657788296498E-01
 -0.482468287212E-01
 -0.360910241064E-01
 -0.182420116382E-01
 -0.688455186862E-02