# vtk DataFile Version 3.0
MachLine results file. Generated by MachLine, USU AeroLab (c) 2022.
ASCII
DATASET POLYDATA
POINTS                 144 float
  0.000000000000E+00  0.000000000000E+00  0.000000000000E+00
  0.113538098335E+01  0.000000000000E+00 -0.658124566078E+00
  0.113538098335E+01  0.000000000000E+00  0.658124566078E+00
  0.192375373840E+01  0.192375373840E+01  0.000000000000E+00
  0.305913543701E+01  0.192375373840E+01 -0.658124983311E+00
  0.305913543701E+01  0.192375373840E+01  0.658124983311E+00
  0.423028087616E+01  0.000000000000E+00 -0.108747220039E+01
  0.423028087616E+01  0.000000000000E+00  0.108747220039E+01
  0.547033166885E+01  0.547033166885E+01  0.000000000000E+00
  0.615403699875E+01  0.192375373840E+01 -0.108747279644E+01
  0.615403699875E+01  0.192375373840E+01  0.108747279644E+01
  0.660571479797E+01  0.547033166885E+01 -0.658125698566E+00
  0.660571479797E+01  0.547033166885E+01  0.658125698566E+00
  0.939508819580E+01  0.000000000000E+00 -0.980745851994E+00
  0.939508819580E+01  0.000000000000E+00  0.980745851994E+00
  0.970061969757E+01  0.547033166885E+01 -0.108747410774E+01
  0.970061969757E+01  0.547033166885E+01  0.108747410774E+01
  0.113188476562E+02  0.192375373840E+01 -0.980746448040E+00
  0.113188476562E+02  0.192375373840E+01  0.980746448040E+00
  0.113820018768E+02  0.113820018768E+02  0.000000000000E+00
  0.125173873901E+02  0.113820018768E+02 -0.658127009869E+00
  0.125173873901E+02  0.113820018768E+02  0.658127009869E+00
  0.145402030945E+02  0.000000000000E+00 -0.479613035917E+00
  0.145402030945E+02  0.000000000000E+00  0.479613035917E+00
  0.148654365540E+02  0.547033166885E+01 -0.980747580528E+00
  0.148654365540E+02  0.547033166885E+01  0.980747580528E+00
  0.156122989655E+02  0.113820018768E+02 -0.108747613430E+01
  0.156122989655E+02  0.113820018768E+02  0.108747613430E+01
  0.164639663696E+02  0.192375373840E+01 -0.479613333941E+00
  0.164639663696E+02  0.192375373840E+01  0.479613333941E+00
  0.176505107880E+02  0.000000000000E+00 -0.144198849797E+00
  0.176505107880E+02  0.000000000000E+00  0.144198849797E+00
  0.190000000000E+02  0.000000000000E+00  0.000000000000E+00
  0.195742740631E+02  0.192375373840E+01 -0.144198939204E+00
  0.195742740631E+02  0.192375373840E+01  0.144198939204E+00
  0.197561950684E+02  0.197561950684E+02  0.000000000000E+00
  0.200105609894E+02  0.547033166885E+01 -0.479613870382E+00
  0.200105609894E+02  0.547033166885E+01  0.479613870382E+00
  0.207771244049E+02  0.113820018768E+02 -0.980749428272E+00
  0.207771244049E+02  0.113820018768E+02  0.980749428272E+00
  0.208915824890E+02  0.197561950684E+02 -0.658128738403E+00
  0.208915824890E+02  0.197561950684E+02  0.658128738403E+00
  0.209237651825E+02  0.192375373840E+01  0.000000000000E+00
  0.231208724976E+02  0.547033166885E+01 -0.144199103117E+00
  0.231208724976E+02  0.547033166885E+01  0.144199103117E+00
  0.239865016937E+02  0.197561950684E+02 -0.108747911453E+01
  0.239865016937E+02  0.197561950684E+02  0.108747911453E+01
  0.244703655243E+02  0.547033166885E+01  0.000000000000E+00
  0.259222583771E+02  0.113820018768E+02 -0.479614794254E+00
  0.259222583771E+02  0.113820018768E+02  0.479614794254E+00
  0.290325775146E+02  0.113820018768E+02 -0.144199386239E+00
  0.290325775146E+02  0.113820018768E+02  0.144199386239E+00
  0.291513423920E+02  0.197561950684E+02 -0.980752110481E+00
  0.291513423920E+02  0.197561950684E+02  0.980752110481E+00
  0.292438049316E+02  0.292438049316E+02  0.000000000000E+00
  0.303791980743E+02  0.292438049316E+02 -0.658130764961E+00
  0.303791980743E+02  0.292438049316E+02  0.658130764961E+00
  0.303820724487E+02  0.113820018768E+02  0.000000000000E+00
  0.334741249084E+02  0.292438049316E+02 -0.108748245239E+01
  0.334741249084E+02  0.292438049316E+02  0.108748245239E+01
  0.342964897156E+02  0.197561950684E+02 -0.479616105556E+00
  0.342964897156E+02  0.197561950684E+02  0.479616105556E+00
  0.374068183899E+02  0.197561950684E+02 -0.144199773669E+00
  0.374068183899E+02  0.197561950684E+02  0.144199773669E+00
  0.376179962158E+02  0.376179962158E+02  0.000000000000E+00
  0.386389808655E+02  0.292438049316E+02 -0.980755090714E+00
  0.386389808655E+02  0.292438049316E+02  0.980755090714E+00
  0.387533912659E+02  0.376179962158E+02 -0.658132553101E+00
  0.387533912659E+02  0.376179962158E+02  0.658132553101E+00
  0.387563171387E+02  0.197561950684E+02  0.000000000000E+00
  0.418483314514E+02  0.376179962158E+02 -0.108748543262E+01
  0.418483314514E+02  0.376179962158E+02  0.108748543262E+01
  0.435296669006E+02  0.435296669006E+02  0.000000000000E+00
  0.437841453552E+02  0.292438049316E+02 -0.479617565870E+00
  0.437841453552E+02  0.292438049316E+02  0.479617565870E+00
  0.446650657654E+02  0.435296669006E+02 -0.658133804798E+00
  0.446650657654E+02  0.435296669006E+02  0.658133804798E+00
  0.468944816589E+02  0.292438049316E+02 -0.144200220704E+00
  0.468944816589E+02  0.292438049316E+02  0.144200220704E+00
  0.470131988525E+02  0.376179962158E+02 -0.980757772923E+00
  0.470131988525E+02  0.376179962158E+02  0.980757772923E+00
  0.470762481689E+02  0.470762481689E+02  0.000000000000E+00
  0.477600097656E+02  0.435296669006E+02 -0.108748745918E+01
  0.477600097656E+02  0.435296669006E+02  0.108748745918E+01
  0.482116432190E+02  0.470762481689E+02 -0.658134579659E+00
  0.482116432190E+02  0.470762481689E+02  0.658134579659E+00
  0.482439842224E+02  0.292438049316E+02  0.000000000000E+00
  0.490000000000E+02  0.490000000000E+02  0.000000000000E+00
  0.501353988647E+02  0.490000000000E+02 -0.658134996891E+00
  0.501353988647E+02  0.490000000000E+02  0.658134996891E+00
  0.506007728577E+02  0.494653701782E+02 -0.465371757746E+00
  0.506007728577E+02  0.494653701782E+02  0.465371757746E+00
  0.507935333252E+02  0.496581344604E+02 -0.771266485397E-15
  0.513065910339E+02  0.470762481689E+02 -0.108748877048E+01
  0.513065910339E+02  0.470762481689E+02  0.108748877048E+01
  0.521583786011E+02  0.376179962158E+02 -0.479618877172E+00
  0.521583786011E+02  0.376179962158E+02  0.479618877172E+00
  0.529248886108E+02  0.435296669006E+02 -0.980759620667E+00
  0.529248886108E+02  0.435296669006E+02  0.980759620667E+00
  0.532303466797E+02  0.490000000000E+02 -0.108748936653E+01
  0.532303466797E+02  0.490000000000E+02  0.108748936653E+01
  0.539993209839E+02  0.497689704895E+02 -0.768971264362E+00
  0.539993209839E+02  0.497689704895E+02  0.768971264362E+00
  0.543178405762E+02  0.500874900818E+02 -0.157378642191E-15
  0.552687225342E+02  0.376179962158E+02 -0.144200608134E+00
  0.552687225342E+02  0.376179962158E+02  0.144200608134E+00
  0.564714775085E+02  0.470762481689E+02 -0.980760753155E+00
  0.564714775085E+02  0.470762481689E+02  0.980760753155E+00
  0.566182289124E+02  0.376179962158E+02  0.000000000000E+00
  0.580700759888E+02  0.435296669006E+02 -0.479619771242E+00
  0.580700759888E+02  0.435296669006E+02  0.479619771242E+00
  0.583952369690E+02  0.490000000000E+02 -0.980761349201E+00
  0.583952369690E+02  0.490000000000E+02  0.980761349201E+00
  0.590887413025E+02  0.496935043335E+02 -0.693503141403E+00
  0.590887413025E+02  0.496935043335E+02  0.693503141403E+00
  0.593759994507E+02  0.499807624817E+02  0.000000000000E+00
  0.611804275513E+02  0.435296669006E+02 -0.144200876355E+00
  0.611804275513E+02  0.435296669006E+02  0.144200876355E+00
  0.616166725159E+02  0.470762481689E+02 -0.479620337486E+00
  0.616166725159E+02  0.470762481689E+02  0.479620337486E+00
  0.625299339294E+02  0.435296669006E+02  0.000000000000E+00
  0.635404319763E+02  0.490000000000E+02 -0.479620635509E+00
  0.635404319763E+02  0.490000000000E+02  0.479620635509E+00
  0.638795776367E+02  0.493391418457E+02 -0.339143037796E+00
  0.638795776367E+02  0.493391418457E+02  0.339143037796E+00
  0.640200576782E+02  0.494796218872E+02  0.296956834055E-15
  0.647270278931E+02  0.470762481689E+02 -0.144201040268E+00
  0.647270278931E+02  0.470762481689E+02  0.144201040268E+00
  0.660765380859E+02  0.470762481689E+02  0.000000000000E+00
  0.666507873535E+02  0.490000000000E+02 -0.144201144576E+00
  0.666507873535E+02  0.490000000000E+02  0.144201144576E+00
  0.667527542114E+02  0.491019668579E+02 -0.101965606213E+00
  0.667527542114E+02  0.491019668579E+02  0.101965606213E+00
  0.667949905396E+02  0.491441993713E+02 -0.260488604752E-16
  0.680002975464E+02  0.490000000000E+02  0.000000000000E+00
  0.244703655243E+02  0.547033166885E+01  0.000000000000E+00
  0.209237651825E+02  0.192375373840E+01  0.000000000000E+00
  0.303820724487E+02  0.113820018768E+02  0.000000000000E+00
  0.387563171387E+02  0.197561950684E+02  0.000000000000E+00
  0.482439842224E+02  0.292438049316E+02  0.000000000000E+00
  0.660765380859E+02  0.470762481689E+02  0.000000000000E+00
  0.625299339294E+02  0.435296669006E+02  0.000000000000E+00
  0.566182289124E+02  0.376179962158E+02  0.000000000000E+00
  0.190000000000E+02  0.000000000000E+00  0.000000000000E+00
POLYGONS                 256                1024
3                  32                  33                  42
3                  32                  30                  33
3                  30                  28                  33
3                  30                  22                  28
3                  22                  17                  28
3                  22                  13                  17
3                  13                   6                  17
3                  17                   6                   9
3                   6                   1                   9
3                   9                   1                   4
3                   1                   0                   4
3                   4                   0                   3
3                   0                   5                   3
3                   0                   2                   5
3                   2                  10                   5
3                   2                   7                  10
[...]
CELL_DATA                 256
SCALARS C_p_inc float 1
LOOKUP_TABLE default
  0.148655577934E+00
  0.136513689780E+00
  0.103246222125E+00
  0.913723498027E-01
  0.672921141910E-01
  0.593846107174E-01
  0.116953556729E+00
  0.922504597818E-01
  0.322789844785E+00
  0.269074918418E+00
  0.627399928737E+00
  0.614628064245E+00
 -0.776509907361E+00
 -0.861799395755E-01
 -0.763020696477E+00
 -0.549194470423E+00
 -0.516792562982E+00
 -0.533338560625E+00
 -0.366632822053E+00
 -0.299647489906E+00
 -0.163953828000E+00
 -0.783614656422E-01
  0.114414195017E-01
  0.103768729670E+00
  0.140710318679E+00
  0.147493177323E+00
  0.100014502730E+00
  0.103076805729E+00
  0.700540639071E-01
  0.673893159700E-01
  0.928869023958E-01
  0.876172121736E-01
  0.258253534318E+00
  0.266920502807E+00
  0.539063677864E+00
  0.492994914881E+00
 -0.114297055725E+01
 -0.731580693507E+00
 -0.931441554353E+00
 -0.760956246243E+00
 -0.532411542984E+00
 -0.538722453317E+00
 -0.300543475908E+00
 -0.240799002175E+00
 -0.780635150988E-01
 -0.278645860828E-01
  0.100406083695E+00
  0.117650636526E+00
  0.137632057304E+00
  0.139928367716E+00
  0.950829796027E-01
  0.996715994123E-01
  0.689639467842E-01
  0.700494307174E-01
  0.875155753173E-01
  0.966717823015E-01
  0.264221689506E+00
  0.287292524167E+00
  0.500051665735E+00
  0.452665001521E+00
 -0.140249006005E+01
 -0.113275725026E+01
 -0.103322778333E+01
 -0.937536412190E+00
 -0.539202841472E+00
 -0.552081950703E+00
 -0.242694429591E+00
 -0.214638784914E+00
 -0.278564282137E-01
 -0.118308687186E-01
  0.117952786724E+00
  0.125619850420E+00
  0.133575225083E+00
  0.136617637246E+00
  0.899000315420E-01
  0.945841408905E-01
  0.661681420018E-01
  0.687552859899E-01
  0.963901456513E-01
  0.101551757449E+00
  0.287845354807E+00
  0.304267236151E+00
  0.466250176092E+00
  0.433436598495E+00
 -0.154069450345E+01
 -0.140189191738E+01
 -0.108414925932E+01
 -0.104177320607E+01
 -0.548543397341E+00
 -0.550173285080E+00
 -0.216642927096E+00
 -0.207672833057E+00
 -0.118129332554E-01
 -0.273348075146E-02
  0.127099813339E+00
  0.134950095497E+00
  0.120890115902E+00
  0.131865333269E+00
  0.748837268116E-01
  0.890598941120E-01
  0.541544516640E-01
  0.657924206172E-01
  0.100950539437E+00
  0.948637725125E-01
  0.303681221602E+00
  0.305423768646E+00
  0.438552551768E+00
  0.429166741087E+00
 -0.157699256019E+01
 -0.154138411825E+01
 -0.109194297316E+01
 -0.108943934274E+01
 -0.541126170984E+00
 -0.554776450079E+00
 -0.209772359985E+00
 -0.192656365562E+00
 -0.293032272592E-02
  0.173354907068E-01
  0.136936970145E+00
  0.155577173474E+00
  0.938649498225E-01
  0.116965258903E+00
  0.407629327359E-01
  0.729724934970E-01
  0.218089129954E-01
  0.534181581946E-01
  0.932966224402E-01
  0.673735684511E-01
  0.302269371679E+00
  0.287060753815E+00
  0.425918387391E+00
  0.441636376851E+00
 -0.151431673062E+01
 -0.157874195499E+01
 -0.104876837225E+01
 -0.109908012889E+01
 -0.500680050873E+00
 -0.550259556587E+00
 -0.195312652191E+00
 -0.149272687960E+00
  0.165398427326E-01
  0.670967172589E-01
  0.158543513878E+00
  0.204220048075E+00
  0.495954578859E-01
  0.837615314456E-01
 -0.780668133168E-02
  0.355372414149E-01
 -0.269723595377E-01
  0.196891301755E-01
  0.628149152760E-01
  0.126468074690E-01
  0.278144052733E+00
  0.242952420653E+00
  0.426329250944E+00
  0.464371133688E+00
 -0.137145091314E+01
 -0.151799483634E+01
 -0.956682868322E+00
 -0.106276429997E+01
 -0.416456632078E+00
 -0.520962370928E+00
 -0.153596089520E+00
 -0.652440611233E-01
  0.637933278192E-01
  0.154589739537E+00
  0.207372252412E+00
  0.294711524271E+00
 -0.647932986019E-01
  0.229066029439E-01
 -0.808411873020E-01
 -0.217254480116E-01
 -0.749824157064E-01
 -0.344603800624E-01
 -0.196647969367E-03
 -0.423678366418E-01
  0.216783035557E+00
  0.157742920891E+00
  0.419582938375E+00
  0.482377979056E+00
 -0.117567348932E+01
 -0.137691060897E+01
 -0.816111507719E+00
 -0.985857501714E+00
 -0.280660190836E+00
 -0.470100819569E+00
 -0.761137282786E-01
  0.208063530853E-01
  0.139603890213E+00
  0.251493762744E+00
  0.284772103473E+00
  0.422232886396E+00
 -0.543996911084E+02
 -0.314518889331E+00
 -0.543735861710E+00
 -0.128319509252E+00
 -0.156057763251E+00
 -0.106984504492E+00
 -0.870148480541E-01
 -0.908670759259E-01
  0.741906172000E-01
  0.558139097338E-01
  0.282300009543E+00
  0.447153092838E+00
 -0.864549099643E+00
 -0.118158082224E+01
 -0.527621508484E+00
 -0.927124776309E+00
 -0.170495185705E+00
 -0.445757045259E+00
 -0.313874333820E-01
  0.775225586192E-02
  0.167972486480E+00
  0.786682059955E-01
  0.412339034426E+00
 -0.584504266302E+02
 -0.148303393699E+03
 -0.441617106581E+01
 -0.724570391544E+00
 -0.607965058397E+00
 -0.338293561444E+00
 -0.328837915204E+00
 -0.289606536638E+00
 -0.235960265832E+00
 -0.274090874507E+00
 -0.168438014596E+00
 -0.878378977787E+00
 -0.505285055693E+00
 -0.794243458528E+00
 -0.311426929862E+00
 -0.661210323084E+00
 -0.266075310179E+00
 -0.679393882590E+00
 -0.878569167378E+00
 -0.175792909154E+00
 -0.115709211042E+03
 -0.100458053992E+03
 -0.732313667635E+01
 -0.142059878377E+01
 -0.125447465283E+01
 -0.646630902957E+00
 -0.684247247733E+00
 -0.571312199085E+00
 -0.569821626351E+00
 -0.623843571102E+00
 -0.507496421147E+00
 -0.753907869534E+00
 -0.700901789007E+00
 -0.746005916350E+00
 -0.555876231066E+00
 -0.835431299018E+00
 -0.649652052323E+00
 -0.127932946463E+01
 -0.172597213181E+01
 -0.823461302462E+00
 -0.732850909338E+02
SCALARS sigma float 1
LOOKUP_TABLE default
  0.763041865654E-01
  0.763041032653E-01
  0.753306731084E-01
  0.753307385083E-01
  0.856579754645E-01
  0.856579616232E-01
  0.161848302644E+00
  0.161848315977E+00
  0.312679206242E+00
  0.312679192377E+00
  0.581707895865E+00
  0.581707896417E+00
  0.299839640117E+00
  0.299839638978E+00
 -0.449737160777E-01
 -0.449736992759E-01
 -0.202467200587E+00
 -0.202467213449E+00
 -0.275403875304E+00
 -0.275403861130E+00
 -0.284974251309E+00
 -0.284974315733E+00
 -0.284075389213E+00
 -0.284075310058E+00
  0.763042154594E-01
  0.763041863396E-01
  0.753306847438E-01
  0.753306724920E-01
  0.856579682404E-01
  0.856579756057E-01
  0.161848315818E+00
  0.161848306054E+00
  0.312679193125E+00
  0.312679229431E+00
  0.581707889938E+00
  0.581707860583E+00
  0.299839584669E+00
  0.299839636777E+00
 -0.449736739824E-01
 -0.449737161853E-01
 -0.202467209896E+00
 -0.202467200387E+00
 -0.275403861584E+00
 -0.275403868806E+00
 -0.284974313401E+00
 -0.284974301682E+00
 -0.284075309217E+00
 -0.284075281900E+00
  0.763041574787E-01
  0.763042154447E-01
  0.753307424426E-01
  0.753306848834E-01
  0.856579692499E-01
  0.856579682925E-01
  0.161848306131E+00
  0.161848305852E+00
  0.312679228782E+00
  0.312679170227E+00
  0.581707858171E+00
  0.581707838351E+00
  0.299839550270E+00
  0.299839583426E+00
 -0.449737406592E-01
 -0.449736738891E-01
 -0.202467210267E+00
 -0.202467209993E+00
 -0.275403868973E+00
 -0.275403868054E+00
 -0.284974302210E+00
 -0.284974247926E+00
 -0.284075281845E+00
 -0.284075335891E+00
  0.763041723128E-01
  0.763041575500E-01
  0.753307758356E-01
  0.753307427208E-01
  0.856579557130E-01
  0.856579692122E-01
  0.161848305828E+00
  0.161848309148E+00
  0.312679171564E+00
  0.312679225646E+00
  0.581707853354E+00
  0.581708034272E+00
  0.299839853424E+00
  0.299839558003E+00
 -0.449736796991E-01
 -0.449737408516E-01
 -0.202467206984E+00
 -0.202467210238E+00
 -0.275403867933E+00
 -0.275403880777E+00
 -0.284974248978E+00
 -0.284974217943E+00
 -0.284075336157E+00
 -0.284075322429E+00
  0.763041435505E-01
  0.763041723807E-01
  0.753307153697E-01
  0.753307757251E-01
  0.856579847901E-01
  0.856579556511E-01
  0.161848309158E+00
  0.161848301036E+00
  0.312679224885E+00
  0.312679295786E+00
  0.581708006846E+00
  0.581707628490E+00
  0.299839225545E+00
  0.299839839287E+00
 -0.449735996063E-01
 -0.449736795896E-01
 -0.202467214962E+00
 -0.202467206996E+00
 -0.275403880578E+00
 -0.275403852926E+00
 -0.284974217525E+00
 -0.284974273991E+00
 -0.284075322682E+00
 -0.284075349469E+00
  0.763041580373E-01
  0.763041432747E-01
  0.753306830082E-01
  0.753307150298E-01
  0.856580068159E-01
  0.856579847326E-01
  0.161848301018E+00
  0.161848289203E+00
  0.312679294666E+00
  0.312679109982E+00
  0.581707644926E+00
  0.581707843138E+00
  0.299839557676E+00
  0.299839234017E+00
 -0.449738082760E-01
 -0.449735994451E-01
 -0.202467226520E+00
 -0.202467214940E+00
 -0.275403852741E+00
 -0.275403831730E+00
 -0.284974272705E+00
 -0.284974302716E+00
 -0.284075348443E+00
 -0.284075334716E+00
  0.763039621134E-01
  0.763041581611E-01
  0.753307456523E-01
  0.753306833776E-01
  0.856579667189E-01
  0.856580069619E-01
  0.161848289251E+00
  0.161848300331E+00
  0.312679109223E+00
  0.312679177442E+00
  0.581707810406E+00
  0.581707541381E+00
  0.299839090760E+00
  0.299839540804E+00
 -0.449737303780E-01
 -0.449738081669E-01
 -0.202467215740E+00
 -0.202467226580E+00
 -0.275403832199E+00
 -0.275403870846E+00
 -0.284974304114E+00
 -0.284974245382E+00
 -0.284075335176E+00
 -0.284075517966E+00
  0.763041400126E-01
  0.763039621108E-01
  0.753307488860E-01
  0.753307460336E-01
  0.856580008656E-01
  0.856579672294E-01
  0.161848300351E+00
  0.161848296277E+00
  0.312679187781E+00
  0.312679189756E+00
  0.581707711176E+00
  0.581708480478E+00
  0.299840543852E+00
  0.299839178280E+00
 -0.449737295691E-01
 -0.449737318651E-01
 -0.202467219731E+00
 -0.202467215764E+00
 -0.275403872488E+00
 -0.275403839503E+00
 -0.284974246824E+00
 -0.284974244096E+00
 -0.284075517956E+00
 -0.284075351065E+00
  0.763040657613E-01
  0.763041416994E-01
  0.753306885048E-01
  0.753307492320E-01
  0.856579438025E-01
  0.856579999043E-01
  0.161848296204E+00
  0.161848311442E+00
  0.312679175849E+00
  0.312679222883E+00
  0.581708292421E+00
  0.581707916306E+00
  0.299839670891E+00
  0.299840446918E+00
 -0.449736705734E-01
 -0.449737275688E-01
 -0.202467204938E+00
 -0.202467219639E+00
 -0.275403836412E+00
 -0.275403893863E+00
 -0.284974245405E+00
 -0.284974305226E+00
 -0.284075357345E+00
 -0.284075429505E+00
  0.733830540713E-01
  0.724753216046E-01
  0.724746976584E-01
  0.820757051062E-01
  0.820758841071E-01
  0.150641548696E+00
  0.150641615089E+00
  0.276817800759E+00
  0.276817898820E+00
  0.493429300663E+00
  0.254336712587E+00
 -0.398152281112E-01
 -0.398156054802E-01
 -0.188447693804E+00
 -0.188447893218E+00
 -0.263887003025E+00
 -0.263887073028E+00
 -0.274170155903E+00
 -0.274169993736E+00
 -0.273200679357E+00
 -0.298743911146E-01
 -0.308789438453E-01
 -0.308714068790E-01
 -0.203261867147E-01
 -0.203280987645E-01
  0.518711547128E-01
  0.518711976122E-01
  0.173731374930E+00
  0.173731378569E+00
  0.372461043777E+00
  0.285339334465E+00
  0.499489205679E-01
  0.499493699028E-01
 -0.900798360900E-01
 -0.900792560202E-01
 -0.171618965217E+00
 -0.171619241389E+00
 -0.183441100882E+00
 -0.183438840124E+00
 -0.182313631073E+00
SCALARS inclination float 1
LOOKUP_TABLE default
  0.100000000000E+01
  0.100000000000E+01
  0.100000000000E+01
  0.100000000000E+01
  0.100000000000E+01
  0.100000000000E+01
  0.100000000000E+01
  0.100000000000E+01
  0.100000000000E+01
  0.100000000000E+01
  0.100000000000E+01
  0.100000000000E+01
  0.100000000000E+01
  0.100000000000E+01
  0.100000000000E+01
  0.100000000000E+01
  0.100000000000E+01
  0.100000000000E+01
  0.100000000000E+01
  0.100000000000E+01
  0.100000000000E+01
  0.100000000000E+01
  0.100000000000E+01
  0.100000000000E+01
  0.100000000000E+01
  0.100000000000E+01
  0.100000000000E+01
  0.100000000000E+01
  0.100000000000E+01
  0.100000000000E+01
  0.100000000000E+01
  0.100000000000E+01
  0.100000000000E+01
  0.100000000000E+01
  0.100000000000E+01
  0.100000000000E+01
  0.100000000000E+01
  0.100000000000E+01
  0.100000000000E+01
  0.100000000000E+01
  0.100000000000E+01
  0.100000000000E+01
  0.100000000000E+01
  0.100000000000E+01
  0.100000000000E+01
  0.100000000000E+01
  0.100000000000E+01
  0.100000000000E+01
  0.100000000000E+01
  0.100000000000E+01
  0.100000000000E+01
  0.100000000000E+01
  0.100000000000E+01
  0.100000000000E+01
  0.100000000000E+01
  0.100000000000E+01
  0.100000000000E+01
  0.100000000000E+01
  0.100000000000E+01
  0.100000000000E+01
  0.100000000000E+01
  0.100000000000E+01
  0.100000000000E+01
  0.100000000000E+01
  0.100000000000E+01
  0.100000000000E+01
  0.100000000000E+01
  0.100000000000E+01
  0.100000000000E+01
  0.100000000000E+01
  0.100000000000E+01
  0.100000000000E+01
  0.100000000000E+01
  0.100000000000E+01
  0.100000000000E+01
  0.100000000000E+01
  0.100000000000E+01
  0.100000000000E+01
  0.100000000000E+01
  0.100000000000E+01
  0.100000000000E+01
  0.100000000000E+01
  0.100000000000E+01
  0.100000000000E+01
  0.100000000000E+01
  0.100000000000E+01
  0.100000000000E+01
  0.100000000000E+01
  0.100000000000E+01
  0.100000000000E+01
  0.100000000000E+01
  0.100000000000E+01
  0.100000000000E+01
  0.100000000000E+01
  0.100000000000E+01
  0.100000000000E+01
  0.100000000000E+01
  0.100000000000E+01
  0.100000000000E+01
  0.100000000000E+01
  0.100000000000E+01
  0.100000000000E+01
  0.100000000000E+01
  0.100000000000E+01
  0.100000000000E+01
  0.100000000000E+01
  0.100000000000E+01
  0.100000000000E+01
  0.100000000000E+01
  0.100000000000E+01
  0.100000000000E+01
  0.100000000000E+01
  0.100000000000E+01
  0.100000000000E+01
  0.100000000000E+01
  0.100000000000E+01
  0.100000000000E+01
  0.100000000000E+01
  0.100000000000E+01
  0.100000000000E+01
  0.100000000000E+01
  0.100000000000E+01
  0.100000000000E+01
  0.100000000000E+01
  0.100000000000E+01
  0.100000000000E+01
  0.100000000000E+01
  0.100000000000E+01
  0.100000000000E+01
  0.100000000000E+01
  0.100000000000E+01
  0.100000000000E+01
  0.100000000000E+01
  0.100000000000E+01
  0.100000000000E+01
  0.100000000000E+01
  0.100000000000E+01
  0.100000000000E+01
  0.100000000000E+01
  0.100000000000E+01
  0.100000000000E+01
  0.100000000000E+01
  0.100000000000E+01
  0.100000000000E+01
  0.100000000000E+01
  0.100000000000E+01
  0.100000000000E+01
  0.100000000000E+01
  0.100000000000E+01
  0.100000000000E+01
  0.100000000000E+01
  0.100000000000E+01
  0.100000000000E+01
  0.100000000000E+01
  0.100000000000E+01
  0.100000000000E+01
  0.100000000000E+01
  0.100000000000E+01
  0.100000000000E+01
  0.100000000000E+01
  0.100000000000E+01
  0.100000000000E+01
  0.100000000000E+01
  0.100000000000E+01
  0.100000000000E+01
  0.100000000000E+01
  0.100000000000E+01
  0.100000000000E+01
  0.100000000000E+01
  0.100000000000E+01
  0.100000000000E+01
  0.100000000000E+01
  0.100000000000E+01
  0.100000000000E+01
  0.100000000000E+01
  0.100000000000E+01
  0.100000000000E+01
  0.100000000000E+01
  0.100000000000E+01
  0.100000000000E+01
  0.100000000000E+01
  0.100000000000E+01
  0.100000000000E+01
  0.100000000000E+01
  0.100000000000E+01
  0.100000000000E+01
  0.100000000000E+01
  0.100000000000E+01
  0.100000000000E+01
  0.100000000000E+01
  0.100000000000E+01
  0.100000000000E+01
  0.100000000000E+01
  0.100000000000E+01
  0.100000000000E+01
  0.100000000000E+01
  0.100000000000E+01
  0.100000000000E+01
  0.100000000000E+01
  0.100000000000E+01
  0.100000000000E+01
  0.100000000000E+01
  0.100000000000E+01
  0.100000000000E+01
  0.100000000000E+01
  0.100000000000E+01
  0.100000000000E+01
  0.100000000000E+01
  0.100000000000E+01
  0.100000000000E+01
  0.100000000000E+01
  0.100000000000E+01
  0.100000000000E+01
  0.100000000000E+01
  0.100000000000E+01
  0.100000000000E+01
  0.100000000000E+01
  0.100000000000E+01
  0.100000000000E+01
  0.100000000000E+01
  0.100000000000E+01
  0.100000000000E+01
  0.100000000000E+01
  0.100000000000E+01
  0.100000000000E+01
  0.100000000000E+01
  0.100000000000E+01
  0.100000000000E+01
  0.100000000000E+01
  0.100000000000E+01
  0.100000000000E+01
  0.100000000000E+01
  0.100000000000E+01
  0.100000000000E+01
  0.100000000000E+01
  0.100000000000E+01
  0.100000000000E+01
  0.100000000000E+01
  0.100000000000E+01
  0.100000000000E+01
  0.100000000000E+01
  0.100000000000E+01
  0.100000000000E+01
  0.100000000000E+01
  0.100000000000E+01
  0.100000000000E+01
  0.100000000000E+01
  0.100000000000E+01
  0.100000000000E+01
  0.100000000000E+01
  0.100000000000E+01
  0.100000000000E+01
  0.100000000000E+01
  0.100000000000E+01
  0.100000000000E+01
  0.100000000000E+01
VECTORS v float
  0.149550395037E+03  0.293354301839E+01  0.156666403432E+02
  0.150615436441E+03  0.262659943343E+01  0.158132557468E+02
  0.153463757497E+03 -0.221735707041E+00  0.165733850677E+02
  0.154483355158E+03  0.414346965057E+00  0.166147324295E+02
  0.156652444125E+03 -0.175475293810E+01  0.154288175142E+02
  0.157334416673E+03 -0.624161485823E+00  0.153851236717E+02
  0.153098243999E+03  0.361201997886E+01  0.308900427665E+01
  0.155208617630E+03 -0.417554298348E+01  0.329353732741E+01
  0.131833271811E+03  0.191998259439E+02 -0.156253557133E+02
  0.138057692050E+03  0.224396807604E+01 -0.188410924761E+02
  0.742913899870E+02  0.660102968927E+02 -0.480014284349E+01
  0.720214123137E+02  0.710743396714E+02 -0.548971476004E+00
  0.176682373689E+03 -0.335866217037E+02  0.121882604989E+03
  0.151108561584E+03  0.234654275357E+02  0.739884527546E+02
  0.210640753105E+03 -0.360667774947E+02  0.342251015680E+02
  0.200602191138E+03 -0.872086877708E+01  0.290388574662E+02
  0.200515424049E+03 -0.863409124424E+01 -0.432189686634E+01
  0.201433164919E+03 -0.120206788965E+02 -0.441084651246E+01
  0.189652129079E+03 -0.239603651199E+00 -0.184954041621E+02
  0.184673248803E+03 -0.849371466859E+01 -0.188144132738E+02
  0.174851820350E+03  0.132776245716E+01 -0.187127556301E+02
  0.168234804544E+03 -0.280031565752E+01 -0.184443637207E+02
  0.161138707627E+03  0.429581635862E+01 -0.167593493733E+02
  0.153372386679E+03  0.653406610753E+01 -0.156903029235E+02
  0.150193384940E+03  0.588572429338E+01  0.154198869230E+02
  0.149587908819E+03  0.625657560087E+01  0.153155662172E+02
  0.153752566770E+03  0.209189362061E+01  0.163550258218E+02
  0.153490690642E+03  0.212113972269E+01  0.163236332095E+02
  0.156436682302E+03 -0.824865952739E+00  0.153172322102E+02
  0.156662153682E+03 -0.721559325322E+00  0.153291297839E+02
  0.155210711420E+03  0.729883549235E+00  0.319221251374E+01
  0.155661677294E+03 -0.378786216372E+00  0.322444299879E+01
  0.138335324127E+03  0.169475828275E+02 -0.168398153667E+02
  0.137289120382E+03  0.189580867533E+02 -0.164157708371E+02
  0.746642723465E+02  0.815829641684E+02  0.401042831786E+01
  0.673180945946E+02  0.933352053996E+02  0.150808381629E+02
  0.195076359730E+03 -0.344230597361E+02  0.133029513900E+03
  0.181809663950E+03 -0.131993168561E+02  0.113037124763E+03
  0.217958843257E+03 -0.493484954260E+02  0.370828707478E+02
  0.210654993804E+03 -0.353125834699E+02  0.341224492193E+02
  0.200189068392E+03 -0.248466296514E+02 -0.465018029324E+01
  0.200508169163E+03 -0.256311176751E+02 -0.467298273748E+01
  0.184661123046E+03 -0.978401799726E+01 -0.189389080635E+02
  0.180214297403E+03 -0.118214705864E+02 -0.187042383870E+02
  0.168268427009E+03  0.124455934944E+00 -0.181325815929E+02
  0.164308290085E+03  0.566717734086E+00 -0.176578262520E+02
  0.153427851372E+03  0.114472192364E+02 -0.151712345417E+02
  0.151879380496E+03  0.123956498231E+02 -0.149044249725E+02
  0.150417533218E+03  0.727010632882E+01  0.152959185443E+02
  0.150210803540E+03  0.742869339857E+01  0.152568742695E+02
  0.154164175585E+03  0.347529812247E+01  0.162502179686E+02
  0.153770573668E+03  0.365828834345E+01  0.161880473043E+02
  0.156544092342E+03  0.884756756620E+00  0.151611759464E+02
  0.156452851927E+03  0.895743815173E+00  0.151512191641E+02
  0.155662558627E+03  0.168603573224E+01  0.318179264798E+01
  0.154856327034E+03  0.319751035647E+01  0.313389870572E+01
  0.137322601255E+03  0.207312563876E+02 -0.161744281068E+02
  0.134426339780E+03  0.252181757598E+02 -0.151501719535E+02
  0.671153813316E+02  0.925291679824E+02  0.147311219623E+02
  0.603415343489E+02  0.101628280431E+03  0.239318913514E+02