# vtk DataFile Version 3.0
MachLine results file. Generated by MachLine, USU AeroLab (c) 2022.
ASCII
DATASET POLYDATA
POINTS                 482 float
  0.000000000000E+00  0.000000000000E+00  0.000000000000E+00
  0.473465979099E+00  0.000000000000E+00 -0.436293870211E+00
  0.473465979099E+00  0.000000000000E+00  0.436293870211E+00
  0.757896304131E+00  0.757896304131E+00  0.000000000000E+00
  0.123136246204E+01  0.757896304131E+00 -0.436293989420E+00
  0.123136246204E+01  0.757896304131E+00  0.436293989420E+00
  0.157641971111E+01  0.000000000000E+00 -0.760520398617E+00
  0.157641971111E+01  0.000000000000E+00  0.760520398617E+00
  0.178897356987E+01  0.178897356987E+01  0.000000000000E+00
  0.226243972778E+01  0.178897356987E+01 -0.436294138432E+00
  0.226243972778E+01  0.178897356987E+01  0.436294138432E+00
  0.233431649208E+01  0.757896304131E+00 -0.760520577431E+00
  0.233431649208E+01  0.757896304131E+00  0.760520577431E+00
  0.317279767990E+01  0.317279767990E+01  0.000000000000E+00
  0.336539411545E+01  0.178897356987E+01 -0.760520815849E+00
  0.336539411545E+01  0.178897356987E+01  0.760520815849E+00
  0.342464399338E+01  0.000000000000E+00 -0.102348911762E+01
  0.342464399338E+01  0.000000000000E+00  0.102348911762E+01
  0.364626431465E+01  0.317279767990E+01 -0.436294317245E+00
  0.364626431465E+01  0.317279767990E+01  0.436294317245E+00
  0.418254137039E+01  0.757896304131E+00 -0.102348935604E+01
  0.418254137039E+01  0.757896304131E+00  0.102348935604E+01
  0.474921894073E+01  0.317279767990E+01 -0.760521173477E+00
  0.474921894073E+01  0.317279767990E+01  0.760521173477E+00
  0.499661636353E+01  0.499661636353E+01  0.000000000000E+00
  0.521361970901E+01  0.178897356987E+01 -0.102348971367E+01
  0.521361970901E+01  0.178897356987E+01  0.102348971367E+01
  0.547008323669E+01  0.499661636353E+01 -0.436294585466E+00
  0.547008323669E+01  0.499661636353E+01  0.436294585466E+00
  0.611307668686E+01  0.000000000000E+00 -0.114008128643E+01
  0.611307668686E+01  0.000000000000E+00  0.114008128643E+01
  0.657303857803E+01  0.499661636353E+01 -0.760521650314E+00
  0.657303857803E+01  0.499661636353E+01  0.760521650314E+00
  0.659744548798E+01  0.317279767990E+01 -0.102349019051E+01
  0.659744548798E+01  0.317279767990E+01  0.102349019051E+01
  0.687097454071E+01  0.757896304131E+00 -0.114008152485E+01
  0.687097454071E+01  0.757896304131E+00  0.114008152485E+01
  0.734362459183E+01  0.734362459183E+01  0.000000000000E+00
  0.781709194183E+01  0.734362459183E+01 -0.436294913292E+00
  0.781709194183E+01  0.734362459183E+01  0.436294913292E+00
  0.790205335617E+01  0.178897356987E+01 -0.114008200169E+01
  0.790205335617E+01  0.178897356987E+01  0.114008200169E+01
  0.842126560211E+01  0.499661636353E+01 -0.102349078655E+01
  0.842126560211E+01  0.499661636353E+01  0.102349078655E+01
  0.892004776001E+01  0.734362459183E+01 -0.760522186756E+00
  0.892004776001E+01  0.734362459183E+01  0.760522186756E+00
  0.928588008881E+01  0.317279767990E+01 -0.114008247852E+01
  0.928588008881E+01  0.317279767990E+01  0.114008247852E+01
  0.939508819580E+01  0.000000000000E+00 -0.980745851994E+00
  0.939508819580E+01  0.000000000000E+00  0.980745851994E+00
  0.101529865265E+02  0.757896304131E+00 -0.980746090412E+00
  0.101529865265E+02  0.757896304131E+00  0.980746090412E+00
  0.102728376389E+02  0.102728376389E+02  0.000000000000E+00
  0.107463054657E+02  0.102728376389E+02 -0.436295330524E+00
  0.107463054657E+02  0.102728376389E+02  0.436295330524E+00
  0.107682771683E+02  0.734362459183E+01 -0.102349150181E+01
  0.107682771683E+02  0.734362459183E+01  0.102349150181E+01
  0.111097030640E+02  0.499661636353E+01 -0.114008307457E+01
  0.111097030640E+02  0.499661636353E+01  0.114008307457E+01
  0.111840667725E+02  0.178897356987E+01 -0.980746388435E+00
  0.111840667725E+02  0.178897356987E+01  0.980746388435E+00
  0.118492631912E+02  0.102728376389E+02 -0.760522902012E+00
  0.118492631912E+02  0.102728376389E+02  0.760522902012E+00
  0.125678949356E+02  0.317279767990E+01 -0.980746865273E+00
  0.125678949356E+02  0.317279767990E+01  0.980746865273E+00
  0.126670312881E+02  0.000000000000E+00 -0.678052663803E+00
  0.126670312881E+02  0.000000000000E+00  0.678052663803E+00
  0.134249305725E+02  0.757896304131E+00 -0.678052842617E+00
  0.134249305725E+02  0.757896304131E+00  0.678052842617E+00
  0.134567155838E+02  0.734362459183E+01 -0.114008402824E+01
  0.134567155838E+02  0.734362459183E+01  0.114008402824E+01
  0.136974935532E+02  0.102728376389E+02 -0.102349245548E+01
  0.136974935532E+02  0.102728376389E+02  0.102349245548E+01
  0.137921218872E+02  0.137921218872E+02  0.000000000000E+00
  0.142655897141E+02  0.137921218872E+02 -0.436295837164E+00
  0.142655897141E+02  0.137921218872E+02  0.436295837164E+00
  0.143917188644E+02  0.499661636353E+01 -0.980747401714E+00
  0.143917188644E+02  0.499661636353E+01  0.980747401714E+00
  0.144560117722E+02  0.178897356987E+01 -0.678053081036E+00
  0.144560117722E+02  0.178897356987E+01  0.678053081036E+00
  0.153437566757E+02  0.000000000000E+00 -0.393031150103E+00
  0.153437566757E+02  0.000000000000E+00  0.393031150103E+00
  0.153685483932E+02  0.137921218872E+02 -0.760523796082E+00
  0.153685483932E+02  0.137921218872E+02  0.760523796082E+00
  0.158398418427E+02  0.317279767990E+01 -0.678053379059E+00
  0.158398418427E+02  0.317279767990E+01  0.678053379059E+00
  0.161016559601E+02  0.757896304131E+00 -0.393031239510E+00
  0.161016559601E+02  0.757896304131E+00  0.393031239510E+00
  0.163859348297E+02  0.102728376389E+02 -0.114008510113E+01
  0.163859348297E+02  0.102728376389E+02  0.114008510113E+01
  0.167387351990E+02  0.734362459183E+01 -0.980748176575E+00
  0.167387351990E+02  0.734362459183E+01  0.980748176575E+00
  0.171327381134E+02  0.178897356987E+01 -0.393031388521E+00
  0.171327381134E+02  0.178897356987E+01  0.393031388521E+00
  0.172004318237E+02  0.000000000000E+00 -0.192506864667E+00
  0.172004318237E+02  0.000000000000E+00  0.192506864667E+00
  0.172167816162E+02  0.137921218872E+02 -0.102349364758E+01
  0.172167816162E+02  0.137921218872E+02  0.102349364758E+01
  0.176636676788E+02  0.499661636353E+01 -0.678053736687E+00
  0.176636676788E+02  0.499661636353E+01  0.678053736687E+00
  0.178320064545E+02  0.178320064545E+02  0.000000000000E+00
  0.179583320618E+02  0.757896304131E+00 -0.192506924272E+00
  0.179583320618E+02  0.757896304131E+00  0.192506924272E+00
  0.183054752350E+02  0.178320064545E+02 -0.436296403408E+00
  0.183054752350E+02  0.178320064545E+02  0.436296403408E+00
  0.183450412750E+02  0.000000000000E+00 -0.698660761118E-01
  0.183450412750E+02  0.000000000000E+00  0.698660761118E-01
  0.185165691376E+02  0.317279767990E+01 -0.393031567335E+00
  0.185165691376E+02  0.317279767990E+01  0.393031567335E+00
  0.189894161224E+02  0.178897356987E+01 -0.192506983876E+00
  0.189894161224E+02  0.178897356987E+01  0.192506983876E+00
  0.190000000000E+02  0.000000000000E+00  0.000000000000E+00
  0.191029415131E+02  0.757896304131E+00 -0.698660910130E-01
  0.191029415131E+02  0.757896304131E+00  0.698660910130E-01
  0.194084339142E+02  0.178320064545E+02 -0.760524809361E+00
  0.194084339142E+02  0.178320064545E+02  0.760524809361E+00
  0.196679573059E+02  0.102728376389E+02 -0.980749070644E+00
  0.196679573059E+02  0.102728376389E+02  0.980749070644E+00
  0.197579002380E+02  0.757896304131E+00  0.000000000000E+00
  0.199052257538E+02  0.137921218872E+02 -0.114008641243E+01
  0.199052257538E+02  0.137921218872E+02  0.114008641243E+01
  0.200106849670E+02  0.734362459183E+01 -0.678054273129E+00
  0.200106849670E+02  0.734362459183E+01  0.678054273129E+00
  0.201340255737E+02  0.178897356987E+01 -0.698661133647E-01
  0.201340255737E+02  0.178897356987E+01  0.698661133647E-01
  0.203403968811E+02  0.499661636353E+01 -0.393031775951E+00
  0.203403968811E+02  0.499661636353E+01  0.393031775951E+00
  0.203732471466E+02  0.317279767990E+01 -0.192507073283E+00
  0.203732471466E+02  0.317279767990E+01  0.192507073283E+00
  0.207889842987E+02  0.178897356987E+01  0.000000000000E+00
  0.212566699982E+02  0.178320064545E+02 -0.102349495888E+01
  0.212566699982E+02  0.178320064545E+02  0.102349495888E+01
  0.215178565979E+02  0.317279767990E+01 -0.698661431670E-01
  0.215178565979E+02  0.317279767990E+01  0.698661431670E-01
  0.221728172302E+02  0.317279767990E+01  0.000000000000E+00
  0.221970767975E+02  0.499661636353E+01 -0.192507177591E+00
  0.221970767975E+02  0.499661636353E+01  0.192507177591E+00
  0.222339305878E+02  0.222339305878E+02  0.000000000000E+00
  0.226874179840E+02  0.734362459183E+01 -0.393032073975E+00
  0.226874179840E+02  0.734362459183E+01  0.393032073975E+00
  0.227074012756E+02  0.222339305878E+02 -0.436297029257E+00
  0.227074012756E+02  0.222339305878E+02  0.436297029257E+00
  0.229399108887E+02  0.102728376389E+02 -0.678054928780E+00
  0.229399108887E+02  0.102728376389E+02  0.678054928780E+00
  0.231872520447E+02  0.137921218872E+02 -0.980750203133E+00
  0.231872520447E+02  0.137921218872E+02  0.980750203133E+00
  0.233416862488E+02  0.499661636353E+01 -0.698661878705E-01
  0.233416862488E+02  0.499661636353E+01  0.698661878705E-01
  0.238103618622E+02  0.222339305878E+02 -0.760525882244E+00
  0.238103618622E+02  0.222339305878E+02  0.760525882244E+00
  0.239451179504E+02  0.178320064545E+02 -0.114008784294E+01
  0.239451179504E+02  0.178320064545E+02  0.114008784294E+01
  0.239966468811E+02  0.499661636353E+01  0.000000000000E+00
  0.245440979004E+02  0.734362459183E+01 -0.192507326603E+00
  0.245440979004E+02  0.734362459183E+01  0.192507326603E+00
  0.256166458130E+02  0.102728376389E+02 -0.393032461405E+00
  0.256166458130E+02  0.102728376389E+02  0.393032461405E+00
  0.256585998535E+02  0.222339305878E+02 -0.102349650860E+01
  0.256585998535E+02  0.222339305878E+02  0.102349650860E+01
  0.256887092590E+02  0.734362459183E+01 -0.698662400246E-01
  0.256887092590E+02  0.734362459183E+01  0.698662400246E-01
[...]
CELL_DATA                 904
SCALARS C_p_inc float 1
LOOKUP_TABLE default
  0.180689949453E+00
  0.164817096138E+00
  0.134261950650E+00
  0.121587466950E+00
  0.109380033640E+00
  0.103514417738E+00
  0.910658833055E-01
  0.868433218722E-01
  0.779147589447E-01
  0.757294746005E-01
  0.974999097352E-01
  0.894765982558E-01
  0.203152064384E+00
  0.171402119550E+00
  0.356146940249E+00
  0.316643000166E+00
  0.556373632496E+00
  0.527975341247E+00
  0.716103729732E+00
  0.672117558458E+00
 -0.538960430478E+00
  0.599909140580E-02
 -0.783616465566E+00
 -0.494021218563E+00
 -0.657192228699E+00
 -0.575784311342E+00
 -0.613690491247E+00
 -0.592105203105E+00
 -0.529956214432E+00
 -0.554108257055E+00
 -0.419590824701E+00
 -0.388436714100E+00
 -0.281015732637E+00
 -0.247921009877E+00
 -0.166120215698E+00
 -0.126243319145E+00
 -0.678373449620E-01
 -0.741674754454E-02
  0.557360151845E-01
  0.131808688239E+00
  0.171544570178E+00
  0.179535227298E+00
  0.133757558498E+00
  0.134092956796E+00
  0.114664381517E+00
  0.109361798786E+00
  0.943086974264E-01
  0.910879754191E-01
  0.776775564250E-01
  0.778637059025E-01
  0.896619855480E-01
  0.810761212274E-01
  0.171999219128E+00
  0.152460288085E+00
  0.309397925701E+00
  0.295909954524E+00
  0.485145044156E+00
  0.488009754564E+00
  0.556385032985E+00
  0.464950989944E+00
 -0.855717255604E+00
 -0.534829150292E+00
 -0.980431091723E+00
 -0.752011941721E+00
 -0.760934769426E+00
 -0.658664892249E+00
 -0.653481176670E+00
 -0.621334738554E+00
 -0.521674721658E+00
 -0.537976894720E+00
 -0.387970113909E+00
 -0.360704099762E+00
 -0.247306179791E+00
 -0.211171896137E+00
 -0.126041776324E+00
 -0.814577907353E-01
 -0.804486004254E-02
  0.292258517771E-01
  0.127091176434E+00
  0.140489311148E+00
  0.168264319643E+00
  0.171072668294E+00
  0.129534952968E+00
  0.133526231143E+00
  0.114639527853E+00
  0.114572218157E+00
  0.968357823674E-01
  0.943145904380E-01
  0.780164011199E-01
  0.776899440412E-01
  0.815394574438E-01
  0.767687377225E-01
  0.152123257965E+00
  0.143629566933E+00
  0.288410320667E+00
  0.286071079171E+00
  0.469732717091E+00
  0.475076159475E+00
  0.456800214205E+00
  0.363092122674E+00
 -0.113353127223E+01
 -0.853103170643E+00
 -0.115758640785E+01
 -0.955323987898E+00
 -0.854730518212E+00
 -0.755360364730E+00
 -0.690796178911E+00
 -0.660033855769E+00
 -0.517214710374E+00
 -0.532815851972E+00
 -0.360813202914E+00
 -0.333079033439E+00
 -0.210558196319E+00
 -0.173850456837E+00
 -0.813931263253E-01
 -0.488700630610E-01
  0.281959937393E-01
  0.445987126790E-01
  0.138044465466E+00
  0.141967855521E+00
  0.166681740358E+00
  0.167794978048E+00
  0.126546390393E+00
  0.129309162290E+00
  0.111994177353E+00
  0.114499456362E+00
  0.969500603746E-01
  0.967990423715E-01
  0.791044101838E-01
  0.780639992257E-01
  0.769920672036E-01
  0.765275058669E-01
  0.142971420971E+00
  0.142628843569E+00
  0.281618073390E+00
  0.286734628444E+00
  0.467795863751E+00
  0.473723009004E+00
  0.370859558061E+00
  0.278507976745E+00
 -0.138277608137E+01
 -0.112890209475E+01
 -0.131446173528E+01
 -0.114092203411E+01
 -0.936132724027E+00
 -0.852106263313E+00
 -0.723659083208E+00
 -0.699093764523E+00
 -0.512758979250E+00
 -0.529706318567E+00
 -0.333822545957E+00
 -0.307118899478E+00
 -0.173436559111E+00
 -0.145074903343E+00
 -0.489445966027E-01
 -0.308767475464E-01
  0.441000691161E-01
  0.525616249533E-01
  0.141200015866E+00
  0.143967366627E+00
  0.165387746535E+00
  0.166180660005E+00
  0.124569663130E+00
  0.126287753502E+00
  0.109626416454E+00
  0.111819498503E+00
  0.955196910425E-01
  0.968551228219E-01
  0.798485154410E-01
  0.791217003512E-01
  0.765855453903E-01
  0.791704122535E-01
  0.142174148043E+00
  0.147388488917E+00
  0.285020285536E+00
  0.294492762372E+00
  0.473136856987E+00
  0.478827279449E+00
  0.292898325664E+00
  0.204609368214E+00
 -0.160106604184E+01
 -0.137863859999E+01
 -0.144683713343E+01
 -0.130617776187E+01
 -0.100207422436E+01
 -0.937807843943E+00
 -0.748915010082E+00
 -0.733304748390E+00
 -0.508370529603E+00
 -0.524823966718E+00
 -0.308208469212E+00
 -0.287896820438E+00
 -0.145020502693E+00
 -0.128334416431E+00
 -0.308908464858E-01
 -0.212168030288E-01
  0.525820496664E-01
  0.578031395444E-01
  0.144160762874E+00
  0.147174984319E+00
  0.165188862739E+00
  0.164867855593E+00
  0.123544380416E+00
  0.124272621032E+00
  0.108140598340E+00
  0.109409147018E+00
  0.942484943132E-01
  0.953722851156E-01
  0.801546214831E-01
  0.797938417053E-01
  0.791526919686E-01
  0.827246003306E-01
  0.147186221909E+00
  0.154860798738E+00
  0.294443107065E+00
  0.305414642330E+00
  0.481693988796E+00
  0.486442266513E+00
  0.220923865273E+00
  0.141100413090E+00
 -0.178222507682E+01
 -0.159839384918E+01
 -0.155160731383E+01
 -0.144468747055E+01
 -0.105201744833E+01
 -0.100651274375E+01
 -0.767551494112E+00
 -0.758172786686E+00
 -0.506940424770E+00
 -0.517865690844E+00
 -0.289166699568E+00
 -0.277793892681E+00
 -0.128563790405E+00
 -0.120126690649E+00
 -0.211671073734E-01
 -0.159887170505E-01
  0.581020694292E-01
  0.612847402193E-01
  0.147819816031E+00
  0.149843144568E+00
  0.165138510396E+00
  0.164606300945E+00
  0.122929097388E+00
  0.123199123960E+00
  0.107235136261E+00
  0.107878780580E+00
  0.934994528092E-01
  0.940548264381E-01
  0.805448905232E-01
  0.800334483019E-01
  0.826543049509E-01
  0.859997565401E-01
  0.154761298030E+00
  0.162202687292E+00
  0.305969218380E+00
  0.316039976328E+00
  0.490187461033E+00
  0.493609143505E+00
  0.155674351372E+00
  0.887083973361E-01
 -0.192399304685E+01
 -0.178083902168E+01
 -0.163033109723E+01
 -0.155238271442E+01
 -0.108896697275E+01
 -0.105668424778E+01
 -0.782652372846E+00
 -0.774512612956E+00
 -0.509243844476E+00
 -0.513084251170E+00
 -0.279148714694E+00
 -0.274241733371E+00
 -0.120516121324E+00
 -0.116508658610E+00
 -0.159351514837E-01
 -0.130250184014E-01
  0.616949559493E-01
  0.639053145803E-01
  0.150730270325E+00
  0.152630319225E+00
  0.164780727374E+00
  0.164478942814E+00
  0.122073921649E+00
  0.122524486396E+00
  0.106200479886E+00
  0.106924886630E+00
  0.927050563015E-01
  0.932649378049E-01
  0.807653801342E-01
  0.803772093570E-01
  0.858867158501E-01
  0.884833298619E-01
  0.162078657070E+00
  0.167925340155E+00
  0.316516005380E+00
  0.324345302950E+00
  0.496646992236E+00
  0.498793301883E+00
  0.994838435359E-01
  0.476027022677E-01
 -0.202956347760E+01
 -0.192324568869E+01
 -0.168773492455E+01
 -0.163149796846E+01
 -0.111629957625E+01
 -0.109229469874E+01
 -0.795133567965E+00
 -0.787012288080E+00
 -0.513043761334E+00
 -0.512944596096E+00
 -0.275581280130E+00
 -0.273591387936E+00
 -0.116985505253E+00
 -0.114605350221E+00
 -0.130057382078E-01
 -0.106749065325E-01
  0.643361336938E-01
  0.665555441219E-01
  0.153610307875E+00
  0.155835650391E+00
  0.163706241746E+00
  0.163991142735E+00
  0.120275831320E+00
  0.121579202748E+00
  0.104161319768E+00
  0.105824652633E+00
  0.909145297495E-01
  0.924265963080E-01
  0.799265187908E-01
  0.805646624050E-01
  0.883242482112E-01
  0.894531629203E-01
  0.167715902356E+00
  0.171328939340E+00
  0.324494744872E+00
  0.329677407255E+00
  0.500641621727E+00
  0.501815746769E+00
  0.544974070578E-01
  0.178373705195E-01
 -0.210302807682E+01
 -0.202904766181E+01
 -0.172718377515E+01
 -0.168851004698E+01
 -0.113511001655E+01
 -0.111842626835E+01
 -0.803878239611E+00
 -0.797945971674E+00
 -0.515717615307E+00
 -0.515618553109E+00
 -0.274872025593E+00
 -0.272895172195E+00
 -0.115143331467E+00
 -0.112239612508E+00
 -0.107065287969E-01
 -0.746827288230E-02
  0.669808866628E-01
  0.702254454583E-01
  0.156890573606E+00
  0.160010665658E+00
  0.161228928224E+00
  0.162651721061E+00
  0.116629833802E+00
  0.119608733094E+00
  0.100048144157E+00
  0.103667276889E+00
  0.869580648630E-01
  0.905669050224E-01
  0.768606085885E-01
  0.796907666254E-01
  0.892076090737E-01
  0.879057140485E-01
  0.170957444466E+00
  0.171729893810E+00
  0.329399692760E+00
  0.331770593813E+00
  0.502499063711E+00
  0.503003741854E+00
  0.216536448414E-01
  0.231086666611E-04
 -0.214611091296E+01
 -0.210269352246E+01
 -0.174954457284E+01
 -0.172789655430E+01
 -0.114486939076E+01
 -0.113687920285E+01
 -0.807216805953E+00
 -0.806323167249E+00
 -0.514971357979E+00
 -0.518177791470E+00
 -0.274139580678E+00
 -0.269797111859E+00
 -0.112859583153E+00
 -0.107440181564E+00
 -0.756838193235E-02
 -0.175203448256E-02
  0.706621176512E-01
  0.763439102818E-01
  0.161232627066E+00
  0.166417185561E+00
  0.157060791920E+00
  0.159645775054E+00
  0.110286058669E+00
  0.115615671232E+00
  0.926882778630E-01
  0.993158522034E-01
  0.794792595374E-01
  0.864740902287E-01
  0.701931437630E-01
  0.765641578656E-01
  0.874845242704E-01
  0.826292056401E-01
  0.171060918144E+00
  0.168263136362E+00
  0.330900950208E+00
  0.330227325117E+00
  0.502473624399E+00
  0.502535840658E+00
  0.127425195744E-02
 -0.503012792088E-02
 -0.215867625754E+01
 -0.214603722786E+01
 -0.175429131456E+01
 -0.175072379169E+01
 -0.114442255790E+01
 -0.114706959275E+01
 -0.803378479197E+00
 -0.810230532845E+00
 -0.508645746903E+00
 -0.518134610476E+00
 -0.271082911299E+00
 -0.262077830460E+00
 -0.108221115664E+00
 -0.980541516522E-01
 -0.196996515413E-02
  0.849739567028E-02
  0.768159298624E-01
  0.867352158097E-01
  0.167971980882E+00
  0.176542679567E+00
  0.150712761628E+00
  0.154441933508E+00
  0.100617549711E+00
  0.108578362782E+00
  0.811420274271E-01
  0.914715437207E-01
  0.671751210528E-01
  0.787133756390E-01
  0.583981022882E-01
  0.697722044345E-01
  0.818667159322E-01
  0.721836119033E-01
  0.167073491974E+00
  0.159837709037E+00
  0.328462487688E+00
  0.324431589757E+00
  0.500480641485E+00
  0.500269389306E+00
 -0.644337255164E-02
  0.298075508959E-02
 -0.214050290410E+01
 -0.215895137171E+01
 -0.174074192702E+01
 -0.175639903507E+01
 -0.113258877931E+01
 -0.114772791125E+01
 -0.790592287494E+00
 -0.807837728854E+00
 -0.494474802792E+00
 -0.513433906881E+00
 -0.263521570623E+00
 -0.247333439560E+00
 -0.991580020888E-01
 -0.815923187734E-01
  0.802664113132E-02
  0.257200604241E-01
  0.872110907973E-01
  0.103846728744E+00
  0.178633785909E+00
  0.193146000750E+00
  0.142876236243E+00
  0.146268677766E+00
  0.881024784946E-01
  0.976221675722E-01
  0.656884422143E-01
  0.789844852402E-01
  0.497813952747E-01
  0.658302917511E-01
  0.403401492291E-01
  0.577129020879E-01
  0.707627070306E-01
  0.549825675469E-01
  0.157752490559E+00
  0.145063526280E+00
  0.321260243710E+00
  0.313508456584E+00
  0.496047832038E+00
  0.495709448374E+00
 -0.181503605955E-02
  0.233322767977E-01
 -0.209273438997E+01
 -0.214119504984E+01
 -0.170891244224E+01
 -0.174419116448E+01
 -0.110851931697E+01
 -0.113768759979E+01
 -0.767123088370E+00
 -0.797567694478E+00
 -0.469951200240E+00
 -0.502235665453E+00
 -0.249076747273E+00
 -0.223061912903E+00
 -0.833239041958E-01
 -0.558790463013E-01
  0.246529271919E-01
  0.516129286233E-01
  0.104054200313E+00
  0.129188801378E+00
  0.195757088424E+00
  0.217833181147E+00
  0.131775478733E+00
  0.135326633500E+00
  0.722962563283E-01
  0.828676496374E-01
  0.472053645746E-01
  0.618362845976E-01
  0.289568727072E-01
  0.472928497825E-01
  0.168493250810E-01
  0.390717193761E-01
  0.522671623470E-01
  0.300493964991E-01
  0.141406348254E+00
  0.122170125982E+00
  0.308061614919E+00
  0.296155436989E+00
  0.488223336869E+00
  0.487946482099E+00
  0.137533588942E-01
  0.541269143995E-01
 -0.201843971920E+01
 -0.209387958845E+01
 -0.165983365563E+01
 -0.171410113121E+01
 -0.107175679679E+01
 -0.111624858081E+01
 -0.731180765181E+00
 -0.778192194658E+00
 -0.432411476791E+00
 -0.482942316514E+00
 -0.225297490720E+00
 -0.187851430229E+00
 -0.588392881816E-01
 -0.211513513184E-01
  0.491052095240E-01
  0.851742204155E-01
  0.128175243306E+00
  0.162196485506E+00
  0.220175280110E+00
  0.251511937484E+00
  0.112602383894E+00
  0.118918139624E+00
  0.491612804698E-01
  0.632925892026E-01
  0.240047669732E-01
  0.405388258163E-01
  0.591176391740E-02
  0.244247335356E-01
 -0.860031130648E-02
  0.143033779412E-01
  0.248423935849E-01
 -0.509848000736E-03
  0.115621449627E+00
  0.893874957933E-01
  0.286823841982E+00
  0.270183061905E+00
  0.475295364210E+00
  0.475444662960E+00
  0.374029646685E-01
  0.926281665933E-01
 -0.192204004584E+01
 -0.202002762402E+01
 -0.159511948030E+01
 -0.166719288072E+01
 -0.102166447271E+01
 -0.108336615199E+01
 -0.680341339983E+00
 -0.749131918073E+00
 -0.380235703709E+00
 -0.454667830253E+00
 -0.191002520904E+00
 -0.144822647735E+00
 -0.265038473140E-01
  0.175730007972E-01
  0.793937078206E-01
  0.121894090526E+00
  0.157596789278E+00
  0.199754238049E+00
  0.251064760559E+00
  0.292189068376E+00
  0.700907087843E-01
  0.892778534795E-01
  0.792246472820E-02
  0.333975634010E-01
 -0.103839224534E-01
  0.127148882369E-01
 -0.222767218984E-01
 -0.192893622378E-02
 -0.344468040519E-01
 -0.136258686925E-01
 -0.100444930101E-01
 -0.304722163891E-01
  0.775011635780E-01
  0.479031838756E-01
  0.253606052491E+00
  0.231747824133E+00
  0.453941540637E+00
  0.455371665706E+00
  0.646093970527E-01
  0.135966507885E+00
 -0.180764700652E+01
 -0.192400076321E+01
 -0.151548693606E+01
 -0.160530073007E+01
 -0.955511601493E+00
 -0.103969648160E+01
 -0.611154233689E+00
 -0.710991166107E+00
 -0.318405479330E+00
 -0.418237042424E+00
 -0.149830084027E+00
 -0.103602221396E+00
  0.781791562329E-02
  0.521940018721E-01
  0.109402613343E+00
  0.156300365819E+00
  0.186710742067E+00
  0.240356411643E+00
  0.283144212250E+00
  0.344015869336E+00
 -0.275944235532E-01
  0.240492886666E-01
 -0.727175065603E-01
 -0.209112604662E-01
 -0.678894912392E-01
 -0.297473891023E-01
 -0.629368179293E-01
 -0.355381703637E-01
 -0.649205568672E-01
 -0.438020854050E-01
 -0.469488474523E-01
 -0.576862506128E-01
  0.272126302438E-01
  0.601205357236E-02
  0.200727002914E+00
  0.176336340523E+00
  0.416380799082E+00
  0.421463831913E+00
  0.880766288696E-01
  0.181927347429E+00
 -0.167625366710E+01
 -0.180982548633E+01
 -0.141700544425E+01
 -0.153013683149E+01
 -0.863902393330E+00
 -0.987049365710E+00
 -0.527476021182E+00
 -0.665274377231E+00
 -0.261775815953E+00
 -0.380533956491E+00
 -0.112145381608E+00
 -0.756846477959E-01
  0.344130973167E-01
  0.729657414877E-01
  0.130759989946E+00
  0.180698625158E+00
  0.209154905431E+00
  0.282828763562E+00
  0.313047857442E+00
  0.417353685226E+00
 -0.299359496459E+00
 -0.130596185724E+00
 -0.239299950813E+00
 -0.131713625929E+00
 -0.175762814948E+00
 -0.104625278401E+00
 -0.132197128027E+00
 -0.871822210630E-01
 -0.111307735883E+00
 -0.825426215321E-01
 -0.863510429287E-01
 -0.891610203518E-01
 -0.283183512879E-01
 -0.337171934132E-01
  0.119106310539E+00
  0.107275061393E+00
  0.339708285081E+00
  0.357022194019E+00
  0.899649379378E-01
  0.229730099992E+00
 -0.151854942377E+01
 -0.167832302424E+01
 -0.127732730615E+01
 -0.144301916546E+01
 -0.734906593673E+00
 -0.928328101065E+00
 -0.455762259248E+00
 -0.619488750369E+00
 -0.223872257932E+00
 -0.362330315514E+00
 -0.923855575245E-01
 -0.767115643255E-01
  0.378042492904E-01
  0.604599604694E-01
  0.126508318226E+00
  0.171850061310E+00
  0.209625224591E+00
  0.316309626350E+00
  0.323703643434E+00
  0.515551793084E+00
 -0.196753760049E+03
 -0.126138188597E+01
 -0.148625823787E+01
 -0.428900746313E+00
 -0.457731879629E+00
 -0.294290172440E+00
 -0.314991898670E+00
 -0.202507013255E+00
 -0.221314751482E+00
 -0.158234784967E+00
 -0.156369187037E+00
 -0.149692786131E+00
 -0.101147011929E+00
 -0.100278395110E+00
 -0.517911457023E-02
  0.159515261923E-02
  0.151156902360E+00
  0.207525405926E+00
 -0.484309691132E-01
  0.260603774690E+00
 -0.122807877728E+01
 -0.152012848393E+01
 -0.980075644925E+00
 -0.136494381199E+01
 -0.622226429389E+00
 -0.880478369836E+00
 -0.435838507993E+00
 -0.628414193111E+00
 -0.229430913501E+00
 -0.428528413343E+00
 -0.138952820332E+00
 -0.178503733390E+00
 -0.553532572334E-01
 -0.938150124978E-01
 -0.183438911343E-01
 -0.280452604264E-01
  0.477103912297E-01
 -0.106833633404E+00
  0.530149215532E+00
 -0.216807812241E+03
 -0.548683994717E+03
 -0.135687672013E+02
 -0.182227005837E+01
 -0.173041563285E+01
 -0.941353891647E+00
 -0.940417002278E+00
 -0.528710753778E+00
 -0.533602525748E+00
 -0.347260294712E+00
 -0.340991397118E+00
 -0.290309714051E+00
 -0.255832661993E+00
 -0.263335617249E+00
 -0.213592875737E+00
 -0.244334932931E+00
 -0.187977207164E+00
 -0.186742154824E+00
 -0.340519602948E+00
 -0.123040709780E+01
 -0.887043200113E+00
 -0.117541841974E+01
 -0.695652533006E+00
 -0.874078001004E+00
 -0.556826568879E+00
 -0.738924938296E+00
 -0.377712930922E+00
 -0.673761775656E+00
 -0.353849916102E+00
 -0.625869559993E+00
 -0.438748528160E+00
 -0.964010309798E+00
 -0.754795504979E+00
 -0.182956118789E+01
 -0.261195198861E+01
 -0.767868502126E-01
 -0.455937371064E+03
 -0.602355776625E+03
 -0.357528886298E+02
 -0.285821853076E+01
 -0.287320710626E+01
 -0.159519323410E+01
 -0.159614969131E+01
 -0.901855981565E+00
 -0.911771430546E+00
 -0.588515980306E+00
 -0.589267196693E+00
 -0.479877370082E+00
 -0.457742582037E+00
 -0.457228914502E+00
 -0.425433927029E+00
 -0.475116085412E+00
 -0.435156158479E+00
 -0.502123423406E+00
 -0.496362416054E+00
 -0.117872709309E+01
 -0.936299422157E+00
 -0.111654547661E+01
 -0.813883834020E+00
 -0.922417234164E+00
 -0.708623767996E+00
 -0.856028767612E+00
 -0.563242154691E+00
 -0.904717460839E+00
 -0.633679663125E+00
 -0.103090814495E+01
 -0.888647054292E+00
 -0.168380853643E+01
 -0.152944860784E+01
 -0.326646995925E+01
 -0.459404570489E+01
 -0.117146838302E+01
 -0.459247226336E+03
 -0.487409816460E+03
 -0.360323717958E+02
 -0.413129025838E+01
 -0.396721899836E+01
 -0.217630584212E+01
 -0.219005453739E+01
 -0.123953066908E+01
 -0.126522452249E+01
 -0.811008360630E+00
 -0.823985354569E+00
 -0.663274496460E+00
 -0.651066468482E+00
 -0.635710091798E+00
 -0.612378819570E+00
 -0.664992247511E+00
 -0.633554778657E+00
 -0.737089468361E+00
 -0.629728804466E+00
 -0.106455839967E+01
 -0.975993575500E+00
 -0.102922158296E+01
 -0.880837908318E+00
 -0.917431423324E+00
 -0.802599967463E+00
 -0.912351595474E+00
 -0.709945746889E+00
 -0.105230468267E+01
 -0.861986651567E+00
 -0.134024479476E+01
 -0.126242979967E+01
 -0.224836603062E+01
 -0.217071271552E+01
 -0.433826660431E+01
 -0.616557263422E+01
 -0.818667766156E+00
 -0.355507377235E+03
 -0.325996473697E+03
 -0.203092593063E+02
 -0.552512322940E+01
 -0.476465247324E+01
 -0.251550657014E+01
 -0.259080895689E+01
 -0.144052975276E+01
 -0.151489298791E+01
 -0.945492441216E+00
 -0.990949948174E+00
 -0.793711297608E+00
 -0.803395652452E+00
 -0.771540760766E+00
 -0.764148429934E+00
 -0.803817885671E+00
 -0.798718993509E+00
 -0.891739317654E+00
 -0.771725806721E+00
 -0.920890294492E+00
 -0.982017586635E+00
 -0.918684340207E+00
 -0.883917379197E+00
 -0.861977535737E+00
 -0.824378990994E+00
 -0.898593743493E+00
 -0.787931728771E+00
 -0.109638999235E+01
 -0.992773656233E+00
 -0.150164356560E+01
 -0.148309559585E+01
 -0.255974084738E+01
 -0.254911971859E+01
 -0.485755740554E+01
 -0.653756952558E+01
 -0.490236639442E+01
 -0.271569357008E+03
SCALARS sigma float 1
LOOKUP_TABLE default
  0.764838368926E-01
  0.764838592348E-01
  0.760155203808E-01
  0.760155585016E-01
  0.751704823620E-01
  0.751704441824E-01
  0.766726478008E-01
  0.766726798685E-01
  0.905016300709E-01
  0.905016217085E-01
  0.134184471563E+00
  0.134184478771E+00
  0.224455649083E+00
  0.224455641948E+00
  0.315805070269E+00
  0.315805059740E+00
  0.435168544153E+00
  0.435168530670E+00
  0.662525318170E+00
  0.662525317716E+00
  0.440644820527E+00
  0.440644840120E+00
  0.986213090143E-01
  0.986213298981E-01
 -0.415043575589E-01
 -0.415043440726E-01
 -0.139331847425E+00
 -0.139331839619E+00
 -0.229430561789E+00
 -0.229430568213E+00
 -0.270889594557E+00
 -0.270889585528E+00
 -0.283734847811E+00
 -0.283734881798E+00
 -0.285122219624E+00
 -0.285122180770E+00
 -0.284341916018E+00
 -0.284341953417E+00
 -0.283909319398E+00
 -0.283909340768E+00
  0.764838019932E-01
  0.764838355287E-01