# vtk DataFile Version 3.0
MachLine results file. Generated by MachLine, USU AeroLab (c) 2022.
ASCII
DATASET POLYDATA
POINTS                 144 float
  0.312930634121E-04  0.000000000000E+00  0.387506237003E-20
  0.113539063053E+01  0.000000000000E+00 -0.658087935210E+00
  0.113539063053E+01  0.000000000000E+00  0.658087935210E+00
  0.192378249374E+01  0.192372498306E+01  0.118693775247E-20
  0.305914835645E+01  0.192374081896E+01 -0.658086193634E+00
  0.305914835645E+01  0.192374081896E+01  0.658086193634E+00
  0.423028253315E+01  0.000000000000E+00 -0.108742011765E+01
  0.423028253315E+01  0.000000000000E+00  0.108742011765E+01
  0.547037632114E+01  0.547028701656E+01  0.184311801238E-20
  0.615404028205E+01  0.192375045511E+01 -0.108741647537E+01
  0.615404028205E+01  0.192375045511E+01  0.108741647537E+01
  0.660573385881E+01  0.547031260802E+01 -0.658068469811E+00
  0.660573385881E+01  0.547031260802E+01  0.658068469811E+00
  0.939508564654E+01  0.000000000000E+00 -0.980702541365E+00
  0.939508564654E+01  0.000000000000E+00  0.980702541365E+00
  0.970062414602E+01  0.547032722042E+01 -0.108739780002E+01
  0.970062414602E+01  0.547032722042E+01  0.108739780002E+01
  0.113188445158E+02  0.192375687882E+01 -0.980693094219E+00
  0.113188445158E+02  0.192375687882E+01  0.980693094219E+00
  0.113820643673E+02  0.113819393863E+02  0.103177094566E-19
  0.125174139439E+02  0.113819753230E+02 -0.658047284009E+00
  0.125174139439E+02  0.113819753230E+02  0.658047284009E+00
  0.145401991734E+02  0.000000000000E+00 -0.479574165270E+00
  0.145401991734E+02  0.000000000000E+00  0.479574165270E+00
  0.148654325708E+02  0.547033565208E+01 -0.980679907908E+00
  0.148654325708E+02  0.547033565208E+01  0.980679907908E+00
  0.156123048447E+02  0.113819959977E+02 -0.108737528443E+01
  0.156123048447E+02  0.113819959977E+02  0.108737528443E+01
  0.164639622288E+02  0.192375787923E+01 -0.479572980793E+00
  0.164639622288E+02  0.192375787923E+01  0.479572980793E+00
  0.176505079470E+02  0.000000000000E+00 -0.144172424756E+00
  0.176505079470E+02  0.000000000000E+00  0.144172424756E+00
  0.189999778925E+02  0.000000000000E+00 -0.165542730925E-05
  0.195742705951E+02  0.192375720641E+01 -0.144166632792E+00
  0.195742705951E+02  0.192375720641E+01  0.144166632792E+00
  0.197562681851E+02  0.197561219516E+02  0.150902427192E-19
  0.200105551723E+02  0.547033748596E+01 -0.479557181615E+00
  0.200105551723E+02  0.547033748596E+01  0.479557181615E+00
  0.207771191273E+02  0.113820071544E+02 -0.980659764437E+00
  0.207771191273E+02  0.113820071544E+02  0.980659764437E+00
  0.208916146114E+02  0.197561629460E+02 -0.658032293233E+00
  0.208916146114E+02  0.197561629460E+02  0.658032293233E+00
  0.209237410836E+02  0.192377783745E+01 -0.254601661134E-05
  0.231208669354E+02  0.547033723104E+01 -0.144147288307E+00
  0.231208669354E+02  0.547033723104E+01  0.144147288307E+00
  0.239865086400E+02  0.197561881221E+02 -0.108735995859E+01
  0.239865086400E+02  0.197561881221E+02  0.108735995859E+01
  0.244703257500E+02  0.547037144337E+01 -0.420209809024E-05
  0.259222501778E+02  0.113820100762E+02 -0.479534889879E+00
  0.259222501778E+02  0.113820100762E+02  0.479534889879E+00
  0.290325693319E+02  0.113820100595E+02 -0.144123159709E+00
  0.290325693319E+02  0.113820100595E+02  0.144123159709E+00
  0.291513358854E+02  0.197562015750E+02 -0.980641566995E+00
  0.291513358854E+02  0.197562015750E+02  0.980641566995E+00
  0.292438739780E+02  0.292437358852E+02  0.570007673422E-20
  0.303792302038E+02  0.292437728021E+02 -0.658034298375E+00
  0.303792302038E+02  0.292437728021E+02  0.658034298375E+00
  0.303820150452E+02  0.113820592806E+02 -0.606459828689E-05
  0.334741318570E+02  0.292437979831E+02 -0.108736325854E+01
  0.334741318570E+02  0.292437979831E+02  0.108736325854E+01
  0.342964796805E+02  0.197562051036E+02 -0.479518310694E+00
  0.342964796805E+02  0.197562051036E+02  0.479518310694E+00
  0.374068082499E+02  0.197562052085E+02 -0.144105313513E+00
  0.374068082499E+02  0.197562052085E+02  0.144105313513E+00
  0.376180497188E+02  0.376179427128E+02  0.220844969606E-20
  0.386389740370E+02  0.292438117601E+02 -0.980639078250E+00
  0.386389740370E+02  0.292438117601E+02  0.980639078250E+00
  0.387534178424E+02  0.376179696393E+02 -0.658052759190E+00
  0.387534178424E+02  0.376179696393E+02  0.658052759190E+00
  0.387562492294E+02  0.197562629782E+02 -0.717453034836E-05
  0.418483373371E+02  0.376179903301E+02 -0.108738447037E+01
  0.418483373371E+02  0.376179903301E+02  0.108738447037E+01
  0.435297029672E+02  0.435296308340E+02 -0.148872652358E-20
  0.437841353047E+02  0.292438149822E+02 -0.479519620832E+00
  0.437841353047E+02  0.292438149822E+02  0.479519620832E+00
  0.446650848654E+02  0.435296478006E+02 -0.658076458324E+00
  0.446650848654E+02  0.435296478006E+02  0.658076458324E+00
  0.468944715132E+02  0.292438150774E+02 -0.144105707172E+00
  0.468944715132E+02  0.292438150774E+02  0.144105707172E+00
  0.470131928898E+02  0.376180021786E+02 -0.980656468792E+00
  0.470131928898E+02  0.376180021786E+02  0.980656468792E+00
  0.470762711240E+02  0.470762252138E+02 -0.189503762973E-20
  0.477600142238E+02  0.435296624425E+02 -0.108741098466E+01
  0.477600142238E+02  0.435296624425E+02  0.108741098466E+01
  0.482116561869E+02  0.470762352010E+02 -0.658095644386E+00
  0.482116561869E+02  0.470762352010E+02  0.658095644386E+00
  0.482439203362E+02  0.292438688182E+02 -0.674948747450E-05
  0.490000098337E+02  0.489999829894E+02  0.328552793022E-20
  0.501354069086E+02  0.489999871344E+02 -0.658111061843E+00
  0.501354069086E+02  0.489999871344E+02  0.658111061843E+00
  0.506007778866E+02  0.494653516704E+02 -0.465360197472E+00
  0.506007778866E+02  0.494653516704E+02  0.465360197472E+00
  0.507935375703E+02  0.496581169850E+02 -0.771259651005E-15
  0.513065943267E+02  0.470762448761E+02 -0.108743228644E+01
  0.513065943267E+02  0.470762448761E+02  0.108743228644E+01
  0.521583703386E+02  0.376180044784E+02 -0.479538356774E+00
  0.521583703386E+02  0.376180044784E+02  0.479538356774E+00
  0.529248840674E+02  0.435296714441E+02 -0.980682430110E+00
  0.529248840674E+02  0.435296714441E+02  0.980682430110E+00
  0.532303491166E+02  0.489999893063E+02 -0.108744779990E+01
  0.532303491166E+02  0.489999893063E+02  0.108744779990E+01
  0.539993229218E+02  0.497689436952E+02 -0.768946532731E+00
  0.539993229218E+02  0.497689436952E+02  0.768946532731E+00
  0.543178430301E+02  0.500874571974E+02 -0.157374059169E-15
  0.552687143289E+02  0.376180044211E+02 -0.144124171041E+00
  0.552687143289E+02  0.376180044211E+02  0.144124171041E+00
  0.564714741318E+02  0.470762515457E+02 -0.980703384050E+00
  0.564714741318E+02  0.470762515457E+02  0.980703384050E+00
  0.566181803863E+02  0.376180447422E+02 -0.512671807591E-05
  0.580700700039E+02  0.435296728856E+02 -0.479561446547E+00
  0.580700700039E+02  0.435296728856E+02  0.479561446547E+00
  0.583952342525E+02  0.489999966035E+02 -0.980715337112E+00
  0.583952342525E+02  0.489999966035E+02  0.980715337112E+00
  0.590887388161E+02  0.496934812578E+02 -0.693469805575E+00
  0.590887388161E+02  0.496934812578E+02  0.693469805575E+00
  0.593759966941E+02  0.499807194883E+02 -0.424930093259E-20
  0.611804219244E+02  0.435296725276E+02 -0.144148458102E+00
  0.611804219244E+02  0.435296725276E+02  0.144148458102E+00
  0.616166681578E+02  0.470762525270E+02 -0.479577866536E+00
  0.616166681578E+02  0.470762525270E+02  0.479577866536E+00
  0.625299026009E+02  0.435296982293E+02 -0.330981405380E-05
  0.635404285646E+02  0.489999966685E+02 -0.479587400581E+00
  0.635404285646E+02  0.489999966685E+02  0.479587400581E+00
  0.638795744263E+02  0.493391226712E+02 -0.339121163529E+00
  0.638795744263E+02  0.493391226712E+02  0.339121163529E+00
  0.640200547551E+02  0.494795968058E+02  0.296949892487E-15
  0.647270242582E+02  0.470762518038E+02 -0.144167179154E+00
  0.647270242582E+02  0.470762518038E+02  0.144167179154E+00
  0.660765195290E+02  0.470762667259E+02 -0.196051129310E-05
  0.666507849833E+02  0.489999978860E+02 -0.144179063945E+00
  0.666507849833E+02  0.489999978860E+02  0.144179063945E+00
  0.667527523879E+02  0.491019555434E+02 -0.101954743525E+00
  0.667527523879E+02  0.491019555434E+02  0.101954743525E+00
  0.667949891457E+02  0.491441877800E+02 -0.260490388611E-16
  0.680002928756E+02  0.489999838682E+02  0.822676812894E-21
  0.244703257500E+02  0.547037144337E+01  0.420209809024E-05
  0.209237410836E+02  0.192377783745E+01  0.254601661134E-05
  0.303820150452E+02  0.113820592806E+02  0.606459828689E-05
  0.387562492294E+02  0.197562629782E+02  0.717453034836E-05
  0.482439203362E+02  0.292438688182E+02  0.674948747450E-05
  0.660765195290E+02  0.470762667259E+02  0.196051129310E-05
  0.625299026009E+02  0.435296982293E+02  0.330981405380E-05
  0.566181803863E+02  0.376180447422E+02  0.512671807591E-05
  0.189999778925E+02  0.000000000000E+00  0.165542730925E-05
VERTICES                 144                 288
1                   0
1                   1
1                   2
1                   3
1                   4
1                   5
1                   6
1                   7
1                   8
1                   9
1                  10
1                  11
1                  12
1                  13
1                  14
1                  15
1                  16
1                  17
1                  18
1                  19
1                  20
1                  21
1                  22
1                  23
1                  24
1                  25
1                  26
1                  27
1                  28
1                  29
1                  30
1                  31
1                  32
1                  33
1                  34
1                  35
1                  36
1                  37
1                  38
1                  39
1                  40
1                  41
1                  42
1                  43
1                  44
1                  45
1                  46
1                  47
1                  48
1                  49
1                  50
1                  51
1                  52
1                  53
1                  54
1                  55
1                  56
1                  57
1                  58
1                  59
1                  60
1                  61
1                  62
1                  63
1                  64
1                  65
1                  66
1                  67
1                  68
1                  69
1                  70
1                  71
1                  72
1                  73
1                  74
1                  75
1                  76
1                  77
1                  78
1                  79
1                  80
1                  81
1                  82
1                  83
1                  84
1                  85
1                  86
1                  87
1                  88
1                  89
1                  90
1                  91
1                  92
1                  93
1                  94
1                  95
1                  96
1                  97
1                  98
1                  99
1                 100
1                 101
1                 102
1                 103
1                 104
1                 105
1                 106
1                 107
1                 108
1                 109
1                 110
1                 111
1                 112
1                 113
1                 114
1                 115
1                 116
1                 117
1                 118
1                 119
1                 120
1                 121
1                 122
1                 123
1                 124
1                 125
1                 126
1                 127
1                 128
1                 129
1                 130
1                 131
1                 132
1                 133
1                 134
1                 135
1                 136
1                 137
1                 138
1                 139
1                 140
1                 141
1                 142
1                 143
POINT_DATA                 144
SCALARS phi float 1
LOOKUP_TABLE default
  0.000000000000E+00
  0.555111512313E-15
  0.222044604925E-15
 -0.111022302463E-15
  0.111022302463E-15
 -0.555111512313E-15
  0.155431223448E-14
  0.721644966006E-15
 -0.666133814775E-15
 -0.666133814775E-15
 -0.166533453694E-15
 -0.155431223448E-14
 -0.444089209850E-15
 -0.222044604925E-15
  0.520417042793E-15
  0.333066907388E-15
  0.832667268469E-16
 -0.277555756156E-16
 -0.111022302463E-15
  0.222044604925E-15
  0.222044604925E-15
 -0.444089209850E-15
  0.000000000000E+00
 -0.666133814775E-15
  0.693889390391E-16
 -0.111022302463E-15
  0.111022302463E-15
  0.333066907388E-15
 -0.471844785466E-15
  0.777156117238E-15
  0.388578058619E-15
 -0.105471187339E-14
  0.222044604925E-15
  0.105471187339E-14
  0.133226762955E-14
  0.122124532709E-14
  0.111022302463E-15
  0.277555756156E-15
  0.558580959265E-15
  0.333066907388E-15
 -0.666133814775E-15
  0.111022302463E-15
  0.000000000000E+00
  0.721644966006E-15
 -0.555111512313E-15
  0.832667268469E-15
 -0.388578058619E-15
 -0.238697950294E-14
  0.832667268469E-15
 -0.111022302463E-15
  0.666133814775E-15
  0.832667268469E-15
 -0.520417042793E-16
 -0.388578058619E-15
 -0.555111512313E-15
  0.444089209850E-15
  0.333066907388E-15
 -0.610622663544E-15
 -0.666133814775E-15
 -0.860422844084E-15
  0.000000000000E+00
 -0.166533453694E-14
  0.721644966006E-15
  0.555111512313E-16
 -0.333066907388E-15
 -0.485722573274E-16
 -0.144328993201E-14
  0.000000000000E+00
 -0.555111512313E-16
 -0.205391259556E-14
  0.888178419700E-15
 -0.180411241502E-15
 -0.333066907388E-15
  0.999200722163E-15
  0.111022302463E-15
 -0.222044604925E-15
 -0.222044604925E-15
  0.000000000000E+00
 -0.943689570931E-15
  0.582867087928E-15
  0.333066907388E-15
 -0.277555756156E-15
 -0.610622663544E-15
  0.192554305833E-15
 -0.222044604925E-15
  0.555111512313E-16
  0.721644966006E-15
 -0.333066907388E-15
 -0.166533453694E-15
  0.277555756156E-16
 -0.333066907388E-15
 -0.555111512313E-16
 -0.249800180541E-15
  0.249800180541E-15
 -0.485722573274E-15
 -0.277555756156E-15
 -0.888178419700E-15
 -0.138777878078E-15
  0.166533453694E-15
  0.208166817117E-15
  0.166533453694E-15
 -0.180411241502E-15
  0.138777878078E-15
  0.693889390391E-17
 -0.333066907388E-15
 -0.555111512313E-16
  0.860422844084E-15
  0.122124532709E-14
 -0.555111512313E-15
 -0.166533453694E-15
  0.222044604925E-15
  0.000000000000E+00
  0.721644966006E-15
  0.832667268469E-16
  0.555111512313E-15
 -0.166533453694E-15
 -0.777156117238E-15
  0.277555756156E-15
  0.222044604925E-15
  0.888178419700E-15
 -0.832667268469E-15
 -0.166533453694E-15
 -0.555111512313E-16
 -0.111022302463E-15
 -0.555111512313E-16
  0.499600361081E-15
 -0.111022302463E-15
 -0.111022302463E-15
 -0.555111512313E-16
  0.333066907388E-15
 -0.277555756156E-15
 -0.555111512313E-16
 -0.388578058619E-15
  0.333066907388E-15
  0.111022302463E-15
  0.610622663544E-15
  0.666133814775E-15
  0.888178419700E-15
  0.144328993201E-14
  0.160982338571E-14
  0.333066907388E-15
 -0.555111512313E-16
 -0.388578058619E-15
 -0.777156117238E-15
SCALARS phi_mu float 1
LOOKUP_TABLE default
  0.613347695292E+00
  0.817408370702E+00
  0.686907196375E+00
  0.779229630602E+00
  0.845434960866E+00
  0.673931386641E+00
  0.756422326792E+00
  0.470042992530E+00
  0.747097426107E+00
  0.655274608036E+00
  0.348319969594E+00
  0.785582816638E+00
  0.606928091479E+00
  0.333142380877E+00
  0.175297313810E-01
  0.545455625921E+00
  0.233967815949E+00
  0.196344029923E+00
 -0.113887978075E+00
  0.673307464718E+00
  0.705763209276E+00
  0.526328492330E+00
 -0.151421420253E+00
 -0.336733082414E+00
  0.819922336311E-01
 -0.223179187965E+00
  0.460444941821E+00
  0.149438805768E+00
 -0.234591808658E+00
 -0.406109119659E+00
 -0.359830382502E+00
 -0.423328936715E+00
 -0.391136196528E+00
 -0.369818547724E+00
 -0.425597535198E+00
  0.625493894795E+00
 -0.282290306936E+00
 -0.449388452712E+00
  0.207177793399E-01
 -0.282270323413E+00
  0.659069616754E+00
  0.479833420052E+00
 -0.353215150945E+00
 -0.376481743841E+00
 -0.431270987606E+00
  0.419210653639E+00
  0.108777810741E+00
 -0.351716213723E+00
 -0.308693117463E+00
 -0.474700277430E+00
 -0.389640447974E+00
 -0.444156552630E+00
 -0.825719795212E-02
 -0.310571103679E+00
  0.599267866413E+00
  0.633371694239E+00
  0.454307874442E+00
 -0.361122391380E+00
  0.395196671350E+00
  0.850983295390E-01
 -0.327198062777E+00
 -0.492883919523E+00
 -0.403549890394E+00
 -0.457971341730E+00
  0.574658645430E+00
 -0.293525557204E-01
 -0.331300352869E+00
  0.608066664674E+00
  0.429262793897E+00
 -0.373393413806E+00
  0.368116527913E+00
  0.585783922404E-01
  0.539054414039E+00
 -0.345281543908E+00
 -0.510759453334E+00
  0.569184729021E+00
  0.391093830894E+00
 -0.419511904385E+00
 -0.473865315722E+00
 -0.582139497858E-01
 -0.359362986340E+00
  0.482523347960E+00
  0.320432625241E+00
  0.128819085529E-01
  0.500982028446E+00
  0.325444980488E+00
 -0.388301256521E+00
  0.373078827864E+00
  0.358170959839E+00
  0.205919146776E+00
  0.279020074641E+00
  0.179958799118E+00
  0.210568032487E+00
  0.231119224806E+00
 -0.657042701931E-01
 -0.370428515593E+00
 -0.535330838973E+00
 -0.106990504554E+00
 -0.404324995271E+00
  0.121382827512E+00
 -0.125440796041E+00
  0.384855857215E-01
 -0.115910172392E+00
 -0.535453265360E-01
 -0.438052536901E+00
 -0.492207511314E+00
 -0.150729346497E+00
 -0.430748662096E+00
 -0.403016013540E+00
 -0.387101505084E+00
 -0.549421989332E+00
 -0.172123363271E+00
 -0.398640622776E+00
 -0.209676965838E+00
 -0.349556390924E+00
 -0.279571707165E+00
 -0.428086822769E+00
 -0.481476923252E+00
 -0.353398036622E+00
 -0.506841644242E+00
 -0.382374924696E+00
 -0.291329270264E+00
 -0.408405465988E+00
 -0.292954537157E+00
 -0.365350625225E+00
 -0.321923592162E+00
 -0.358761177119E+00
 -0.410032756697E+00
 -0.305184030311E+00
 -0.253659913996E+00
 -0.289948815969E+00
 -0.250421564489E+00
 -0.272924812109E+00
 -0.257910248258E+00
 -0.193044391211E+00
 -0.351718525035E+00
 -0.353216586797E+00
 -0.361125679032E+00
 -0.373397278277E+00
 -0.388304895808E+00
 -0.305185092543E+00
 -0.382376727869E+00
 -0.403018794350E+00
 -0.391137458858E+00
SCALARS phi_sigma float 1
LOOKUP_TABLE default
 -0.613347695292E+00
 -0.817408370702E+00
 -0.686907196375E+00
 -0.779229630602E+00
 -0.845434960866E+00
 -0.673931386641E+00
 -0.756422326792E+00
 -0.470042992530E+00
 -0.747097426107E+00
 -0.655274608036E+00
 -0.348319969594E+00
 -0.785582816638E+00
 -0.606928091479E+00
 -0.333142380877E+00
 -0.175297313810E-01
 -0.545455625921E+00
 -0.233967815949E+00
 -0.196344029923E+00
  0.113887978075E+00
 -0.673307464718E+00
 -0.705763209276E+00
 -0.526328492330E+00
  0.151421420253E+00
  0.336733082414E+00
 -0.819922336311E-01
  0.223179187965E+00
 -0.460444941821E+00
 -0.149438805768E+00
  0.234591808658E+00
  0.406109119659E+00
  0.359830382502E+00
  0.423328936715E+00
  0.391136196528E+00
  0.369818547724E+00
  0.425597535198E+00
 -0.625493894795E+00
  0.282290306936E+00
  0.449388452712E+00
 -0.207177793399E-01
  0.282270323413E+00
 -0.659069616754E+00
 -0.479833420052E+00
  0.353215150945E+00
  0.376481743841E+00
  0.431270987606E+00
 -0.419210653639E+00
 -0.108777810741E+00
  0.351716213723E+00
  0.308693117463E+00
  0.474700277430E+00
  0.389640447974E+00
  0.444156552630E+00
  0.825719795212E-02
  0.310571103679E+00
 -0.599267866413E+00
 -0.633371694239E+00
 -0.454307874442E+00
  0.361122391380E+00
 -0.395196671350E+00
 -0.850983295390E-01
  0.327198062777E+00
  0.492883919523E+00
  0.403549890394E+00
  0.457971341730E+00
 -0.574658645430E+00
  0.293525557204E-01
  0.331300352869E+00
 -0.608066664674E+00
 -0.429262793897E+00
  0.373393413806E+00
 -0.368116527913E+00
 -0.585783922404E-01
 -0.539054414039E+00
  0.345281543908E+00
  0.510759453334E+00
 -0.569184729021E+00
 -0.391093830894E+00
  0.419511904385E+00
  0.473865315722E+00
  0.582139497858E-01
  0.359362986340E+00
 -0.482523347960E+00
 -0.320432625241E+00
 -0.128819085529E-01
 -0.500982028446E+00
 -0.325444980488E+00
  0.388301256521E+00
 -0.373078827864E+00
 -0.358170959839E+00
 -0.205919146776E+00
 -0.279020074641E+00
 -0.179958799118E+00
 -0.210568032487E+00
 -0.231119224806E+00
  0.657042701931E-01
  0.370428515593E+00
  0.535330838973E+00
  0.106990504554E+00
  0.404324995271E+00
 -0.121382827512E+00
  0.125440796041E+00
 -0.384855857215E-01
  0.115910172392E+00
  0.535453265360E-01
  0.438052536901E+00
  0.492207511314E+00
  0.150729346497E+00
  0.430748662096E+00
  0.403016013540E+00
  0.387101505084E+00
  0.549421989332E+00
  0.172123363271E+00
  0.398640622776E+00
  0.209676965838E+00
  0.349556390924E+00
  0.279571707165E+00
  0.428086822769E+00
  0.481476923252E+00
  0.353398036622E+00
  0.506841644242E+00
  0.382374924696E+00
  0.291329270264E+00
  0.408405465988E+00
  0.292954537157E+00
  0.365350625225E+00
  0.321923592162E+00
  0.358761177119E+00
  0.410032756697E+00
  0.305184030311E+00
  0.253659913996E+00
  0.289948815969E+00
  0.250421564489E+00
  0.272924812109E+00
  0.257910248258E+00
  0.193044391211E+00
  0.351718525035E+00
  0.353216586797E+00
  0.361125679032E+00
  0.373397278277E+00
  0.388304895808E+00
  0.305185092543E+00
  0.382376727869E+00
  0.403018794350E+00
  0.391137458858E+00
