# vtk DataFile Version 3.0
TriPan results file. Generated by TriPan, USU AeroLab (c) 2021.
ASCII
DATASET POLYDATA
POINTS                  40 float
     19.758197784400      0.757896304131      0.000000000000
     99.001010669455      0.757896304131     14.543777726117
     19.000301361100      0.000000000000      0.000000000000
     98.976312976079      0.000000000000     14.678344874466
     20.789274215700      1.788973569870      0.000000000000
     99.034610523952      1.788973569870     14.360706516352
     22.173099517800      3.172797679900      0.000000000000
     99.079705462977      3.172797679900     14.115003516586
     23.996917724600      4.996616363530      0.000000000000
     99.139138521979      4.996616363530     13.791178244886
     26.343925476100      7.343624591830      0.000000000000
     99.215620843328      7.343624591830     13.374458848194
     29.273138046300     10.272837638900      0.000000000000
     99.311075567305     10.272837638900     12.854366959168
     32.792423248300     13.792121887200      0.000000000000
     99.425759083610     13.792121887200     12.229505620203
     36.832305908200     17.832006454500      0.000000000000
     99.557407393510     17.832006454500     11.512210390282
     41.234233856200     22.233930587800      0.000000000000
     99.700853731792     22.233930587800     10.730632759105
     45.766368866000     26.766069412200      0.000000000000
     99.848543148665     26.766069412200      9.925936410828
     50.168296814000     31.167993545500      0.000000000000
     99.991989486947     31.167993545500      9.144358779651
     54.208179473900     35.207878112800      0.000000000000
    100.123637796846     35.207878112800      8.427063549730
     57.727462768600     38.727161407500      0.000000000000
    100.238321250997     38.727161407500      7.802202549413
     60.656677246100     41.656375885000      0.000000000000
    100.333776037129     41.656375885000      7.282110321739
     63.003684997600     44.003383636500      0.000000000000
    100.410258358477     44.003383636500      6.865390925048
     64.827507019000     45.827201843300      0.000000000000
    100.469691541787     45.827201843300      6.541564976051
     66.211326599100     47.211025238000      0.000000000000
    100.514786294348     47.211025238000      6.295862992246
     67.242401123000     48.242103576700      0.000000000000
    100.548386086688     48.242103576700      6.112792121147
     68.000297546400     49.000000000000      0.000000000000
    100.573083780067     49.000000000000      5.978224972780
POLYGONS                  38                 152
3                   0                   1                   3
3                   0                   3                   2
3                   4                   5                   1
3                   4                   1                   0
3                   6                   7                   5
3                   6                   5                   4
3                   8                   9                   7
3                   8                   7                   6
3                  10                  11                   9
3                  10                   9                   8
3                  12                  13                  11
3                  12                  11                  10
3                  14                  15                  13
3                  14                  13                  12
3                  16                  17                  15
3                  16                  15                  14
3                  18                  19                  17
3                  18                  17                  16
3                  20                  21                  19
3                  20                  19                  18
3                  22                  23                  21
3                  22                  21                  20
3                  24                  25                  23
3                  24                  23                  22
3                  26                  27                  25
3                  26                  25                  24
3                  28                  29                  27
3                  28                  27                  26
3                  30                  31                  29
3                  30                  29                  28
3                  32                  33                  31
3                  32                  31                  30
3                  34                  35                  33
3                  34                  33                  32
3                  36                  37                  35
3                  36                  35                  34
3                  38                  39                  37
3                  38                  37                  36
POINT_DATA                  40
SCALARS mu float 1
LOOKUP_TABLE default
     -5.426428637916
     -5.426428637916
     -5.327760042480
     -5.327760042480
     -5.489793143562
     -5.489793143562
     -5.640021049788
     -5.640021049788
     -5.763137238278
     -5.763137238278
     -5.886397763838
     -5.886397763838
     -6.006630550067
     -6.006630550067
     -6.133105614279
     -6.133105614279
     -6.233542452314
     -6.233542452314
     -6.278965456909
     -6.278965456909
     -6.267422113152
     -6.267422113152
     -6.151167873291
     -6.151167873291
     -5.913288260667
     -5.913288260667
     -5.545269244967
     -5.545269244967
     -5.034621408915
     -5.034621408915
     -4.385583763431
     -4.385583763431
     -3.606109798697
     -3.606109798697
     -2.682440937613
     -2.682440937613
     -1.541870254692
     -1.541870254692
      0.000000000000
      0.000000000000
