# vtk DataFile Version 3.0
TriPan results file. Generated by TriPan, USU AeroLab (c) 2021.
ASCII
DATASET POLYDATA
POINTS                  50 float
     19.580198288000      0.579897820950      0.000000000000
     99.631872833846      0.579897820950      8.837787148239
     19.000301361100      0.000000000000      0.000000000000
     99.624889935975      0.000000000000      8.901037445894
     20.321611404400      1.321311235430      0.000000000000
     99.640800648138      1.321311235430      8.756920018026
     21.262266159100      2.261965751650      0.000000000000
     99.652127654334      2.261965751650      8.654321279413
     22.444129943800      3.443829536440      0.000000000000
     99.666359207775      3.443829536440      8.525413480972
     23.911006927500      4.910706520080      0.000000000000
     99.684022781578      4.910706520080      8.365418830995
     25.704246521000      6.703944683070      0.000000000000
     99.705616289593      6.703944683070      8.169827282231
     27.856279373200      8.855978012080      0.000000000000
     99.731530249341      8.855978012080      7.935101571246
     30.382303237900     11.382001876800      0.000000000000
     99.761947666382     11.382001876800      7.659584054400
     33.271335601800     14.271034240700      0.000000000000
     99.796736293475     14.271034240700      7.344472612220
     36.479064941400     17.478763580300      0.000000000000
     99.835362548136     17.478763580300      6.994600374389
     39.925552368200     20.925249099700      0.000000000000
     99.876863836723     20.925249099700      6.618686405031
     43.500301361100     24.500000000000      0.000000000000
     99.919909602226     24.500000000000      6.228782738786
     47.075050354000     28.074750900300      0.000000000000
     99.962955367728     28.074750900300      5.838879072541
     50.521537780800     31.521236419700      0.000000000000
    100.004456656316     31.521236419700      5.462965103184
     53.729267120400     34.728965759300      0.000000000000
    100.043082910977     34.728965759300      5.113092865352
     56.618297576900     37.617996215800      0.000000000000
    100.077871515102     37.617996215800      4.797981631215
     59.144321441700     40.144020080600      0.000000000000
    100.108288932144     40.144020080600      4.522464114359
     61.296356201200     42.296054840100      0.000000000000
    100.134202914858     42.296054840100      4.287738195341
     63.089595794700     44.089294433600      0.000000000000
    100.155796422874     44.089294433600      4.092146646578
     64.556472778300     45.556171417200      0.000000000000
    100.173459996675     45.556171417200      3.932151996612
     65.738334655800     46.738033294700      0.000000000000
    100.187691527151     46.738033294700      3.803244406191
     66.678993225100     47.678688049300      0.000000000000
    100.199018579280     47.678688049300      3.700645251514
     67.420402526900     48.420101165800      0.000000000000
    100.207946347638     48.420101165800      3.619778537366
     68.000297546400     49.000000000000      0.000000000000
    100.214929222541     49.000000000000      3.556528447754
POLYGONS                  48                 192
3                   0                   1                   3
3                   0                   3                   2
3                   4                   5                   1
3                   4                   1                   0
3                   6                   7                   5
3                   6                   5                   4
3                   8                   9                   7
3                   8                   7                   6
3                  10                  11                   9
3                  10                   9                   8
3                  12                  13                  11
3                  12                  11                  10
3                  14                  15                  13
3                  14                  13                  12
3                  16                  17                  15
3                  16                  15                  14
3                  18                  19                  17
3                  18                  17                  16
3                  20                  21                  19
3                  20                  19                  18
3                  22                  23                  21
3                  22                  21                  20
3                  24                  25                  23
3                  24                  23                  22
3                  26                  27                  25
3                  26                  25                  24
3                  28                  29                  27
3                  28                  27                  26
3                  30                  31                  29
3                  30                  29                  28
3                  32                  33                  31
3                  32                  31                  30
3                  34                  35                  33
3                  34                  33                  32
3                  36                  37                  35
3                  36                  35                  34
3                  38                  39                  37
3                  38                  37                  36
3                  40                  41                  39
3                  40                  39                  38
3                  42                  43                  41
3                  42                  41                  40
3                  44                  45                  43
3                  44                  43                  42
3                  46                  47                  45
3                  46                  45                  44
3                  48                  49                  47
3                  48                  47                  46
POINT_DATA                  50
SCALARS mu float 1
LOOKUP_TABLE default
     -3.444281442293
     -3.444281442293
     -3.430901924508
     -3.430901924508
     -3.471439838874
     -3.471439838874
     -3.505644819322
     -3.505644819322
     -3.549658918989
     -3.549658918989
     -3.604332020282
     -3.604332020282
     -3.664333293316
     -3.664333293316
     -3.727369065767
     -3.727369065767
     -3.789417913433
     -3.789417913433
     -3.847038173784
     -3.847038173784
     -3.892738819993
     -3.892738819993
     -3.923704435433
     -3.923704435433
     -3.931598212895
     -3.931598212895
     -3.908982209873
     -3.908982209873
     -3.847913515722
     -3.847913515722
     -3.741143573055
     -3.741143573055
     -3.579759996285
     -3.579759996285
     -3.366266371980
     -3.366266371980
     -3.097046103344
     -3.097046103344
     -2.778498333465
     -2.778498333465
     -2.407366510710
     -2.407366510710
     -1.989897483077
     -1.989897483077
     -1.502255956537
     -1.502255956537
     -0.885182243490
     -0.885182243490
      0.000000000000
      0.000000000000
