# vtk DataFile Version 3.0
MachLine results file. Generated by MachLine, USU AeroLab (c) 2023.
ASCII
DATASET POLYDATA
POINTS                   7 float
  0.567036768980E+00  0.000000000000E+00  0.000000000000E+00
  0.283518384490E+00  0.000000000000E+00 -0.291561459230E-01
  0.283518384490E+00  0.176355406690E+01  0.000000000000E+00
  0.000000000000E+00  0.000000000000E+00  0.000000000000E+00
  0.283518384490E+00  0.000000000000E+00  0.291561459230E-01
  0.283518384490E+00 -0.176355406690E+01  0.000000000000E+00
  0.567036768980E+00  0.000000000000E+00  0.000000000000E+00
POLYGONS                   8                  32
3                   0                   1                   2
3                   1                   3                   2
3                   3                   4                   2
3                   4                   6                   2
3                   0                   5                   1
3                   1                   5                   3
3                   3                   5                   4
3                   4                   5                   6
CELL_DATA                   8
NORMALS normals float
  0.102283551729E+00  0.164436508585E-01 -0.994619365080E+00
 -0.102283551729E+00  0.164436508585E-01 -0.994619365080E+00
 -0.102283551729E+00  0.164436508585E-01  0.994619365080E+00
  0.102283551729E+00  0.164436508585E-01  0.994619365080E+00
  0.102283551729E+00 -0.164436508585E-01 -0.994619365080E+00
 -0.102283551729E+00 -0.164436508585E-01 -0.994619365080E+00
 -0.102283551729E+00 -0.164436508585E-01  0.994619365080E+00
  0.102283551729E+00 -0.164436508585E-01  0.994619365080E+00
SCALARS inclination float 1
LOOKUP_TABLE default
  0.100000000000E+01
  0.100000000000E+01
  0.100000000000E+01
  0.100000000000E+01
  0.100000000000E+01
  0.100000000000E+01
  0.100000000000E+01
  0.100000000000E+01
SCALARS distribution_order float 1
LOOKUP_TABLE default
  0.100000000000E+01
  0.100000000000E+01
  0.100000000000E+01
  0.100000000000E+01
  0.100000000000E+01
  0.100000000000E+01
  0.100000000000E+01
  0.100000000000E+01
SCALARS N_discontinuous_edges float 1
LOOKUP_TABLE default
  0.200000000000E+01
  0.200000000000E+01
  0.200000000000E+01
  0.200000000000E+01
  0.200000000000E+01
  0.200000000000E+01
  0.200000000000E+01
  0.200000000000E+01
VECTORS centroid float
  0.378024512653E+00  0.587851355633E+00 -0.971871530767E-02
  0.189012256327E+00  0.587851355633E+00 -0.971871530767E-02
  0.189012256327E+00  0.587851355633E+00  0.971871530767E-02
  0.378024512653E+00  0.587851355633E+00  0.971871530767E-02
  0.378024512653E+00 -0.587851355633E+00 -0.971871530767E-02
  0.189012256327E+00 -0.587851355633E+00 -0.971871530767E-02
  0.189012256327E+00 -0.587851355633E+00  0.971871530767E-02
  0.378024512653E+00 -0.587851355633E+00  0.971871530767E-02
SCALARS C_p_ise float 1
LOOKUP_TABLE default
 -0.328691054772E+00
  0.267751159639E+00
  0.123895140132E-01
  0.384505555024E+00
 -0.328691054772E+00
  0.267751159639E+00
  0.123895140132E-01
  0.384505555024E+00
SCALARS sigma float 1
LOOKUP_TABLE default
  0.000000000000E+00
  0.000000000000E+00
  0.000000000000E+00
  0.000000000000E+00
  0.000000000000E+00
  0.000000000000E+00
  0.000000000000E+00
  0.000000000000E+00
VECTORS v float
  0.128172765281E+01  0.166660050276E-01  0.128886692960E+00
  0.859736907819E+00  0.225494449221E-01 -0.226982165040E+00
  0.993572785080E+00  0.103327344757E-02  0.102228549019E+00
  0.802048529063E+00 -0.514103954374E-02 -0.271234212997E+00
  0.128172765281E+01 -0.166660050276E-01  0.128886692960E+00
  0.859736907819E+00 -0.225494449221E-01 -0.226982165040E+00
  0.993572785080E+00 -0.103327344757E-02  0.102228549019E+00
  0.802048529063E+00  0.514103954374E-02 -0.271234212997E+00
VECTORS v_inner float
  0.133333333333E+01  0.000000000000E+00  0.133333333333E+00
  0.133333333333E+01  0.000000000000E+00  0.133333333333E+00
  0.133333333333E+01  0.000000000000E+00  0.133333333333E+00
  0.133333333333E+01  0.000000000000E+00  0.133333333333E+00
  0.133333333333E+01  0.000000000000E+00  0.133333333333E+00
  0.133333333333E+01  0.000000000000E+00  0.133333333333E+00
  0.133333333333E+01  0.000000000000E+00  0.133333333333E+00
  0.133333333333E+01  0.000000000000E+00  0.133333333333E+00
VECTORS dC_f float
  0.845039059277E-02  0.135852999017E-02 -0.821727636944E-01
  0.688367343060E-02 -0.110665615930E-02  0.669377899108E-01
  0.318524739709E-03 -0.512077408440E-04 -0.309737850334E-02
 -0.988533785105E-02 -0.158921978649E-02 -0.961263887576E-01
  0.845039059277E-02 -0.135852999017E-02 -0.821727636944E-01
  0.688367343060E-02  0.110665615930E-02  0.669377899108E-01
  0.318524739709E-03  0.512077408440E-04 -0.309737850334E-02
 -0.988533785105E-02  0.158921978649E-02 -0.961263887576E-01
POINT_DATA                   7
SCALARS mu float 1
LOOKUP_TABLE default
 -0.137841196757E+00
 -0.123153645760E+00
 -0.940371122300E-01
 -0.460607290156E-11
 -0.967526973018E-01
 -0.940371122300E-01
 -0.234897072644E+00
SCALARS Phi_u float 1
LOOKUP_TABLE default
  0.617520337020E+00
  0.250369144312E+00
  0.283518384485E+00
 -0.462904597625E-11
  0.284676741387E+00
  0.283518384485E+00
  0.519980388923E+00
SCALARS convex float 1
LOOKUP_TABLE default
  0.100000000000E+01
  0.100000000000E+01
  0.100000000000E+01
  0.100000000000E+01
  0.100000000000E+01
  0.100000000000E+01
  0.100000000000E+01
VECTORS CFx_sensitivity_adjoint float
 -0.471538576700E-01  0.407798544969E-02  0.116631058606E+01
  0.179034975814E-01 -0.159789974225E-01 -0.147999261909E+01
  0.439001868806E-02  0.509804221941E-01  0.458319597710E-02
  0.578540479490E-01 -0.217898564894E-09  0.306540969923E+00
 -0.733253290055E-01  0.462039615864E-01  0.137884792045E-01
  0.100691496206E-01 -0.644175363826E-01  0.170697943140E-02
 -0.471538576700E-01  0.407798544969E-02  0.116631058606E+01
VECTORS CFy_sensitivity_adjoint float
 -0.568669835658E-18 -0.500016897412E-03 -0.176212198238E-16
  0.960222793252E-18 -0.877902651184E-03 -0.140257164469E-17
 -0.325848145885E-02 -0.279936675450E-05  0.649259422758E-01
  0.323462981764E-18  0.114663529885E-02 -0.363954859934E-18
  0.101764791249E-17  0.236882983251E-03 -0.462690739088E-16
  0.325848145885E-02 -0.279936675450E-05 -0.649259422758E-01
 -0.568669835658E-18 -0.500016897412E-03 -0.176212198238E-16
VECTORS CFz_sensitivity_adjoint float
 -0.168413263440E+01  0.586657672480E-01 -0.828405338091E+00
  0.826525104543E+00 -0.229873300077E+00 -0.403061471979E+01
  0.626279145761E-01  0.623489795215E+00  0.851707500329E-01
 -0.194375248608E+00  0.631162657044E-08  0.144925594771E+01
  0.409672366388E+00  0.664688548975E+00  0.346691950273E+01
  0.144327692087E+00 -0.816795639591E+00  0.437936007435E-01
 -0.168413263440E+01  0.586657672480E-01 -0.828405338091E+00
