# vtk DataFile Version 3.0
MachLine results file. Generated by MachLine, USU AeroLab (c) 2023.
ASCII
DATASET POLYDATA
POINTS                   7 float
  0.567036768980E+00  0.000000000000E+00  0.000000000000E+00
  0.283518384490E+00  0.000000000000E+00 -0.291561459230E-01
  0.283518384490E+00  0.176355406690E+01  0.000000000000E+00
  0.000000000000E+00  0.000000000000E+00  0.000000000000E+00
  0.283518384490E+00  0.000000000000E+00  0.291561459230E-01
  0.283518384490E+00 -0.176355406690E+01  0.000000000000E+00
  0.567036768980E+00  0.000000000000E+00  0.000000000000E+00
POLYGONS                   8                  32
3                   0                   1                   2
3                   1                   3                   2
3                   3                   4                   2
3                   4                   6                   2
3                   0                   5                   1
3                   1                   5                   3
3                   3                   5                   4
3                   4                   5                   6
CELL_DATA                   8
NORMALS normals float
  0.102283551729E+00  0.164436508585E-01 -0.994619365080E+00
 -0.102283551729E+00  0.164436508585E-01 -0.994619365080E+00
 -0.102283551729E+00  0.164436508585E-01  0.994619365080E+00
  0.102283551729E+00  0.164436508585E-01  0.994619365080E+00
  0.102283551729E+00 -0.164436508585E-01 -0.994619365080E+00
 -0.102283551729E+00 -0.164436508585E-01 -0.994619365080E+00
 -0.102283551729E+00 -0.164436508585E-01  0.994619365080E+00
  0.102283551729E+00 -0.164436508585E-01  0.994619365080E+00
POINT_DATA                  7
VECTORS d_CFx_central_diff float
-2.063130513219E+02  1.853537495301E+00  1.751361861693E+01
 1.628894310711E+02 -4.084142729265E-02 -2.065846470008E+00
 6.557708443267E+02  4.988721628710E+02  6.860839331147E+02
 4.842679276950E-02  1.029940022157E-07  4.186075615540E-01
 2.037691788941E+01  2.696813553849E-02 -1.420665952392E+02
 6.564736324584E+02 -4.989117228561E+02  6.862534120519E+02
-2.063130513219E+02  1.853537495301E+00  1.751361861693E+01
VECTORS d_CFy_central_diff float
 1.084202172486E-15  1.512626111690E-03 -1.301042606983E-14
-1.084202172486E-15 -1.080621374024E-03  9.757819552370E-15
 4.336695135488E-03 -5.194593530279E-06 -2.253109143655E-01
 6.776263578034E-16  1.146635251091E-03  8.809142651445E-16
 4.336808689942E-15 -6.065580993096E-05  5.963111948670E-15
-4.356510407799E-03 -5.194759193118E-06  2.253576450706E-01
 1.084202172486E-15  1.512626111690E-03 -1.301042606983E-14
VECTORS d_CFz_central_diff float
 1.924603092891E+03 -1.802405421337E+01  5.366980220172E+01
 1.177949838457E+03 -3.971492610449E-01  2.563792811659E+02
-6.376844213942E+03 -4.850918364788E+03 -6.671664880980E+03
-1.314684529150E-01  6.644179997850E-06  7.537372062250E-01
 2.030051068408E+02 -2.622418736997E-01 -6.123563138350E+02
-6.383678222671E+03  4.851303051290E+03 -6.673312917629E+03
 1.924603092891E+03 -1.802405421337E+01  5.366980220172E+01
