# vtk DataFile Version 3.0
MachLine results file. Generated by MachLine, USU AeroLab (c) 2023.
ASCII
DATASET POLYDATA
POINTS                   7 float
  0.567036768980E+00  0.000000000000E+00  0.000000000000E+00
  0.283518384490E+00  0.000000000000E+00 -0.291561459230E-01
  0.283518384490E+00  0.176355406690E+01  0.000000000000E+00
  0.000000000000E+00  0.000000000000E+00  0.000000000000E+00
  0.283518384490E+00  0.000000000000E+00  0.291561459230E-01
  0.283518384490E+00 -0.176355406690E+01  0.000000000000E+00
  0.567036768980E+00  0.000000000000E+00  0.000000000000E+00
POLYGONS                   8                  32
3                   0                   1                   2
3                   1                   3                   2
3                   3                   4                   2
3                   4                   6                   2
3                   0                   5                   1
3                   1                   5                   3
3                   3                   5                   4
3                   4                   5                   6
CELL_DATA                   8
NORMALS normals float
  0.102283551729E+00  0.164436508585E-01 -0.994619365080E+00
 -0.102283551729E+00  0.164436508585E-01 -0.994619365080E+00
 -0.102283551729E+00  0.164436508585E-01  0.994619365080E+00
  0.102283551729E+00  0.164436508585E-01  0.994619365080E+00
  0.102283551729E+00 -0.164436508585E-01 -0.994619365080E+00
 -0.102283551729E+00 -0.164436508585E-01 -0.994619365080E+00
 -0.102283551729E+00 -0.164436508585E-01  0.994619365080E+00
  0.102283551729E+00 -0.164436508585E-01  0.994619365080E+00
POINT_DATA                  7
VECTORS d_CFx_central_diff float
-2.658683639006E+04 -5.355180158498E+00  1.325232204030E+04
-1.611771295515E+04  5.039996198164E-07  1.419862350615E+04
-2.880881301240E+03  1.362841648303E+04  5.377437670099E+03
 5.014565245161E-02  2.344300101265E-06  3.983731633999E-01
-2.151226489999E-02  2.215241878822E-08 -2.262309125360E+04
-3.493991167129E+03 -1.349015290485E+04  5.566449304152E+03
-2.658683639006E+04 -5.355180158498E+00  1.325232204030E+04
VECTORS d_CFy_central_diff float
-1.084202172486E-12  1.563705358774E-04 -2.710505431214E-14
 2.032879073410E-13 -1.080623506585E-03  2.168404344971E-13
-1.242275631457E-02 -3.601176540129E-06  1.526145369777E-02
-4.065758146821E-14  1.146635854496E-03 -5.082197683526E-13
 0.000000000000E+00 -6.065300518776E-05  1.301042606983E-12
 1.217497183501E-02 -3.585677273762E-06 -1.525969368235E-02
-1.084202172486E-12  1.563705358774E-04 -2.710505431214E-14
VECTORS d_CFz_central_diff float
-2.582780134663E+05  5.207451050493E+01  1.269262524782E+05
-2.326321038996E+05  2.368499840699E-05  1.797983252765E+05
-2.801414492450E+04 -2.031350264734E+05  1.850090052540E+05
-1.357448846002E-01  1.350493501751E-04  7.980190238500E-01
-4.381537495046E-01 -1.013994443966E-06  2.136985413001E+05
-3.397611027014E+04  2.080377783049E+05  1.886869860948E+05
-2.582780134663E+05  5.207451050493E+01  1.269262524782E+05
