# vtk DataFile Version 3.0
MachLine results file. Generated by MachLine, USU AeroLab (c) 2023.
ASCII
DATASET POLYDATA
POINTS                   7 float
  0.567036768980E+00  0.000000000000E+00  0.000000000000E+00
  0.283518384490E+00  0.000000000000E+00 -0.291561459230E-01
  0.283518384490E+00  0.176355406690E+01  0.000000000000E+00
  0.000000000000E+00  0.000000000000E+00  0.000000000000E+00
  0.283518384490E+00  0.000000000000E+00  0.291561459230E-01
  0.283518384490E+00 -0.176355406690E+01  0.000000000000E+00
  0.567036768980E+00  0.000000000000E+00  0.000000000000E+00
POLYGONS                   8                  32
3                   0                   1                   2
3                   1                   3                   2
3                   3                   4                   2
3                   4                   6                   2
3                   0                   5                   1
3                   1                   5                   3
3                   3                   5                   4
3                   4                   5                   6
CELL_DATA                   8
NORMALS normals float
  0.102283551729E+00  0.164436508585E-01 -0.994619365080E+00
 -0.102283551729E+00  0.164436508585E-01 -0.994619365080E+00
 -0.102283551729E+00  0.164436508585E-01  0.994619365080E+00
  0.102283551729E+00  0.164436508585E-01  0.994619365080E+00
  0.102283551729E+00 -0.164436508585E-01 -0.994619365080E+00
 -0.102283551729E+00 -0.164436508585E-01 -0.994619365080E+00
 -0.102283551729E+00 -0.164436508585E-01  0.994619365080E+00
  0.102283551729E+00 -0.164436508585E-01  0.994619365080E+00
POINT_DATA                  7
VECTORS d_CFx_central_diff float
-2.935546276200E-02 -2.493649384205E-09 -8.356636618599E-03
 6.870438805250E-03 -9.610548468153E-09 -9.982785230950E-01
-2.286569007351E-03  6.906435459300E-03 -3.125045532201E-03
 4.396583912545E-02  3.150257832374E-12  5.123568045239E+00
-1.693680203475E-02 -3.854564931127E-08 -3.952514679418E+00
-2.286538521650E-03 -6.906458893001E-03 -3.125028585601E-03
-2.935546276200E-02 -2.493649384205E-09 -8.356636618599E-03
VECTORS d_CFy_central_diff float
 5.421010862427E-17 -7.489964070217E-04  5.421010862427E-17
-5.149960319306E-16 -2.131074701596E-04 -5.421010862427E-17
-6.847237749669E-03 -3.839860857069E-06 -4.222878390162E-02
-1.273937552670E-15  1.146640088606E-03  0.000000000000E+00
 6.776263578034E-16 -1.768036428537E-04  9.215718466127E-16
 6.847237752931E-03 -3.839860834463E-06  4.222878523045E-02
 5.421010862427E-17 -7.489964070217E-04  5.421010862427E-17
VECTORS d_CFz_central_diff float
 6.154753175801E-02  8.262605044607E-07 -2.759029622853E+00
 6.788545505750E-02  3.176242990843E-06  4.019784913990E-01
-2.895518795150E-02  5.261781418750E-02  1.331748576040E-01
-2.144800851590E-01 -1.214001121852E-09  8.621769385686E+01
 1.524896621665E-01  1.275252249633E-05 -8.419135840837E+01
-2.896525539400E-02 -5.261007012999E-02  1.331692371110E-01
 6.154753175801E-02  8.262605044607E-07 -2.759029622853E+00
