# vtk DataFile Version 3.0
MachLine results file. Generated by MachLine, USU AeroLab (c) 2023.
ASCII
DATASET POLYDATA
POINTS                   7 float
  0.567036768980E+00  0.000000000000E+00  0.000000000000E+00
  0.283518384490E+00  0.000000000000E+00 -0.291561459230E-01
  0.283518384490E+00  0.176355406690E+01  0.000000000000E+00
  0.000000000000E+00  0.000000000000E+00  0.000000000000E+00
  0.283518384490E+00  0.000000000000E+00  0.291561459230E-01
  0.283518384490E+00 -0.176355406690E+01  0.000000000000E+00
  0.567036768980E+00  0.000000000000E+00  0.000000000000E+00
POLYGONS                   8                  32
3                   0                   1                   2
3                   1                   3                   2
3                   3                   4                   2
3                   4                   6                   2
3                   0                   5                   1
3                   1                   5                   3
3                   3                   5                   4
3                   4                   5                   6
CELL_DATA                   8
NORMALS normals float
  0.102283551729E+00  0.164436508585E-01 -0.994619365080E+00
 -0.102283551729E+00  0.164436508585E-01 -0.994619365080E+00
 -0.102283551729E+00  0.164436508585E-01  0.994619365080E+00
  0.102283551729E+00  0.164436508585E-01  0.994619365080E+00
  0.102283551729E+00 -0.164436508585E-01 -0.994619365080E+00
 -0.102283551729E+00 -0.164436508585E-01 -0.994619365080E+00
 -0.102283551729E+00 -0.164436508585E-01  0.994619365080E+00
  0.102283551729E+00 -0.164436508585E-01  0.994619365080E+00
POINT_DATA                  7
VECTORS d_CFx_central_diff float
-2.951364673799E-02 -1.087498147090E-09 -4.781651222101E-02
 5.092214230996E-03 -4.164897593473E-10 -9.805784690720E-01
-2.133204921508E-03  6.842974509987E-03 -3.012463931501E-03
 4.372544107499E-02  1.000935445639E-11  4.732102085275E-01
-1.504057134801E-02  2.473490162691E-09  5.612052415360E-01
-2.133203400000E-03 -6.842976157488E-03 -3.012462206995E-03
-2.951364673799E-02 -1.087498147090E-09 -4.781651222101E-02
VECTORS d_CFy_central_diff float
 5.421010862427E-16 -7.773274933936E-04  0.000000000000E+00
-7.047314121156E-15 -1.890678482389E-04  7.589415207399E-15
-6.831387310782E-03 -3.883469646662E-06 -4.599624715513E-02
 5.421010862427E-16  1.146695795084E-03  2.168404344971E-15
 0.000000000000E+00 -1.725334420282E-04 -8.131516293641E-15
 6.831387310762E-03 -3.883469665094E-06  4.599624715799E-02
 5.421010862427E-16 -7.773274933936E-04  0.000000000000E+00
VECTORS d_CFz_central_diff float
 1.322523001050E-01  1.908699587272E-07 -2.789106138780E+00
 1.011285160850E-01  7.320005712685E-08  3.290412749400E-01
-5.201983951000E-02  6.174807534995E-02  6.750781965506E-02
-2.511791574100E-01 -1.744993038955E-09  2.246462827620E+00
 1.223621581750E-01 -4.346599469240E-07  7.933722291506E-02
-5.202010633004E-02 -6.174778641496E-02  6.750751630008E-02
 1.322523001050E-01  1.908699587272E-07 -2.789106138780E+00
