# vtk DataFile Version 3.0
MachLine results file. Generated by MachLine, USU AeroLab (c) 2023.
ASCII
DATASET POLYDATA
POINTS                   7 float
  0.567036768980E+00  0.000000000000E+00  0.000000000000E+00
  0.283518384490E+00  0.000000000000E+00 -0.291561459230E-01
  0.283518384490E+00  0.176355406690E+01  0.000000000000E+00
  0.000000000000E+00  0.000000000000E+00  0.000000000000E+00
  0.283518384490E+00  0.000000000000E+00  0.291561459230E-01
  0.283518384490E+00 -0.176355406690E+01  0.000000000000E+00
  0.567036768980E+00  0.000000000000E+00  0.000000000000E+00
POLYGONS                   8                  32
3                   0                   1                   2
3                   1                   3                   2
3                   3                   4                   2
3                   4                   6                   2
3                   0                   5                   1
3                   1                   5                   3
3                   3                   5                   4
3                   4                   5                   6
CELL_DATA                   8
NORMALS normals float
  0.102283551729E+00  0.164436508585E-01 -0.994619365080E+00
 -0.102283551729E+00  0.164436508585E-01 -0.994619365080E+00
 -0.102283551729E+00  0.164436508585E-01  0.994619365080E+00
  0.102283551729E+00  0.164436508585E-01  0.994619365080E+00
  0.102283551729E+00 -0.164436508585E-01 -0.994619365080E+00
 -0.102283551729E+00 -0.164436508585E-01 -0.994619365080E+00
 -0.102283551729E+00 -0.164436508585E-01  0.994619365080E+00
  0.102283551729E+00 -0.164436508585E-01  0.994619365080E+00
POINT_DATA                  7
VECTORS d_CFx_central_diff float
-2.969273695670E-02 -4.199765535340E-12 -7.875966834825E-02
 3.587427464150E-03  7.049916206370E-12 -9.663796518689E-01
-2.022258120900E-03  6.817962549499E-03 -2.714112963050E-03
 4.370445668205E-02 -1.249000902703E-12  4.636033292829E+00
-1.355459701595E-02  8.500145032286E-13 -3.057724106599E+00
-2.022258121750E-03 -6.817962549050E-03 -2.714112960600E-03
-2.969273695670E-02 -4.199765535340E-12 -7.875966834825E-02
VECTORS d_CFy_central_diff float
 0.000000000000E+00 -8.007131422409E-04  5.421010862428E-17
 2.710505431214E-16 -1.699420890807E-04  0.000000000000E+00
-6.817162324341E-03 -3.934185171920E-06 -4.906601565824E-02
 7.589415207399E-16  1.147116319112E-03  1.336875488783E-12
 0.000000000000E+00 -1.685942107642E-04 -4.380447827385E-12
 6.817162324338E-03 -3.934185175607E-06  4.906601565832E-02
 0.000000000000E+00 -8.007131422409E-04  5.421010862428E-17
VECTORS d_CFz_central_diff float
 1.843617251980E-01  5.490052856771E-10 -2.820927641521E+00
 1.101474828455E-01 -8.985034938291E-10  2.646930467670E-01
-5.207859641750E-02  6.231155877651E-02  3.030168314799E-02
-2.816344054455E-01  1.584982145530E-10  7.977756193324E+01
 9.128209718551E-02 -1.104949465258E-10 -8.131864184288E+01
-5.207859629999E-02 -6.231155882901E-02  3.030168283651E-02
 1.843617251980E-01  5.490052856771E-10 -2.820927641521E+00
