# vtk DataFile Version 3.0
MachLine results file. Generated by MachLine, USU AeroLab (c) 2023.
ASCII
DATASET POLYDATA
POINTS                   7 float
  0.567036768980E+00  0.000000000000E+00  0.000000000000E+00
  0.283518384490E+00  0.000000000000E+00 -0.291561459230E-01
  0.283518384490E+00  0.176355406690E+01  0.000000000000E+00
  0.000000000000E+00  0.000000000000E+00  0.000000000000E+00
  0.283518384490E+00  0.000000000000E+00  0.291561459230E-01
  0.283518384490E+00 -0.176355406690E+01  0.000000000000E+00
  0.567036768980E+00  0.000000000000E+00  0.000000000000E+00
POLYGONS                   8                  32
3                   0                   1                   2
3                   1                   3                   2
3                   3                   4                   2
3                   4                   6                   2
3                   0                   5                   1
3                   1                   5                   3
3                   3                   5                   4
3                   4                   5                   6
CELL_DATA                   8
NORMALS normals float
  0.102283551729E+00  0.164436508585E-01 -0.994619365080E+00
 -0.102283551729E+00  0.164436508585E-01 -0.994619365080E+00
 -0.102283551729E+00  0.164436508585E-01  0.994619365080E+00
  0.102283551729E+00  0.164436508585E-01  0.994619365080E+00
  0.102283551729E+00 -0.164436508585E-01 -0.994619365080E+00
 -0.102283551729E+00 -0.164436508585E-01 -0.994619365080E+00
 -0.102283551729E+00 -0.164436508585E-01  0.994619365080E+00
  0.102283551729E+00 -0.164436508585E-01  0.994619365080E+00
POINT_DATA                  7
VECTORS d_CFx_central_diff float
 5.030157748126E+03 -5.287919269950E+00  3.810653832229E+03
-3.570903112416E+04 -1.306318793502E-01 -2.863894238611E+04
 3.561663683285E+03 -1.264944396948E+03  3.529128033370E+03
 2.092109070012E-02  4.080418503083E-04  7.105645114490E-01
-3.155789727379E+03 -3.321181822150E+00 -1.333024520236E+04
 3.559052897244E+03  1.256725889911E+03  3.540503308343E+03
 5.030157748126E+03 -5.287919269950E+00  3.810653832229E+03
VECTORS d_CFy_central_diff float
 0.000000000000E+00 -4.535948517834E-04  5.421010862427E-13
-3.794707603699E-13 -5.336744356437E-04 -1.084202172486E-13
 4.575902620469E-03 -4.014719709022E-06 -2.784917699890E-01
 7.589415207398E-13  1.146635318920E-03  1.843143693225E-12
 5.421010862428E-13 -1.341187321792E-04 -5.421010862428E-13
-4.578280542438E-03 -4.014188856533E-06  2.785378482781E-01
 0.000000000000E+00 -4.535948517834E-04  5.421010862427E-13
VECTORS d_CFz_central_diff float
 6.581401979044E+04 -8.114881487049E+01  3.155725953150E+05
 6.257693191947E+05 -4.181473722650E+00  3.551534120992E+05
-3.466006263824E+04  9.114665198227E+04 -3.431781825909E+04
-1.524999799773E-01 -3.966630024443E-03  1.309701235019E+00
-1.746107439798E+05  1.318106109810E+02 -4.259910293181E+05
-3.463446983474E+04 -9.073944308729E+04 -3.442843300342E+04
 6.581401979044E+04 -8.114881487049E+01  3.155725953150E+05
