# vtk DataFile Version 3.0
MachLine results file. Generated by MachLine, USU AeroLab (c) 2023.
ASCII
DATASET POLYDATA
POINTS                   7 float
  0.567036768980E+00  0.000000000000E+00  0.000000000000E+00
  0.283518384490E+00  0.000000000000E+00 -0.291561459230E-01
  0.283518384490E+00  0.176355406690E+01  0.000000000000E+00
  0.000000000000E+00  0.000000000000E+00  0.000000000000E+00
  0.283518384490E+00  0.000000000000E+00  0.291561459230E-01
  0.283518384490E+00 -0.176355406690E+01  0.000000000000E+00
  0.567036768980E+00  0.000000000000E+00  0.000000000000E+00
POLYGONS                   8                  32
3                   0                   1                   2
3                   1                   3                   2
3                   3                   4                   2
3                   4                   6                   2
3                   0                   5                   1
3                   1                   5                   3
3                   3                   5                   4
3                   4                   5                   6
CELL_DATA                   8
NORMALS normals float
  0.102283551729E+00  0.164436508585E-01 -0.994619365080E+00
 -0.102283551729E+00  0.164436508585E-01 -0.994619365080E+00
 -0.102283551729E+00  0.164436508585E-01  0.994619365080E+00
  0.102283551729E+00  0.164436508585E-01  0.994619365080E+00
  0.102283551729E+00 -0.164436508585E-01 -0.994619365080E+00
 -0.102283551729E+00 -0.164436508585E-01 -0.994619365080E+00
 -0.102283551729E+00 -0.164436508585E-01  0.994619365080E+00
  0.102283551729E+00 -0.164436508585E-01  0.994619365080E+00
POINT_DATA                  7
VECTORS d_CFx_central_diff float
-2.952788827996E-02 -3.103003964888E-08 -4.783534748500E-02
 5.075199544999E-03 -2.929947950925E-09 -9.805839977849E-01
-2.136208935091E-03  6.850630525010E-03 -2.987565034945E-03
 4.372544335010E-02 -8.298917109073E-10  4.732134515850E-01
-1.504019573502E-02 -2.216490879725E-08  5.612486009049E-01
-2.136192515066E-03 -6.850623435022E-03 -2.987538295050E-03
-2.952788827996E-02 -3.103003964888E-08 -4.783534748500E-02
VECTORS d_CFy_central_diff float
 5.421010862428E-14 -7.773273715461E-04  7.589415207399E-14
 0.000000000000E+00 -1.890682151096E-04  0.000000000000E+00
-6.831387190328E-03 -3.883468942473E-06 -4.599625643276E-02
-1.029992063861E-13  1.146695788242E-03 -5.963111948670E-14
-1.084202172485E-14 -1.725333426854E-04  0.000000000000E+00
 6.831387190442E-03 -3.883468926210E-06  4.599625643540E-02
 5.421010862428E-14 -7.773273715461E-04  7.589415207399E-14
VECTORS d_CFz_central_diff float
 1.347427630000E-01  5.451350482133E-06 -2.785797321300E+00
 1.041139789507E-01  5.131506330969E-07  3.293909866003E-01
-5.149196289911E-02  6.039590484952E-02  6.314125649970E-02
-2.511795030011E-01  1.454503184561E-07  2.246476124751E+00
 1.223019091501E-01  3.893950439871E-06  7.172482965057E-02
-5.149484690048E-02 -6.039714629952E-02  6.313656339962E-02
 1.347427630000E-01  5.451350482133E-06 -2.785797321300E+00
