# vtk DataFile Version 3.0
MachLine results file. Generated by MachLine, USU AeroLab (c) 2023.
ASCII
DATASET POLYDATA
POINTS                   7 float
  0.567036768980E+00  0.000000000000E+00  0.000000000000E+00
  0.283518384490E+00  0.000000000000E+00 -0.291561459230E-01
  0.283518384490E+00  0.176355406690E+01  0.000000000000E+00
  0.000000000000E+00  0.000000000000E+00  0.000000000000E+00
  0.283518384490E+00  0.000000000000E+00  0.291561459230E-01
  0.283518384490E+00 -0.176355406690E+01  0.000000000000E+00
  0.567036768980E+00  0.000000000000E+00  0.000000000000E+00
POLYGONS                   8                  32
3                   0                   1                   2
3                   1                   3                   2
3                   3                   4                   2
3                   4                   6                   2
3                   0                   5                   1
3                   1                   5                   3
3                   3                   5                   4
3                   4                   5                   6
CELL_DATA                   8
NORMALS normals float
  0.102283551729E+00  0.164436508585E-01 -0.994619365080E+00
 -0.102283551729E+00  0.164436508585E-01 -0.994619365080E+00
 -0.102283551729E+00  0.164436508585E-01  0.994619365080E+00
  0.102283551729E+00  0.164436508585E-01  0.994619365080E+00
  0.102283551729E+00 -0.164436508585E-01 -0.994619365080E+00
 -0.102283551729E+00 -0.164436508585E-01 -0.994619365080E+00
 -0.102283551729E+00 -0.164436508585E-01  0.994619365080E+00
  0.102283551729E+00 -0.164436508585E-01  0.994619365080E+00
POINT_DATA                  7
VECTORS d_CFx_central_diff float
-2.963043738494E-02 -1.171007735223E-08 -3.244432960504E-02
 5.481618420115E-03  2.922991709786E-08 -9.878055464750E-01
-2.400194830041E-03  6.882504949984E-03 -2.997695430079E-03
 4.379656876486E-02 -3.954996052880E-09  4.722644549850E-01
-1.611744641500E-02 -1.933002369281E-08  5.537326200599E-01
-2.400378554951E-03 -6.882664565014E-03 -2.997535864836E-03
-2.963043738494E-02 -1.171007735223E-08 -3.244432960504E-02
VECTORS d_CFy_central_diff float
 0.000000000000E+00 -7.659703113428E-04  5.421010862427E-15
 7.047314121156E-14 -1.986543733657E-04 -1.409462824231E-13
-6.838624228863E-03 -3.865104043028E-06 -4.448576293472E-02
 4.878909776185E-14  1.146656104930E-03  1.084202172486E-14
 0.000000000000E+00 -1.743015960623E-04 -4.878909776185E-14
 6.838624228716E-03 -3.865103809925E-06  4.448576297011E-02
 0.000000000000E+00 -7.659703113428E-04  5.421010862427E-15
VECTORS d_CFz_central_diff float
 1.455462979999E-01  2.535900656131E-06 -2.704008628350E+00
 1.657168040001E-01 -6.310199585080E-06  3.458916926491E-01
-2.130689150115E-03  5.603023205125E-02  7.097372090037E-02
-2.364580648992E-01  8.537504037065E-07  2.075364485550E+00
 2.036229779998E-01  4.169299627765E-06  1.938365638998E-01
-2.091020148698E-03 -5.599575765014E-02  7.093926034929E-02
 1.455462979999E-01  2.535900656131E-06 -2.704008628350E+00
