# vtk DataFile Version 3.0
MachLine results file. Generated by MachLine, USU AeroLab (c) 2023.
ASCII
DATASET POLYDATA
POINTS                   7 float
  0.567036768980E+00  0.000000000000E+00  0.000000000000E+00
  0.283518384490E+00  0.000000000000E+00 -0.291561459230E-01
  0.283518384490E+00  0.176355406690E+01  0.000000000000E+00
  0.000000000000E+00  0.000000000000E+00  0.000000000000E+00
  0.283518384490E+00  0.000000000000E+00  0.291561459230E-01
  0.283518384490E+00 -0.176355406690E+01  0.000000000000E+00
  0.567036768980E+00  0.000000000000E+00  0.000000000000E+00
POLYGONS                   8                  32
3                   0                   1                   2
3                   1                   3                   2
3                   3                   4                   2
3                   4                   6                   2
3                   0                   5                   1
3                   1                   5                   3
3                   3                   5                   4
3                   4                   5                   6
CELL_DATA                   8
NORMALS normals float
  0.102283551729E+00  0.164436508585E-01 -0.994619365080E+00
 -0.102283551729E+00  0.164436508585E-01 -0.994619365080E+00
 -0.102283551729E+00  0.164436508585E-01  0.994619365080E+00
  0.102283551729E+00  0.164436508585E-01  0.994619365080E+00
  0.102283551729E+00 -0.164436508585E-01 -0.994619365080E+00
 -0.102283551729E+00 -0.164436508585E-01 -0.994619365080E+00
 -0.102283551729E+00 -0.164436508585E-01  0.994619365080E+00
  0.102283551729E+00 -0.164436508585E-01  0.994619365080E+00
POINT_DATA                  7
VECTORS d_CFx_central_diff float
-2.996724812500E-02  1.491862189340E-11 -1.088287620299E-01
 2.052023580050E-03  1.509209424100E-11 -9.575671628249E-01
-1.775675824954E-03  6.799661495145E-03 -1.969576985013E-03
 4.393874292984E-02 -1.491862189340E-11  4.788223454299E-01
-1.247217062995E-02  0.000000000000E+00  5.915127329599E-01
-1.775675809862E-03 -6.799661485084E-03 -1.969576974951E-03
-2.996724812500E-02  1.491862189340E-11 -1.088287620299E-01
VECTORS d_CFy_central_diff float
 0.000000000000E+00 -8.276084086383E-04  5.963111948670E-14
 5.421010862427E-15 -1.502154306000E-04 -5.421010862427E-14
-6.818979831903E-03 -4.043861729849E-06 -5.239777830035E-02
 8.131516293641E-14  1.149469455399E-03  9.757819552370E-14
 0.000000000000E+00 -1.635578845049E-04  0.000000000000E+00
 6.818979831941E-03 -4.043861887059E-06  5.239777830034E-02
 0.000000000000E+00 -8.276084086383E-04  5.963111948670E-14
VECTORS d_CFz_central_diff float
 2.355174959001E-01 -1.150468609268E-09 -2.848174884650E+00
 1.131323838999E-01 -1.348920974920E-09  1.787778846005E-01
-4.620497484897E-02  6.278453599934E-02 -1.993369100339E-03
-3.168737595496E-01  1.550148898133E-09  2.965281035350E+00
 6.063428675124E-02 -1.498801083244E-10 -2.918971573007E-01
-4.620497619928E-02 -6.278453770076E-02 -1.993369999620E-03
 2.355174959001E-01 -1.150468609268E-09 -2.848174884650E+00
