# vtk DataFile Version 3.0
MachLine results file. Generated by MachLine, USU AeroLab (c) 2023.
ASCII
DATASET POLYDATA
POINTS                   7 float
  0.567036768980E+00  0.000000000000E+00  0.000000000000E+00
  0.283518384490E+00  0.000000000000E+00 -0.291561459230E-01
  0.283518384490E+00  0.176355406690E+01  0.000000000000E+00
  0.000000000000E+00  0.000000000000E+00  0.000000000000E+00
  0.283518384490E+00  0.000000000000E+00  0.291561459230E-01
  0.283518384490E+00 -0.176355406690E+01  0.000000000000E+00
  0.567036768980E+00  0.000000000000E+00  0.000000000000E+00
POLYGONS                   8                  32
3                   0                   1                   2
3                   1                   3                   2
3                   3                   4                   2
3                   4                   6                   2
3                   0                   5                   1
3                   1                   5                   3
3                   3                   5                   4
3                   4                   5                   6
CELL_DATA                   8
NORMALS normals float
  0.102283551729E+00  0.164436508585E-01 -0.994619365080E+00
 -0.102283551729E+00  0.164436508585E-01 -0.994619365080E+00
 -0.102283551729E+00  0.164436508585E-01  0.994619365080E+00
  0.102283551729E+00  0.164436508585E-01  0.994619365080E+00
  0.102283551729E+00 -0.164436508585E-01 -0.994619365080E+00
 -0.102283551729E+00 -0.164436508585E-01 -0.994619365080E+00
 -0.102283551729E+00 -0.164436508585E-01  0.994619365080E+00
  0.102283551729E+00 -0.164436508585E-01  0.994619365080E+00
POINT_DATA                  7
VECTORS d_CFx_central_diff float
-2.955170260850E-02  1.379972525140E-11 -5.563289738075E-02
 4.723119162000E-03  2.274500032762E-10 -9.766083422257E-01
-2.107511082351E-03  6.835441204750E-03 -2.963137170150E-03
 4.370366794270E-02 -1.494984691597E-11  4.969395024746E+00
-1.465986318505E-02 -1.412498590314E-10 -3.585141831419E+00
-2.107511143851E-03 -6.835441195551E-03 -2.963137203901E-03
-2.955170260850E-02  1.379972525140E-11 -5.563289738075E-02
VECTORS d_CFy_central_diff float
 0.000000000000E+00 -7.830631062429E-04  0.000000000000E+00
 0.000000000000E+00 -1.842779038444E-04  0.000000000000E+00
-6.827536579020E-03 -3.893709023500E-06 -4.675413548706E-02
 0.000000000000E+00  1.146738550349E-03  1.812786032396E-13
 6.505213034913E-16 -1.716113723096E-04 -4.364997946427E-13
 6.827536579012E-03 -3.893709024367E-06  4.675413548763E-02
 0.000000000000E+00 -7.830631062429E-04  0.000000000000E+00
VECTORS d_CFz_central_diff float
 1.452557315250E-01 -2.214506356069E-09 -2.797798588830E+00
 1.039349791570E-01 -3.645150847831E-08  3.142194592955E-01
-5.282257370100E-02  6.201703086300E-02  5.789582219300E-02
-2.586110379475E-01  2.395000864297E-09  8.028736615766E+01
 1.150414591205E-01  2.271299814893E-08 -8.007062875135E+01
-5.282256380100E-02 -6.201703233299E-02  5.789582761749E-02
 1.452557315250E-01 -2.214506356069E-09 -2.797798588830E+00
