# vtk DataFile Version 3.0
MachLine results file. Generated by MachLine, USU AeroLab (c) 2023.
ASCII
DATASET POLYDATA
POINTS                   7 float
  0.567036768980E+00  0.000000000000E+00  0.000000000000E+00
  0.283518384490E+00  0.000000000000E+00 -0.291561459230E-01
  0.283518384490E+00  0.176355406690E+01  0.000000000000E+00
  0.000000000000E+00  0.000000000000E+00  0.000000000000E+00
  0.283518384490E+00  0.000000000000E+00  0.291561459230E-01
  0.283518384490E+00 -0.176355406690E+01  0.000000000000E+00
  0.567036768980E+00  0.000000000000E+00  0.000000000000E+00
POLYGONS                   8                  32
3                   0                   1                   2
3                   1                   3                   2
3                   3                   4                   2
3                   4                   6                   2
3                   0                   5                   1
3                   1                   5                   3
3                   3                   5                   4
3                   4                   5                   6
CELL_DATA                   8
NORMALS normals float
  0.102283551729E+00  0.164436508585E-01 -0.994619365080E+00
 -0.102283551729E+00  0.164436508585E-01 -0.994619365080E+00
 -0.102283551729E+00  0.164436508585E-01  0.994619365080E+00
  0.102283551729E+00  0.164436508585E-01  0.994619365080E+00
  0.102283551729E+00 -0.164436508585E-01 -0.994619365080E+00
 -0.102283551729E+00 -0.164436508585E-01 -0.994619365080E+00
 -0.102283551729E+00 -0.164436508585E-01  0.994619365080E+00
  0.102283551729E+00 -0.164436508585E-01  0.994619365080E+00
POINT_DATA                  7
VECTORS d_CFx_central_diff float
-2.967930440150E-02  3.011569986444E-07 -8.433450953502E-03
 5.720755083000E-03  2.792991532496E-09 -9.986347519575E-01
-2.407584304004E-03  6.675316419503E-03 -2.889037354001E-03
 4.396576199699E-02 -7.479954156064E-10  4.703264166945E-01
-1.795221791650E-02  1.059809878745E-07  5.431933202060E-01
-2.408247693000E-03 -6.675400897986E-03 -2.889056016989E-03
-2.967930440150E-02  3.011569986444E-07 -8.433450953502E-03
VECTORS d_CFy_central_diff float
-5.149960319306E-15 -7.490701702320E-04  0.000000000000E+00
 2.710505431214E-16 -2.131075190146E-04 -5.421010862428E-16
-6.847251946450E-03 -3.839899575067E-06 -4.222362257162E-02
-2.710505431214E-16  1.146639423810E-03  1.355252715607E-15
-8.402566836763E-15 -1.768075794928E-04 -1.219727444046E-14
 6.847251942349E-03 -3.839899573440E-06  4.222362477122E-02
-5.149960319306E-15 -7.490701702320E-04  0.000000000000E+00
VECTORS d_CFz_central_diff float
 1.686781453300E-01 -9.946481999146E-05 -2.743670523590E+00
 4.493753499400E-01 -9.223050101426E-07  4.034577763799E-01
 1.105157162007E-02  1.289501142801E-01  5.536041244494E-02
-2.144764835550E-01  2.472999582892E-07  1.818728993555E+00
 4.872700696501E-01 -3.511387000610E-05  1.949918100799E-01
 1.127085935498E-02 -1.289222553651E-01  5.536656191504E-02
 1.686781453300E-01 -9.946481999146E-05 -2.743670523590E+00
