# vtk DataFile Version 3.0
MachLine results file. Generated by MachLine, USU AeroLab (c) 2023.
ASCII
DATASET POLYDATA
POINTS                   7 float
  0.567036768980E+00  0.000000000000E+00  0.000000000000E+00
  0.283518384490E+00  0.000000000000E+00 -0.291561459230E-01
  0.283518384490E+00  0.176355406690E+01  0.000000000000E+00
  0.000000000000E+00  0.000000000000E+00  0.000000000000E+00
  0.283518384490E+00  0.000000000000E+00  0.291561459230E-01
  0.283518384490E+00 -0.176355406690E+01  0.000000000000E+00
  0.567036768980E+00  0.000000000000E+00  0.000000000000E+00
POLYGONS                   8                  32
3                   0                   1                   2
3                   1                   3                   2
3                   3                   4                   2
3                   4                   6                   2
3                   0                   5                   1
3                   1                   5                   3
3                   3                   5                   4
3                   4                   5                   6
CELL_DATA                   8
NORMALS normals float
  0.102283551729E+00  0.164436508585E-01 -0.994619365080E+00
 -0.102283551729E+00  0.164436508585E-01 -0.994619365080E+00
 -0.102283551729E+00  0.164436508585E-01  0.994619365080E+00
  0.102283551729E+00  0.164436508585E-01  0.994619365080E+00
  0.102283551729E+00 -0.164436508585E-01 -0.994619365080E+00
 -0.102283551729E+00 -0.164436508585E-01 -0.994619365080E+00
 -0.102283551729E+00 -0.164436508585E-01  0.994619365080E+00
  0.102283551729E+00 -0.164436508585E-01  0.994619365080E+00
POINT_DATA                  7
VECTORS d_CFx_central_diff float
-2.951293523455E-02  9.519988963813E-11 -4.783301162735E-02
 5.091599958850E-03  4.482993837263E-10 -9.802246379595E-01
-2.130926437751E-03  6.841944983500E-03 -3.012686838449E-03
 4.372552355145E-02  2.515349040166E-13  5.097526444644E+00
-1.504263590265E-02  2.589942149633E-11 -3.807323200520E+00
-2.130926619852E-03 -6.841944445200E-03 -3.012686820051E-03
-2.951293523455E-02  9.519988963813E-11 -4.783301162735E-02
VECTORS d_CFy_central_diff float
-5.421010862428E-16 -7.773383102885E-04 -5.421010862427E-17
 5.421010862427E-17 -1.890572332652E-04  0.000000000000E+00
-6.831387117194E-03 -3.883471620181E-06 -4.599624918981E-02
-4.336808689942E-16  1.146696458214E-03  1.821459649776E-14
-1.463672932855E-15 -1.725351252870E-04  0.000000000000E+00
 6.831387117182E-03 -3.883471620669E-06  4.599624918537E-02
-5.421010862428E-16 -7.773383102885E-04 -5.421010862427E-17
VECTORS d_CFz_central_diff float
 1.320854672875E-01 -1.665849402865E-08 -2.789846634184E+00
 1.013120552080E-01 -7.856500172654E-08  3.298713620015E-01
-5.242048241000E-02  6.192862273799E-02  6.754717451150E-02
-2.511831007195E-01 -2.950417687941E-11  8.027917533907E+01
 1.226858135110E-01 -4.553996069134E-09 -7.918882603835E+01
-5.242045041699E-02 -6.192871725899E-02  6.754717128750E-02
 1.320854672875E-01 -1.665849402865E-08 -2.789846634184E+00
