# vtk DataFile Version 3.0
MachLine results file. Generated by MachLine, USU AeroLab (c) 2023.
ASCII
DATASET POLYDATA
POINTS                   7 float
  0.567036768980E+00  0.000000000000E+00  0.000000000000E+00
  0.283518384490E+00  0.000000000000E+00 -0.291561459230E-01
  0.283518384490E+00  0.176355406690E+01  0.000000000000E+00
  0.000000000000E+00  0.000000000000E+00  0.000000000000E+00
  0.283518384490E+00  0.000000000000E+00  0.291561459230E-01
  0.283518384490E+00 -0.176355406690E+01  0.000000000000E+00
  0.567036768980E+00  0.000000000000E+00  0.000000000000E+00
POLYGONS                   8                  32
3                   0                   1                   2
3                   1                   3                   2
3                   3                   4                   2
3                   4                   6                   2
3                   0                   5                   1
3                   1                   5                   3
3                   3                   5                   4
3                   4                   5                   6
CELL_DATA                   8
NORMALS normals float
  0.102283551729E+00  0.164436508585E-01 -0.994619365080E+00
 -0.102283551729E+00  0.164436508585E-01 -0.994619365080E+00
 -0.102283551729E+00  0.164436508585E-01  0.994619365080E+00
  0.102283551729E+00  0.164436508585E-01  0.994619365080E+00
  0.102283551729E+00 -0.164436508585E-01 -0.994619365080E+00
 -0.102283551729E+00 -0.164436508585E-01 -0.994619365080E+00
 -0.102283551729E+00 -0.164436508585E-01  0.994619365080E+00
  0.102283551729E+00 -0.164436508585E-01  0.994619365080E+00
POINT_DATA                  7
VECTORS d_CFx_central_diff float
-2.996730149966E-02  9.887923813068E-11 -1.088288264992E-01
 2.051984049692E-03  0.000000000000E+00 -9.575672330498E-01
-1.775653150557E-03  6.799682698844E-03 -1.969539300747E-03
 4.393874280043E-02  0.000000000000E+00  4.788223789010E-01
-1.247215584976E-02 -5.030698080333E-11  5.915127529506E-01
-1.775653299743E-03 -6.799682698844E-03 -1.969539300747E-03
-2.996730149966E-02  9.887923813068E-11 -1.088288264992E-01
VECTORS d_CFy_central_diff float
 1.084202172485E-13 -8.276083947388E-04 -5.421010862427E-14
 1.626303258728E-12 -1.502154524358E-04  0.000000000000E+00
-6.818979831312E-03 -4.043858889240E-06 -5.239777829712E-02
 1.517883041480E-12  1.149469454462E-03 -1.788933584601E-12
-5.421010862427E-14 -1.635578792628E-04  9.757819552370E-13
 6.818979831854E-03 -4.043859539761E-06  5.239777829750E-02
 1.084202172485E-13 -8.276083947388E-04 -5.421010862427E-14
VECTORS d_CFz_central_diff float
 2.355235184937E-01 -1.348920974920E-08 -2.848168686495E+00
 1.131364164991E-01 -4.996003610813E-10  1.787816709953E-01
-4.620757200480E-02  6.278267349058E-02 -1.997062001879E-03
-3.168737829906E-01  4.996003610813E-10  2.965281164988E+00
 6.063281600410E-02 -4.996003610813E-10 -2.918993430023E-01
-4.620755750251E-02 -6.278267299098E-02 -1.997061502279E-03
 2.355235184937E-01 -1.348920974920E-08 -2.848168686495E+00
