# vtk DataFile Version 3.0
MachLine results file. Generated by MachLine, USU AeroLab (c) 2023.
ASCII
DATASET POLYDATA
POINTS                   7 float
  0.567036768980E+00  0.000000000000E+00  0.000000000000E+00
  0.283518384490E+00  0.000000000000E+00 -0.291561459230E-01
  0.283518384490E+00  0.176355406690E+01  0.000000000000E+00
  0.000000000000E+00  0.000000000000E+00  0.000000000000E+00
  0.283518384490E+00  0.000000000000E+00  0.291561459230E-01
  0.283518384490E+00 -0.176355406690E+01  0.000000000000E+00
  0.567036768980E+00  0.000000000000E+00  0.000000000000E+00
POLYGONS                   8                  32
3                   0                   1                   2
3                   1                   3                   2
3                   3                   4                   2
3                   4                   6                   2
3                   0                   5                   1
3                   1                   5                   3
3                   3                   5                   4
3                   4                   5                   6
CELL_DATA                   8
NORMALS normals float
  0.102283551729E+00  0.164436508585E-01 -0.994619365080E+00
 -0.102283551729E+00  0.164436508585E-01 -0.994619365080E+00
 -0.102283551729E+00  0.164436508585E-01  0.994619365080E+00
  0.102283551729E+00  0.164436508585E-01  0.994619365080E+00
  0.102283551729E+00 -0.164436508585E-01 -0.994619365080E+00
 -0.102283551729E+00 -0.164436508585E-01 -0.994619365080E+00
 -0.102283551729E+00 -0.164436508585E-01  0.994619365080E+00
  0.102283551729E+00 -0.164436508585E-01  0.994619365080E+00
POINT_DATA                  7
VECTORS d_CFx_central_diff float
-8.424952204438E+03  8.366908139702E+01  2.446012858763E+04
 3.489527978301E+04  1.265952066050E-01  2.169983682924E+04
-3.170189196093E+04 -4.651778409791E+04  9.021390786854E+03
 5.827909340013E-02  3.362892499192E-04  3.059516604995E-01
 1.579542554207E+04 -2.322227513574E+01 -1.266885500595E+04
-3.168759888808E+04  4.646652552207E+04  8.588943500058E+03
-8.424952204438E+03  8.366908139702E+01  2.446012858763E+04
VECTORS d_CFy_central_diff float
 2.127746763503E-12 -1.243164670381E-03 -1.084202172486E-13
 1.084202172486E-13 -1.080111086509E-03  0.000000000000E+00
 1.722149792986E-02 -6.010737589081E-06  3.888977903495E-02
-2.168404344971E-13  1.146635285310E-03  1.084202172486E-13
 0.000000000000E+00  9.630098060133E-04 -2.168404344971E-13
-1.721626715560E-02 -6.008763582185E-06 -3.745891098367E-02
 2.127746763503E-12 -1.243164670381E-03 -1.084202172486E-13
VECTORS d_CFz_central_diff float
-8.192568667011E+04  8.758431668635E+02 -2.349504495722E+05
-5.803449260378E+05  1.233240698006E+00  2.038467869601E+05
 3.082735340906E+05  9.007445844989E+05  1.803731730010E+05
-1.936476395070E-01  4.838922998407E-03  1.448621382003E+00
 1.065974049253E+05 -2.519106275315E+02  7.130109659829E+05
 3.081345462700E+05 -9.012549384590E+05  1.767646050625E+05
-8.192568667011E+04  8.758431668635E+02 -2.349504495722E+05
