# vtk DataFile Version 3.0
MachLine results file. Generated by MachLine, USU AeroLab (c) 2022.
ASCII
DATASET POLYDATA
POINTS                 125 float
  0.951932379112E+00 -0.216790636569E-01 -0.305540118148E+00
  0.746411710782E+00 -0.257567135304E+00  0.613619368028E+00
 -0.602126944664E+00 -0.796720907102E+00  0.517584649790E-01
 -0.332655369471E+00  0.662401530381E+00  0.671241102519E+00
  0.615144051558E+00  0.726251912036E+00 -0.306848425280E+00
  0.985695657515E+00  0.602851498480E-01 -0.157384152517E+00
  0.225942559573E+00  0.675760399196E+00  0.701639396452E+00
  0.990043853929E-01  0.749269462789E+00 -0.654823185147E+00
 -0.241133190699E+00 -0.938782468641E+00  0.246053370056E+00
 -0.553262144801E+00  0.690529196325E+00  0.465908175666E+00
 -0.339891453548E+00 -0.868866588884E+00 -0.359923117520E+00
  0.397809707877E+00  0.761133766317E+00 -0.512272218738E+00
  0.631800953034E+00  0.316827863399E+00 -0.707423254296E+00
  0.580000314669E+00 -0.774296420821E+00  0.253110030794E+00
 -0.465806274021E+00 -0.647001935743E+00 -0.603666307018E+00
 -0.451295670055E+00  0.689817139737E+00 -0.566113532708E+00
 -0.855832474878E+00  0.332735150623E+00 -0.396027896094E+00
  0.364025391629E+00 -0.662432655241E+00  0.654727799563E+00
 -0.746347162347E+00 -0.340969735557E+00 -0.571581623822E+00
  0.865128103534E+00  0.491859746809E+00 -0.981190804289E-01
 -0.402832904993E+00 -0.834466570718E+00 -0.376020202927E+00
 -0.524984418590E-01 -0.950648058570E+00  0.305797616635E+00
  0.570919581017E+00 -0.494511556588E+00  0.655369477785E+00
  0.388356933575E+00 -0.803894384548E+00 -0.450480533028E+00
  0.275190436152E-01 -0.287512627746E+00  0.957381424055E+00
 -0.891705789786E+00 -0.275975557093E+00  0.358745419970E+00
 -0.840974896888E-01 -0.157377673940E+00 -0.983951157311E+00
 -0.297744263761E+00  0.796788183319E+00 -0.525810749529E+00
 -0.235456823186E-01 -0.996737352538E+00 -0.772026612209E-01
 -0.334471938664E+00 -0.531995852386E+00 -0.777887482410E+00
 -0.475034296805E+00  0.899567483585E-01  0.875357184401E+00
  0.630003944224E+00  0.468896596368E+00  0.619056550064E+00
  0.852943140073E+00 -0.251236450699E+00  0.457567749785E+00
  0.778941958606E+00  0.397224378150E+00  0.485244493556E+00
 -0.859405166415E+00 -0.510751520416E+00 -0.235721091765E-01
  0.559521017279E+00 -0.373403400000E+00 -0.739936573019E+00
 -0.389168816001E+00  0.658779304330E+00 -0.643861367718E+00
  0.215928797104E+00 -0.672976254751E+00 -0.707444496143E+00
 -0.853360286550E+00 -0.502029990999E+00  0.140506617200E+00
 -0.125084955645E+00  0.752001161873E+00  0.647184677208E+00
 -0.119943046849E+00 -0.559064197013E+00 -0.820402882205E+00
  0.646139874619E+00 -0.760406585638E+00  0.654605755133E-01
  0.347825927261E+00  0.511511515562E+00 -0.785730929627E+00
 -0.890305722842E+00  0.411969334400E+00 -0.194002544802E+00
  0.543874663769E+00  0.466382048821E+00  0.697630371076E+00
 -0.455852946983E+00  0.802065856081E+00  0.385860665573E+00
 -0.728010980448E+00  0.532173663854E+00  0.432193479644E+00
  0.653496097563E+00  0.625166380171E+00  0.426743304076E+00
 -0.816462022147E+00  0.459569308884E+00  0.349550878590E+00
  0.829084163737E+00  0.556079033232E+00 -0.582714187255E-01
 -0.251028214491E+00 -0.698291044544E+00  0.670353975627E+00
  0.891183160760E+00 -0.439846889198E+00 -0.111028320890E+00
  0.862838645996E+00 -0.498233086221E+00  0.852834261150E-01
  0.611644799344E-01  0.366378823344E+00 -0.928453264413E+00
 -0.507555995857E+00 -0.252079817398E+00  0.823919095986E+00
 -0.583023280401E-01  0.581382961215E+00 -0.811538471641E+00
  0.822767151844E+00 -0.185850303645E+00 -0.537134879226E+00
  0.133417312296E+00  0.251264415340E+00 -0.958679307362E+00
 -0.654632669116E+00  0.703438922271E+00 -0.276820792501E+00
 -0.884525194709E+00 -0.160812133158E+00  0.437897976421E+00
 -0.815103179895E-01 -0.483045965717E+00 -0.871792786771E+00
 -0.558894946360E+00  0.712667080450E+00  0.423959987943E+00
  0.356374963517E+00 -0.929232455730E+00 -0.975906173516E-01
  0.891586599144E+00  0.452836460735E+00  0.353214596205E-02
  0.608774596095E+00 -0.187375185091E+00 -0.770898197664E+00
  0.877904014448E-01 -0.382603500734E+00  0.919732247255E+00
 -0.362906012881E+00  0.888081737730E+00  0.282152534854E+00
 -0.707346708561E+00 -0.531624522959E+00  0.465871227354E+00
 -0.125448521575E-01  0.790583889801E+00 -0.612225236225E+00
 -0.573988281863E+00  0.270248923125E+00  0.772983164004E+00
  0.322770135465E+00 -0.120780827601E+00  0.938739277614E+00
  0.294657812953E+00 -0.949562724529E+00 -0.107272575483E+00
  0.100316672113E+00  0.200446563023E+00  0.974555150142E+00
  0.278069694138E+00  0.955854577260E+00  0.949698496059E-01
 -0.685607082171E+00 -0.727828244867E+00  0.144559624420E-01
 -0.968903454778E+00 -0.868620700816E-01  0.231691769599E+00
  0.781176200311E+00  0.153183826908E+00  0.605225957177E+00
  0.321349790561E+00 -0.111015514278E+00 -0.940430682026E+00
 -0.419690584735E+00  0.638918414056E+00 -0.644703864782E+00
  0.886526045835E+00 -0.413474594674E+00 -0.207630271435E+00
  0.167931980343E+00  0.321206934490E+00 -0.932000512454E+00
 -0.882907007979E-01  0.895703398327E+00 -0.435798318467E+00
 -0.340115325090E-01  0.989318665208E+00 -0.141745526661E+00
 -0.655427194137E+00 -0.631916763475E+00 -0.413638002637E+00
  0.158678162158E+00  0.112470030534E+00 -0.980903528940E+00
  0.152937418772E+00 -0.547939558481E+00  0.822418619798E+00
 -0.262657092514E+00 -0.805346407078E+00  0.531439946145E+00
  0.597663883976E+00 -0.783094341113E+00 -0.171933518278E+00
  0.368406817363E+00 -0.918013737819E+00 -0.146721484781E+00
  0.993111018428E+00  0.116594999700E+00  0.116666670834E-01
 -0.127265311563E+00  0.966808244843E+00  0.221552156787E+00
 -0.831654067784E+00 -0.382182803271E-01  0.553977323171E+00
  0.274420517823E-01  0.111875740089E+00  0.993343219926E+00
 -0.252258467577E+00 -0.419688695533E+00 -0.871910009334E+00
 -0.393842917429E+00  0.256566084214E+00  0.882644662830E+00
 -0.186946954918E+00 -0.818542857389E+00  0.543174398019E+00
  0.230292159531E+00 -0.848031768677E+00 -0.477291986706E+00
  0.164970263306E+00 -0.570491314954E+00  0.804564771654E+00
 -0.155076269969E+00 -0.399034545635E+00  0.903727161195E+00
  0.639484990785E-01  0.751851152475E+00 -0.656224377776E+00
 -0.734402965984E+00 -0.489711455938E+00 -0.469930817757E+00
 -0.614189173647E+00  0.323279423839E+00 -0.719904211056E+00
  0.780176710065E-01  0.757621594771E+00  0.648014476803E+00
 -0.539049422889E+00  0.305613421160E+00 -0.784873337864E+00
 -0.976788905443E+00 -0.786831264952E-01  0.199229515407E+00
  0.945162512112E+00  0.136715792970E+00  0.296608525922E+00
  0.456339818665E+00 -0.416697222706E+00  0.786204422838E+00
 -0.156529924226E+00  0.586760661105E+00 -0.794487450751E+00
  0.861671453392E+00  0.507099366155E+00  0.193012759920E-01
 -0.533311583831E+00 -0.834820587551E+00  0.136577235116E+00
 -0.957624666276E+00 -0.275700930960E+00  0.833306378693E-01
 -0.368316567856E+00 -0.220177437960E+00  0.903252346610E+00
 -0.682807658213E+00 -0.674439823002E+00  0.280899674322E+00
  0.611721377335E+00 -0.472246200767E-01  0.789662454325E+00
 -0.470616900871E+00 -0.685608320351E+00  0.555392621197E+00
 -0.592570258132E+00  0.770569502150E+00  0.234697958094E+00
  0.386275796897E+00 -0.610261852446E+00  0.691644041528E+00
  0.386637460856E+00  0.390396547134E+00 -0.835524990559E+00
 -0.962140786433E+00  0.269351818298E+00 -0.416497906630E-01
 -0.819393061929E+00 -0.548751808357E+00 -0.165730090472E+00
  0.926387103565E+00  0.130785487280E+00 -0.353131831849E+00
  0.484787244184E+00  0.110640799426E+00  0.867605867533E+00
 -0.237726961496E+00  0.896906119773E+00 -0.372887790215E+00
 -0.930140220308E-01 -0.682507329772E-01  0.993322822225E+00
  0.219585562213E+00 -0.520154363026E+00 -0.825361508366E+00
POLYGONS                 246                 984
3                  35                  64                  56
3                  35                  56                  79
3                  79                  87                  35
3                  21                  62                  13
3                  48                  91                  69
3                 123                  98                  24
3                  44                  72                 121
3                  28                 109                  10
3                   2                  20                  10
3                  10                 109                   2
3                  60                  93                  26
3                  40                  93                  60
3                  26                 124                  60
3                  60                 124                  40
3                  18                  16                 101
3                 110                  16                  18
3                 100                 119                  18
3                  18                 119                 110
3                 100                  18                  14
3                  40                  10                  14
3                  14                  10                  20
3                  77                  64                  35
3                  35                 124                  77
3                  77                 124                  26
3                  26                  84                  77
3                  35                  87                  23
3                  15                  78                 101
3                 101                  16                  15
3                 118                 110                 104
3                 118                  16                 110
3                 104                  48                 118
3                 110                  38                  25
3                  25                  38                  67
3                   0                  79                  56
3                  87                  79                  51
[...]
CELL_DATA                 246
NORMALS normals float
  0.705934771055E+00 -0.294142080259E+00 -0.644310899827E+00
  0.723447702150E+00 -0.494598716679E+00 -0.481659144742E+00
  0.677721406045E+00 -0.574028976052E+00 -0.459548071959E+00
  0.279148329069E+00 -0.931426944700E+00  0.233495304160E+00
 -0.785275612653E+00  0.255560228667E+00  0.563942534037E+00
 -0.139531743443E+00 -0.234406608502E+00  0.962072988116E+00
  0.327406673882E+00  0.362536751743E+00  0.872566314691E+00
 -0.325742637328E+00 -0.943409778149E+00 -0.622071114801E-01
 -0.449348481909E+00 -0.883644142522E+00 -0.131373403669E+00
 -0.394278667225E+00 -0.914485297899E+00 -0.908898921656E-01
 -0.119628544392E+00 -0.324135747789E+00 -0.938416234073E+00
 -0.180045622009E+00 -0.486805273502E+00 -0.854753882522E+00
  0.105216917798E+00 -0.323069912640E+00 -0.940507964749E+00
  0.543392927413E-01 -0.577936377732E+00 -0.814270707172E+00
 -0.800872700958E+00  0.257481165721E-01 -0.598280829839E+00
 -0.951111167064E+00 -0.766022664827E-01 -0.299198329968E+00
 -0.907799361826E+00 -0.283882063219E+00 -0.308725270832E+00
 -0.934949064407E+00 -0.218016756459E+00 -0.279890944596E+00
 -0.600334682443E+00 -0.483544295774E+00 -0.637011132620E+00
 -0.184473374994E+00 -0.772392761205E+00 -0.607765576811E+00
 -0.281084280899E+00 -0.777527911866E+00 -0.562531753149E+00
  0.438618008288E+00 -0.259337798636E+00 -0.860440671403E+00
  0.363064078855E+00 -0.334853096652E+00 -0.869515887323E+00
  0.135608062394E+00 -0.299355123954E+00 -0.944455908540E+00
  0.116871980597E+00 -0.939808276648E-01 -0.988690317634E+00
  0.672468795623E+00 -0.578111188520E+00 -0.462139776065E+00
 -0.619406285747E+00  0.521494772155E+00 -0.586838185356E+00
 -0.677498393357E+00  0.519539726918E+00 -0.520648056899E+00
 -0.993586326020E+00 -0.330300142019E-01 -0.108144490884E+00
 -0.951181917494E+00 -0.764448959153E-01 -0.299013607920E+00
 -0.945056240120E+00  0.212003469465E+00  0.248843790248E+00
 -0.906344141860E+00 -0.362821381241E+00  0.216566252751E+00
 -0.825954405681E+00 -0.457756607178E+00  0.329026151423E+00
  0.910206418508E+00 -0.236851801486E+00 -0.339743285201E+00
  0.761573294426E+00 -0.614937383465E+00 -0.204592599166E+00
 -0.562669866716E+00 -0.469425441680E+00  0.680472171211E+00
 -0.423532667495E+00 -0.502816954467E+00  0.753521857590E+00
 -0.381548169015E+00 -0.489255589501E+00  0.784251211579E+00
  0.157393968874E+00 -0.978980812411E+00  0.129706235369E+00
  0.272492387528E+00 -0.935105004302E+00  0.226553591161E+00
 -0.434231420205E+00 -0.826043317853E+00  0.359298637262E+00
 -0.350823168536E+00 -0.727305360699E+00  0.589872881829E+00
 -0.226825783907E+00 -0.762158907029E+00  0.606352920494E+00
 -0.635076183559E+00 -0.751763279229E+00  0.177567488798E+00
 -0.789579675910E+00 -0.531935517821E+00  0.305955127870E+00
 -0.600709093058E+00 -0.669377584565E+00  0.437129540068E+00
 -0.501973334044E+00 -0.788231865775E+00  0.355968113299E+00
 -0.975634158282E-01 -0.988948734582E+00  0.111632344155E+00
 -0.319699915714E+00 -0.946425072450E+00 -0.455142409580E-01
 -0.428800089194E+00 -0.830342124870E+00  0.355896669235E+00
 -0.182387730570E+00 -0.899409405258E+00  0.397237255895E+00
 -0.217193199121E+00 -0.890430362444E+00  0.399951101878E+00
 -0.769403910296E+00  0.288833426266E+00  0.569730528138E+00
 -0.741612136837E+00  0.624428697110E+00  0.245153504404E+00
  0.603047560176E+00  0.790672308162E+00  0.105692673693E+00
  0.608455967714E+00 -0.322919063254E+00  0.724916970377E+00
  0.466032736911E+00 -0.518808776591E+00  0.716694454743E+00
  0.277184961434E+00 -0.876659685349E+00  0.393238214367E+00
  0.550142221914E+00 -0.679679598813E+00  0.485158920999E+00
  0.510368642916E+00 -0.631053388370E+00  0.584204989156E+00
  0.127709425573E+00 -0.834146434132E+00  0.536553845430E+00
  0.286806517926E+00  0.923007701353E-01  0.953531640329E+00
  0.117429730921E+00 -0.974465262947E-01  0.988288638409E+00
  0.502107596497E-01  0.995948743657E+00  0.745987910273E-01
  0.286741369649E+00  0.418907914260E+00  0.861565752744E+00
 -0.248599795882E-01  0.502716122519E+00  0.864094023573E+00
  0.453086866696E+00  0.676885396675E+00  0.580119342029E+00
  0.365886954969E+00  0.832589700801E+00  0.415837860594E+00
 -0.658551224983E+00 -0.368109593912E-01 -0.751635042652E+00
 -0.528891914696E+00 -0.108115166899E+00 -0.841774585774E+00
 -0.465393871614E+00 -0.782235631087E-01 -0.881640299917E+00
 -0.505479061629E+00  0.481985609568E+00 -0.715668072799E+00
 -0.608119260295E+00 -0.560331202303E+00 -0.562334339148E+00
 -0.514534404488E+00 -0.726308636369E+00 -0.455774188972E+00
 -0.767803070252E+00 -0.553881867938E+00 -0.322014474335E+00
 -0.530786612416E+00 -0.280869434497E+00 -0.799611113508E+00
 -0.556479703469E+00 -0.435974351812E+00 -0.707288275168E+00
 -0.228710086305E+00 -0.521022351209E+00 -0.822330472476E+00
 -0.220377695461E+00 -0.729400661054E+00 -0.647617438769E+00
  0.522550296600E+00  0.829626667596E-01 -0.848562539503E+00
  0.736473345065E+00  0.512825442426E-01 -0.674519912727E+00
  0.499663253291E+00 -0.862993263921E+00 -0.746944424803E-01
  0.462689144117E+00 -0.839463719752E+00 -0.284990208842E+00
  0.328849265174E+00 -0.934975481516E+00 -0.132962437398E+00
 -0.910800615798E-01 -0.805560739525E+00 -0.585471021758E+00
 -0.426322352219E-01 -0.927361211423E+00 -0.371730649890E+00
  0.114655656601E+00 -0.952726068179E+00 -0.281366521499E+00
  0.304602095132E+00 -0.898045883790E+00 -0.317381716943E+00
  0.237891634075E+00 -0.925319029403E+00 -0.295283362657E+00
 -0.680984361303E+00  0.531572340715E+00 -0.503677621349E+00
 -0.934037494694E+00 -0.308204619302E+00 -0.180510030597E+00
 -0.912098647378E+00 -0.406238134462E+00  0.551963364688E-01
 -0.938883600561E+00  0.201770290461E+00  0.278902015921E+00
 -0.914871562590E+00  0.176953789996E+00  0.362901336689E+00
 -0.962281195227E+00 -0.201276981957E+00  0.183036821011E+00
 -0.945561431780E+00 -0.234096017469E+00  0.226081032675E+00
 -0.771142897467E+00 -0.327263698781E+00  0.546110889056E+00
 -0.718125297051E+00 -0.289503297395E+00  0.632837971785E+00
 -0.717510531800E+00 -0.295242689223E+00  0.630880647362E+00
 -0.921258732657E+00  0.301370930325E-01  0.387780998924E+00
 -0.932219514645E+00 -0.163703419713E+00  0.322750626474E+00
  0.764844205314E+00 -0.637128663858E+00 -0.952911710950E-01
  0.459854902781E+00 -0.882708388924E+00  0.967438293219E-01
  0.512790646021E+00 -0.858213725618E+00 -0.226926092396E-01
  0.744577031098E+00 -0.631735174882E+00  0.215675018437E+00
  0.771360874074E+00 -0.631779900930E+00 -0.765281564475E-01
  0.976907932084E+00 -0.197122324714E+00  0.824237910492E-01
  0.974570219455E+00 -0.191694179457E+00 -0.116044081768E+00
  0.975959436494E+00 -0.193694138266E+00 -0.999287702303E-01
  0.982752348678E+00 -0.184029632504E+00  0.181910837719E-01
 -0.677629353703E+00  0.448813807897E-01  0.734032779008E+00
 -0.658566251805E+00 -0.502989325101E-01  0.750839869328E+00
 -0.497433348391E+00  0.205543175153E+00  0.842800134704E+00
 -0.261516695577E+00  0.853890580205E-01  0.961414440658E+00
 -0.668752572627E+00 -0.727609714750E+00  0.152820481634E+00
 -0.757438824479E+00 -0.638602273461E+00  0.135917487847E+00
 -0.784387447780E+00 -0.617194360196E+00  0.617045663474E-01
 -0.775366331949E+00 -0.629532740217E+00 -0.499557831901E-01
 -0.672723162873E+00 -0.710464492128E+00 -0.206600463600E+00
 -0.570762119616E+00 -0.797492909666E+00 -0.195539412506E+00
 -0.591086118016E+00 -0.777205507654E+00 -0.215798053654E+00
 -0.577575669642E+00  0.499977057521E+00  0.645313325285E+00
  0.947093367906E+00  0.289325791091E+00  0.138941495167E+00
  0.888177952879E+00  0.384202509633E+00  0.252048319993E+00
  0.949322103368E+00  0.283346658796E+00 -0.136022847369E+00
  0.948844883233E+00  0.284017849377E+00 -0.137939293888E+00
  0.260539180022E+00 -0.629248571668E+00  0.732233276168E+00
  0.135113085346E-02 -0.726279507537E+00  0.687398175279E+00
  0.983728091039E-01 -0.784612926106E+00  0.612131804937E+00
  0.317895876393E+00 -0.506589169872E+00  0.801442215472E+00
  0.509799628139E+00  0.636126507072E+00  0.579178216226E+00
  0.697125562696E+00  0.512365398110E+00  0.501495412397E+00
  0.469297772355E+00 -0.577080907402E-01  0.881152300755E+00
  0.594394077839E+00 -0.257103727513E+00  0.761966766683E+00
  0.490363358910E+00 -0.214128946985E+00  0.844803273136E+00
 -0.139078592792E+00  0.313678027902E+00  0.939288688231E+00
 -0.206988943836E+00  0.138310152559E+00  0.968517361140E+00
  0.208727813088E+00  0.355773711057E-01  0.977326429965E+00
  0.119773932937E+00 -0.802085452807E-01  0.989555857066E+00
 -0.104167498478E+00  0.475805702016E+00  0.873360215598E+00
 -0.109083484512E+00  0.472117519256E+00  0.874760448019E+00
 -0.433690772079E+00  0.466847846118E+00  0.770691509482E+00
 -0.550245274488E+00  0.510131862419E+00  0.661056443013E+00
 -0.265353358821E-01  0.892381636924E+00  0.450500710356E+00
 -0.180025526867E-01  0.524912340618E+00  0.850965888132E+00
  0.143196039243E+00  0.914069357027E+00  0.379436562405E+00
  0.318215532295E+00  0.850011335418E+00  0.419785188717E+00
  0.791032930557E+00  0.436755030686E+00 -0.428382943107E+00
  0.940418769223E+00  0.287624064827E+00 -0.181342040975E+00
  0.961586134874E+00  0.790571948180E-01 -0.262872716664E+00
  0.874753293620E+00 -0.468669528916E-02 -0.484545880375E+00
  0.789278641647E+00  0.943007446653E-01 -0.606750851170E+00
  0.766337625480E+00  0.589119618914E+00 -0.256251279773E+00
  0.782050184940E+00  0.451805079152E+00 -0.429266442536E+00
  0.593884160089E+00  0.803604456294E+00  0.390061818303E-01
 -0.465669244521E+00  0.806061706516E+00 -0.365262480958E+00
  0.584552195636E-01 -0.610719146570E+00 -0.789686717198E+00
 -0.677808891405E-01 -0.796132822393E+00 -0.601313795099E+00
  0.308526555087E+00 -0.747724698659E+00 -0.587978860013E+00
  0.421134193959E+00 -0.560368838061E+00 -0.713184938153E+00
  0.474978603894E+00 -0.613227313680E+00 -0.631147833395E+00
 -0.857789678585E+00  0.508937990133E+00  0.719651965327E-01
 -0.800275718151E+00  0.596969854654E+00  0.564426042317E-01
 -0.775974082805E+00  0.630662090747E+00  0.113820081349E-01
 -0.945489228259E+00  0.214158082424E+00 -0.245329237921E+00
 -0.776086658419E+00  0.530744381394E+00 -0.340587580871E+00
  0.742995371618E+00 -0.541480969560E+00  0.393390693024E+00
  0.751718637019E+00 -0.540155152197E+00  0.378353673582E+00
  0.740745477584E+00 -0.462836755985E+00  0.486906844015E+00
  0.971775866590E+00 -0.158509331692E+00  0.174718221374E+00
  0.970662605614E+00 -0.187670302700E+00  0.150312885500E+00
 -0.301846504803E+00 -0.181313394287E-01  0.953184107121E+00
 -0.478272494418E+00 -0.859626116646E-01  0.873994193618E+00
 -0.189520588285E+00 -0.223415479538E+00  0.956121054113E+00
 -0.367857482681E+00 -0.436393943413E+00  0.821121914571E+00
 -0.683485142808E+00  0.655091618140E+00  0.322029550512E+00
 -0.652477876186E+00  0.630524850980E+00  0.420370114761E+00
  0.860349222701E+00  0.508084242763E+00 -0.406154804665E-01
  0.870377806450E+00  0.490908892248E+00 -0.380911216717E-01
  0.695211233943E+00  0.702637369134E+00  0.151598376297E+00
  0.813964472278E+00  0.516296304757E+00  0.266270470694E+00
  0.876536410940E+00  0.409916274837E+00  0.252294605411E+00
 -0.781053658222E-01 -0.597383406362E+00  0.798143231277E+00
 -0.524751085511E-01 -0.636917400373E+00  0.769144061984E+00
  0.307323472416E+00 -0.484456400138E+00  0.819056945314E+00
  0.713676368037E+00  0.314304957611E+00  0.626001945146E+00
  0.864830398444E+00  0.227867794675E+00  0.447375289972E+00
  0.643759890149E+00  0.146826761497E+00  0.751009391382E+00
  0.762594297714E+00 -0.513665049279E-01  0.644834412284E+00
  0.621039389348E+00  0.251533456836E+00  0.742321356941E+00
  0.643221792110E+00  0.276717480804E+00  0.713927980942E+00
  0.825592405090E+00 -0.584067147290E-01  0.561235989876E+00
  0.882648661895E+00 -0.148964420066E-01  0.469797228249E+00
 -0.421919606700E+00  0.674114135089E+00 -0.606262301611E+00
 -0.358377918501E+00  0.732502406321E+00 -0.578796589715E+00
  0.612740597013E+00  0.565273321126E+00 -0.552281661108E+00
  0.282952707069E+00  0.928146811155E+00 -0.241828994343E+00
  0.354936982469E+00  0.908325639693E+00 -0.221278717350E+00
 -0.544918844144E+00  0.769763479478E+00  0.332456973093E+00
 -0.287585101145E+00  0.805390912418E+00  0.518305207183E+00
 -0.405574441776E+00  0.739642987688E+00  0.537063890931E+00
 -0.479230062994E+00  0.748029709587E+00  0.459118830258E+00
 -0.345629135939E-01 -0.386766735149E+00  0.921529650953E+00
 -0.217915360008E-01 -0.513484201564E+00  0.857822303104E+00
  0.200118271440E+00 -0.248404124037E+00  0.947759499344E+00
  0.294531701417E+00 -0.329457133296E+00  0.897055780975E+00
  0.278497859226E+00 -0.403304213394E+00  0.871656270479E+00
  0.410240450908E+00  0.135277147484E+00 -0.901888499654E+00
  0.487380004075E+00  0.117565237561E+00 -0.865239357950E+00
  0.203068024292E+00  0.921566272720E+00 -0.330876083292E+00
 -0.179132839839E+00  0.877940939853E+00  0.443994517783E+00
 -0.248780740236E+00  0.843271675170E+00  0.476446245808E+00
 -0.481935854199E+00  0.836229850394E+00  0.261643784081E+00
 -0.322358700790E+00  0.946310492207E+00 -0.241105861208E-01
 -0.444176922946E+00  0.893693459737E+00 -0.633944882901E-01
 -0.245467226439E+00  0.169221659025E+00 -0.954520754547E+00
 -0.111365481912E+00  0.952707085655E+00 -0.282748896340E+00
 -0.196079875487E+00  0.853898883949E+00 -0.482088558689E+00
 -0.459546257494E+00  0.814917858367E+00 -0.353165855282E+00
 -0.359020918659E+00  0.931644461007E+00 -0.560587035143E-01
 -0.433242656667E+00  0.898500893826E+00 -0.706890673077E-01
  0.341795386868E+00  0.199975893646E+00 -0.918251357459E+00
  0.304783436751E+00  0.204421939018E+00 -0.930225095087E+00
  0.100201172096E+00  0.311050103396E+00 -0.945096586751E+00
 -0.135102690767E+00  0.132638340048E+00 -0.981913608062E+00
 -0.168588029609E+00  0.149985639964E+00 -0.974208593720E+00
  0.174740526133E+00  0.881029336655E+00 -0.439605569209E+00
 -0.250757353771E+00  0.309809645321E+00 -0.917136158482E+00
 -0.212326566405E+00  0.712613499998E+00 -0.668654940024E+00
 -0.364871991167E+00  0.468927093351E+00 -0.804348065941E+00
 -0.331732381811E+00  0.542536673692E+00 -0.771756169109E+00
  0.149720144437E+00  0.876327606760E+00 -0.457857842545E+00
  0.829451367732E-01  0.815106683305E+00 -0.573342130945E+00
 -0.149636491153E+00  0.819825496010E+00 -0.552716090418E+00
 -0.185373787454E+00  0.724552938109E+00 -0.663821963182E+00
  0.294187659374E+00  0.678495028906E+00 -0.673125632273E+00
  0.554424155988E+00  0.561706650222E+00 -0.614084273006E+00
  0.515664906418E+00  0.461921075361E+00 -0.721608359449E+00
  0.244763866593E+00  0.434742992521E+00 -0.866654014047E+00
  0.178175604792E+00  0.488222029889E+00 -0.854337581632E+00
  0.777046455802E-01  0.640427659743E+00 -0.764077483435E+00
 -0.598191141183E-01  0.695382126796E+00 -0.716146194096E+00
 -0.854288182500E-01  0.696999587860E+00 -0.711964529689E+00
 -0.133480218957E+00  0.415176308126E+00 -0.899895362983E+00
  0.144745509222E+00  0.533552821216E+00 -0.833288740193E+00
  0.152424893772E+00  0.594301756672E+00 -0.789665798788E+00
SCALARS inclination float 1
LOOKUP_TABLE default
  0.100000000000E+01
  0.100000000000E+01
  0.100000000000E+01
  0.100000000000E+01
  0.100000000000E+01
  0.100000000000E+01
  0.100000000000E+01
  0.100000000000E+01
  0.100000000000E+01
  0.100000000000E+01
  0.100000000000E+01
  0.100000000000E+01
  0.100000000000E+01
  0.100000000000E+01
  0.100000000000E+01
  0.100000000000E+01
  0.100000000000E+01
  0.100000000000E+01
  0.100000000000E+01
  0.100000000000E+01
  0.100000000000E+01
  0.100000000000E+01
  0.100000000000E+01
  0.100000000000E+01
  0.100000000000E+01
  0.100000000000E+01
  0.100000000000E+01
  0.100000000000E+01
  0.100000000000E+01
  0.100000000000E+01
  0.100000000000E+01
  0.100000000000E+01
  0.100000000000E+01
  0.100000000000E+01
  0.100000000000E+01
  0.100000000000E+01
  0.100000000000E+01
  0.100000000000E+01
  0.100000000000E+01
  0.100000000000E+01
  0.100000000000E+01
  0.100000000000E+01
  0.100000000000E+01
  0.100000000000E+01
  0.100000000000E+01
  0.100000000000E+01
  0.100000000000E+01
  0.100000000000E+01
  0.100000000000E+01
  0.100000000000E+01
  0.100000000000E+01
  0.100000000000E+01
  0.100000000000E+01
  0.100000000000E+01
  0.100000000000E+01
  0.100000000000E+01
  0.100000000000E+01
  0.100000000000E+01
  0.100000000000E+01
  0.100000000000E+01
  0.100000000000E+01
  0.100000000000E+01
  0.100000000000E+01
  0.100000000000E+01
  0.100000000000E+01
  0.100000000000E+01
  0.100000000000E+01
  0.100000000000E+01
  0.100000000000E+01
  0.100000000000E+01
  0.100000000000E+01
  0.100000000000E+01
  0.100000000000E+01
  0.100000000000E+01
  0.100000000000E+01
  0.100000000000E+01
  0.100000000000E+01
  0.100000000000E+01
  0.100000000000E+01
  0.100000000000E+01
  0.100000000000E+01
  0.100000000000E+01
  0.100000000000E+01
  0.100000000000E+01
  0.100000000000E+01
  0.100000000000E+01
  0.100000000000E+01
  0.100000000000E+01
  0.100000000000E+01
  0.100000000000E+01
  0.100000000000E+01
  0.100000000000E+01
  0.100000000000E+01
  0.100000000000E+01
  0.100000000000E+01
  0.100000000000E+01
  0.100000000000E+01
  0.100000000000E+01
  0.100000000000E+01
  0.100000000000E+01
  0.100000000000E+01
  0.100000000000E+01
  0.100000000000E+01
  0.100000000000E+01
  0.100000000000E+01
  0.100000000000E+01
  0.100000000000E+01
  0.100000000000E+01
  0.100000000000E+01
  0.100000000000E+01
  0.100000000000E+01
  0.100000000000E+01
  0.100000000000E+01
  0.100000000000E+01
  0.100000000000E+01
  0.100000000000E+01
  0.100000000000E+01
  0.100000000000E+01
  0.100000000000E+01
  0.100000000000E+01
  0.100000000000E+01
  0.100000000000E+01
  0.100000000000E+01
  0.100000000000E+01
  0.100000000000E+01
  0.100000000000E+01
  0.100000000000E+01
  0.100000000000E+01
  0.100000000000E+01
  0.100000000000E+01
  0.100000000000E+01
  0.100000000000E+01
  0.100000000000E+01
  0.100000000000E+01
  0.100000000000E+01
  0.100000000000E+01
  0.100000000000E+01
  0.100000000000E+01
  0.100000000000E+01
  0.100000000000E+01
  0.100000000000E+01
  0.100000000000E+01
  0.100000000000E+01
  0.100000000000E+01
  0.100000000000E+01
  0.100000000000E+01
  0.100000000000E+01
  0.100000000000E+01
  0.100000000000E+01
  0.100000000000E+01
  0.100000000000E+01
  0.100000000000E+01
  0.100000000000E+01
  0.100000000000E+01
  0.100000000000E+01
  0.100000000000E+01
  0.100000000000E+01
  0.100000000000E+01
  0.100000000000E+01
  0.100000000000E+01
  0.100000000000E+01
  0.100000000000E+01
  0.100000000000E+01
  0.100000000000E+01
  0.100000000000E+01
  0.100000000000E+01
  0.100000000000E+01
  0.100000000000E+01
  0.100000000000E+01
  0.100000000000E+01
  0.100000000000E+01
  0.100000000000E+01
  0.100000000000E+01
  0.100000000000E+01
  0.100000000000E+01
  0.100000000000E+01
  0.100000000000E+01
  0.100000000000E+01
  0.100000000000E+01
  0.100000000000E+01
  0.100000000000E+01
  0.100000000000E+01
  0.100000000000E+01
  0.100000000000E+01
  0.100000000000E+01
  0.100000000000E+01
  0.100000000000E+01
  0.100000000000E+01
  0.100000000000E+01
  0.100000000000E+01
  0.100000000000E+01
  0.100000000000E+01
  0.100000000000E+01
  0.100000000000E+01
  0.100000000000E+01
  0.100000000000E+01
  0.100000000000E+01
  0.100000000000E+01
  0.100000000000E+01
  0.100000000000E+01
  0.100000000000E+01
  0.100000000000E+01
  0.100000000000E+01
  0.100000000000E+01
  0.100000000000E+01
  0.100000000000E+01
  0.100000000000E+01
  0.100000000000E+01
  0.100000000000E+01
  0.100000000000E+01
  0.100000000000E+01
  0.100000000000E+01
  0.100000000000E+01
  0.100000000000E+01
  0.100000000000E+01
  0.100000000000E+01
  0.100000000000E+01
  0.100000000000E+01
  0.100000000000E+01
  0.100000000000E+01
  0.100000000000E+01
  0.100000000000E+01
  0.100000000000E+01
  0.100000000000E+01
  0.100000000000E+01
  0.100000000000E+01
  0.100000000000E+01
  0.100000000000E+01
  0.100000000000E+01
  0.100000000000E+01
  0.100000000000E+01
  0.100000000000E+01
  0.100000000000E+01