# vtk DataFile Version 3.0
MachLine results file. Generated by MachLine, USU AeroLab (c) 2022.
ASCII
DATASET POLYDATA
POINTS                4205 float
  0.874267867999E-05  0.000000000000E+00 -0.815891574591E-02
  0.321771286439E-03  0.276229052677E-02 -0.774389308322E-02
  0.358384738316E-02  0.711407363952E-02 -0.119386182332E-01
  0.358385638950E-02  0.582986686046E-02 -0.136469735737E-01
  0.358386795716E-02  0.000000000000E+00 -0.160395748634E-01
  0.358387397020E-02  0.414395361808E-02 -0.149482667836E-01
  0.375247319438E-02  0.679407392245E-02 -0.269861415966E-02
  0.375249374443E-02  0.703531404657E-16  0.746469548328E-03
  0.375247721428E-02  0.496553439919E-02 -0.842333645625E-03
  0.538140337852E-02  0.992873439790E-02 -0.773776851940E-02
  0.881764739226E-02  0.105606641349E-01  0.830219685811E-04
  0.881763942900E-02  0.775389045951E-02  0.291103983679E-02
  0.881763405525E-02 -0.351765715564E-15  0.531518821987E-02
  0.881764115331E-02  0.413881998850E-02  0.470209418473E-02
  0.101679252438E-01  0.121629805254E-01 -0.147863716160E-01
  0.101679319557E-01  0.000000000000E+00 -0.218112698806E-01
  0.101679229941E-01  0.703600299302E-02 -0.199317815251E-01
  0.101679191224E-01  0.993898857381E-02 -0.176997911476E-01
  0.124903818769E-01  0.157965406769E-01 -0.771649192899E-02
  0.143350545746E-01 -0.351765715564E-15  0.921454163395E-02
  0.143350603026E-01  0.163191304435E-01 -0.219721422779E-02
  0.143350624013E-01  0.557098838623E-02  0.843742346694E-02
  0.143350648959E-01  0.140159315577E-01  0.253197257700E-02
  0.143350677700E-01  0.103506486532E-01  0.615855093220E-02
  0.173819025435E-01  0.000000000000E+00 -0.267840842942E-01
  0.173819119164E-01  0.492573458808E-02 -0.261307777142E-01
  0.173819100193E-01  0.953098409907E-02 -0.242162396555E-01
  0.173819218898E-01  0.134949981759E-01 -0.211738553680E-01
  0.173819330062E-01  0.165417374911E-01 -0.172155131154E-01
  0.173819400265E-01  0.184590305433E-01 -0.126168516234E-01
  0.201195197776E-01  0.859664844123E-02  0.115126765312E-01
  0.201195311431E-01  0.198402647190E-01 -0.354937345782E-03
  0.201195384479E-01  0.000000000000E+00  0.127928974186E-01
  0.201195393837E-01  0.139946549767E-01  0.865305553286E-02
  0.201195351854E-01  0.175055969977E-01  0.483687684334E-02
  0.201195430387E-01  0.207816391340E-01 -0.768976284921E-02
  0.249752208939E-01  0.000000000000E+00 -0.312674805302E-01
  0.249752155098E-01  0.610459480266E-02 -0.304673986890E-01
  0.249752199251E-01  0.117754866447E-01 -0.281203176925E-01
  0.249752217629E-01  0.166342324670E-01 -0.243829595054E-01
  0.249752272578E-01  0.203566467436E-01 -0.195047127369E-01
  0.249752293385E-01  0.226943477117E-01 -0.138110751605E-01
  0.273139623470E-01  0.102810394792E-01  0.147532390825E-01
  0.273197284888E-01  0.210024842484E-01  0.736280595369E-02
  0.273199121313E-01  0.235561591554E-01  0.107510924417E-02
  0.273249388024E-01  0.169672184993E-01  0.120113450018E-01
  0.273284387375E-01  0.247148441392E-01 -0.768226112315E-02
  0.273302276934E-01 -0.188570023645E-07  0.163758595418E-01
  0.328477416947E-01  0.000000000000E+00 -0.351754516488E-01
  0.328477417005E-01  0.710709240206E-02 -0.342403485518E-01
  0.328477416704E-01  0.137230506599E-01 -0.314981081002E-01
  0.328477417109E-01  0.194000669977E-01 -0.271344571427E-01
  0.328477418267E-01  0.237539558632E-01 -0.214447282583E-01
  0.328477406638E-01  0.264900531220E-01 -0.148139604477E-01
  0.347323232912E-01  0.283088279108E-01 -0.769456328819E-02
  0.347323348726E-01  0.000000000000E+00  0.193256739016E-01
  0.347323170058E-01  0.105413842125E-01  0.177173894392E-01
  0.347323223351E-01  0.188030285572E-01  0.156801398878E-01
  0.347323277170E-01  0.223802582596E-01  0.126308261713E-01
  0.347323221541E-01  0.262509187923E-01  0.477391302142E-02
  0.402390426621E-01  0.977502614927E-02  0.198397379188E-01
  0.402391009805E-01  0.196405339363E-01  0.182513281434E-01
  0.408490337900E-01  0.000000000000E+00 -0.388133046928E-01
  0.408490389024E-01  0.804772180563E-02 -0.377531409445E-01
  0.408490389287E-01  0.155460992485E-01 -0.346446072158E-01
  0.408490390165E-01  0.219845210466E-01 -0.296994963218E-01
  0.408490391654E-01  0.269246141487E-01 -0.232545288018E-01
  0.408490418872E-01  0.300299900577E-01 -0.157485247108E-01
  0.411746268581E-01  0.293334833037E-01  0.462203229118E-02
  0.418350350322E-01  0.000000000000E+00  0.263509268150E-01
  0.450288578928E-01  0.582047717332E-02  0.265595600390E-01
  0.477828567371E-01  0.211344565342E-01  0.211475009949E-01
  0.477828271634E-01  0.242127317913E-01  0.193890845134E-01
  0.477828246070E-01  0.272331412659E-01  0.141414602335E-01
  0.477828242609E-01  0.321782863750E-01  0.414701505391E-02
  0.477828493296E-01  0.340989600509E-01 -0.763612238262E-02
  0.489376971998E-01  0.000000000000E+00 -0.422241413981E-01
  0.489377324745E-01  0.000000000000E+00  0.333761291254E-01
  0.489376939785E-01  0.895031389232E-02 -0.410448438153E-01
  0.489376941013E-01  0.172916566977E-01 -0.375872887081E-01
  0.489376944245E-01  0.244551162933E-01 -0.320873346572E-01
  0.489376949272E-01  0.299521566285E-01 -0.249200874201E-01
  0.489376950764E-01  0.334078906648E-01 -0.165743455545E-01
  0.538156337459E-01  0.302436043354E-01  0.133445742924E-01
  0.538156432804E-01  0.336853183309E-01  0.682758922658E-02
  0.540436331327E-01  0.108147308066E-01  0.328154528428E-01
  0.569678844480E-01  0.269787711266E-01  0.212855196804E-01
  0.589049067792E-01  0.000000000000E+00  0.411964683819E-01
  0.589049150298E-01  0.821545494639E-02  0.387311410060E-01
  0.589049057011E-01  0.211113105182E-01  0.322816458976E-01
  0.589048846933E-01  0.243148126193E-01  0.273129688117E-01
  0.598615059718E-01  0.322335411608E-01  0.142980178034E-01
  0.598615101633E-01  0.358763330798E-01  0.755067590210E-02
  0.638008334413E-01  0.000000000000E+00 -0.477034978681E-01
  0.638008403810E-01  0.900937861107E-02 -0.466878284836E-01
  0.638008403435E-01  0.175700063938E-01 -0.436919685840E-01
  0.638008407482E-01  0.252514942203E-01 -0.388665024947E-01
  0.638008415616E-01  0.316676546740E-01 -0.324540388338E-01
  0.638008427386E-01  0.364959066560E-01 -0.247769649473E-01
  0.638008450365E-01  0.394934922241E-01 -0.162212619993E-01
  0.648939645344E-01  0.409199883817E-01 -0.717569861673E-02
  0.659197724303E-01  0.342155598122E-01  0.152737929180E-01
  0.659197778805E-01  0.380182075268E-01  0.829707939394E-02
  0.661949590422E-01  0.297593630647E-01  0.231919689983E-01
  0.668972701077E-01  0.106561438246E-01  0.429698253769E-01
  0.668975871520E-01  0.672083591037E-12  0.454963827896E-01
  0.668975852554E-01  0.205338734187E-01  0.382308407274E-01
  0.671704403461E-01  0.259634815438E-01  0.305091160776E-01
  0.719892116414E-01  0.361910230658E-01  0.162694363537E-01
  0.719892254039E-01  0.401168159034E-01  0.906375353242E-02
  0.754481281476E-01  0.195031693338E-01  0.430843938929E-01
  0.754481331608E-01  0.000000000000E+00  0.489388504398E-01
  0.754481370616E-01  0.101795183994E-01  0.474272943777E-01
  0.754481354335E-01  0.276032641394E-01  0.336880225171E-01
  0.754481357727E-01  0.325508871049E-01  0.251058992810E-01
  0.780682287910E-01  0.354693358276E-01  0.219471527460E-01
  0.780682325123E-01  0.381661158657E-01  0.172855030845E-01
  0.780682361229E-01  0.421759832448E-01  0.984741608740E-02
  0.788955182762E-01  0.000000000000E+00 -0.523994264688E-01
  0.788955176055E-01  0.102086330873E-01 -0.512493277455E-01
  0.788955180845E-01  0.199069144589E-01 -0.478567774457E-01
  0.788955189085E-01  0.286079503559E-01 -0.423920712678E-01
  0.788955200322E-01  0.358749146904E-01 -0.351295609558E-01
  0.788955214000E-01  0.413429779395E-01 -0.264338654776E-01
  0.788955225608E-01  0.447376195963E-01 -0.167415390827E-01
  0.810369906201E-01  0.342374959895E-01  0.262622178169E-01
  0.811119465821E-01  0.466285632279E-01 -0.642380127346E-02
  0.811253141050E-01  0.000000000000E+00  0.508886815470E-01
  0.811253139592E-01  0.102308230802E-01  0.494298178288E-01
  0.811253098196E-01  0.196702187452E-01  0.452171530316E-01
  0.811253107465E-01  0.251830037643E-01  0.406618119803E-01
  0.811253085971E-01  0.319362614213E-01  0.302937348299E-01
  0.841558439297E-01  0.373605188438E-01  0.231028022859E-01
  0.841558494700E-01  0.401453714393E-01  0.183219465627E-01
  0.841558518999E-01  0.441931326994E-01  0.106426766776E-01
  0.841558586660E-01  0.467670029195E-01  0.236592730699E-02
  0.866337117584E-01  0.359220574413E-01  0.274171656936E-01
  0.868309752623E-01  0.000000000000E+00  0.527067904895E-01
  0.868309749566E-01  0.106255323839E-01  0.511928300763E-01
  0.868309711531E-01  0.204236015303E-01  0.468053708412E-01
  0.868309677830E-01  0.262245328260E-01  0.421585002412E-01
  0.868309735825E-01  0.302596854729E-01  0.371517878095E-01
  0.868309673336E-01  0.335852394199E-01  0.316379676201E-01
  0.902548240520E-01  0.392455664311E-01  0.242611540702E-01
  0.902548307677E-01  0.421138354490E-01  0.193672194996E-01
  0.902548327438E-01  0.461605266553E-01  0.114412670925E-01
  0.902548328473E-01  0.487132417370E-01  0.292810545342E-02
  0.923215883896E-01  0.376193014897E-01  0.285808603761E-01
  0.928110368997E-01  0.000000000000E+00  0.544942323754E-01
  0.928110358222E-01  0.110134693185E-01  0.529186443647E-01
  0.928110323311E-01  0.211640826225E-01  0.483518950278E-01
  0.928110293576E-01  0.272519777185E-01  0.436230275439E-01
  0.928110309456E-01  0.316637588441E-01  0.386213472767E-01
  0.928110317568E-01  0.352897317626E-01  0.330194110216E-01
  0.941684734659E-01  0.000000000000E+00 -0.564364710988E-01
  0.941684729416E-01  0.112909753557E-01 -0.551640453413E-01
  0.941684735108E-01  0.220172042925E-01 -0.514106454310E-01
  0.941684744892E-01  0.316402779444E-01 -0.453646459154E-01
  0.941684758265E-01  0.396771860012E-01 -0.373295190768E-01
  0.941684774575E-01  0.457245310583E-01 -0.277085821314E-01
  0.941684786401E-01  0.494787753348E-01 -0.169847413470E-01
[...]
POINT_DATA                4205
SCALARS phi float 1
LOOKUP_TABLE default
  0.138777878078E-16
 -0.763278329430E-16
 -0.128369537222E-15
 -0.208166817117E-16
  0.208166817117E-16
 -0.208166817117E-16
 -0.346944695195E-17
 -0.312250225676E-16
  0.693889390391E-17
 -0.138777878078E-16
  0.159594559790E-15
 -0.902056207508E-16
  0.117961196366E-15
  0.173472347598E-16
 -0.693889390391E-17
  0.138777878078E-16
  0.520417042793E-16
  0.555111512313E-16
 -0.451028103754E-16
 -0.763278329430E-16
  0.346944695195E-16
  0.208166817117E-16
 -0.277555756156E-16
  0.208166817117E-16
 -0.867361737988E-16
 -0.135308431126E-15
  0.693889390391E-17
  0.797972798949E-16
  0.000000000000E+00
 -0.346944695195E-16
  0.114491749414E-15
  0.204697370165E-15
  0.520417042793E-16
 -0.832667268469E-16
 -0.138777878078E-16
  0.693889390391E-16
 -0.346944695195E-17
  0.000000000000E+00
  0.763278329430E-16
 -0.114491749414E-15
 -0.242861286637E-16
 -0.346944695195E-17
 -0.451028103754E-16
 -0.797972798949E-16
  0.624500451352E-16
  0.520417042793E-16
  0.555111512313E-16
 -0.107552855511E-15
 -0.693889390391E-16
 -0.797972798949E-16
  0.208166817117E-16
  0.242861286637E-16
 -0.589805981832E-16
 -0.624500451352E-16
  0.832667268469E-16
 -0.277555756156E-16
  0.111022302463E-15
 -0.104083408559E-16
 -0.346944695195E-17
  0.346944695195E-17
  0.589805981832E-16
  0.485722573274E-16
  0.624500451352E-16
  0.173472347598E-16
  0.346944695195E-17
 -0.117961196366E-15
 -0.111022302463E-15
  0.902056207508E-16
 -0.117961196366E-15
  0.728583859910E-16
  0.138777878078E-16
 -0.173472347598E-16
 -0.659194920871E-16
  0.520417042793E-16
  0.624500451352E-16
 -0.971445146547E-16
 -0.242861286637E-16
 -0.867361737988E-16
 -0.312250225676E-16
  0.485722573274E-16
  0.312250225676E-16
  0.173472347598E-16
  0.138777878078E-16
 -0.589805981832E-16
  0.100613961607E-15
  0.693889390391E-16
  0.832667268469E-16
  0.416333634234E-16
  0.728583859910E-16
  0.138777878078E-16
 -0.104083408559E-15
  0.346944695195E-17
 -0.346944695195E-16
 -0.589805981832E-16
 -0.312250225676E-16
  0.451028103754E-16
 -0.624500451352E-16
 -0.659194920871E-16
  0.346944695195E-17
 -0.208166817117E-16
  0.312250225676E-16
  0.797972798949E-16
 -0.797972798949E-16
 -0.117961196366E-15
 -0.242861286637E-16
 -0.693889390391E-17
 -0.277555756156E-16
 -0.520417042793E-16
  0.416333634234E-16
  0.381639164715E-16
 -0.659194920871E-16
  0.277555756156E-16
 -0.149186218934E-15
 -0.346944695195E-17
  0.117961196366E-15
 -0.659194920871E-16
  0.138777878078E-16
  0.416333634234E-16
  0.277555756156E-16
 -0.208166817117E-16
 -0.346944695195E-17
  0.215105711021E-15
  0.659194920871E-16
  0.589805981832E-16
  0.555111512313E-16
 -0.138777878078E-16
  0.117961196366E-15
  0.114491749414E-15
  0.121430643318E-15
  0.208166817117E-16
  0.693889390391E-17
  0.131838984174E-15
  0.173472347598E-16
 -0.797972798949E-16
 -0.173472347598E-16
 -0.555111512313E-16
  0.135308431126E-15
 -0.451028103754E-16
 -0.381639164715E-16
 -0.763278329430E-16
  0.114491749414E-15
 -0.381639164715E-16
  0.277555756156E-16
 -0.728583859910E-16
  0.149186218934E-15
 -0.173472347598E-16
 -0.485722573274E-16
  0.131838984174E-15
 -0.693889390391E-17
 -0.104083408559E-15
 -0.832667268469E-16
  0.485722573274E-16
 -0.138777878078E-16
  0.100613961607E-15
 -0.138777878078E-16
  0.728583859910E-16
 -0.451028103754E-16
 -0.589805981832E-16
 -0.138777878078E-16
 -0.346944695195E-16
 -0.451028103754E-16
 -0.100613961607E-15
 -0.111022302463E-15
  0.138777878078E-15
 -0.797972798949E-16
  0.624500451352E-16
  0.208166817117E-16
  0.728583859910E-16
  0.242861286637E-16
 -0.104083408559E-16
  0.114491749414E-15
 -0.555111512313E-16
  0.589805981832E-16
 -0.346944695195E-17
  0.170002900646E-15
  0.170002900646E-15
 -0.381639164715E-16
  0.763278329430E-16
  0.485722573274E-16
 -0.346944695195E-17
  0.104083408559E-16
 -0.416333634234E-16
 -0.156125112838E-16
  0.329597460436E-16
  0.797972798949E-16
  0.173472347598E-16
  0.138777878078E-15
  0.832667268469E-16
 -0.555111512313E-16
  0.176941794550E-15
  0.208166817117E-16
  0.832667268469E-16
 -0.277555756156E-16
 -0.208166817117E-16
 -0.225514051877E-16
 -0.346944695195E-17
  0.121430643318E-16
 -0.520417042793E-17
  0.451028103754E-16
  0.242861286637E-16
  0.312250225676E-16
 -0.121430643318E-15
 -0.346944695195E-17
 -0.242861286637E-16
  0.555111512313E-16
 -0.107552855511E-15
 -0.728583859910E-16
  0.173472347598E-16
 -0.381639164715E-16
  0.416333634234E-16
 -0.242861286637E-16
 -0.711236625150E-16
 -0.346944695195E-17
  0.142247325030E-15
  0.693889390391E-17
 -0.104083408559E-16
 -0.693889390391E-17
 -0.902056207508E-16
  0.124900090270E-15
 -0.346944695195E-16
 -0.416333634234E-16
 -0.346944695195E-17
  0.641847686111E-16
  0.156125112838E-16
 -0.555111512313E-16
  0.763278329430E-16
 -0.104083408559E-16
  0.364291929955E-16
 -0.485722573274E-16
  0.130104260698E-15
 -0.190819582357E-16
 -0.641847686111E-16
  0.520417042793E-16
  0.225514051877E-16
 -0.208166817117E-16
 -0.867361737988E-17
  0.242861286637E-16
  0.190819582357E-16
  0.485722573274E-16
 -0.867361737988E-17
 -0.659194920871E-16
 -0.832667268469E-16
  0.936750677027E-16
 -0.416333634234E-16
 -0.208166817117E-16
 -0.107552855511E-15
  0.277555756156E-16
  0.555111512313E-16
 -0.867361737988E-17
 -0.867361737988E-17
 -0.225514051877E-16
 -0.641847686111E-16
  0.398986399475E-16
 -0.520417042793E-16
  0.225514051877E-16
  0.641847686111E-16
 -0.173472347598E-16
  0.242861286637E-16
 -0.381639164715E-16
  0.152655665886E-15
 -0.451028103754E-16
  0.641847686111E-16
  0.398986399475E-16
 -0.156125112838E-16
 -0.346944695195E-16
 -0.867361737988E-17
  0.381639164715E-16
  0.156125112838E-16
 -0.381639164715E-16
  0.693889390391E-17
 -0.589805981832E-16
  0.138777878078E-16
  0.433680868994E-16
  0.156125112838E-16
  0.121430643318E-16
  0.346944695195E-17
  0.745931094670E-16
  0.433680868994E-16
  0.607153216592E-16
 -0.156125112838E-16
  0.138777878078E-16
  0.225514051877E-16
 -0.312250225676E-16
  0.867361737988E-17
 -0.294902990916E-16
 -0.485722573274E-16
 -0.121430643318E-16
 -0.346944695195E-17
 -0.121430643318E-16
  0.659194920871E-16
  0.260208521397E-16
  0.641847686111E-16
  0.303576608296E-16
 -0.225514051877E-16
  0.780625564190E-17
  0.346944695195E-17
 -0.364291929955E-16
  0.121430643318E-16
 -0.173472347598E-17
 -0.867361737988E-17
  0.676542155631E-16
  0.936750677027E-16
  0.936750677027E-16
  0.277555756156E-16
  0.589805981832E-16
 -0.329597460436E-16
  0.121430643318E-16
  0.589805981832E-16
  0.433680868994E-17
  0.173472347598E-16
 -0.173472347598E-16
 -0.208166817117E-16
 -0.104083408559E-16
 -0.277555756156E-16
  0.242861286637E-16
 -0.225514051877E-16
 -0.277555756156E-16
 -0.138777878078E-16
  0.589805981832E-16
 -0.173472347598E-17
  0.693889390391E-17
  0.468375338514E-16
 -0.346944695195E-17
  0.173472347598E-16
  0.329597460436E-16
  0.242861286637E-16
  0.000000000000E+00
  0.225514051877E-16
 -0.121430643318E-16
 -0.867361737988E-18
  0.954097911787E-17
  0.607153216592E-17
  0.242861286637E-16
  0.780625564190E-16
 -0.104083408559E-16
  0.607153216592E-16
  0.693889390391E-16
  0.346944695195E-17
  0.520417042793E-16
  0.277555756156E-16
 -0.537764277553E-16
 -0.867361737988E-17
  0.000000000000E+00
  0.156125112838E-16
 -0.173472347598E-17
  0.121430643318E-16
  0.338271077815E-16
  0.780625564190E-17
 -0.242861286637E-16
  0.121430643318E-16
 -0.147451495458E-16
  0.346944695195E-17
  0.138777878078E-16
  0.260208521397E-17
 -0.572458747072E-16
  0.104083408559E-16
 -0.190819582357E-16
 -0.433680868994E-17
 -0.728583859910E-16
 -0.147451495458E-16
  0.693889390391E-17
  0.000000000000E+00
 -0.208166817117E-16
  0.190819582357E-16
  0.104083408559E-16
 -0.208166817117E-16
  0.693889390391E-17
  0.346944695195E-16
  0.138777878078E-16
 -0.346944695195E-17
 -0.294902990916E-16
  0.520417042793E-17
  0.121430643318E-16
 -0.555111512313E-16
  0.607153216592E-17
  0.433680868994E-16
  0.130104260698E-16
  0.832667268469E-16
 -0.173472347598E-17
  0.867361737988E-17
 -0.520417042793E-17
 -0.173472347598E-17
 -0.260208521397E-16
 -0.451028103754E-16
  0.780625564190E-17
 -0.659194920871E-16
  0.433680868994E-17
  0.121430643318E-16
 -0.364291929955E-16
 -0.260208521397E-16
  0.910729824888E-17
 -0.104083408559E-16
 -0.277555756156E-16
  0.173472347598E-17
 -0.346944695195E-16
  0.867361737988E-18
  0.607153216592E-16
 -0.130104260698E-17
 -0.138777878078E-16
  0.607153216592E-17
 -0.572458747072E-16
 -0.104083408559E-16
  0.867361737988E-17
  0.338271077815E-16
  0.442354486374E-16
 -0.251534904017E-16
 -0.130104260698E-16
 -0.130104260698E-16
 -0.346944695195E-16
  0.000000000000E+00
  0.477048955894E-17
 -0.346944695195E-16
 -0.216840434497E-17
  0.693889390391E-17
 -0.563785129692E-17
 -0.138777878078E-16
  0.173472347598E-16
 -0.242861286637E-16
 -0.867361737988E-18
 -0.173472347598E-17
  0.780625564190E-17
  0.693889390391E-16
 -0.268882138776E-16
 -0.607153216592E-17
 -0.182145964978E-16
  0.268882138776E-16
 -0.867361737988E-17
 -0.346944695195E-17
  0.130104260698E-16
  0.108420217249E-17
 -0.173472347598E-17
 -0.346944695195E-17
  0.572458747072E-16
  0.737257477290E-17
  0.000000000000E+00
  0.281892564846E-16
 -0.398986399475E-16
 -0.121430643318E-16
  0.398986399475E-16
 -0.867361737988E-17
  0.433680868994E-16
 -0.433680868994E-17
 -0.338271077815E-16
 -0.260208521397E-17
 -0.147451495458E-16
 -0.954097911787E-17
  0.208166817117E-16
  0.281892564846E-17
  0.411996825544E-17
  0.398986399475E-16
 -0.130104260698E-17
 -0.468375338514E-16
 -0.563785129692E-17
  0.190819582357E-16
  0.000000000000E+00
 -0.797972798949E-16
  0.130104260698E-17
  0.234187669257E-16
 -0.303576608296E-17
  0.693889390391E-17
 -0.867361737988E-17
 -0.693889390391E-17
  0.780625564190E-17
  0.320923843056E-16
  0.208166817117E-16
 -0.867361737988E-17
  0.216840434497E-18
 -0.216840434497E-16
 -0.242861286637E-16
  0.125767452008E-16
 -0.451028103754E-16
  0.260208521397E-17
 -0.607153216592E-16
  0.216840434497E-17
  0.277555756156E-16
 -0.433680868994E-18
 -0.225514051877E-16
 -0.173472347598E-17
 -0.607153216592E-17
  0.607153216592E-17
 -0.190819582357E-16
  0.780625564190E-17
  0.000000000000E+00
  0.346944695195E-17
 -0.797972798949E-16
 -0.693889390391E-17
 -0.191903784530E-16
 -0.242861286637E-16
 -0.260208521397E-17
 -0.138777878078E-16
  0.143114686768E-16
 -0.346944695195E-16
  0.303576608296E-17
 -0.607153216592E-17
  0.650521303491E-17
  0.867361737988E-18
 -0.520417042793E-17
  0.867361737988E-17
  0.867361737988E-17
 -0.954097911787E-17
  0.867361737988E-17
  0.867361737988E-18
  0.286229373536E-16
  0.693889390391E-17
 -0.867361737988E-17
 -0.872782748851E-17
 -0.485722573274E-16
  0.391396984267E-16
 -0.346944695195E-16
  0.195156391047E-17
 -0.867361737988E-18
  0.563785129692E-17
 -0.182145964978E-16
 -0.693889390391E-17
 -0.954097911787E-17
 -0.867361737988E-17
 -0.190819582357E-16
  0.780625564190E-17
 -0.216840434497E-16
  0.199493199737E-16
 -0.112757025938E-16
 -0.867361737988E-18
 -0.607153216592E-16
  0.296800344718E-17
 -0.158022466640E-16
 -0.101481323345E-15
 -0.845677694539E-17
  0.190819582357E-16
 -0.162630325873E-16
 -0.251534904017E-16
  0.151788304148E-17
  0.156125112838E-16
  0.672205346941E-17
  0.320923843056E-16
 -0.112757025938E-16
  0.520417042793E-17
  0.780625564190E-17
  0.867361737988E-18
 -0.346944695195E-17
 -0.216840434497E-16
 -0.182145964978E-16
  0.000000000000E+00
 -0.975781955237E-17
 -0.366460334300E-16
  0.607153216592E-17
 -0.811796376649E-17
 -0.121430643318E-16
 -0.139862080251E-16
 -0.346944695195E-17
 -0.159377719355E-16
  0.433680868994E-16
 -0.151788304148E-17
 -0.511743425413E-16
 -0.151788304148E-16
  0.667868538251E-16
  0.910729824888E-17
  0.260208521397E-16
  0.173472347598E-17
 -0.268882138776E-16
  0.693889390391E-17
  0.693889390391E-17
 -0.693889390391E-17
  0.346944695195E-17
 -0.563785129692E-16
  0.271050543121E-17
  0.780625564190E-17
  0.203965533699E-16
 -0.242861286637E-16
  0.135525271561E-16
  0.147451495458E-16
 -0.151788304148E-17
 -0.615826833972E-16
 -0.182145964978E-16
 -0.867361737988E-18
 -0.303576608296E-17
  0.277555756156E-16
  0.208166817117E-16
 -0.138777878078E-16
  0.728583859910E-16
  0.156125112838E-16
  0.485722573274E-16
  0.624500451352E-16
 -0.104083408559E-16
 -0.364291929955E-16
  0.173472347598E-16
 -0.173472347598E-17
 -0.520417042793E-16
  0.398986399475E-16
 -0.156125112838E-16
  0.208166817117E-16
 -0.867361737988E-17
  0.190819582357E-16
 -0.693889390391E-17
  0.693889390391E-16
  0.416333634234E-16
  0.451028103754E-16
  0.138777878078E-16
  0.173472347598E-17
 -0.433680868994E-16
 -0.520417042793E-16
 -0.902056207508E-16
 -0.468375338514E-16
 -0.312250225676E-16
 -0.173472347598E-16
  0.520417042793E-16
 -0.624500451352E-16
  0.589805981832E-16
  0.173472347598E-16
  0.398986399475E-16
  0.260208521397E-16
  0.520417042793E-17
  0.364291929955E-16
 -0.346944695195E-17
  0.312250225676E-16
  0.260208521397E-16
  0.260208521397E-17
  0.143114686768E-16
  0.401154803820E-16
 -0.286229373536E-16
  0.277555756156E-16
  0.451028103754E-16
  0.124683249836E-16
  0.433680868994E-17
 -0.384891771232E-17
 -0.173472347598E-16
  0.173472347598E-17
 -0.867361737988E-17
  0.101915004214E-16
 -0.910729824888E-17
  0.000000000000E+00
 -0.867361737988E-17
 -0.173472347598E-17
  0.000000000000E+00
 -0.294902990916E-16
  0.693889390391E-17
 -0.277555756156E-16
  0.433680868994E-16
 -0.693889390391E-17
  0.693889390391E-17
 -0.312250225676E-16
  0.346944695195E-17
 -0.277555756156E-16
  0.398986399475E-16
  0.381639164715E-16
 -0.121430643318E-16
 -0.138777878078E-16
  0.693889390391E-17
 -0.780625564190E-16
  0.000000000000E+00
 -0.173472347598E-16
  0.100613961607E-15
  0.346944695195E-16
  0.364291929955E-16
  0.156125112838E-16
  0.242861286637E-16
  0.173472347598E-16
 -0.156125112838E-16
 -0.277555756156E-16
  0.346944695195E-16
  0.190819582357E-16
  0.190819582357E-16
  0.225514051877E-16
  0.659194920871E-16
  0.277555756156E-16
  0.693889390391E-17
 -0.104083408559E-16
  0.650521303491E-18
 -0.260208521397E-16
  0.156125112838E-16
 -0.205998412772E-16
 -0.156125112838E-16
 -0.106251812904E-16
  0.156125112838E-16
 -0.441676860016E-16
 -0.607153216592E-16
 -0.607153216592E-17
  0.398986399475E-16
 -0.867361737988E-18
  0.867361737988E-18
 -0.737257477290E-17
 -0.121430643318E-16
  0.520417042793E-17
  0.121430643318E-16
  0.104083408559E-16
  0.000000000000E+00
  0.745931094670E-16
 -0.121430643318E-16
 -0.451028103754E-16
 -0.693889390391E-17
  0.294902990916E-16
 -0.693889390391E-17
 -0.693889390391E-16
  0.208166817117E-16
  0.105818132035E-15
 -0.225514051877E-16
  0.346944695195E-17
 -0.364291929955E-16
  0.468375338514E-16
  0.138777878078E-16
  0.225514051877E-16
  0.277555756156E-16
 -0.745931094670E-16
  0.346944695195E-17
  0.147451495458E-16
 -0.277555756156E-16
 -0.138777878078E-16
 -0.242861286637E-16
 -0.346944695195E-17
  0.346944695195E-17
 -0.693889390391E-17
  0.234187669257E-16
 -0.190819582357E-16
  0.520417042793E-16
  0.745931094670E-16
  0.433680868994E-17
  0.503069808033E-16
  0.867361737988E-16
  0.485722573274E-16
 -0.416333634234E-16
  0.398986399475E-16
  0.451028103754E-16
 -0.867361737988E-17
  0.312250225676E-16
 -0.364291929955E-16
  0.260208521397E-16
  0.208166817117E-16
  0.156125112838E-16
  0.000000000000E+00
 -0.121430643318E-16
  0.138777878078E-16
 -0.338271077815E-16
 -0.867361737988E-17
 -0.346944695195E-17
 -0.312250225676E-16
  0.329597460436E-16
  0.737257477290E-16
 -0.368628738645E-17
 -0.190819582357E-16
 -0.139319979164E-16
  0.000000000000E+00
 -0.192445885616E-17
 -0.164798730218E-16
  0.133356867216E-16
  0.151788304148E-17
  0.737257477290E-17
 -0.346944695195E-17
  0.312250225676E-16
 -0.954097911787E-17
 -0.173472347598E-17
 -0.329597460436E-16
  0.312250225676E-16
 -0.850014503229E-16
 -0.208166817117E-16
  0.303576608296E-16
  0.121430643318E-16
 -0.485722573274E-16
 -0.520417042793E-16
  0.624500451352E-16
 -0.225514051877E-16
 -0.225514051877E-16
 -0.372965547335E-16
 -0.130104260698E-16
  0.294902990916E-16
  0.138777878078E-16
 -0.173472347598E-16
 -0.867361737988E-17
 -0.208166817117E-16
 -0.346944695195E-16
 -0.537764277553E-16
 -0.520417042793E-17
  0.763278329430E-16
  0.173472347598E-17
 -0.251534904017E-16
  0.398986399475E-16
  0.364291929955E-16
 -0.312250225676E-16
  0.156125112838E-16
 -0.242861286637E-16
  0.364291929955E-16
 -0.572458747072E-16
  0.156125112838E-16
  0.216840434497E-17
  0.659194920871E-16
 -0.346944695195E-17
  0.607153216592E-17
 -0.130104260698E-16
  0.745931094670E-16
 -0.312250225676E-16
  0.676542155631E-16
 -0.208166817117E-16
 -0.346944695195E-16
  0.164798730218E-16
 -0.555111512313E-16
  0.576795555762E-16
 -0.151788304148E-17
  0.954097911787E-17
  0.160461921528E-16
  0.268882138776E-16
  0.268882138776E-16
 -0.503069808033E-16
  0.378386558197E-16
 -0.138777878078E-16
  0.109504419421E-16
 -0.607153216592E-17
  0.617995238317E-17
 -0.132272665043E-16
 -0.867361737988E-18
 -0.221177243187E-16
  0.728583859910E-16
  0.104083408559E-16
  0.147451495458E-16
 -0.346944695195E-17
 -0.173472347598E-16
  0.329597460436E-16
  0.728583859910E-16
  0.433680868994E-17
 -0.104083408559E-16
 -0.693889390391E-16
  0.156125112838E-16
 -0.121430643318E-16
  0.312250225676E-16
  0.693889390391E-16
  0.693889390391E-17
  0.260208521397E-16
 -0.850014503229E-16
 -0.394649590785E-16
 -0.121430643318E-16
 -0.260208521397E-16
 -0.867361737988E-17
  0.364291929955E-16
  0.138777878078E-16
  0.173472347598E-16
 -0.867361737988E-18
  0.242861286637E-16
 -0.260208521397E-17
  0.156125112838E-16
  0.520417042793E-16
 -0.156125112838E-16
  0.208166817117E-16
  0.867361737988E-17
  0.433680868994E-17
  0.451028103754E-16
 -0.693889390391E-17
 -0.346944695195E-17
  0.234187669257E-16
  0.156125112838E-16
  0.156125112838E-16
 -0.442354486374E-16
 -0.346944695195E-16
 -0.173472347598E-16
  0.520417042793E-17
  0.190819582357E-16
 -0.156125112838E-16
  0.294902990916E-16
  0.693889390391E-17
  0.693889390391E-17
  0.693889390391E-17
  0.346944695195E-17
  0.520417042793E-17
 -0.312250225676E-16
  0.503069808033E-16
 -0.451028103754E-16
  0.433680868994E-18
  0.286229373536E-16
 -0.607153216592E-17
 -0.407660016855E-16
  0.112757025938E-16
  0.607153216592E-17
  0.156125112838E-16
  0.253703308362E-16
  0.312250225676E-16
  0.255871712707E-16
 -0.298155597434E-18
 -0.336102673471E-17
  0.294902990916E-16
  0.121430643318E-16
 -0.104083408559E-16
  0.173472347598E-16
  0.138777878078E-16
  0.693889390391E-17
  0.130104260698E-16
  0.537764277553E-16
  0.208166817117E-16
 -0.390312782095E-17
 -0.954097911787E-17
  0.555111512313E-16
 -0.477048955894E-16
  0.173472347598E-16
  0.607153216592E-17
 -0.503069808033E-16
 -0.277555756156E-16
 -0.234187669257E-16
 -0.121430643318E-16
 -0.112757025938E-16
  0.433680868994E-17
 -0.555111512313E-16
 -0.320923843056E-16
  0.190819582357E-16
  0.143114686768E-16
  0.104083408559E-16
 -0.294902990916E-16
  0.260208521397E-16
 -0.693889390391E-17
  0.199493199737E-16
  0.151788304148E-16
 -0.140946282423E-16
  0.225514051877E-16
 -0.208166817117E-16
  0.520417042793E-17
 -0.398986399475E-16
  0.225514051877E-16
  0.520417042793E-16
  0.346944695195E-17
 -0.121430643318E-16
  0.225514051877E-16
  0.312250225676E-16
  0.251534904017E-16
 -0.659194920871E-16
 -0.138777878078E-16
  0.112757025938E-16
  0.164798730218E-16
  0.867361737988E-18
 -0.425007251614E-16
  0.520417042793E-16
  0.000000000000E+00
  0.104083408559E-16
  0.346944695195E-17
  0.780625564190E-16
  0.607153216592E-17
 -0.745931094670E-16
  0.607153216592E-17
 -0.659194920871E-16
  0.260208521397E-16
 -0.346944695195E-17
  0.303576608296E-16
 -0.221177243187E-16
 -0.910729824888E-17
  0.841340885849E-16
  0.212503625807E-16
  0.954097911787E-17
 -0.160461921528E-16
  0.190819582357E-16
 -0.396817995130E-16
  0.312250225676E-16
 -0.203830008427E-16
  0.222261445360E-16
 -0.211825999449E-16
  0.176724954115E-16