# vtk DataFile Version 3.0
MachLine results file. Generated by MachLine, USU AeroLab (c) 2022.
ASCII
DATASET POLYDATA
POINTS                  78 float
  0.100000000000E+01  0.000000000000E+00  0.000000000000E+00
  0.200000000000E+02  0.000000000000E+00  0.000000000000E+00
  0.100006659752E+01  0.000000000000E+00  0.529748283753E-01
  0.200000000000E+02  0.000000000000E+00  0.529748283753E-01
  0.100013319503E+01  0.000000000000E+00  0.105949656751E+00
  0.200000000000E+02  0.000000000000E+00  0.105949656751E+00
  0.100019979255E+01  0.000000000000E+00  0.158924485126E+00
  0.200000000000E+02  0.000000000000E+00  0.158924485126E+00
  0.100026639006E+01  0.000000000000E+00  0.211899313501E+00
  0.200000000000E+02  0.000000000000E+00  0.211899313501E+00
  0.100033298758E+01  0.000000000000E+00  0.264874141876E+00
  0.200000000000E+02  0.000000000000E+00  0.264874141876E+00
  0.100039958510E+01  0.000000000000E+00  0.317848970252E+00
  0.200000000000E+02  0.000000000000E+00  0.317848970252E+00
  0.100046618261E+01  0.000000000000E+00  0.370823798627E+00
  0.200000000000E+02  0.000000000000E+00  0.370823798627E+00
  0.100053278013E+01  0.000000000000E+00  0.423798627002E+00
  0.200000000000E+02  0.000000000000E+00  0.423798627002E+00
  0.100059937765E+01  0.000000000000E+00  0.476773455378E+00
  0.200000000000E+02  0.000000000000E+00  0.476773455378E+00
  0.100066597516E+01  0.000000000000E+00  0.529748283753E+00
  0.200000000000E+02  0.000000000000E+00  0.529748283753E+00
  0.100073257268E+01  0.000000000000E+00  0.582723112128E+00
  0.200000000000E+02  0.000000000000E+00  0.582723112128E+00
  0.100079917019E+01  0.000000000000E+00  0.635697940503E+00
  0.200000000000E+02  0.000000000000E+00  0.635697940503E+00
  0.100086576771E+01  0.000000000000E+00  0.688672768879E+00
  0.200000000000E+02  0.000000000000E+00  0.688672768879E+00
  0.100093236523E+01  0.000000000000E+00  0.741647597254E+00
  0.200000000000E+02  0.000000000000E+00  0.741647597254E+00
  0.100099896274E+01  0.000000000000E+00  0.794622425629E+00
  0.200000000000E+02  0.000000000000E+00  0.794622425629E+00
  0.100106556026E+01  0.000000000000E+00  0.847597254005E+00
  0.200000000000E+02  0.000000000000E+00  0.847597254005E+00
  0.100113215777E+01  0.000000000000E+00  0.900572082380E+00
  0.200000000000E+02  0.000000000000E+00  0.900572082380E+00
  0.100119875529E+01  0.000000000000E+00  0.953546910755E+00
  0.200000000000E+02  0.000000000000E+00  0.953546910755E+00
  0.100126535281E+01  0.000000000000E+00  0.100652173913E+01
  0.200000000000E+02  0.000000000000E+00  0.100652173913E+01
  0.100006659752E+01  0.000000000000E+00 -0.529748283753E-01
  0.200000000000E+02  0.000000000000E+00 -0.529748283753E-01
  0.100013319503E+01  0.000000000000E+00 -0.105949656751E+00
  0.200000000000E+02  0.000000000000E+00 -0.105949656751E+00
  0.100019979255E+01  0.000000000000E+00 -0.158924485126E+00
  0.200000000000E+02  0.000000000000E+00 -0.158924485126E+00
  0.100026639006E+01  0.000000000000E+00 -0.211899313501E+00
  0.200000000000E+02  0.000000000000E+00 -0.211899313501E+00
  0.100033298758E+01  0.000000000000E+00 -0.264874141876E+00
  0.200000000000E+02  0.000000000000E+00 -0.264874141876E+00
  0.100039958510E+01  0.000000000000E+00 -0.317848970252E+00
  0.200000000000E+02  0.000000000000E+00 -0.317848970252E+00
  0.100046618261E+01  0.000000000000E+00 -0.370823798627E+00
  0.200000000000E+02  0.000000000000E+00 -0.370823798627E+00
  0.100053278013E+01  0.000000000000E+00 -0.423798627002E+00
  0.200000000000E+02  0.000000000000E+00 -0.423798627002E+00
  0.100059937765E+01  0.000000000000E+00 -0.476773455378E+00
  0.200000000000E+02  0.000000000000E+00 -0.476773455378E+00
  0.100066597516E+01  0.000000000000E+00 -0.529748283753E+00
  0.200000000000E+02  0.000000000000E+00 -0.529748283753E+00
  0.100073257268E+01  0.000000000000E+00 -0.582723112128E+00
  0.200000000000E+02  0.000000000000E+00 -0.582723112128E+00
  0.100079917019E+01  0.000000000000E+00 -0.635697940503E+00
  0.200000000000E+02  0.000000000000E+00 -0.635697940503E+00
  0.100086576771E+01  0.000000000000E+00 -0.688672768879E+00
  0.200000000000E+02  0.000000000000E+00 -0.688672768879E+00
  0.100093236523E+01  0.000000000000E+00 -0.741647597254E+00
  0.200000000000E+02  0.000000000000E+00 -0.741647597254E+00
  0.100099896274E+01  0.000000000000E+00 -0.794622425629E+00
  0.200000000000E+02  0.000000000000E+00 -0.794622425629E+00
  0.100106556026E+01  0.000000000000E+00 -0.847597254005E+00
  0.200000000000E+02  0.000000000000E+00 -0.847597254005E+00
  0.100113215777E+01  0.000000000000E+00 -0.900572082380E+00
  0.200000000000E+02  0.000000000000E+00 -0.900572082380E+00
  0.100119875529E+01  0.000000000000E+00 -0.953546910755E+00
  0.200000000000E+02  0.000000000000E+00 -0.953546910755E+00
  0.100126535281E+01  0.000000000000E+00 -0.100652173913E+01
  0.200000000000E+02  0.000000000000E+00 -0.100652173913E+01
POLYGONS                  76                 304
3                   2                   3                   1
3                   2                   1                   0
3                   4                   5                   3
3                   4                   3                   2
3                   6                   7                   5
3                   6                   5                   4
3                   8                   9                   7
3                   8                   7                   6
3                  10                  11                   9
3                  10                   9                   8
3                  12                  13                  11
3                  12                  11                  10
3                  14                  15                  13
3                  14                  13                  12
3                  16                  17                  15
3                  16                  15                  14
3                  18                  19                  17
3                  18                  17                  16
3                  20                  21                  19
3                  20                  19                  18
3                  22                  23                  21
3                  22                  21                  20
3                  24                  25                  23
3                  24                  23                  22
3                  26                  27                  25
3                  26                  25                  24
3                  28                  29                  27
3                  28                  27                  26
3                  30                  31                  29
3                  30                  29                  28
3                  32                  33                  31
3                  32                  31                  30
3                  34                  35                  33
3                  34                  33                  32
3                  36                  37                  35
3                  36                  35                  34
3                  38                  39                  37
3                  38                  37                  36
3                   0                   1                  41
3                   0                  41                  40
3                  40                  41                  43
3                  40                  43                  42
3                  42                  43                  45
3                  42                  45                  44
3                  44                  45                  47
3                  44                  47                  46
3                  46                  47                  49
3                  46                  49                  48
3                  48                  49                  51
3                  48                  51                  50
3                  50                  51                  53
3                  50                  53                  52
3                  52                  53                  55
3                  52                  55                  54
3                  54                  55                  57
3                  54                  57                  56
3                  56                  57                  59
3                  56                  59                  58
3                  58                  59                  61
3                  58                  61                  60
3                  60                  61                  63
3                  60                  63                  62
3                  62                  63                  65
3                  62                  65                  64
3                  64                  65                  67
3                  64                  67                  66
3                  66                  67                  69
3                  66                  69                  68
3                  68                  69                  71
3                  68                  71                  70
3                  70                  71                  73
3                  70                  73                  72
3                  72                  73                  75
3                  72                  75                  74
3                  74                  75                  77
3                  74                  77                  76
CELL_DATA                  76
NORMALS normals float
 -0.000000000000E+00  0.100000000000E+01  0.000000000000E+00
  0.000000000000E+00  0.100000000000E+01  0.000000000000E+00
 -0.000000000000E+00  0.100000000000E+01  0.000000000000E+00
  0.000000000000E+00  0.100000000000E+01  0.000000000000E+00
 -0.000000000000E+00  0.100000000000E+01  0.000000000000E+00
  0.000000000000E+00  0.100000000000E+01  0.000000000000E+00
 -0.000000000000E+00  0.100000000000E+01  0.000000000000E+00
  0.000000000000E+00  0.100000000000E+01  0.000000000000E+00
 -0.000000000000E+00  0.100000000000E+01  0.000000000000E+00
  0.000000000000E+00  0.100000000000E+01  0.000000000000E+00
 -0.000000000000E+00  0.100000000000E+01  0.000000000000E+00
  0.000000000000E+00  0.100000000000E+01  0.000000000000E+00
 -0.000000000000E+00  0.100000000000E+01  0.000000000000E+00
  0.000000000000E+00  0.100000000000E+01  0.000000000000E+00
 -0.000000000000E+00  0.100000000000E+01  0.000000000000E+00
  0.000000000000E+00  0.100000000000E+01  0.000000000000E+00
 -0.000000000000E+00  0.100000000000E+01  0.000000000000E+00
  0.000000000000E+00  0.100000000000E+01  0.000000000000E+00
 -0.000000000000E+00  0.100000000000E+01  0.000000000000E+00
  0.000000000000E+00  0.100000000000E+01  0.000000000000E+00
 -0.000000000000E+00  0.100000000000E+01  0.000000000000E+00
  0.000000000000E+00  0.100000000000E+01  0.000000000000E+00
 -0.000000000000E+00  0.100000000000E+01  0.000000000000E+00
  0.000000000000E+00  0.100000000000E+01  0.000000000000E+00
 -0.000000000000E+00  0.100000000000E+01  0.000000000000E+00
  0.000000000000E+00  0.100000000000E+01  0.000000000000E+00
 -0.000000000000E+00  0.100000000000E+01  0.000000000000E+00
  0.000000000000E+00  0.100000000000E+01  0.000000000000E+00
 -0.000000000000E+00  0.100000000000E+01  0.000000000000E+00
  0.000000000000E+00  0.100000000000E+01  0.000000000000E+00
 -0.000000000000E+00  0.100000000000E+01  0.000000000000E+00
  0.000000000000E+00  0.100000000000E+01  0.000000000000E+00
 -0.000000000000E+00  0.100000000000E+01  0.000000000000E+00
  0.000000000000E+00  0.100000000000E+01  0.000000000000E+00
 -0.000000000000E+00  0.100000000000E+01  0.000000000000E+00
  0.000000000000E+00  0.100000000000E+01  0.000000000000E+00
 -0.000000000000E+00  0.100000000000E+01  0.000000000000E+00
  0.000000000000E+00  0.100000000000E+01  0.000000000000E+00
 -0.000000000000E+00  0.100000000000E+01  0.000000000000E+00
  0.000000000000E+00  0.100000000000E+01  0.000000000000E+00
 -0.000000000000E+00  0.100000000000E+01  0.000000000000E+00
  0.000000000000E+00  0.100000000000E+01  0.000000000000E+00
 -0.000000000000E+00  0.100000000000E+01  0.000000000000E+00
  0.000000000000E+00  0.100000000000E+01  0.000000000000E+00
 -0.000000000000E+00  0.100000000000E+01  0.000000000000E+00
  0.000000000000E+00  0.100000000000E+01  0.000000000000E+00
 -0.000000000000E+00  0.100000000000E+01  0.000000000000E+00
  0.000000000000E+00  0.100000000000E+01  0.000000000000E+00
 -0.000000000000E+00  0.100000000000E+01  0.000000000000E+00
  0.000000000000E+00  0.100000000000E+01  0.000000000000E+00
 -0.000000000000E+00  0.100000000000E+01  0.000000000000E+00
  0.000000000000E+00  0.100000000000E+01  0.000000000000E+00
 -0.000000000000E+00  0.100000000000E+01  0.000000000000E+00
  0.000000000000E+00  0.100000000000E+01  0.000000000000E+00
 -0.000000000000E+00  0.100000000000E+01  0.000000000000E+00
  0.000000000000E+00  0.100000000000E+01  0.000000000000E+00
 -0.000000000000E+00  0.100000000000E+01  0.000000000000E+00
  0.000000000000E+00  0.100000000000E+01  0.000000000000E+00
 -0.000000000000E+00  0.100000000000E+01  0.000000000000E+00
  0.000000000000E+00  0.100000000000E+01  0.000000000000E+00
 -0.000000000000E+00  0.100000000000E+01  0.000000000000E+00
  0.000000000000E+00  0.100000000000E+01  0.000000000000E+00
 -0.000000000000E+00  0.100000000000E+01  0.000000000000E+00
  0.000000000000E+00  0.100000000000E+01  0.000000000000E+00
 -0.000000000000E+00  0.100000000000E+01  0.000000000000E+00
  0.000000000000E+00  0.100000000000E+01  0.000000000000E+00
 -0.000000000000E+00  0.100000000000E+01  0.000000000000E+00
  0.000000000000E+00  0.100000000000E+01  0.000000000000E+00
 -0.000000000000E+00  0.100000000000E+01  0.000000000000E+00
  0.000000000000E+00  0.100000000000E+01  0.000000000000E+00
 -0.000000000000E+00  0.100000000000E+01  0.000000000000E+00
  0.000000000000E+00  0.100000000000E+01  0.000000000000E+00
 -0.000000000000E+00  0.100000000000E+01  0.000000000000E+00
  0.000000000000E+00  0.100000000000E+01  0.000000000000E+00
 -0.000000000000E+00  0.100000000000E+01  0.000000000000E+00
  0.000000000000E+00  0.100000000000E+01  0.000000000000E+00
POINT_DATA                  78
SCALARS mu float 1
LOOKUP_TABLE default
  0.000000000000E+00
  0.000000000000E+00
  0.000000000000E+00
  0.000000000000E+00
  0.000000000000E+00
  0.000000000000E+00
  0.000000000000E+00
  0.000000000000E+00
  0.000000000000E+00
  0.000000000000E+00
  0.000000000000E+00
  0.000000000000E+00
  0.000000000000E+00
  0.000000000000E+00
  0.000000000000E+00
  0.000000000000E+00
  0.000000000000E+00
  0.000000000000E+00
  0.000000000000E+00
  0.000000000000E+00
  0.000000000000E+00
  0.000000000000E+00
  0.000000000000E+00
  0.000000000000E+00
  0.000000000000E+00
  0.000000000000E+00
  0.000000000000E+00
  0.000000000000E+00
  0.000000000000E+00
  0.000000000000E+00
  0.000000000000E+00
  0.000000000000E+00
  0.000000000000E+00
  0.000000000000E+00
  0.000000000000E+00
  0.000000000000E+00
  0.000000000000E+00
  0.000000000000E+00
  0.000000000000E+00
  0.000000000000E+00
  0.000000000000E+00
  0.000000000000E+00
  0.000000000000E+00
  0.000000000000E+00
  0.000000000000E+00
  0.000000000000E+00
  0.000000000000E+00
  0.000000000000E+00
  0.000000000000E+00
  0.000000000000E+00
  0.000000000000E+00
  0.000000000000E+00
  0.000000000000E+00
  0.000000000000E+00
  0.000000000000E+00
  0.000000000000E+00
  0.000000000000E+00
  0.000000000000E+00
  0.000000000000E+00
  0.000000000000E+00
  0.000000000000E+00
  0.000000000000E+00
  0.000000000000E+00
  0.000000000000E+00
  0.000000000000E+00
  0.000000000000E+00
  0.000000000000E+00
  0.000000000000E+00
  0.000000000000E+00
  0.000000000000E+00
  0.000000000000E+00
  0.000000000000E+00
  0.000000000000E+00
  0.000000000000E+00
  0.000000000000E+00
  0.000000000000E+00
  0.000000000000E+00
  0.000000000000E+00
