# vtk DataFile Version 3.0
MachLine results file. Generated by MachLine, USU AeroLab (c) 2022.
ASCII
DATASET POLYDATA
POINTS                1127 float
  0.999999912657E+00  0.000000000000E+00 -0.382074653625E-08
  0.973034456824E+00  0.105263157890E+00 -0.235909507078E-02
  0.999999919737E+00  0.105263157890E+00 -0.351102923141E-08
  0.973034456748E+00  0.000000000000E+00 -0.235909420698E-02
  0.929717756915E+00  0.105263157890E+00 -0.614880593612E-02
  0.929717756758E+00  0.000000000000E+00 -0.614880414753E-02
  0.863184792141E+00  0.105263157890E+00 -0.119696725837E-01
  0.863184791884E+00  0.000000000000E+00 -0.119696696464E-01
  0.767714232475E+00  0.105263157890E+00 -0.203222480615E-01
  0.767714232170E+00  0.000000000000E+00 -0.203222445771E-01
  0.643290532976E+00  0.105263157890E+00 -0.312078972072E-01
  0.643290532760E+00  0.000000000000E+00 -0.312078947333E-01
  0.500000000000E+00  0.105263157890E+00 -0.437441893158E-01
  0.500000000000E+00  0.000000000000E+00 -0.437442072125E-01
  0.356709467240E+00  0.000000000000E+00 -0.312078947333E-01
  0.356709467024E+00  0.105263157890E+00 -0.312078972072E-01
  0.232285767830E+00  0.000000000000E+00 -0.203222445771E-01
  0.232285767525E+00  0.105263157890E+00 -0.203222480615E-01
  0.136815208116E+00  0.000000000000E+00 -0.119696696464E-01
  0.136815207859E+00  0.105263157890E+00 -0.119696725837E-01
  0.702822432406E-01  0.000000000000E+00 -0.614880414753E-02
  0.702822430841E-01  0.105263157890E+00 -0.614880593612E-02
  0.269655432546E-01  0.000000000000E+00 -0.235909420698E-02
  0.269655431791E-01  0.105263157890E+00 -0.235909507078E-02
  0.874268253237E-07  0.000000000000E+00  0.354494137358E-22
  0.803398331739E-07  0.105263157890E+00  0.000000000000E+00
  0.269655431791E-01  0.105263157890E+00  0.235909507078E-02
  0.269655432546E-01  0.000000000000E+00  0.235909420698E-02
  0.702822430841E-01  0.105263157890E+00  0.614880593612E-02
  0.702822432406E-01  0.000000000000E+00  0.614880414753E-02
  0.136815207859E+00  0.105263157890E+00  0.119696725837E-01
  0.136815208116E+00  0.000000000000E+00  0.119696696464E-01
  0.232285767525E+00  0.105263157890E+00  0.203222480615E-01
  0.232285767830E+00  0.000000000000E+00  0.203222445771E-01
  0.356709467024E+00  0.105263157890E+00  0.312078972072E-01
  0.356709467240E+00  0.000000000000E+00  0.312078947333E-01
  0.500000000000E+00  0.105263157890E+00  0.437441893158E-01
  0.500000000000E+00  0.000000000000E+00  0.437442072125E-01
  0.643290532760E+00  0.000000000000E+00  0.312078947333E-01
  0.643290532976E+00  0.105263157890E+00  0.312078972072E-01
  0.767714232170E+00  0.000000000000E+00  0.203222445771E-01
  0.767714232475E+00  0.105263157890E+00  0.203222480615E-01
  0.863184791884E+00  0.000000000000E+00  0.119696696464E-01
  0.863184792141E+00  0.105263157890E+00  0.119696725837E-01
  0.929717756758E+00  0.000000000000E+00  0.614880414753E-02
  0.929717756915E+00  0.105263157890E+00  0.614880593612E-02
  0.973034456748E+00  0.000000000000E+00  0.235909420698E-02
  0.973034456824E+00  0.105263157890E+00  0.235909507078E-02
  0.973034456824E+00  0.210526315790E+00 -0.235909507078E-02
  0.999999919737E+00  0.210526315790E+00 -0.351102923127E-08
  0.929717756915E+00  0.210526315790E+00 -0.614880593612E-02
  0.863184792141E+00  0.210526315790E+00 -0.119696725837E-01
  0.767714232475E+00  0.210526315790E+00 -0.203222480615E-01
  0.643290532976E+00  0.210526315790E+00 -0.312078972072E-01
  0.500000000000E+00  0.210526315790E+00 -0.437441893158E-01
  0.356709467024E+00  0.210526315790E+00 -0.312078972072E-01
  0.232285767525E+00  0.210526315790E+00 -0.203222480615E-01
  0.136815207859E+00  0.210526315790E+00 -0.119696725837E-01
  0.702822430841E-01  0.210526315790E+00 -0.614880593612E-02
  0.269655431791E-01  0.210526315790E+00 -0.235909507078E-02
  0.803398331707E-07  0.210526315790E+00  0.000000000000E+00
  0.269655431791E-01  0.210526315790E+00  0.235909507078E-02
  0.702822430841E-01  0.210526315790E+00  0.614880593612E-02
  0.136815207859E+00  0.210526315790E+00  0.119696725837E-01
  0.232285767525E+00  0.210526315790E+00  0.203222480615E-01
  0.356709467024E+00  0.210526315790E+00  0.312078972072E-01
  0.500000000000E+00  0.210526315790E+00  0.437441893158E-01
  0.643290532976E+00  0.210526315790E+00  0.312078972072E-01
  0.767714232475E+00  0.210526315790E+00  0.203222480615E-01
  0.863184792141E+00  0.210526315790E+00  0.119696725837E-01
  0.929717756915E+00  0.210526315790E+00  0.614880593612E-02
  0.973034456824E+00  0.210526315790E+00  0.235909507078E-02
  0.973034456824E+00  0.315789473680E+00 -0.235909507078E-02
  0.999999919737E+00  0.315789473680E+00 -0.351102923141E-08
  0.929717756915E+00  0.315789473680E+00 -0.614880593612E-02
  0.863184792141E+00  0.315789473680E+00 -0.119696725837E-01
  0.767714232475E+00  0.315789473680E+00 -0.203222480615E-01
  0.643290532976E+00  0.315789473680E+00 -0.312078972072E-01
  0.500000000000E+00  0.315789473680E+00 -0.437441893158E-01
  0.356709467024E+00  0.315789473680E+00 -0.312078972072E-01
  0.232285767525E+00  0.315789473680E+00 -0.203222480615E-01
  0.136815207859E+00  0.315789473680E+00 -0.119696725837E-01
  0.702822430841E-01  0.315789473680E+00 -0.614880593612E-02
  0.269655431791E-01  0.315789473680E+00 -0.235909507078E-02
  0.803398331739E-07  0.315789473680E+00  0.325758138318E-22
  0.269655431791E-01  0.315789473680E+00  0.235909507078E-02
  0.702822430841E-01  0.315789473680E+00  0.614880593612E-02
  0.136815207859E+00  0.315789473680E+00  0.119696725837E-01
  0.232285767525E+00  0.315789473680E+00  0.203222480615E-01
  0.356709467024E+00  0.315789473680E+00  0.312078972072E-01
  0.500000000000E+00  0.315789473680E+00  0.437441893158E-01
  0.643290532976E+00  0.315789473680E+00  0.312078972072E-01
  0.767714232475E+00  0.315789473680E+00  0.203222480615E-01
  0.863184792141E+00  0.315789473680E+00  0.119696725837E-01
  0.929717756915E+00  0.315789473680E+00  0.614880593612E-02
  0.973034456824E+00  0.315789473680E+00  0.235909507078E-02
  0.973034456824E+00  0.421052631580E+00 -0.235909507078E-02
  0.999999919737E+00  0.421052631580E+00 -0.351102923127E-08
  0.929717756915E+00  0.421052631580E+00 -0.614880593612E-02
  0.863184792141E+00  0.421052631580E+00 -0.119696725837E-01
  0.767714232475E+00  0.421052631580E+00 -0.203222480615E-01
  0.643290532976E+00  0.421052631580E+00 -0.312078972072E-01
  0.500000000000E+00  0.421052631580E+00 -0.437441893158E-01
  0.356709467024E+00  0.421052631580E+00 -0.312078972072E-01
  0.232285767525E+00  0.421052631580E+00 -0.203222480615E-01
  0.136815207859E+00  0.421052631580E+00 -0.119696725837E-01
  0.702822430841E-01  0.421052631580E+00 -0.614880593612E-02
  0.269655431791E-01  0.421052631580E+00 -0.235909507078E-02
  0.803398331707E-07  0.421052631580E+00  0.000000000000E+00
  0.269655431791E-01  0.421052631580E+00  0.235909507078E-02
  0.702822430841E-01  0.421052631580E+00  0.614880593612E-02
  0.136815207859E+00  0.421052631580E+00  0.119696725837E-01
  0.232285767525E+00  0.421052631580E+00  0.203222480615E-01
  0.356709467024E+00  0.421052631580E+00  0.312078972072E-01
  0.500000000000E+00  0.421052631580E+00  0.437441893158E-01
  0.643290532976E+00  0.421052631580E+00  0.312078972072E-01
  0.767714232475E+00  0.421052631580E+00  0.203222480615E-01
  0.863184792141E+00  0.421052631580E+00  0.119696725837E-01
  0.929717756915E+00  0.421052631580E+00  0.614880593612E-02
  0.973034456824E+00  0.421052631580E+00  0.235909507078E-02
  0.973034456824E+00  0.526315789470E+00 -0.235909507078E-02
  0.999999919737E+00  0.526315789470E+00 -0.351102923141E-08
  0.929717756915E+00  0.526315789470E+00 -0.614880593612E-02
  0.863184792141E+00  0.526315789470E+00 -0.119696725837E-01
  0.767714232475E+00  0.526315789470E+00 -0.203222480615E-01
  0.643290532976E+00  0.526315789470E+00 -0.312078972072E-01
  0.500000000000E+00  0.526315789470E+00 -0.437441893158E-01
  0.356709467024E+00  0.526315789470E+00 -0.312078972072E-01
  0.232285767525E+00  0.526315789470E+00 -0.203222480615E-01
  0.136815207859E+00  0.526315789470E+00 -0.119696725837E-01
  0.702822430841E-01  0.526315789470E+00 -0.614880593612E-02
  0.269655431791E-01  0.526315789470E+00 -0.235909507078E-02
  0.803398331739E-07  0.526315789470E+00  0.000000000000E+00
  0.269655431791E-01  0.526315789470E+00  0.235909507078E-02
  0.702822430841E-01  0.526315789470E+00  0.614880593612E-02
  0.136815207859E+00  0.526315789470E+00  0.119696725837E-01
  0.232285767525E+00  0.526315789470E+00  0.203222480615E-01
  0.356709467024E+00  0.526315789470E+00  0.312078972072E-01
  0.500000000000E+00  0.526315789470E+00  0.437441893158E-01
  0.643290532976E+00  0.526315789470E+00  0.312078972072E-01
  0.767714232475E+00  0.526315789470E+00  0.203222480615E-01
  0.863184792141E+00  0.526315789470E+00  0.119696725837E-01
  0.929717756915E+00  0.526315789470E+00  0.614880593612E-02
  0.973034456824E+00  0.526315789470E+00  0.235909507078E-02
  0.973034456824E+00  0.631578947370E+00 -0.235909507078E-02
  0.999999919737E+00  0.631578947370E+00 -0.351102923127E-08
  0.929717756915E+00  0.631578947370E+00 -0.614880593612E-02
  0.863184792141E+00  0.631578947370E+00 -0.119696725837E-01
  0.767714232475E+00  0.631578947370E+00 -0.203222480615E-01
  0.643290532976E+00  0.631578947370E+00 -0.312078972072E-01
  0.500000000000E+00  0.631578947370E+00 -0.437441893158E-01
  0.356709467024E+00  0.631578947370E+00 -0.312078972072E-01
  0.232285767525E+00  0.631578947370E+00 -0.203222480615E-01
  0.136815207859E+00  0.631578947370E+00 -0.119696725837E-01
  0.702822430841E-01  0.631578947370E+00 -0.614880593612E-02
  0.269655431791E-01  0.631578947370E+00 -0.235909507078E-02
  0.803398331707E-07  0.631578947370E+00  0.000000000000E+00
  0.269655431791E-01  0.631578947370E+00  0.235909507078E-02
  0.702822430841E-01  0.631578947370E+00  0.614880593612E-02
  0.136815207859E+00  0.631578947370E+00  0.119696725837E-01
  0.232285767525E+00  0.631578947370E+00  0.203222480615E-01
[...]
POINT_DATA                1127
SCALARS BC_type int 1
LOOKUP_TABLE default
           2
           2
           2
           2
           2
           2
           2
           2
           2
           2
           2
           2
           2
           2
           2
           2
           2
           2
           2
           2
           2
           2
           2
           2
           2
           2
           2
           2
           2
           2
           2
           2
           2
           2
           2
           2
           2
           2
           2
           2
           2
           2
           2
           2
           2
           2
           2
           2
           2
           2
           2
           2
           2
           2
           2
           2
           2
           2
           2
           2
           2
           2
           2
           2
           2
           2
           2
           2
           2
           2
           2
           2
           2
           2
           2
           2
           2
           2
           2
           2
           2
           2
           2
           2
           2
           2
           2
           2
           2
           2
           2
           2
           2
           2
           2
           2
           2
           2
           2
           2
           2
           2
           2
           2
           2
           2
           2
           2
           2
           2
           2
           2
           2
           2
           2
           2
           2
           2
           2
           2
           2
           2
           2
           2
           2
           2
           2
           2
           2
           2
           2
           2
           2
           2
           2
           2
           2
           2
           2
           2
           2
           2
           2
           2
           2
           2
           2
           2
           2
           2
           2
           2
           2
           2
           2
           2
           2
           2
           2
           2
           2
           2
           2
           2
           2
           2
           2
           2
           2
           2
           2
           2
           2
           2
           2
           2
           2
           2
           2
           2
           2
           2
           2
           2
           2
           2
           2
           2
           2
           2
           2
           2
           2
           2
           2
           2
           2
           2
           2
           2
           2
           2
           2
           2
           2
           2
           2
           2
           2
           2
           2
           2
           2
           2
           2
           2
           2
           2
           2
           2
           2
           2
           2
           2
           2
           2
           2
           2
           2
           2
           2
           2
           2
           2
           2
           2
           2
           2
           2
           2
           2
           2
           2
           2
           2
           2
           2
           2
           2
           2
           2
           2
           2
           2
           2
           2
           2
           2
           2
           2
           2
           2
           2
           2
           2
           2
           2
           2
           2
           2
           2
           2
           2
           2
           2
           2
           2
           2
           2
           2
           2
           2
           2
           2
           2
           2
           2
           2
           2
           2
           2
           2
           2
           2
           2
           2
           2
           2
           2
           2
           2
           2
           2
           2
           2
           2
           2
           2
           2
           2
           2
           2
           2
           2
           2
           2
           2
           2
           2
           2
           2
           2
           2
           2
           2
           2
           2
           2
           2
           2
           2
           2
           2
           2
           2
           2
           2
           2
           2
           2
           2
           2
           2
           2
           2
           2
           2
           2
           2
           2
           2
           2
           2
           2
           2
           2
           2
           2
           2
           2
           2
           2
           2
           2
           2
           2
           2
           2
           2
           2
           2
           2
           2
           2
           2
           2
           2
           2
           2
           2
           2
           2
           2
           2
           2
           2
           2
           2
           2
           2
           2
           2
           2
           2
           2
           2
           2
           2
           2
           2
           2
           2
           2
           2
           2
           2
           2
           2
           2
           2
           2
           2
           2
           2
           2
           2
           2
           2
           2
           2
           2
           2
           2
           2
           2
           2
           2
           2
           2
           2
           2
           2
           2
           2
           2
           2
           2
           2
           2
           2
           2
           2
           2
           2
           2
           2
           2
           2
           2
           2
           2
           2
           2
           2
           2
           2
           2
           2
           2
           2
           2
           2
           2
           2
           2
           2
           2
           2
           2
           2
           2
           2
           2
           2
           2
           2
           2
           2
           2
           2
           2
           2
           2
           2
           2
           2
           2
           2
           2
           2
           2
           2
           2
           2
           2
           2
           2
           2
           2
           2
           2
           2
           2
           2
           2
           2
           2
           2
           2
           2
           2
           2
           2
           2
           2
           2
           2
           2
           2
           2
           2
           2
           2
           2
           2
           2
           2
           2
           2
           2
           2
           2
           2
           2
           2
           2
           2
           2
           2
           2
           2
           2
           2
           2
           2
           2
           2
           2
           2
           2
           2
           2
           2
           2
           2
           2
           2
           2
           2
           2
           2
           2
           2
           2
           2
           2
           2
           2
           2
           2
           2
           2
           2
           2
           2
           2
           2
           2
           2
           2
           2
           2
           2
           2
           2
           2
           2
           2
           2
           2
           2
           2
           2
           2
           2
           2
           2
           2
           2
           2
           2
           2
           2
           2
           2
           2
           2
           2
           2
           2
           2
           2
           2
           2
           2
           2
           2
           2
           2
           2
           2
           2
           2
           2
           2
           2
           2
           2
           2
           2
           2
           2
           2
           2
           2
           2
           2
           2
           2
           2
           2
           2
           2
           2
           2
           2
           2
           2
           2
           2
           2
           2
           2
           2
           2
           2
           2
           2
           2
           2
           2
           2
           2
           2
           2
           2
           2
           2
           2
           2
           2
           2
           2
           2
           2
           2
           2
           2
           2
           2
           2
           2
           2
           2
           2
           2
           2
           2
           2
           2
           2
           2
           2
           2
           2
           2
           2
           2
           2
           2
           2
           2
           2
           2
           2
           2
           2
           2
           2
           2
           2
           2
           2
           2
           2
           2
           2
           2
           2
           2
           2
           2
           2
           2
           2
           2
           2
           2
           2
           2
           2
           2
           2
           2
           2
           2
           2
           2
           2
           2
           2
           2
           2
           2
           2
           2
           2
           2
           2
           2
           2
           2
           2
           2
           2
           2
           2
           2
           2
           2
           2
           2
           2
           2
           2
           2
           2
           2
           2
           2
           2
           2
           2
           2
           2
           2
           2
           2
           2
           2
           2
           2
           2
           2
           2
           2
           2
           2
           2
           2
           2
           2
           2
           2
           2
           2
           2
           2
           2
           2
           2
           2
           2
           2
           2
           2
           2
           2
           2
           2
           2
           2
           2
           2
           2
           2
           2
           2
           2
           2
           2
           2
           2
           2
           2
           2
           2
           2
           2
           2
           2
           2
           2
           2
           2
           2
           2
           2
           2
           2
           2
           2
           2
           2
           2
           2
           2
           2
           2
           2
           2
           2
           2
           2
           2
           2
           2
           2
           2
           2
           2
           2
           2
           2
           2
           2
           2
           2
           2
           2
           2
           2
           2
           2
           2
           2
           2
           2
           2
           2
           2
           2
           2
           2
           2
           2
           2
           2
           2
           2
           2
           2
           2
           2
           2
           2
           2
           2
           2
           2
           2
           2
           2
           2
           2
           2
           2
           2
           2
           2
           2
           2
           2
           2
           2
           2
           2
           2
           2
           2
           2
           2
           2
           2
           2
           2
           2
           2
           2
           2
           2
           2
           2
           2
           2
           2
           2
           2
           2
           2
           2
           2
           2
           2
           2
           2
           2
           2
           2
           2
           2
           2
           2
           2
           2
           2
           2
           2
           2
           2
           2
           2
           2
           2
           2
           2
           2
           2
           2
           2
           2
           2
           2
           2
           2
           2
           2
           2
           2
           2
           2
           2
           2
           2
           2
           2
           2
           2
           2
           2
           2
           2
           2
           2
           2
           2
           2
           2
           2
           2
           2
           2
           2
           2
           2
           2
           2
           2
           2
           2
           2
           2
           2
           2
           2
           2
           2
           2
           2
           2
           2
           2
           2
           2
           2
           2
           2
           2
           2
           2
           2
           2
           2
           2
           2
           2
           2
           2
           2
           2
           2
           2
           2
           2
           2
           2
           2
           2
           2
           2
           2
           2
           2
           2
           2
           2
           2
           2
           2
           2
           2
           2
           2
           2
           2
           2
           2
           2
           2
           2
           2
           2
           2
           2
           2
           2
           2
           2
           2
           2
           2
           2
           2
           2
           2
           2
           2
           2
           2
           2
           2
           2
           2
           2
           2
           2
           2
           2
           2
           2
           2
           2
           2
           2
           2
           2
           2
           2
           2
           2
           2
           2
           2
           2
           2
           2
           2
           2
           2
           2
           2
           2
           2
           2
           2
           2
           2
SCALARS residual float 1
LOOKUP_TABLE default
 -0.742739203474E-13
 -0.117683640610E-13
  0.158761892521E-13
  0.209832151654E-13
  0.228705943073E-13
  0.299760216649E-13
  0.436317648678E-13
  0.621724893790E-13
  0.931477117661E-13
  0.134559030585E-12
  0.150990331349E-12
  0.452970994047E-13
 -0.332733840480E-12
 -0.111910480882E-12
 -0.993649607040E-13
 -0.788258347484E-13
 -0.522915044598E-13
 -0.366373598126E-14
  0.828226376370E-13
 -0.333066907388E-15
 -0.101030295241E-13
  0.165423230669E-13
  0.228705943073E-13
  0.232036612147E-13
  0.297539770600E-13
  0.429656310530E-13
  0.627276008913E-13
  0.928146448587E-13
  0.135558231307E-12
  0.151212375954E-12
  0.469624339416E-13
 -0.333177929690E-12
 -0.112243547790E-12
 -0.100808250636E-12
 -0.782707232361E-13
 -0.526245713672E-13
 -0.244249065418E-14
  0.820454815198E-13
 -0.222044604925E-14
  0.696109836440E-13
  0.777156117238E-14
 -0.165423230669E-13
 -0.234257058196E-13
 -0.262012633812E-13
 -0.306421554797E-13
 -0.422994972382E-13
 -0.623945339839E-13
 -0.983657599818E-13
 -0.135003119794E-12
 -0.151767487466E-12
 -0.488498130835E-13
  0.331623617456E-12
  0.109356967926E-12
  0.963673585375E-13
  0.771605002114E-13
  0.476285677564E-13
  0.133226762955E-14
 -0.843769498715E-13
  0.877076189454E-14
 -0.182076576039E-13
 -0.234257058196E-13
 -0.250910403565E-13
 -0.310862446895E-13
 -0.427435864481E-13
 -0.619504447741E-13
 -0.961453139325E-13
 -0.135780275912E-12
 -0.151101353651E-12
 -0.487387907810E-13
  0.333733041202E-12
  0.111022302463E-12
  0.980326930744E-13
  0.789368570508E-13
  0.472955008490E-13
  0.222044604925E-14
 -0.826005930321E-13
  0.444089209850E-15
 -0.444089209850E-15
 -0.111022302463E-14
 -0.199840144433E-14
 -0.233146835171E-14
 -0.125455201783E-13
 -0.323074900166E-13
 -0.571764857682E-13
 -0.680566714095E-13
 -0.488498130835E-13
 -0.299760216649E-14
  0.219824158876E-13
  0.732747196253E-14
 -0.213162820728E-13
 -0.262012633812E-13
  0.388578058619E-14
  0.526245713672E-13
 -0.435207425653E-13
  0.102140518266E-13
 -0.466293670343E-14
 -0.999200722163E-15
 -0.111022302463E-14
 -0.122124532709E-14
  0.166533453694E-14
  0.965894031424E-14
  0.307531777821E-13
  0.576205749780E-13
  0.706101843662E-13
  0.464073224293E-13
  0.299760216649E-14
 -0.238697950294E-13
 -0.910382880193E-14
  0.186517468137E-13
  0.240918396344E-13
 -0.521804821574E-14
 -0.555111512313E-13
  0.407451850037E-13
 -0.932587340685E-14
 -0.688338275268E-14
 -0.222044604925E-14
 -0.444089209850E-14
 -0.222044604925E-15
 -0.244249065418E-14
  0.188737914186E-14
  0.122124532709E-14
  0.510702591328E-14
  0.444089209850E-14
  0.355271367880E-14
  0.266453525910E-14
 -0.244249065418E-14
 -0.555111512313E-15
 -0.299760216649E-14
 -0.177635683940E-14
 -0.122124532709E-14
 -0.999200722163E-15
 -0.277555756156E-14
 -0.144328993201E-14
  0.555111512313E-15
  0.899280649946E-14
  0.281996648255E-13
  0.541788836017E-13
  0.688338275268E-13
  0.487387907810E-13
  0.799360577730E-14
 -0.173194791842E-13
 -0.421884749358E-14
  0.147659662275E-13
  0.208721928630E-13
  0.111022302463E-14
 -0.435207425653E-13
  0.234257058196E-13
 -0.455191440096E-14
 -0.399680288865E-14
  0.333066907388E-15
 -0.133226762955E-14
 -0.555111512313E-15
 -0.466293670343E-14
 -0.116573417586E-13
 -0.308642000846E-13
 -0.569544411633E-13
 -0.680566714095E-13
 -0.511812814352E-13
 -0.899280649946E-14
  0.140998324127E-13
  0.532907051820E-14
 -0.185407245112E-13
 -0.217603712827E-13
 -0.532907051820E-14
  0.395239396767E-13
 -0.270894418009E-13
  0.388578058619E-14
 -0.333066907388E-14
 -0.499600361081E-14
 -0.222044604925E-15
  0.255351295664E-14
 -0.610622663544E-14
  0.177635683940E-14
 -0.222044604925E-15
 -0.455191440096E-14
  0.499600361081E-14
 -0.777156117238E-14
  0.555111512313E-14
 -0.766053886991E-14
  0.333066907388E-14
 -0.499600361081E-14
 -0.999200722163E-15
 -0.210942374679E-14
 -0.177635683940E-14
 -0.188737914186E-14
 -0.111022302463E-14
 -0.199840144433E-14
 -0.999200722163E-15
  0.144328993201E-14
  0.199840144433E-14
 -0.643929354283E-14
  0.111022302463E-14
 -0.555111512313E-15
 -0.566213742559E-14
  0.521804821574E-14
 -0.810462807976E-14
  0.699440505514E-14
 -0.699440505514E-14
  0.499600361081E-14
 -0.222044604925E-14
  0.222044604925E-15
 -0.166533453694E-14
 -0.166533453694E-14
 -0.233146835171E-14
  0.000000000000E+00
 -0.666133814775E-15
 -0.555111512313E-15
 -0.199840144433E-14
 -0.111022302463E-15
 -0.333066907388E-14
 -0.133226762955E-14
 -0.133226762955E-14
  0.444089209850E-15
  0.144328993201E-14
  0.255351295664E-14
 -0.233146835171E-14
  0.133226762955E-14
 -0.233146835171E-14
 -0.111022302463E-14
 -0.888178419700E-15
  0.111022302463E-15
 -0.155431223448E-14
  0.333066907388E-14
 -0.599520433298E-14
  0.566213742559E-14
 -0.743849426499E-14
  0.277555756156E-14
 -0.166533453694E-14
 -0.521804821574E-14
  0.410782519111E-14
 -0.754951656745E-14
  0.366373598126E-14
 -0.699440505514E-14
  0.122124532709E-14
 -0.410782519111E-14
 -0.999200722163E-15
 -0.166533453694E-14
 -0.222044604925E-14
 -0.122124532709E-14
 -0.244249065418E-14
 -0.266453525910E-14
 -0.888178419700E-15
 -0.444089209850E-14
  0.366373598126E-14
 -0.710542735760E-14
  0.399680288865E-14
 -0.333066907388E-14
 -0.310862446895E-14
  0.399680288865E-14