# vtk DataFile Version 3.0
MachLine results file. Generated by MachLine, USU AeroLab (c) 2022.
ASCII
DATASET POLYDATA
POINTS                4838 float
 -0.395940000000E+00 -0.124060000000E+01 -0.277140000000E+00
 -0.857850000000E-01 -0.124060000000E+01 -0.259040000000E+00
 -0.857850000000E-01 -0.108550000000E+01 -0.238240000000E+00
 -0.395940000000E+00 -0.108550000000E+01 -0.259850000000E+00
 -0.287720000000E+01  0.000000000000E+00 -0.144490000000E+01
 -0.256700000000E+01  0.000000000000E+00 -0.145020000000E+01
  0.208530000000E+01  0.000000000000E+00 -0.140560000000E+01
  0.239550000000E+01  0.000000000000E+00 -0.138370000000E+01
 -0.395940000000E+00  0.000000000000E+00 -0.147380000000E+01
 -0.857850000000E-01  0.000000000000E+00 -0.147330000000E+01
  0.735790000000E+01 -0.114870000000E+01 -0.288040000000E+00
  0.704780000000E+01 -0.114920000000E+01 -0.288040000000E+00
  0.704780000000E+01 -0.124060000000E+01 -0.162980000000E+00
  0.735790000000E+01 -0.124060000000E+01 -0.205690000000E+00
 -0.411780000000E+01 -0.479800000000E+00 -0.908350000000E+00
 -0.411780000000E+01 -0.542420000000E+00 -0.830810000000E+00
 -0.504830000000E+01 -0.572820000000E+00 -0.753270000000E+00
 -0.535840000000E+01 -0.560800000000E+00 -0.753270000000E+00
 -0.504830000000E+01 -0.438320000000E+00 -0.908350000000E+00
 -0.535840000000E+01 -0.421120000000E+00 -0.908350000000E+00
  0.332590000000E+01 -0.124060000000E+01 -0.800490000000E+00
  0.363610000000E+01 -0.124060000000E+01 -0.787060000000E+00
  0.363610000000E+01 -0.108550000000E+01 -0.831040000000E+00
  0.332590000000E+01 -0.108550000000E+01 -0.841800000000E+00
  0.208530000000E+01 -0.124060000000E+01 -0.860850000000E+00
  0.239550000000E+01 -0.124060000000E+01 -0.844680000000E+00
  0.239550000000E+01 -0.108550000000E+01 -0.877710000000E+00
  0.208530000000E+01 -0.108550000000E+01 -0.891200000000E+00
  0.844680000000E+00 -0.124060000000E+01 -0.196270000000E+00
  0.115480000000E+01 -0.124060000000E+01 -0.172930000000E+00
  0.115480000000E+01 -0.108550000000E+01 -0.133190000000E+00
  0.844680000000E+00 -0.108550000000E+01 -0.161780000000E+00
 -0.535840000000E+01 -0.465970000000E+00  0.332270000000E+00
 -0.504830000000E+01 -0.479920000000E+00  0.332270000000E+00
 -0.504830000000E+01 -0.407000000000E+00  0.487350000000E+00
 -0.535840000000E+01 -0.396360000000E+00  0.487350000000E+00
 -0.163660000000E+01  0.000000000000E+00 -0.146380000000E+01
 -0.132640000000E+01  0.000000000000E+00 -0.146760000000E+01
 -0.411780000000E+01  0.000000000000E+00 -0.138230000000E+01
 -0.380760000000E+01  0.000000000000E+00 -0.140230000000E+01
  0.844680000000E+00  0.000000000000E+00 -0.145990000000E+01
  0.115480000000E+01  0.000000000000E+00 -0.145080000000E+01
 -0.659900000000E+01  0.000000000000E+00  0.278190000000E+00
 -0.629540000000E+01  0.000000000000E+00  0.487350000000E+00
 -0.628890000000E+01 -0.510690000000E+00 -0.753270000000E+00
 -0.659900000000E+01 -0.488340000000E+00 -0.753270000000E+00
 -0.628890000000E+01 -0.465230000000E+00 -0.800050000000E+00
  0.611730000000E+01 -0.124060000000E+01 -0.705820000000E+00
  0.580720000000E+01 -0.124060000000E+01 -0.713540000000E+00
  0.611730000000E+01 -0.108550000000E+01 -0.769790000000E+00
  0.580720000000E+01 -0.108550000000E+01 -0.776090000000E+00
  0.487670000000E+01 -0.124060000000E+01 -0.740920000000E+00
  0.456650000000E+01 -0.124060000000E+01 -0.751510000000E+00
  0.487670000000E+01 -0.108550000000E+01 -0.795230000000E+00
  0.456650000000E+01 -0.108550000000E+01 -0.803180000000E+00
 -0.752950000000E+01 -0.511550000000E+00 -0.288040000000E+00
 -0.783970000000E+01 -0.465230000000E+00 -0.360460000000E+00
 -0.752950000000E+01 -0.465230000000E+00 -0.242550000000E+00
  0.580720000000E+01  0.000000000000E+00 -0.822460000000E+00
  0.611730000000E+01  0.000000000000E+00 -0.811070000000E+00
  0.224370000000E+00 -0.620310000000E+00  0.723770000000E-01
  0.534530000000E+00 -0.620310000000E+00  0.901550000000E-01
  0.534530000000E+00 -0.465230000000E+00  0.160540000000E+00
  0.224370000000E+00 -0.465230000000E+00  0.151070000000E+00
 -0.395940000000E+00 -0.620310000000E+00  0.413740000000E-01
 -0.857850000000E-01 -0.620310000000E+00  0.560870000000E-01
 -0.857850000000E-01 -0.465230000000E+00  0.142860000000E+00
 -0.395940000000E+00 -0.465230000000E+00  0.136280000000E+00
 -0.225690000000E+01 -0.620310000000E+00  0.203310000000E-01
 -0.194670000000E+01 -0.620310000000E+00  0.980140000000E-02
 -0.194670000000E+01 -0.465230000000E+00  0.140810000000E+00
 -0.225690000000E+01 -0.465230000000E+00  0.158440000000E+00
 -0.706100000000E+00 -0.620310000000E+00  0.286860000000E-01
 -0.706100000000E+00 -0.465230000000E+00  0.131560000000E+00
 -0.101630000000E+01 -0.465230000000E+00  0.128990000000E+00
 -0.163660000000E+01 -0.620310000000E+00  0.778220000000E-02
 -0.132640000000E+01 -0.620310000000E+00  0.111900000000E-01
 -0.132640000000E+01 -0.465230000000E+00  0.128830000000E+00
 -0.163660000000E+01 -0.465230000000E+00  0.131870000000E+00
  0.518690000000E+01  0.000000000000E+00  0.136160000000E+00
  0.549700000000E+01  0.000000000000E+00  0.133610000000E+00
  0.456650000000E+01 -0.186090000000E+01 -0.243080000000E+00
  0.487670000000E+01 -0.186090000000E+01 -0.235540000000E+00
  0.487670000000E+01 -0.170590000000E+01 -0.185270000000E+00
  0.456650000000E+01 -0.170590000000E+01 -0.189690000000E+00
  0.580720000000E+01 -0.186090000000E+01 -0.225260000000E+00
  0.611730000000E+01 -0.186090000000E+01 -0.226640000000E+00
  0.611730000000E+01 -0.170590000000E+01 -0.189600000000E+00
  0.580720000000E+01 -0.170590000000E+01 -0.183460000000E+00
 -0.132640000000E+01 -0.182400000000E+01 -0.753270000000E+00
 -0.163660000000E+01 -0.180320000000E+01 -0.753270000000E+00
 -0.132640000000E+01 -0.168360000000E+01 -0.908350000000E+00
 -0.163660000000E+01 -0.166610000000E+01 -0.908350000000E+00
 -0.256700000000E+01 -0.173600000000E+01 -0.753270000000E+00
 -0.287720000000E+01 -0.158030000000E+01 -0.908350000000E+00
 -0.287720000000E+01 -0.164640000000E+01 -0.830810000000E+00
 -0.256700000000E+01 -0.160370000000E+01 -0.908350000000E+00
  0.239550000000E+01 -0.186090000000E+01 -0.702650000000E+00
  0.208530000000E+01 -0.186090000000E+01 -0.724840000000E+00
  0.239550000000E+01 -0.170590000000E+01 -0.775790000000E+00
  0.208530000000E+01 -0.170590000000E+01 -0.807440000000E+00
  0.844680000000E+00 -0.186090000000E+01 -0.782090000000E+00
  0.115480000000E+01 -0.186090000000E+01 -0.773220000000E+00
  0.115480000000E+01 -0.170590000000E+01 -0.885300000000E+00
  0.844680000000E+00 -0.170590000000E+01 -0.900980000000E+00
  0.239550000000E+01 -0.170590000000E+01 -0.257070000000E+00
  0.208530000000E+01 -0.170590000000E+01 -0.267520000000E+00
  0.363610000000E+01 -0.170590000000E+01 -0.214970000000E+00
  0.332590000000E+01 -0.170590000000E+01 -0.225370000000E+00
  0.224370000000E+00 -0.124060000000E+01 -0.239520000000E+00
  0.534530000000E+00 -0.124060000000E+01 -0.218240000000E+00
  0.534530000000E+00 -0.108550000000E+01 -0.188900000000E+00
  0.224370000000E+00 -0.108550000000E+01 -0.214820000000E+00
  0.270560000000E+01 -0.124060000000E+01 -0.578890000000E-01
  0.301580000000E+01 -0.124060000000E+01 -0.373990000000E-01
  0.270560000000E+01 -0.108550000000E+01  0.119370000000E-01
  0.301580000000E+01 -0.108550000000E+01  0.377630000000E-01
  0.208530000000E+01 -0.930470000000E+00  0.292730000000E-01
  0.239550000000E+01 -0.930470000000E+00  0.594350000000E-01
  0.239550000000E+01 -0.775390000000E+00  0.142240000000E+00
  0.208530000000E+01 -0.775390000000E+00  0.118160000000E+00
 -0.535840000000E+01 -0.831480000000E+00 -0.288040000000E+00
 -0.504830000000E+01 -0.842690000000E+00 -0.288040000000E+00
 -0.504830000000E+01 -0.801020000000E+00 -0.132960000000E+00
 -0.535840000000E+01 -0.788340000000E+00 -0.132960000000E+00
 -0.458300000000E+01 -0.855610000000E+00 -0.288040000000E+00
 -0.458300000000E+01 -0.834600000000E+00 -0.210500000000E+00
 -0.256700000000E+01 -0.930470000000E+00 -0.309880000000E+00
 -0.287720000000E+01 -0.838460000000E+00 -0.210500000000E+00
 -0.225690000000E+01 -0.930470000000E+00 -0.315690000000E+00
 -0.194670000000E+01 -0.930470000000E+00 -0.315880000000E+00
 -0.194670000000E+01 -0.752600000000E+00 -0.132960000000E+00
 -0.225690000000E+01 -0.755730000000E+00 -0.132960000000E+00
 -0.721940000000E+01  0.000000000000E+00  0.523620000000E-01
 -0.690920000000E+01  0.000000000000E+00  0.126220000000E+00
  0.704780000000E+01 -0.186090000000E+01 -0.245820000000E+00
  0.735790000000E+01 -0.186090000000E+01 -0.255240000000E+00
  0.735790000000E+01 -0.170590000000E+01 -0.247040000000E+00
  0.704780000000E+01 -0.170590000000E+01 -0.232280000000E+00
  0.518690000000E+01 -0.124060000000E+01  0.182740000000E-01
  0.549700000000E+01 -0.124060000000E+01  0.619280000000E-02
  0.549700000000E+01 -0.108550000000E+01  0.852090000000E-01
  0.518690000000E+01 -0.108550000000E+01  0.101430000000E+00
  0.456650000000E+01 -0.124060000000E+01  0.245550000000E-01
  0.487670000000E+01 -0.124060000000E+01  0.241050000000E-01
  0.487670000000E+01 -0.108550000000E+01  0.110660000000E+00
  0.456650000000E+01 -0.108550000000E+01  0.113140000000E+00
 -0.908030000000E+01  0.000000000000E+00 -0.778200000000E+00
 -0.877010000000E+01  0.000000000000E+00 -0.860970000000E+00
 -0.402810000000E+01 -0.116310000000E+01 -0.598200000000E+00
 -0.397360000000E+01 -0.124060000000E+01 -0.598200000000E+00
 -0.404660000000E+01 -0.124060000000E+01 -0.520660000000E+00
 -0.410130000000E+01 -0.116310000000E+01 -0.520660000000E+00
 -0.397020000000E+01 -0.930470000000E+00 -0.830810000000E+00
 -0.402400000000E+01 -0.852930000000E+00 -0.830810000000E+00
 -0.389700000000E+01 -0.930470000000E+00 -0.908350000000E+00
 -0.395060000000E+01 -0.852930000000E+00 -0.908350000000E+00
 -0.504830000000E+01 -0.799920000000E+00 -0.443120000000E+00
 -0.535840000000E+01 -0.797170000000E+00 -0.443120000000E+00
 -0.504830000000E+01 -0.692180000000E+00 -0.598200000000E+00
 -0.535840000000E+01 -0.684990000000E+00 -0.598200000000E+00
[...]
CELL_DATA                9567
SCALARS C_p_inc float 1
LOOKUP_TABLE default
  0.228365598383E+00
  0.214267332996E+00
  0.188139670796E+00
  0.154665168859E+00
  0.147700086939E+00
  0.131587297510E+00
  0.121561006416E+00
  0.116748152095E+00
  0.105388662154E+00
  0.997579502393E-01
  0.960789080690E-01
  0.872387419668E-01
  0.832992141860E-01
  0.803618596862E-01
  0.731694998759E-01
  0.700967311605E-01
  0.672849498510E-01
  0.612070284423E-01
  0.592963739960E-01
  0.561459974138E-01
  0.505716183526E-01
  0.502085277758E-01
  0.458443120649E-01
  0.407504657426E-01
  0.422787556365E-01
  0.361717356049E-01
  0.311187014069E-01
  0.348339997857E-01
  0.272732779065E-01
  0.222396882788E-01
  0.269466708597E-01
  0.190644066954E-01
  0.140673257010E-01
  0.184201935969E-01
  0.112823671416E-01
  0.552046181131E-02
  0.111186798253E-01
  0.344255010915E-02
 -0.345420751795E-02
  0.619963642745E-02
 -0.488371022737E-02
 -0.123302570314E-01
 -0.313183959593E-02
 -0.139216889345E-01
 -0.215117689872E-01
 -0.130526998291E-01
 -0.233360638609E-01
 -0.310788869090E-01
 -0.225013767631E-01
 -0.327050047796E-01
 -0.405326026393E-01
 -0.318338561893E-01
 -0.416023132676E-01
 -0.499817376464E-01
 -0.404302009162E-01
 -0.507526504516E-01
 -0.586617182597E-01
 -0.511012764655E-01
 -0.575342434718E-01
 -0.656009617153E-01
 -0.534717954776E-01
 -0.605992085371E-01
 -0.713010573478E-01
 -0.506492686813E-01
 -0.643286626269E-01
 -0.804162411657E-01
 -0.509108403366E-01
 -0.780759327077E-01
 -0.929576266262E-01
 -0.772994497492E-01
 -0.962762152119E-01
 -0.100957388111E+00
 -0.106060969556E+00
 -0.107701612166E+00
 -0.101976553224E+00
 -0.120203527953E+00
 -0.111512208607E+00
 -0.974547774351E-01
 -0.129594101847E+00
 -0.110451080405E+00
 -0.901031559704E-01
 -0.126305721645E+00
 -0.107851031812E+00
 -0.808354337710E-01
 -0.132875076644E+00
 -0.105185992246E+00
 -0.718169380718E-01
 -0.136006609932E+00
 -0.103268352989E+00
 -0.636854231393E-01
 -0.134689120162E+00
 -0.102200673816E+00
 -0.557495109189E-01
 -0.148615981616E+00
 -0.103471106338E+00
 -0.479032276863E-01
 -0.186265657878E+00
 -0.108686236558E+00
 -0.417008177171E-01
 -0.235075836513E+00
 -0.118501952067E+00
 -0.361674531992E-01
 -0.298522236088E+00
 -0.133537467983E+00
 -0.313958008443E-01
 -0.383251587802E+00
 -0.157660552640E+00
 -0.263925887120E-01
 -0.504663284263E+00
 -0.196376215563E+00
 -0.202592733816E-01
 -0.686677629945E+00
 -0.262540097932E+00
 -0.121600269533E-01
 -0.974093070364E+00
 -0.389308250815E+00
 -0.742436704659E-03
 -0.132590504183E+01
 -0.572957010624E+00
  0.653376052702E-01
  0.209207894020E+00
  0.228912587730E+00
  0.214100237042E+00
  0.153828242523E+00
  0.154662887586E+00
  0.147532521244E+00
  0.123638329589E+00
  0.121461751683E+00
  0.116481494543E+00
  0.100108470816E+00
  0.996356164409E-01
  0.957091669993E-01
  0.808546309121E-01
  0.831218273858E-01
  0.798996505116E-01
  0.641498024379E-01
  0.697787115534E-01
  0.667281743218E-01
  0.501629421181E-01
  0.587002175783E-01
  0.554971942448E-01
  0.386173374963E-01
  0.491444441831E-01
  0.451162315890E-01
  0.293350383702E-01
  0.405108510733E-01
  0.353842706201E-01
  0.199655500583E-01
  0.321949564547E-01
  0.264805959989E-01
  0.284253950173E-01
  0.232935726538E-01
  0.182884014255E-01
  0.381540563818E-01
  0.147811918172E-01
  0.104308910035E-01
  0.246636832292E-01
  0.864456466333E-02
  0.237382772390E-02
  0.177474929306E-01
  0.406852198392E-02
 -0.607596723539E-02
  0.509726575211E-02
 -0.501777553867E-02
 -0.149356455634E-01
 -0.590052798717E-02
 -0.149527506198E-01
 -0.241815751631E-01
 -0.187786392177E-01
 -0.244890420923E-01
 -0.334398256261E-01
 -0.185243326898E-01
 -0.341120791281E-01
 -0.422890545127E-01
 -0.317196997232E-01
 -0.419791745359E-01
 -0.513567530480E-01
 -0.431934264332E-01
 -0.519969262709E-01
 -0.579067087538E-01
 -0.493604592805E-01
 -0.539781837457E-01
 -0.611451927864E-01
 -0.479202029867E-01
 -0.512141931816E-01
 -0.649230229618E-01
 -0.329745933359E-01
 -0.514745596799E-01
 -0.781739171346E-01
 -0.831435229178E-02
 -0.766837963233E-01
 -0.962723854432E-01
 -0.872144337917E-01
 -0.106372974582E+00
 -0.108480057268E+00
 -0.134704941819E+00
 -0.121776119444E+00
 -0.113332100599E+00
 -0.146469919899E+00
 -0.132129152253E+00
 -0.113223416649E+00
 -0.155655287151E+00
 -0.129424805842E+00
 -0.111487086935E+00
 -0.168115652859E+00
 -0.136640348459E+00
 -0.109853866747E+00
 -0.171811786917E+00
 -0.140162390164E+00
 -0.108757905056E+00
 -0.182820582671E+00
 -0.139060546824E+00
 -0.108729126786E+00
 -0.199347766154E+00
 -0.153570218389E+00
 -0.111297164314E+00
 -0.215741940600E+00
 -0.193068714462E+00
 -0.117823932782E+00
 -0.257800957222E+00
 -0.246125288554E+00
 -0.128526391245E+00
 -0.326329525215E+00
 -0.316457059971E+00
 -0.143968508959E+00
 -0.437726229761E+00
 -0.411021721574E+00
 -0.168455550017E+00
 -0.627559392982E+00
 -0.546553163253E+00
 -0.207195485814E+00
 -0.985090989631E+00
 -0.746991071991E+00
 -0.273525606676E+00
 -0.183781975890E+01
 -0.106082718393E+01
 -0.401738822288E+00
 -0.473507495793E+01
 -0.143234606705E+01
 -0.590291659426E+00
 -0.215592506656E+00
 -0.253702118955E+00
 -0.221309452617E+00
 -0.165924634126E+00
 -0.937681769385E-01
 -0.124150504751E-01
  0.807855053234E-01
  0.180660655027E+00
  0.279555571371E+00
  0.313526262281E+00
 -0.959993853249E-01
 -0.122008326316E+00
 -0.106787995315E+00
 -0.751704305503E-01
 -0.338587421581E-01
  0.148915207451E-01
  0.695109090403E-01
  0.132110136031E+00
  0.195760682405E+00
  0.232525233879E+00
 -0.536046758043E-01
 -0.705938601745E-01
 -0.609383048979E-01
 -0.384511341980E-01
 -0.936625978828E-02
  0.262068636267E-01
  0.663243053337E-01
  0.112184272978E+00
  0.160135096003E+00
  0.195633567936E+00
 -0.377294703753E-01
 -0.490845049015E-01
 -0.410117434458E-01
 -0.237803496703E-01
 -0.120972374081E-02
  0.265451462562E-01
  0.594414179103E-01
  0.955844736871E-01
  0.133585268845E+00
  0.168063427058E+00
 -0.323877934937E-01
 -0.391586120922E-01
 -0.320007772416E-01
 -0.181407480156E-01
  0.769306018575E-03
  0.234439624802E-01
  0.501507143522E-01
  0.803295304325E-01
  0.112039756699E+00
  0.144654039981E+00
 -0.320347067648E-01
 -0.353353307790E-01
 -0.288752500599E-01
 -0.171873420900E-01
 -0.107603320824E-02
  0.173105333356E-01
  0.394759407882E-01
  0.646608477275E-01
  0.921000590427E-01
  0.122699443173E+00
 -0.349108264637E-01
 -0.349018751474E-01
 -0.286523214712E-01
 -0.186423212662E-01
 -0.541803295238E-02
  0.104904120644E-01
  0.291403630057E-01
  0.501956754394E-01
  0.730578702078E-01
  0.102718863012E+00
 -0.395832876509E-01
 -0.372395547163E-01
 -0.308934625081E-01
 -0.217037810423E-01
 -0.102245732985E-01
  0.349715341096E-02
  0.195514911274E-01
  0.371799287747E-01
  0.565919719175E-01
  0.847896581144E-01
 -0.452544788913E-01
 -0.413405394949E-01
 -0.348361464818E-01
 -0.263821901050E-01
 -0.163550558433E-01
 -0.473154346427E-02
  0.868322568321E-02
  0.240500635327E-01
  0.412295414860E-01
  0.671354474288E-01
 -0.526025152886E-01
 -0.471594580577E-01
 -0.404960643460E-01
 -0.328879804320E-01
 -0.243066585486E-01
 -0.141904331821E-01
 -0.290131516320E-02
  0.100797500959E-01
  0.249415408047E-01
  0.497215955939E-01
 -0.601840671379E-01
 -0.535122295116E-01
 -0.466965294698E-01
 -0.397210647274E-01
 -0.321854480039E-01
 -0.239283432146E-01
 -0.145652962487E-01
 -0.401177826438E-02
  0.813514657615E-02
  0.318036146109E-01
 -0.674783651480E-01
 -0.600719323930E-01
 -0.533303492882E-01
 -0.471565135635E-01
 -0.409359640623E-01
 -0.343416721746E-01
 -0.271971970121E-01
 -0.188762413099E-01
 -0.902460918173E-02
  0.125980341912E-01
 -0.758310486032E-01
 -0.678857991734E-01
 -0.612471963007E-01
 -0.556003712242E-01
 -0.504420452721E-01
 -0.452292849643E-01
 -0.397330532017E-01
 -0.334915073762E-01
 -0.254526253408E-01
 -0.623706708861E-02
 -0.839846511196E-01
 -0.757937872097E-01
 -0.693706141455E-01
 -0.643779867414E-01
 -0.600630877741E-01
 -0.561561747558E-01
 -0.521782682223E-01
 -0.477635768326E-01
 -0.411248652479E-01
 -0.242122076403E-01
 -0.908983431604E-01
 -0.832007531160E-01
 -0.774743172756E-01
 -0.734064283966E-01
 -0.703436201195E-01
 -0.678078021749E-01
 -0.655265673760E-01
 -0.628603814533E-01
 -0.582082948143E-01
 -0.440664762823E-01
 -0.958069514876E-01
 -0.894554440137E-01
 -0.849785795289E-01
 -0.820111567660E-01
 -0.801841237502E-01
 -0.791098446093E-01
 -0.783775264887E-01
 -0.773933317491E-01
 -0.747525008052E-01
 -0.640990861688E-01
 -0.971087288018E-01
 -0.932985018922E-01
 -0.907311201505E-01
 -0.893826649487E-01
 -0.889791882345E-01
 -0.893463813840E-01
 -0.901561945250E-01
 -0.909288584350E-01
 -0.902526487249E-01
 -0.832025535559E-01
 -0.942720226799E-01
 -0.943407590828E-01
 -0.944669190682E-01
 -0.951416590371E-01
 -0.964912690529E-01
 -0.984221748568E-01
 -0.100856531149E+00
 -0.103486569437E+00
 -0.105105542740E+00
 -0.102117590433E+00
 -0.876015355830E-01
 -0.917815456497E-01
 -0.948873259764E-01
 -0.977863940573E-01
 -0.100891842750E+00
 -0.104461939465E+00
 -0.108518363854E+00
 -0.112875048100E+00
 -0.116776365703E+00
 -0.117969546037E+00
 -0.801754304268E-01
 -0.866356526330E-01
 -0.918916690398E-01
 -0.966292945222E-01
 -0.101281960436E+00
 -0.106227002167E+00
 -0.111688817320E+00
 -0.117637909439E+00
 -0.123592283254E+00
 -0.128355617263E+00
 -0.731313728201E-01
 -0.797299783038E-01
 -0.857241336192E-01
 -0.914151814224E-01
 -0.970915219506E-01
 -0.103006209472E+00
 -0.109460047332E+00
 -0.116598189731E+00
 -0.124349977921E+00
 -0.131871710546E+00
 -0.649993296895E-01
 -0.709877042823E-01
 -0.768631615943E-01
 -0.827246064509E-01
 -0.887404008812E-01
 -0.950938964394E-01
 -0.102036597341E+00
 -0.109835337430E+00
 -0.118640395541E+00
 -0.128156368520E+00
 -0.556430671031E-01
 -0.610688778479E-01
 -0.665583008775E-01
 -0.721573592711E-01
 -0.779956289431E-01
 -0.842420208103E-01
 -0.910946510641E-01
 -0.989140792950E-01
 -0.107964922706E+00
 -0.118462662497E+00
 -0.456027925168E-01
 -0.505625652662E-01
 -0.556230540181E-01
 -0.608027031855E-01
 -0.662817517026E-01
 -0.721685149216E-01
 -0.787266489468E-01
 -0.861208917082E-01
 -0.949693233093E-01
 -0.105697893640E+00
 -0.355024027328E-01
 -0.400459101413E-01
 -0.445752531736E-01
 -0.492682398428E-01
 -0.542040912322E-01
 -0.595591741735E-01
 -0.654371553110E-01
 -0.722669540376E-01
 -0.802870389064E-01
 -0.907596311560E-01
 -0.254145796679E-01
 -0.295637221457E-01
 -0.336169120406E-01
 -0.378499761364E-01
 -0.422629320706E-01
 -0.470398519420E-01
 -0.522999799052E-01
 -0.583108982890E-01
 -0.654236498143E-01
 -0.748792034533E-01
 -0.156744613201E-01
 -0.194385425175E-01
 -0.231150130004E-01
 -0.268529977767E-01
 -0.308123396837E-01
 -0.350138890755E-01
 -0.396087373411E-01
 -0.446959572364E-01
 -0.508783856174E-01
 -0.593628989569E-01
 -0.619686278984E-02
 -0.962900312967E-02
 -0.128485151887E-01
 -0.161111914066E-01
 -0.195755508034E-01
 -0.231210081865E-01
 -0.267897449164E-01
 -0.309802297654E-01
 -0.360130985493E-01
 -0.431013962709E-01
  0.319828057730E-02
  0.712648315313E-04
 -0.282258199362E-02
 -0.581255880016E-02
 -0.879813356180E-02
 -0.119256743191E-01
 -0.151941233156E-01
 -0.186052628812E-01
 -0.225173773271E-01
 -0.285679353681E-01
  0.122759983565E-01
  0.942703110383E-02
  0.672202339970E-02
  0.397379523145E-02
  0.149668957725E-02
 -0.119091404616E-02
 -0.403188964575E-02
 -0.680143610815E-02
 -0.967305612234E-02
 -0.146634930684E-01
  0.209499481462E-01
  0.183366876857E-01
  0.158943533280E-01
  0.135102453629E-01
  0.112250394194E-01
  0.919013486266E-02
  0.728741239787E-02
  0.522619915255E-02
  0.352812608474E-02
  0.348256274295E-03
  0.301450551380E-01
  0.276343217726E-01
  0.254413095041E-01
  0.234530870183E-01
  0.213652588860E-01
  0.198020017791E-01
  0.184817265031E-01
  0.174849353019E-01
  0.165906481939E-01
  0.148641055888E-01
  0.398185202327E-01
  0.373916655502E-01
  0.352703886203E-01
  0.334907891185E-01
  0.319632453217E-01
  0.305896911250E-01
  0.295115621581E-01
  0.293792795273E-01
  0.294139129270E-01
  0.288292023665E-01
  0.493828883159E-01
  0.473396979304E-01
  0.452260248245E-01
  0.433004915375E-01
  0.420903033238E-01
  0.409633276493E-01
  0.406852873140E-01
  0.407923551254E-01
  0.422479888124E-01
  0.434823543903E-01
  0.598758820591E-01
  0.575391161823E-01
  0.554000943945E-01
  0.537562685327E-01
  0.521487055088E-01
  0.515413619250E-01
  0.521322678542E-01
  0.529002196943E-01
  0.549394107282E-01
  0.575245379113E-01
  0.716667328238E-01
  0.687384791000E-01
  0.665735513355E-01
  0.648039949169E-01
  0.634161164545E-01
  0.633139350385E-01
  0.636537322586E-01
  0.657458066217E-01
  0.686464314206E-01
  0.729099824076E-01
  0.845692119991E-01
  0.817137397379E-01
  0.792258867434E-01
  0.770290862805E-01
  0.762038276484E-01
  0.758724253385E-01
  0.765689480432E-01
  0.797546774434E-01
  0.842122877594E-01
  0.895481245793E-01
  0.101225282654E+00
  0.972823790923E-01
  0.942727351366E-01
  0.920965230433E-01
  0.906886614114E-01
  0.904038246229E-01
  0.920744037056E-01
  0.957704793310E-01
  0.101673149851E+00
  0.109108011371E+00
  0.125047666790E+00
  0.119262854070E+00
  0.114977416894E+00
  0.111784369880E+00
  0.110199968971E+00
  0.110448741387E+00
  0.112326185151E+00
  0.116770691879E+00
  0.125947214244E+00
  0.137291990013E+00
  0.177567562046E+00
  0.168528500482E+00
  0.161288714861E+00
  0.156054613867E+00
  0.153738564021E+00
  0.153703900108E+00
  0.157825156297E+00
  0.165293667720E+00
  0.179632543107E+00
  0.197370634848E+00
  0.620368317473E-01
 -0.219226931152E+00
 -0.254644257933E+00
 -0.221513593647E+00
 -0.165861098507E+00
 -0.935835088496E-01
 -0.121903649400E-01
  0.809999468311E-01
  0.180689769162E+00
  0.278013536931E+00
  0.254157962980E-02
 -0.985627704462E-01
 -0.122782027134E+00
 -0.107018091016E+00
 -0.751710471052E-01
 -0.337718833572E-01
  0.149901244256E-01
  0.695663168776E-01
  0.131957428989E+00
  0.194128378535E+00
 -0.950634544151E-02
 -0.556276683877E-01
 -0.711560796312E-01
 -0.611158903612E-01
 -0.384576458752E-01
 -0.930444223533E-02
  0.262656705567E-01
  0.663424768426E-01
  0.111963592117E+00
  0.158466983171E+00
 -0.184883956877E-01
 -0.395755686230E-01
 -0.494575797138E-01
 -0.411378403333E-01
 -0.237818195825E-01
 -0.115122339050E-02
  0.265927608482E-01
  0.594380395831E-01
  0.953387611452E-01
  0.131931939569E+00
 -0.254200279303E-01
 -0.340521007340E-01
 -0.393707748907E-01
 -0.320664660364E-01
 -0.181245504672E-01
  0.832779718677E-03
  0.234850071035E-01
  0.501294880504E-01
  0.800751866315E-01
  0.110452545785E+00
 -0.312638462724E-01
 -0.336351708604E-01
 -0.354023426753E-01
 -0.288907062955E-01
 -0.171452968552E-01
 -0.101808127773E-02
  0.173468334651E-01
  0.394419134295E-01
  0.643817006765E-01
  0.905954582006E-01
 -0.368145958480E-01
 -0.364232181528E-01
 -0.348552683913E-01
 -0.286195648529E-01
 -0.185812644727E-01
 -0.536076735241E-02
  0.105282708564E-01
  0.290961914437E-01
  0.499238793497E-01
  0.716726031295E-01
 -0.429196287922E-01
 -0.410280942454E-01
 -0.371151079726E-01
 -0.308145948134E-01
 -0.216203896039E-01
 -0.101601031087E-01
  0.353586443516E-02
  0.194981826944E-01
  0.368880957758E-01
  0.552212754607E-01
 -0.495555578697E-01
 -0.466216453852E-01
 -0.411649646455E-01
 -0.347175847079E-01
 -0.262876915457E-01
 -0.162908967724E-01
 -0.469996156449E-02
  0.862187462119E-02
  0.237729899857E-01
  0.400237074880E-01
 -0.576463112193E-01
 -0.538433337027E-01
 -0.469628449628E-01
 -0.403575865171E-01
 -0.327902508575E-01
 -0.242421410301E-01
 -0.141652728079E-01
 -0.296832817437E-02
  0.980192195419E-02
  0.238624312897E-01
 -0.656584944806E-01
 -0.612459220320E-01
 -0.533205268385E-01
 -0.465523631670E-01
 -0.396301087612E-01
 -0.321289801150E-01
 -0.239171789822E-01
 -0.146394604988E-01
 -0.427308718596E-02
  0.720933406092E-02
 -0.738782796457E-01
 -0.683841686820E-01
 -0.599174945380E-01
 -0.532071593520E-01
 -0.470827160343E-01
 -0.409002522308E-01
 -0.343505016590E-01
 -0.272829627371E-01
 -0.191394913232E-01
 -0.981507067438E-02
 -0.827436854565E-01
 -0.765747620904E-01
 -0.677879867914E-01
 -0.611554695161E-01
 -0.555524272634E-01
 -0.504287773136E-01
 -0.452584591800E-01
 -0.398277899098E-01
 -0.337352834008E-01
 -0.260790951791E-01
 -0.916797867573E-01
 -0.845510502884E-01
 -0.757700431508E-01
 -0.693313839611E-01
 -0.643661609356E-01
 -0.600781981750E-01
 -0.562056839107E-01
 -0.522834327474E-01
 -0.479788142510E-01
 -0.416150933161E-01
 -0.986750160450E-01
 -0.913418262884E-01
 -0.832649992719E-01
 -0.775034579850E-01
 -0.734435116767E-01
 -0.703963728745E-01
 -0.678836694259E-01
 -0.656405726529E-01
 -0.630504894615E-01
 -0.585501882389E-01
 -0.102721253590E+00
 -0.961607177271E-01
 -0.896016023223E-01
 -0.850722519354E-01
 -0.820938978797E-01
 -0.802707344317E-01
 -0.792060322219E-01
 -0.784904374545E-01
 -0.775531975382E-01
 -0.749919795937E-01
 -0.101271941095E+00
 -0.973872652719E-01
 -0.934860208439E-01
 -0.908707971626E-01
 -0.894990431267E-01
 -0.890859084412E-01
 -0.894520706668E-01
 -0.902681612077E-01
 -0.910577992538E-01
 -0.904062747859E-01
 -0.930001339526E-01
 -0.944114646973E-01
 -0.944836903722E-01
 -0.945922142193E-01
 -0.952517815739E-01
 -0.965915574533E-01
 -0.985167802651E-01
 -0.100950256790E+00
 -0.103582971670E+00
 -0.105200956069E+00
 -0.803757876915E-01
 -0.874568724396E-01
 -0.917490053189E-01
 -0.949043823077E-01
 -0.978215692762E-01
 -0.100934743240E+00
 -0.104511361086E+00
 -0.108571172131E+00
 -0.112933327145E+00
 -0.116829442981E+00
 -0.711466780736E-01
 -0.797477525382E-01
 -0.863488220604E-01
 -0.917107671582E-01
 -0.965167875123E-01
 -0.101212739288E+00
 -0.106186290330E+00
 -0.111671030492E+00
 -0.117641309105E+00
 -0.123609080368E+00
 -0.653215952728E-01
 -0.725949254702E-01
 -0.792653585634E-01
 -0.853591472759E-01
 -0.911400390292E-01
 -0.968804319698E-01
 -0.102849472137E+00
 -0.109348723874E+00
 -0.116531787273E+00
 -0.124329641118E+00
 -0.582996929101E-01
 -0.644504824121E-01
 -0.704532044902E-01
 -0.764019083370E-01
 -0.823444986338E-01
 -0.884299243560E-01
 -0.948422613726E-01
 -0.101845436931E+00
 -0.109708310523E+00
 -0.118588752108E+00
 -0.495958878638E-01
 -0.551293264455E-01
 -0.605330841521E-01
 -0.660802089528E-01
 -0.717520825878E-01
 -0.776497996057E-01
 -0.839541833037E-01
 -0.908674630082E-01
 -0.987575771161E-01
 -0.107901230278E+00
 -0.400892109169E-01
 -0.451653783820E-01
 -0.500628894729E-01
 -0.551772325347E-01
 -0.604149984293E-01
 -0.659467257566E-01
 -0.718802913293E-01
 -0.784963262063E-01
 -0.859601796405E-01
 -0.949127229594E-01
 -0.306114643108E-01
 -0.351647333362E-01
 -0.396049424830E-01
 -0.441879500750E-01
 -0.489272855585E-01
 -0.539052694158E-01
 -0.593005512060E-01
 -0.652297899879E-01
 -0.721207927502E-01
 -0.802511244365E-01
 -0.210259175735E-01
 -0.251741952358E-01
 -0.291930308876E-01
 -0.332932390198E-01
 -0.375642495146E-01
 -0.420095624951E-01
 -0.468213566863E-01
 -0.521201856529E-01
 -0.581962179135E-01
 -0.654165254563E-01
 -0.118502965069E-01
 -0.155276181359E-01
 -0.191380527998E-01
 -0.228563693163E-01
 -0.266266814965E-01
 -0.306077041583E-01
 -0.348385707505E-01
 -0.394700804952E-01
 -0.446113654205E-01
 -0.509030555063E-01
 -0.298594427895E-02
 -0.612548287484E-02
 -0.939248759153E-02
 -0.126524951552E-01
 -0.159343946193E-01
 -0.194219490578E-01
 -0.229938631934E-01
 -0.266902843318E-01
 -0.309274786980E-01
 -0.360741515643E-01
  0.601964868522E-02
  0.321720624361E-02
  0.247884171074E-03
 -0.267670816214E-02
 -0.568113644854E-02
 -0.868927910491E-02
 -0.118345597292E-01
 -0.151270756701E-01
 -0.185833597968E-01
 -0.226089488164E-01
  0.146060721834E-01
  0.122542436136E-01
  0.955564128329E-02
  0.682831097055E-02
  0.405860642457E-02
  0.157023958447E-02
 -0.113178544700E-02
 -0.399686897202E-02
 -0.680906192937E-02
 -0.978829039205E-02
  0.227818534508E-01
  0.209057194391E-01
  0.184251458645E-01
  0.159621348627E-01
  0.135541348181E-01
  0.112669011580E-01
  0.921374506633E-02
  0.729078204220E-02