# vtk DataFile Version 3.0
MachLine results file. Generated by MachLine, USU AeroLab (c) 2022.
ASCII
DATASET POLYDATA
POINTS                3668 float
  0.999999919371E+00 -0.000000000000E+00 -0.466559956060E-08
  0.999999919371E+00 -0.000000000000E+00  0.466559956060E-08
  0.993202459647E+00 -0.105801853900E+00 -0.791941939830E-03
  0.999999924416E+00 -0.105801853900E+00 -0.437363348695E-08
  0.999999924416E+00 -0.105801853900E+00  0.437363348695E-08
  0.993202459902E+00 -0.000000000000E+00 -0.791944047446E-03
  0.985311370229E+00 -0.105801853900E+00 -0.170442380795E-02
  0.985311370483E+00 -0.000000000000E+00 -0.170442591058E-02
  0.976172393194E+00 -0.105801853900E+00 -0.275194480189E-02
  0.976172393448E+00 -0.000000000000E+00 -0.275194689812E-02
  0.965617083865E+00 -0.105801853900E+00 -0.394955285420E-02
  0.965617084117E+00 -0.000000000000E+00 -0.394955494233E-02
  0.953464375652E+00 -0.105801853900E+00 -0.531230683383E-02
  0.953464375902E+00 -0.000000000000E+00 -0.531230891188E-02
  0.939523298485E+00 -0.105801853900E+00 -0.685464613158E-02
  0.939523298733E+00 -0.000000000000E+00 -0.685464819735E-02
  0.923597238487E+00 -0.105801853900E+00 -0.858958109791E-02
  0.923597238733E+00 -0.000000000000E+00 -0.858958314908E-02
  0.905490044459E+00 -0.105801853900E+00 -0.105277095028E-01
  0.905490044702E+00 -0.000000000000E+00 -0.105277115371E-01
  0.885014225593E+00 -0.105801853900E+00 -0.126760904306E-01
  0.885014225833E+00 -0.000000000000E+00 -0.126760924461E-01
  0.862001344233E+00 -0.105801853900E+00 -0.150370084827E-01
  0.862001344469E+00 -0.000000000000E+00 -0.150370104782E-01
  0.836314367994E+00 -0.105801853900E+00 -0.176057434167E-01
  0.836314368227E+00 -0.000000000000E+00 -0.176057453920E-01
  0.807861736704E+00 -0.105801853900E+00 -0.203685353126E-01
  0.807861736934E+00 -0.000000000000E+00 -0.203685372691E-01
  0.776612345397E+00 -0.105801853900E+00 -0.233020844776E-01
  0.776612345624E+00 -0.000000000000E+00 -0.233020864188E-01
  0.742610011470E+00 -0.105801853900E+00 -0.263730246997E-01
  0.742610011696E+00 -0.000000000000E+00 -0.263730266311E-01
  0.705985641549E+00 -0.105801853900E+00 -0.295360538941E-01
  0.705985641775E+00 -0.000000000000E+00 -0.295360558230E-01
  0.666965299185E+00 -0.105801853900E+00 -0.327305965597E-01
  0.666965299411E+00 -0.000000000000E+00 -0.327305984953E-01
  0.625872711847E+00 -0.105801853900E+00 -0.358860334390E-01
  0.625872712074E+00 -0.000000000000E+00 -0.358860353910E-01
  0.583124110300E+00 -0.105801853900E+00 -0.389241500465E-01
  0.583124110530E+00 -0.000000000000E+00 -0.389241520239E-01
  0.539215097188E+00 -0.105801853900E+00 -0.417548671818E-01
  0.539215097420E+00 -0.000000000000E+00 -0.417548691927E-01
  0.494699904468E+00 -0.105801853900E+00 -0.442891853246E-01
  0.494699905218E+00 -0.000000000000E+00 -0.442891995803E-01
  0.450164556565E+00 -0.000000000000E+00 -0.464415290656E-01
  0.450164556622E+00 -0.105801853900E+00 -0.464415270399E-01
  0.406197043041E+00 -0.000000000000E+00 -0.481350819624E-01
  0.406197043138E+00 -0.105801853900E+00 -0.481350799696E-01
  0.363356899003E+00 -0.000000000000E+00 -0.493086246740E-01
  0.363356899143E+00 -0.105801853900E+00 -0.493086227071E-01
  0.322148056504E+00 -0.000000000000E+00 -0.499219521397E-01
  0.322148056690E+00 -0.105801853900E+00 -0.499219501906E-01
  0.282997350661E+00 -0.000000000000E+00 -0.499589654272E-01
  0.282997350894E+00 -0.105801853900E+00 -0.499589634874E-01
  0.246240747109E+00 -0.000000000000E+00 -0.494245797238E-01
  0.246240747395E+00 -0.105801853900E+00 -0.494245777858E-01
  0.212117346449E+00 -0.000000000000E+00 -0.483433837346E-01
  0.212117346791E+00 -0.105801853900E+00 -0.483433817927E-01
  0.180771087571E+00 -0.000000000000E+00 -0.467582113213E-01
  0.180771087974E+00 -0.105801853900E+00 -0.467582093722E-01
  0.152257604381E+00 -0.000000000000E+00 -0.447218849962E-01
  0.152257604855E+00 -0.105801853900E+00 -0.447218830395E-01
  0.126557844703E+00 -0.000000000000E+00 -0.422894572920E-01
  0.126557845259E+00 -0.105801853900E+00 -0.422894553303E-01
  0.103591342067E+00 -0.000000000000E+00 -0.395175649180E-01
  0.103591342721E+00 -0.105801853900E+00 -0.395175629576E-01
  0.832331748192E-01 -0.000000000000E+00 -0.364527556949E-01
  0.832331755923E-01 -0.105801853900E+00 -0.364527537463E-01
  0.653287165190E-01 -0.000000000000E+00 -0.331318981342E-01
  0.653287174449E-01 -0.105801853900E+00 -0.331318962143E-01
  0.497093666275E-01 -0.000000000000E+00 -0.295748887473E-01
  0.497093677583E-01 -0.105801853900E+00 -0.295748868854E-01
  0.362089221055E-01 -0.000000000000E+00 -0.257769631457E-01
  0.362089235230E-01 -0.105801853900E+00 -0.257769613947E-01
  0.246816866810E-01 -0.000000000000E+00 -0.217021703094E-01
  0.246816885349E-01 -0.105801853900E+00 -0.217021687828E-01
  0.150380560771E-01 -0.000000000000E+00 -0.172594038935E-01
  0.150380586445E-01 -0.105801853900E+00 -0.172594028722E-01
  0.732370473997E-02 -0.000000000000E+00 -0.122713676339E-01
  0.732370850421E-02 -0.105801853900E+00 -0.122713679481E-01
  0.195572569150E-02 -0.000000000000E+00 -0.646620058808E-02
  0.195573049793E-02 -0.105801853900E+00 -0.646620427981E-02
  0.811479938883E-07 -0.000000000000E+00  0.000000000000E+00
  0.760620371810E-07 -0.105801853900E+00  0.000000000000E+00
  0.195573049793E-02 -0.105801853900E+00  0.646620427981E-02
  0.195572569150E-02 -0.000000000000E+00  0.646620058808E-02
  0.732370850421E-02 -0.105801853900E+00  0.122713679481E-01
  0.732370473997E-02 -0.000000000000E+00  0.122713676339E-01
  0.150380586445E-01 -0.105801853900E+00  0.172594028722E-01
  0.150380560771E-01 -0.000000000000E+00  0.172594038935E-01
  0.246816885349E-01 -0.105801853900E+00  0.217021687828E-01
  0.246816866810E-01 -0.000000000000E+00  0.217021703094E-01
  0.362089235230E-01 -0.105801853900E+00  0.257769613947E-01
  0.362089221055E-01 -0.000000000000E+00  0.257769631457E-01
  0.497093677583E-01 -0.105801853900E+00  0.295748868854E-01
  0.497093666275E-01 -0.000000000000E+00  0.295748887473E-01
  0.653287174449E-01 -0.105801853900E+00  0.331318962143E-01
  0.653287165190E-01 -0.000000000000E+00  0.331318981342E-01
  0.832331755923E-01 -0.105801853900E+00  0.364527537463E-01
  0.832331748192E-01 -0.000000000000E+00  0.364527556949E-01
  0.103591342721E+00 -0.105801853900E+00  0.395175629576E-01
  0.103591342067E+00 -0.000000000000E+00  0.395175649180E-01
  0.126557845259E+00 -0.105801853900E+00  0.422894553303E-01
  0.126557844703E+00 -0.000000000000E+00  0.422894572920E-01
  0.152257604855E+00 -0.105801853900E+00  0.447218830395E-01
  0.152257604381E+00 -0.000000000000E+00  0.447218849962E-01
  0.180771087974E+00 -0.105801853900E+00  0.467582093722E-01
  0.180771087571E+00 -0.000000000000E+00  0.467582113213E-01
  0.212117346791E+00 -0.105801853900E+00  0.483433817927E-01
  0.212117346449E+00 -0.000000000000E+00  0.483433837346E-01
  0.246240747395E+00 -0.105801853900E+00  0.494245777858E-01
  0.246240747109E+00 -0.000000000000E+00  0.494245797238E-01
  0.282997350894E+00 -0.105801853900E+00  0.499589634874E-01
  0.282997350661E+00 -0.000000000000E+00  0.499589654272E-01
  0.322148056690E+00 -0.105801853900E+00  0.499219501906E-01
  0.322148056504E+00 -0.000000000000E+00  0.499219521397E-01
  0.363356899143E+00 -0.105801853900E+00  0.493086227071E-01
  0.363356899003E+00 -0.000000000000E+00  0.493086246740E-01
  0.406197043138E+00 -0.105801853900E+00  0.481350799696E-01
  0.406197043041E+00 -0.000000000000E+00  0.481350819624E-01
  0.450164556622E+00 -0.105801853900E+00  0.464415270399E-01
  0.450164556565E+00 -0.000000000000E+00  0.464415290656E-01
  0.494699904468E+00 -0.105801853900E+00  0.442891853246E-01
  0.494699905218E+00 -0.000000000000E+00  0.442891995803E-01
  0.539215097420E+00 -0.000000000000E+00  0.417548691927E-01
  0.539215097188E+00 -0.105801853900E+00  0.417548671818E-01
  0.583124110530E+00 -0.000000000000E+00  0.389241520239E-01
  0.583124110300E+00 -0.105801853900E+00  0.389241500465E-01
  0.625872712074E+00 -0.000000000000E+00  0.358860353910E-01
  0.625872711847E+00 -0.105801853900E+00  0.358860334390E-01
  0.666965299411E+00 -0.000000000000E+00  0.327305984953E-01
  0.666965299185E+00 -0.105801853900E+00  0.327305965597E-01
  0.705985641775E+00 -0.000000000000E+00  0.295360558230E-01
  0.705985641549E+00 -0.105801853900E+00  0.295360538941E-01
  0.742610011696E+00 -0.000000000000E+00  0.263730266311E-01
  0.742610011470E+00 -0.105801853900E+00  0.263730246997E-01
  0.776612345624E+00 -0.000000000000E+00  0.233020864188E-01
  0.776612345397E+00 -0.105801853900E+00  0.233020844776E-01
  0.807861736934E+00 -0.000000000000E+00  0.203685372691E-01
  0.807861736704E+00 -0.105801853900E+00  0.203685353126E-01
  0.836314368227E+00 -0.000000000000E+00  0.176057453920E-01
  0.836314367994E+00 -0.105801853900E+00  0.176057434167E-01
  0.862001344469E+00 -0.000000000000E+00  0.150370104782E-01
  0.862001344233E+00 -0.105801853900E+00  0.150370084827E-01
  0.885014225833E+00 -0.000000000000E+00  0.126760924461E-01
  0.885014225593E+00 -0.105801853900E+00  0.126760904306E-01
  0.905490044702E+00 -0.000000000000E+00  0.105277115371E-01
  0.905490044459E+00 -0.105801853900E+00  0.105277095028E-01
  0.923597238733E+00 -0.000000000000E+00  0.858958314908E-02
  0.923597238487E+00 -0.105801853900E+00  0.858958109791E-02
  0.939523298733E+00 -0.000000000000E+00  0.685464819735E-02
  0.939523298485E+00 -0.105801853900E+00  0.685464613158E-02
  0.953464375902E+00 -0.000000000000E+00  0.531230891188E-02
  0.953464375652E+00 -0.105801853900E+00  0.531230683383E-02
  0.965617084117E+00 -0.000000000000E+00  0.394955494233E-02
  0.965617083865E+00 -0.105801853900E+00  0.394955285420E-02
  0.976172393448E+00 -0.000000000000E+00  0.275194689812E-02
  0.976172393194E+00 -0.105801853900E+00  0.275194480189E-02
  0.985311370483E+00 -0.000000000000E+00  0.170442591058E-02
  0.985311370229E+00 -0.105801853900E+00  0.170442380795E-02
  0.993202459902E+00 -0.000000000000E+00  0.791944047446E-03
[...]
POINT_DATA                3668
SCALARS phi float 1
LOOKUP_TABLE default
  0.000000000000E+00
  0.000000000000E+00
 -0.301841884820E-15
 -0.117961196366E-15
 -0.301841884820E-15
  0.818789480661E-15
 -0.364291929955E-15
 -0.402455846427E-15
  0.187350135405E-15
 -0.113797860024E-14
  0.624500451352E-16
  0.198452365652E-14
 -0.246330733589E-15
 -0.485722573274E-15
 -0.190819582357E-15
 -0.444089209850E-15
  0.166533453694E-15
 -0.201227923213E-14
  0.180411241502E-15
  0.763278329430E-15
  0.371230823859E-15
  0.141553435640E-14
 -0.797972798949E-16
 -0.138777878078E-14
  0.242861286637E-16
 -0.721644966006E-15
 -0.138777878078E-15
  0.000000000000E+00
  0.111022302463E-15
  0.000000000000E+00
 -0.208166817117E-16
 -0.138777878078E-16
  0.117961196366E-15
  0.000000000000E+00
  0.000000000000E+00
 -0.138777878078E-16
 -0.190819582357E-15
 -0.138777878078E-16
  0.223779328401E-15
  0.000000000000E+00
  0.131838984174E-15
  0.000000000000E+00
  0.234187669257E-16
  0.000000000000E+00
  0.000000000000E+00
 -0.477048955894E-17
  0.000000000000E+00
  0.219008838842E-15
  0.000000000000E+00
  0.841340885849E-16
  0.000000000000E+00
  0.213370987545E-15
  0.000000000000E+00
  0.147451495458E-15
  0.000000000000E+00
  0.291433543964E-15
 -0.138777878078E-16
  0.225514051877E-15
  0.000000000000E+00
  0.600214322688E-15
  0.000000000000E+00
  0.104083408559E-15
  0.000000000000E+00
  0.111022302463E-15
  0.000000000000E+00
  0.270616862252E-15
  0.000000000000E+00
  0.228983498829E-15
 -0.138777878078E-16
 -0.180411241502E-15
  0.000000000000E+00
  0.173472347598E-15
  0.000000000000E+00
  0.152655665886E-15
  0.000000000000E+00
  0.235922392733E-15
  0.000000000000E+00
  0.499600361081E-15
  0.000000000000E+00
  0.541233724505E-15
  0.000000000000E+00
  0.249800180541E-15
  0.000000000000E+00
  0.235922392733E-15
  0.131838984174E-15
  0.000000000000E+00
  0.353883589099E-15
  0.000000000000E+00
  0.256739074445E-15
  0.000000000000E+00
  0.423272528138E-15
  0.000000000000E+00
  0.832667268469E-16
  0.000000000000E+00
  0.464905891562E-15
  0.000000000000E+00
  0.152655665886E-15
  0.000000000000E+00
  0.423272528138E-15
  0.000000000000E+00
  0.416333634234E-15
  0.000000000000E+00
  0.357353036051E-15
  0.000000000000E+00
  0.301841884820E-15
  0.000000000000E+00
  0.572458747072E-15
  0.000000000000E+00
  0.390312782095E-15
  0.000000000000E+00
  0.263677968348E-15
  0.000000000000E+00
  0.154390389362E-15
  0.000000000000E+00
  0.323092247401E-16
  0.000000000000E+00
  0.182145964978E-15
  0.000000000000E+00
 -0.189952220619E-15
  0.000000000000E+00
 -0.242861286637E-15
  0.000000000000E+00
  0.133573707650E-15
  0.000000000000E+00
  0.000000000000E+00
  0.832667268469E-16
  0.000000000000E+00
  0.107552855511E-15
  0.000000000000E+00
  0.579397640976E-15
  0.000000000000E+00
  0.346944695195E-15
  0.000000000000E+00
  0.638378239159E-15
  0.000000000000E+00
 -0.485722573274E-16
  0.000000000000E+00
  0.797972798949E-15
  0.000000000000E+00
 -0.117961196366E-15
  0.000000000000E+00
  0.499600361081E-15
  0.000000000000E+00
 -0.360822483003E-15
  0.000000000000E+00
 -0.208166817117E-16
  0.000000000000E+00
 -0.346944695195E-16
  0.000000000000E+00
 -0.350414142147E-15
 -0.277555756156E-16
 -0.686950496487E-15
  0.000000000000E+00
  0.499600361081E-15
  0.277555756156E-16
 -0.277555756156E-16
  0.000000000000E+00
 -0.346944695195E-17
  0.000000000000E+00
 -0.513478148889E-15
  0.000000000000E+00
  0.867361737988E-16
 -0.659194920871E-16
  0.183880688454E-15
  0.763278329430E-16
  0.111022302463E-15
  0.329597460436E-15
 -0.100613961607E-15
 -0.333066907388E-15
  0.693889390391E-16
 -0.346944695195E-17
  0.190819582357E-15
  0.215105711021E-15
 -0.117961196366E-15
 -0.159594559790E-15
  0.267147415300E-15
 -0.194289029309E-15
  0.371230823859E-15
  0.364291929955E-15
  0.936750677027E-16
  0.138777878078E-15
  0.397251675999E-15
 -0.416333634234E-16
  0.288831458750E-15
  0.372098185597E-15
 -0.313551268283E-15
 -0.173472347598E-15
 -0.867361737988E-17
  0.572458747072E-16
  0.346944695195E-17
 -0.249800180541E-15
 -0.145716771982E-15
  0.457966997658E-15
  0.187350135405E-15
  0.693889390391E-16
  0.444089209850E-15
 -0.138777878078E-15
  0.693889390391E-16
 -0.208166817117E-16
  0.215105711021E-15
  0.485722573274E-16
  0.402455846427E-15
  0.485722573274E-16
  0.000000000000E+00
  0.173472347598E-15
  0.534294830601E-15
 -0.187350135405E-15
  0.971445146547E-16
  0.138777878078E-15
  0.249800180541E-15
  0.256739074445E-15
  0.326128013484E-15
  0.902056207508E-16
  0.142247325030E-15
  0.520417042793E-16
  0.000000000000E+00
  0.147451495458E-15
  0.300107161344E-15
  0.287096735274E-15
  0.496347754564E-15
  0.546437894933E-16
 -0.815320033709E-16
  0.322658566532E-15
  0.442354486374E-15
  0.485722573274E-15
 -0.523886489745E-15
  0.208166817117E-15
  0.308780778724E-15
 -0.340005801291E-15
 -0.416333634234E-16
 -0.173472347598E-16
 -0.267147415300E-15
  0.409394740331E-15
  0.333066907388E-15
  0.173472347598E-15
  0.378169717763E-15
  0.201227923213E-15
 -0.138777878078E-15
 -0.797972798949E-16
 -0.659194920871E-16
  0.541233724505E-15
  0.360822483003E-15
 -0.451028103754E-15
  0.145716771982E-15
  0.405925293379E-15
  0.166533453694E-15
  0.416333634234E-16
  0.173472347598E-15
  0.197758476261E-15
 -0.902056207508E-16
  0.308780778724E-15
  0.166533453694E-15
  0.451028103754E-16
  0.430211422042E-15
  0.832667268469E-16
 -0.624500451352E-16
  0.218575157973E-15
  0.256739074445E-15
  0.520417042793E-15
  0.572458747072E-15
  0.298372437868E-15
  0.891647866652E-15
  0.589805981832E-15
  0.338271077815E-15
 -0.659194920871E-16
 -0.433680868994E-16
 -0.290783022661E-15
 -0.202962646689E-15
 -0.197758476261E-15
 -0.121430643318E-16
 -0.693889390391E-17
  0.902056207508E-16
  0.360822483003E-15
  0.249800180541E-15
  0.256739074445E-15
  0.416333634234E-16
  0.117961196366E-15
 -0.693889390391E-17
  0.818789480661E-15
  0.346944695195E-16
  0.215105711021E-15
 -0.111022302463E-15
  0.180411241502E-15
  0.277555756156E-16
  0.124900090270E-15
  0.159594559790E-15
  0.624500451352E-16
  0.166533453694E-15
 -0.180411241502E-15
  0.340005801291E-15
 -0.138777878078E-16
 -0.194289029309E-15
 -0.145716771982E-15
 -0.405925293379E-15
 -0.416333634234E-15
 -0.936750677027E-16
  0.589805981832E-16
 -0.485722573274E-16
  0.815320033709E-16
 -0.156125112838E-16
  0.333934269126E-15
  0.192987986702E-15
  0.454497550706E-15
  0.305311331772E-15
  0.621031004400E-15
  0.121430643318E-15
  0.416333634234E-15
  0.274086309204E-15
 -0.749400541622E-15
  0.405925293379E-15
  0.718175519054E-15
  0.600214322688E-15
  0.447558656802E-15
  0.000000000000E+00
  0.104083408559E-15
  0.326128013484E-15
 -0.430211422042E-15
  0.281025203108E-15
 -0.287964097012E-15
  0.326128013484E-15
 -0.895117313604E-15
  0.145716771982E-15
  0.225514051877E-15
 -0.277555756156E-15
  0.256739074445E-15
  0.173472347598E-15
  0.728583859910E-16
 -0.312250225676E-16
 -0.138777878078E-16
  0.163064006742E-15
 -0.263677968348E-15
 -0.763278329430E-16
 -0.176941794550E-15
 -0.166533453694E-15
 -0.374700270811E-15
 -0.208166817117E-15
 -0.242861286637E-16
 -0.378169717763E-15
 -0.253269627493E-15
 -0.444089209850E-15
  0.797972798949E-16
 -0.128369537222E-15
 -0.412864187282E-15
 -0.426741975090E-15
 -0.969710423071E-15
 -0.825728374565E-15
 -0.709501901675E-15
 -0.785612894183E-15
 -0.326128013484E-15
 -0.423272528138E-15
  0.850014503229E-16
  0.208166817117E-15
  0.343475248243E-15
 -0.485722573274E-16
  0.104083408559E-16
 -0.312250225676E-15
  0.367761376907E-15
  0.277555756156E-15
 -0.832667268469E-16
 -0.152655665886E-15
  0.235922392733E-15
  0.104083408559E-15
  0.124900090270E-15
  0.124900090270E-15
 -0.353883589099E-15
  0.381639164715E-15
 -0.124900090270E-15
  0.187350135405E-15
 -0.367761376907E-15
 -0.215105711021E-15
  0.131838984174E-15
 -0.326128013484E-15
 -0.902056207508E-16
  0.346944695195E-16
 -0.797972798949E-16
 -0.263677968348E-15
  0.138777878078E-15
  0.170002900646E-15
  0.293168267440E-15
  0.518682319317E-15
  0.585469173142E-15
  0.217490955801E-15
  0.615826833972E-15
  0.389445420357E-15
  0.652256026967E-15
  0.201227923213E-15
  0.638378239159E-15
  0.114491749414E-15
 -0.100613961607E-15
 -0.572458747072E-15
  0.228983498829E-15
  0.322658566532E-15
  0.971445146547E-16
  0.572458747072E-15
  0.117961196366E-15
  0.430211422042E-15
  0.971445146547E-16
  0.593275428784E-15
  0.287964097012E-15
 -0.190819582357E-15
  0.218575157973E-15
 -0.693889390391E-16
 -0.555111512313E-16
  0.000000000000E+00
 -0.381639164715E-15
  0.180411241502E-15
  0.659194920871E-16
  0.405925293379E-15
 -0.197758476261E-15
 -0.270616862252E-15
  0.520417042793E-16
 -0.326128013484E-15
 -0.253269627493E-15
 -0.301841884820E-15
 -0.426741975090E-15
 -0.107552855511E-15
  0.430211422042E-15
 -0.902056207508E-16
 -0.142247325030E-15
 -0.360822483003E-15
 -0.683481049535E-15
 -0.645317133063E-15
 -0.995731275211E-15
 -0.680011602583E-15
 -0.610622663544E-15
 -0.926342336172E-15
 -0.881239525796E-15
 -0.876469036237E-15
 -0.105297714992E-14
 -0.941087485717E-15
 -0.846545056277E-15
 -0.744196371194E-15
 -0.895117313604E-15
 -0.105818132035E-14
 -0.811850586757E-15
 -0.523886489745E-15
 -0.485722573274E-15
 -0.555111512313E-15
 -0.673072708679E-15
 -0.437150315946E-15
 -0.423272528138E-15
 -0.222044604925E-15
 -0.381639164715E-15
 -0.333066907388E-15
 -0.131838984174E-15
  0.693889390391E-17
  0.277555756156E-15
  0.395516952523E-15
  0.374700270811E-15
  0.499600361081E-15
  0.208166817117E-15
  0.464905891562E-15
  0.367761376907E-15
  0.506539254985E-15
  0.215105711021E-15
  0.222044604925E-15
  0.142247325030E-15
  0.371230823859E-15
  0.322658566532E-15
  0.478783679370E-15
  0.246330733589E-15
  0.465773253300E-15
  0.556412554920E-15
  0.381205483846E-15
 -0.867361737988E-17
  0.308780778724E-15
  0.740726924242E-15
  0.416333634234E-16
 -0.357353036051E-15
  0.294902990916E-15
  0.621031004400E-15
  0.534294830601E-15
 -0.419803081186E-15
 -0.732053306862E-15
 -0.492661467177E-15
 -0.902056207508E-15
 -0.187350135405E-15
 -0.131838984174E-15
 -0.353883589099E-15
  0.187350135405E-15
  0.228983498829E-15
  0.107552855511E-15
 -0.197758476261E-15
  0.319189119580E-15
  0.242861286637E-15
  0.222044604925E-15
 -0.201227923213E-15
  0.659194920871E-16
  0.593275428784E-15
 -0.121430643318E-15
  0.246330733589E-15
  0.936750677027E-16
 -0.336536354340E-15
 -0.242861286637E-15
  0.902056207508E-16
 -0.867361737988E-16
 -0.499600361081E-15
 -0.662664367823E-15
 -0.100960906302E-14
 -0.662664367823E-15
 -0.981853487403E-15
 -0.981853487403E-15
 -0.947159017883E-15
 -0.870831184940E-15
 -0.891647866652E-15
 -0.117614251671E-14
 -0.780625564190E-15
 -0.612357387020E-15
 -0.980118763927E-15
 -0.889913143176E-15
 -0.107119174642E-14
 -0.166186508999E-14
 -0.168094704822E-14
 -0.131838984174E-14
 -0.167921232475E-14
 -0.183533743758E-14
 -0.157512891619E-14
 -0.169309011255E-14
 -0.190819582357E-14
 -0.156819002228E-14
 -0.100613961607E-14
 -0.825728374565E-15
 -0.985322934355E-15
 -0.610622663544E-15
 -0.451028103754E-15
 -0.832667268469E-15
 -0.693889390391E-16
 -0.111022302463E-15
  0.124900090270E-15
 -0.416333634234E-16
  0.492661467177E-15
  0.437150315946E-15
  0.527355936697E-15
  0.395516952523E-15
  0.457966997658E-15
  0.520417042793E-15
  0.985322934355E-15
  0.593275428784E-15
  0.738992200766E-15
  0.634908792208E-15
  0.527355936697E-15
  0.438885039422E-15
  0.280157841370E-15
  0.221610924056E-15
  0.166967134563E-15
 -0.419803081186E-15
 -0.475314232418E-15
 -0.721644966006E-15
  0.294902990916E-15
 -0.267147415300E-15
  0.426741975090E-15
 -0.728583859910E-16
 -0.673072708679E-15
 -0.308780778724E-15
 -0.485722573274E-16
 -0.693889390391E-15
 -0.638378239159E-15
  0.353883589099E-15
  0.971445146547E-16
  0.166533453694E-15
  0.416333634234E-16
 -0.104083408559E-16
 -0.392047505571E-15
 -0.143288159116E-14
 -0.888178419700E-15
  0.464905891562E-15
  0.253269627493E-15
  0.336536354340E-15
 -0.124900090270E-15
 -0.856953397133E-15
  0.312250225676E-15
 -0.124900090270E-15
 -0.287964097012E-15
 -0.277555756156E-16
 -0.225514051877E-15
 -0.204697370165E-15
 -0.513478148889E-15
 -0.912464548364E-15
 -0.863892291036E-15
 -0.132185928869E-14
 -0.112063136548E-14
 -0.167574287779E-14
 -0.145716771982E-14
 -0.142594269725E-14
 -0.120042864538E-14
 -0.137043154602E-14
 -0.164104840827E-14
 -0.168962066560E-14
 -0.171911096469E-14
 -0.161676227961E-14
 -0.177787472244E-14
 -0.171217207079E-14
 -0.162023172656E-14
 -0.201054450866E-14
 -0.213024042850E-14
 -0.219615992059E-14
 -0.207819872422E-14
 -0.200187089128E-14
 -0.171390679427E-14
 -0.172084568817E-14
 -0.131145094784E-14
 -0.124206200880E-14
 -0.160982338571E-14
 -0.137390099297E-14
 -0.101307850997E-14
 -0.541233724505E-15
 -0.409394740331E-15
 -0.159594559790E-15
 -0.624500451352E-16
 -0.208166817117E-16
  0.388578058619E-15
  0.645317133063E-15
  0.582867087928E-15
  0.360822483003E-15
  0.777156117238E-15
  0.908995101412E-15
  0.110328413072E-14
  0.693889390391E-15
  0.985322934355E-15
  0.156125112838E-14
  0.929811783124E-15
  0.822258927613E-15
  0.765013052906E-15
  0.649653941753E-15
  0.544703171457E-15
  0.779758202452E-15
 -0.216840434497E-16
 -0.145716771982E-15
 -0.130104260698E-15
 -0.808381139805E-15
 -0.589805981832E-16
 -0.555111512313E-16
 -0.176941794550E-15
  0.194289029309E-15
 -0.402455846427E-15
  0.218575157973E-15
  0.190819582357E-15
 -0.242861286637E-15
 -0.423272528138E-15
 -0.541233724505E-15
 -0.374700270811E-15
 -0.392047505571E-15
 -0.111022302463E-15
 -0.166533453694E-15
 -0.784095011142E-15
 -0.638378239159E-15
  0.287964097012E-15
 -0.156125112838E-15
  0.322658566532E-15
  0.211636264069E-15
  0.568989300120E-15
  0.520417042793E-16
 -0.138777878078E-15
  0.246330733589E-15
  0.527355936697E-15
 -0.117961196366E-15
 -0.555111512313E-15
  0.170002900646E-15
 -0.114491749414E-15
 -0.631439345256E-15
 -0.808381139805E-15
 -0.870831184940E-15
 -0.711236625150E-15
 -0.103736463863E-14
 -0.108940634291E-14
 -0.988792381307E-15
 -0.158206781009E-14
 -0.114491749414E-14
 -0.143288159116E-14
 -0.137737043993E-14
 -0.160808866223E-14
 -0.197346479436E-14
 -0.177202003071E-14
 -0.179717352111E-14
 -0.153349555276E-14
 -0.186656246015E-14
 -0.185962356625E-14
 -0.136349265212E-14
 -0.158553725704E-14
 -0.130451205393E-14
 -0.136696209907E-14
 -0.131838984174E-14
 -0.971445146547E-15
 -0.617561557448E-15
 -0.825728374565E-15
 -0.492661467177E-15
 -0.145716771982E-15
 -0.104083408559E-15
 -0.187350135405E-15
 -0.208166817117E-16
  0.360822483003E-15
  0.624500451352E-16
  0.728583859910E-15
  0.791033905045E-15
  0.929811783124E-15
  0.492661467177E-15
  0.874300631892E-15
  0.100613961607E-14
  0.787564458093E-15
  0.101307850997E-14
  0.117614251671E-14
  0.124553145575E-14
  0.704297731247E-15
  0.967975699595E-15
  0.889913143176E-15
  0.839172481504E-15
  0.575928194024E-15
  0.237657116209E-15
  0.516947595841E-15
  0.728583859910E-16
 -0.523886489745E-15
 -0.721644966006E-15
 -0.145716771982E-15
 -0.232452945781E-15
 -0.246330733589E-15
  0.693889390391E-16
 -0.763278329430E-15
 -0.385108611667E-15
  0.971445146547E-16
  0.277555756156E-15
 -0.208166817117E-16
  0.548172618409E-15
  0.457966997658E-15
 -0.180411241502E-15
  0.409394740331E-15
  0.936750677027E-16
 -0.468375338514E-15
 -0.416333634234E-16
 -0.936750677027E-16
  0.326128013484E-15
 -0.423272528138E-15
 -0.194289029309E-15
  0.745931094670E-15
  0.194289029309E-15
  0.211636264069E-15
 -0.867361737988E-16
  0.208166817117E-16
 -0.381639164715E-16
 -0.208166817117E-15
  0.166533453694E-15
 -0.541233724505E-15
 -0.246330733589E-15
 -0.551642065361E-15
 -0.551642065361E-15
 -0.856953397133E-15
 -0.784095011142E-15
 -0.105471187339E-14
 -0.128022592527E-14
 -0.124900090270E-14
 -0.149706635977E-14
 -0.115445847326E-14
 -0.101004274389E-14
 -0.106490337382E-14
 -0.150920942410E-14
 -0.941954847455E-15
 -0.131838984174E-14
 -0.134267597041E-14
 -0.112757025938E-14
 -0.130451205393E-14
 -0.801442245901E-15
 -0.136696209907E-14
 -0.992261828259E-15
 -0.596744875736E-15
 -0.804911692853E-15
 -0.444089209850E-15
 -0.305311331772E-15
  0.693889390391E-16
 -0.499600361081E-15
 -0.353883589099E-15
  0.152655665886E-15
  0.319189119580E-15
  0.416333634234E-15
  0.228983498829E-15
  0.686950496487E-15
  0.104083408559E-14
  0.756339435526E-15
  0.132532873565E-14
  0.117267306976E-14
  0.113103970634E-14
  0.117961196366E-14
  0.117614251671E-14
  0.151614831800E-14
  0.122818422099E-14
  0.109114106639E-14
  0.115532583500E-14
  0.111976400374E-14
  0.106121708643E-14
  0.892515228390E-15
  0.930679144862E-15
  0.967975699595E-15
  0.678276879107E-15
  0.902056207508E-15
  0.711236625150E-15
 -0.659194920871E-16
  0.655725473919E-15
  0.180411241502E-15
  0.326128013484E-15
  0.804911692853E-15
  0.121430643318E-15
 -0.555111512313E-16
  0.117961196366E-15
  0.582867087928E-15
  0.485722573274E-16
  0.138777878078E-15
  0.208166817117E-15
  0.135308431126E-15
  0.215105711021E-15
 -0.659194920871E-16
  0.208166817117E-15
 -0.346944695195E-16
  0.336536354340E-15
  0.131838984174E-15
  0.333066907388E-15
 -0.693889390391E-17
  0.360822483003E-15
 -0.832667268469E-16
 -0.145716771982E-15
  0.485722573274E-16
 -0.260208521397E-15
 -0.156125112838E-15
 -0.287964097012E-15
 -0.222044604925E-15
 -0.624500451352E-15
 -0.728583859910E-15
 -0.593275428784E-15
 -0.112410081243E-14
 -0.992261828259E-15
 -0.108940634291E-14
 -0.766747776382E-15
 -0.938485400503E-15
 -0.123512311490E-14
 -0.118481613409E-14
 -0.145022882592E-14
 -0.136999786515E-14
 -0.138691141904E-14
 -0.106165076730E-14
 -0.114838694110E-14
 -0.123859256185E-14
 -0.129757316003E-14
 -0.139471767469E-14
 -0.110328413072E-14
 -0.136002320517E-14
 -0.147798440153E-14
 -0.115879528195E-14
 -0.111022302463E-14
 -0.971445146547E-15
 -0.270616862252E-15
 -0.101307850997E-14
 -0.235922392733E-15
 -0.222044604925E-15
 -0.131838984174E-15
 -0.201227923213E-15
  0.215105711021E-15
  0.360822483003E-15
  0.520417042793E-15
  0.693889390391E-15
  0.978384040451E-15
  0.756339435526E-15
  0.108940634291E-14
  0.108246744901E-14
  0.106512021425E-14
  0.103389519168E-14
  0.151961776496E-14
  0.124900090270E-14
  0.134961486431E-14
  0.120042864538E-14
  0.961904167429E-15
  0.103064258516E-14
  0.812717948495E-15
  0.102348685083E-14
  0.846545056277E-15
  0.103909936211E-14
  0.673072708679E-15
  0.777156117238E-15
  0.267147415300E-15
  0.853483950181E-15
  0.381639164715E-15
  0.957567358739E-15
  0.568989300120E-15
  0.690419943439E-15
  0.735522753814E-15
 -0.235922392733E-15
  0.582867087928E-15
  0.211636264069E-15
  0.617561557448E-15
  0.405925293379E-15
 -0.832667268469E-16
  0.263677968348E-15
 -0.128369537222E-15
  0.350414142147E-15
  0.312250225676E-15
  0.253269627493E-15
 -0.104083408559E-15
  0.510008701937E-15
 -0.346944695195E-17
  0.242861286637E-16
  0.832667268469E-16
  0.704297731247E-15
  0.624500451352E-16
 -0.485722573274E-16
 -0.416333634234E-16
 -0.104083408559E-16
 -0.211636264069E-15
 -0.416333634234E-15
 -0.593275428784E-15
 -0.555111512313E-15
 -0.222044604925E-15
 -0.360822483003E-15
 -0.593275428784E-15
 -0.115879528195E-14
 -0.126287869051E-14
 -0.132012456522E-14
 -0.125680715835E-14
 -0.121170434797E-14
 -0.177722420114E-14
 -0.146844342241E-14
 -0.121604115666E-14
 -0.128196064875E-14
 -0.122818422099E-14
 -0.105818132035E-14
 -0.123512311490E-14
 -0.138777878078E-14
 -0.124900090270E-14
 -0.957567358739E-15
 -0.680011602583E-15
 -0.999200722163E-15
 -0.707767178199E-15
 -0.797972798949E-15
 -0.492661467177E-15
 -0.784095011142E-15
 -0.853483950181E-15
 -0.610622663544E-15
 -0.534294830601E-15
  0.235922392733E-15
 -0.763278329430E-16
 -0.353883589099E-15
  0.693889390391E-17
  0.367761376907E-15
  0.215105711021E-15
  0.360822483003E-15
  0.735522753814E-15
  0.936750677027E-15
  0.804911692853E-15
  0.898586760556E-15
  0.940220123979E-15
  0.101828268040E-14
  0.120389809233E-14
  0.802309607639E-15