# vtk DataFile Version 3.0
MachLine results file. Generated by MachLine, USU AeroLab (c) 2022.
ASCII
DATASET POLYDATA
POINTS                1191 float
  0.999999612964E+00 -0.000000000000E+00 -0.299629940957E-22
  0.965617049477E+00 -0.503720627990E+00 -0.394924574474E-02
  0.999999602301E+00 -0.503720627990E+00  0.538797267559E-22
  0.965617053137E+00 -0.000000000000E+00 -0.394927838106E-02
  0.905490011310E+00 -0.503720627990E+00 -0.105273934301E-01
  0.905490014666E+00 -0.000000000000E+00 -0.105274253670E-01
  0.807861705894E+00 -0.503720627990E+00 -0.203682073873E-01
  0.807861708818E+00 -0.000000000000E+00 -0.203682384041E-01
  0.666965273087E+00 -0.503720627990E+00 -0.327302572312E-01
  0.666965275482E+00 -0.000000000000E+00 -0.327302881751E-01
  0.494699888275E+00 -0.503720627990E+00 -0.442888555670E-01
  0.494699892330E+00 -0.000000000000E+00 -0.442889369061E-01
  0.322148055350E+00 -0.000000000000E+00 -0.499216409056E-01
  0.322148055191E+00 -0.503720627990E+00 -0.499216098701E-01
  0.180771107237E+00 -0.000000000000E+00 -0.467579117927E-01
  0.180771109224E+00 -0.503720627990E+00 -0.467578807019E-01
  0.832332263738E-01 -0.000000000000E+00 -0.364524726248E-01
  0.832332319973E-01 -0.503720627990E+00 -0.364524410088E-01
  0.246818237436E-01 -0.000000000000E+00 -0.217019277690E-01
  0.246818390179E-01 -0.503720627990E+00 -0.217018987155E-01
  0.386542488993E-06 -0.000000000000E+00  0.000000000000E+00
  0.397085149218E-06 -0.503720627990E+00  0.000000000000E+00
  0.246818390179E-01 -0.503720627990E+00  0.217018987155E-01
  0.246818237436E-01 -0.000000000000E+00  0.217019277690E-01
  0.832332319973E-01 -0.503720627990E+00  0.364524410088E-01
  0.832332263738E-01 -0.000000000000E+00  0.364524726248E-01
  0.180771109224E+00 -0.503720627990E+00  0.467578807019E-01
  0.180771107237E+00 -0.000000000000E+00  0.467579117927E-01
  0.322148055191E+00 -0.503720627990E+00  0.499216098701E-01
  0.322148055350E+00 -0.000000000000E+00  0.499216409056E-01
  0.494699888275E+00 -0.503720627990E+00  0.442888555670E-01
  0.494699892330E+00 -0.000000000000E+00  0.442889369061E-01
  0.666965275482E+00 -0.000000000000E+00  0.327302881751E-01
  0.666965273087E+00 -0.503720627990E+00  0.327302572312E-01
  0.807861708818E+00 -0.000000000000E+00  0.203682384041E-01
  0.807861705894E+00 -0.503720627990E+00  0.203682073873E-01
  0.905490014666E+00 -0.000000000000E+00  0.105274253670E-01
  0.905490011310E+00 -0.503720627990E+00  0.105273934301E-01
  0.965617053137E+00 -0.000000000000E+00  0.394927838106E-02
  0.965617049477E+00 -0.503720627990E+00  0.394924574474E-02
  0.965617044026E+00 -0.110747748820E+01 -0.394919713954E-02
  0.999999562203E+00 -0.110747748820E+01 -0.593122772200E-22
  0.905490006211E+00 -0.110747748820E+01 -0.105273449121E-01
  0.807861701340E+00 -0.110747748820E+01 -0.203681590722E-01
  0.666965269368E+00 -0.110747748820E+01 -0.327302091992E-01
  0.494699885471E+00 -0.110747748820E+01 -0.442887993241E-01
  0.322148054944E+00 -0.110747748820E+01 -0.499215616949E-01
  0.180771112319E+00 -0.110747748820E+01 -0.467578322712E-01
  0.832332405407E-01 -0.110747748820E+01 -0.364523929769E-01
  0.246818617792E-01 -0.110747748820E+01 -0.217018554210E-01
  0.437186376405E-06 -0.110747748820E+01  0.000000000000E+00
  0.246818617792E-01 -0.110747748820E+01  0.217018554210E-01
  0.832332405407E-01 -0.110747748820E+01  0.364523929769E-01
  0.180771112319E+00 -0.110747748820E+01  0.467578322712E-01
  0.322148054944E+00 -0.110747748820E+01  0.499215616949E-01
  0.494699885471E+00 -0.110747748820E+01  0.442887993241E-01
  0.666965269368E+00 -0.110747748820E+01  0.327302091992E-01
  0.807861701340E+00 -0.110747748820E+01  0.203681590722E-01
  0.905490006211E+00 -0.110747748820E+01  0.105273449121E-01
  0.965617044026E+00 -0.110747748820E+01  0.394919713954E-02
  0.965617043216E+00 -0.175813428970E+01 -0.394918991016E-02
  0.999999566922E+00 -0.175813428970E+01  0.502910833834E-22
  0.905490005450E+00 -0.175813428970E+01 -0.105273376716E-01
  0.807861700657E+00 -0.175813428970E+01 -0.203681518313E-01
  0.666965268811E+00 -0.175813428970E+01 -0.327302019994E-01
  0.494699884540E+00 -0.175813428970E+01 -0.442887806413E-01
  0.322148054907E+00 -0.175813428970E+01 -0.499215544735E-01
  0.180771112783E+00 -0.175813428970E+01 -0.467578250129E-01
  0.832332418156E-01 -0.175813428970E+01 -0.364523858090E-01
  0.246818651650E-01 -0.175813428970E+01 -0.217018489809E-01
  0.432466009363E-06 -0.175813428970E+01  0.000000000000E+00
  0.246818651650E-01 -0.175813428970E+01  0.217018489809E-01
  0.832332418156E-01 -0.175813428970E+01  0.364523858090E-01
  0.180771112783E+00 -0.175813428970E+01  0.467578250129E-01
  0.322148054907E+00 -0.175813428970E+01  0.499215544735E-01
  0.494699884540E+00 -0.175813428970E+01  0.442887806413E-01
  0.666965268811E+00 -0.175813428970E+01  0.327302019994E-01
  0.807861700657E+00 -0.175813428970E+01  0.203681518313E-01
  0.905490005450E+00 -0.175813428970E+01  0.105273376716E-01
  0.965617043216E+00 -0.175813428970E+01  0.394918991016E-02
  0.965617047362E+00 -0.238369488720E+01 -0.394922688111E-02
  0.999999614435E+00 -0.238369488720E+01 -0.223868063397E-22
  0.905490009324E+00 -0.238369488720E+01 -0.105273745344E-01
  0.807861704113E+00 -0.238369488720E+01 -0.203681884960E-01
  0.666965271635E+00 -0.238369488720E+01 -0.327302384781E-01
  0.494699885870E+00 -0.238369488720E+01 -0.442888073265E-01
  0.322148055094E+00 -0.238369488720E+01 -0.499215910610E-01
  0.180771110434E+00 -0.238369488720E+01 -0.467578617654E-01
  0.832332353246E-01 -0.238369488720E+01 -0.364524223022E-01
  0.246818478526E-01 -0.238369488720E+01 -0.217018819110E-01
  0.384947657420E-06 -0.238369488720E+01  0.000000000000E+00
  0.246818478526E-01 -0.238369488720E+01  0.217018819110E-01
  0.832332353246E-01 -0.238369488720E+01  0.364524223022E-01
  0.180771110434E+00 -0.238369488720E+01  0.467578617654E-01
  0.322148055094E+00 -0.238369488720E+01  0.499215910610E-01
  0.494699885870E+00 -0.238369488720E+01  0.442888073265E-01
  0.666965271635E+00 -0.238369488720E+01  0.327302384781E-01
  0.807861704113E+00 -0.238369488720E+01  0.203681884960E-01
  0.905490009324E+00 -0.238369488720E+01  0.105273745344E-01
  0.965617047362E+00 -0.238369488720E+01  0.394922688111E-02
  0.965617054909E+00 -0.292249171970E+01 -0.394929418870E-02
  0.999999687277E+00 -0.292249171970E+01  0.423673975050E-22
  0.905490016372E+00 -0.292249171970E+01 -0.105274415972E-01
  0.807861710392E+00 -0.292249171970E+01 -0.203682551044E-01
  0.666965276755E+00 -0.292249171970E+01 -0.327303046163E-01
  0.494699888941E+00 -0.292249171970E+01 -0.442888689269E-01
  0.322148055435E+00 -0.292249171970E+01 -0.499216573965E-01
  0.180771106167E+00 -0.292249171970E+01 -0.467579285333E-01
  0.832332235158E-01 -0.292249171970E+01 -0.364524886930E-01
  0.246818163338E-01 -0.292249171970E+01 -0.217019418631E-01
  0.312096109922E-06 -0.292249171970E+01  0.000000000000E+00
  0.246818163338E-01 -0.292249171970E+01  0.217019418631E-01
  0.832332235158E-01 -0.292249171970E+01  0.364524886930E-01
  0.180771106167E+00 -0.292249171970E+01  0.467579285333E-01
  0.322148055435E+00 -0.292249171970E+01  0.499216573965E-01
  0.494699888941E+00 -0.292249171970E+01  0.442888689269E-01
  0.666965276755E+00 -0.292249171970E+01  0.327303046163E-01
  0.807861710392E+00 -0.292249171970E+01  0.203682551044E-01
  0.905490016372E+00 -0.292249171970E+01  0.105274415972E-01
  0.965617054909E+00 -0.292249171970E+01  0.394929418870E-02
  0.965617063512E+00 -0.334432208550E+01 -0.394937090574E-02
  0.999999764384E+00 -0.334432208550E+01 -0.273607918993E-22
  0.905490024387E+00 -0.334432208550E+01 -0.105275178592E-01
  0.807861717504E+00 -0.334432208550E+01 -0.203683305521E-01
  0.666965282529E+00 -0.334432208550E+01 -0.327303792133E-01
  0.494699892697E+00 -0.334432208550E+01 -0.442889442541E-01
  0.322148055818E+00 -0.334432208550E+01 -0.499217322161E-01
  0.180771101334E+00 -0.334432208550E+01 -0.467580041619E-01
  0.832332100871E-01 -0.334432208550E+01 -0.364525641912E-01
  0.246817804077E-01 -0.334432208550E+01 -0.217020101986E-01
  0.234970998803E-06 -0.334432208550E+01  0.000000000000E+00
  0.246817804077E-01 -0.334432208550E+01  0.217020101986E-01
  0.832332100871E-01 -0.334432208550E+01  0.364525641912E-01
  0.180771101334E+00 -0.334432208550E+01  0.467580041619E-01
  0.322148055818E+00 -0.334432208550E+01  0.499217322161E-01
  0.494699892697E+00 -0.334432208550E+01  0.442889442541E-01
  0.666965282529E+00 -0.334432208550E+01  0.327303792133E-01
  0.807861717504E+00 -0.334432208550E+01  0.203683305521E-01
  0.905490024387E+00 -0.334432208550E+01  0.105275178592E-01
  0.965617063512E+00 -0.334432208550E+01  0.394937090574E-02
  0.965617071309E+00 -0.365057098370E+01 -0.394944043538E-02
  0.999999831297E+00 -0.365057098370E+01 -0.261207362855E-22
  0.905490031615E+00 -0.365057098370E+01 -0.105275866315E-01
  0.807861723867E+00 -0.365057098370E+01 -0.203683980553E-01
  0.666965287655E+00 -0.365057098370E+01 -0.327304454260E-01
  0.494699896182E+00 -0.365057098370E+01 -0.442890141556E-01
  0.322148056159E+00 -0.365057098370E+01 -0.499217986266E-01
  0.180771097009E+00 -0.365057098370E+01 -0.467580718274E-01
  0.832331979770E-01 -0.365057098370E+01 -0.364526322754E-01
  0.246817478451E-01 -0.365057098370E+01 -0.217020721361E-01
  0.168029713973E-06 -0.365057098370E+01  0.000000000000E+00
  0.246817478451E-01 -0.365057098370E+01  0.217020721361E-01
  0.832331979770E-01 -0.365057098370E+01  0.364526322754E-01
  0.180771097009E+00 -0.365057098370E+01  0.467580718274E-01
  0.322148056159E+00 -0.365057098370E+01  0.499217986266E-01
  0.494699896182E+00 -0.365057098370E+01  0.442890141556E-01
  0.666965287655E+00 -0.365057098370E+01  0.327304454260E-01
  0.807861723867E+00 -0.365057098370E+01  0.203683980553E-01
  0.905490031615E+00 -0.365057098370E+01  0.105275866315E-01
  0.965617071309E+00 -0.365057098370E+01  0.394944043538E-02
  0.965617077428E+00 -0.386093553560E+01 -0.394949499818E-02
[...]
POINT_DATA                1191
SCALARS phi float 1
LOOKUP_TABLE default
  0.119348975147E-14
 -0.376781938982E-14
 -0.214411821631E-14
 -0.135308431126E-14
  0.169794733829E-13
 -0.206779038336E-14
  0.100822128424E-13
  0.562050406216E-15
  0.336536354340E-15
 -0.232106001086E-14
 -0.838044911244E-14
  0.485202156231E-14
  0.144502465549E-14
 -0.668562427641E-14
 -0.816360867795E-14
 -0.325781068788E-14
 -0.222044604925E-14
  0.529437604868E-14
  0.361516372394E-14
  0.192207361138E-14
 -0.582173198538E-14
  0.105471187339E-14
  0.583560977319E-14
  0.101307850997E-14
 -0.117961196366E-15
 -0.700828284295E-15
  0.151614831800E-14
 -0.283106871279E-14
  0.268426773864E-14
  0.268882138776E-15
 -0.587377368966E-14
  0.210248485288E-14
 -0.201227923213E-14
 -0.721644966006E-14
 -0.548172618409E-15
 -0.583560977319E-14
 -0.437150315946E-15
 -0.109287578987E-13
  0.282412981889E-14
 -0.151267887105E-14
 -0.491273688397E-14
  0.145022882592E-13
  0.430211422042E-14
 -0.153418944215E-13
 -0.368455266297E-14
  0.991220994173E-14
  0.112843762112E-13
  0.122124532709E-14
 -0.742461647718E-15
  0.766747776382E-14
 -0.809075029196E-14
 -0.133920652345E-14
  0.298372437868E-15
 -0.628663787694E-14
  0.779107681148E-15
 -0.103042574473E-14
 -0.201227923213E-15
  0.128994037674E-13
 -0.653643805748E-14
  0.239391839685E-14
 -0.208166817117E-16
 -0.152655665886E-13
 -0.189709359333E-13
  0.772992780895E-14
  0.299413271954E-14
 -0.487283824402E-14
 -0.909168573759E-14
 -0.124830701331E-13
 -0.723726634178E-14
 -0.446864767412E-14
  0.321964677141E-14
  0.430905311433E-14
  0.908995101412E-14
  0.471150896075E-14
  0.129713947916E-14
  0.429864477347E-14
 -0.219269047363E-14
 -0.194705362944E-13
  0.112410081243E-13
  0.534294830601E-14
 -0.949240686055E-14
  0.121916365892E-13
 -0.838912272982E-14
  0.980465708622E-14
  0.967975699595E-14
  0.508273978461E-15
  0.281545620151E-14
 -0.118793863635E-13
 -0.836830604811E-14
  0.631439345256E-15
  0.986710713136E-14
  0.644623243673E-14
  0.568295410730E-14
  0.104950770297E-13
 -0.199753408259E-14
 -0.254657406273E-14
 -0.153141388459E-13
 -0.148284162726E-13
  0.772992780895E-14
 -0.138777878078E-14
  0.489885909616E-14
 -0.209068873325E-13
 -0.222044604925E-14
 -0.693889390391E-17
 -0.163064006742E-15
  0.726675664087E-14
 -0.919403442268E-15
  0.527702881392E-14
 -0.550254286580E-14
 -0.402455846427E-14
 -0.326821902874E-14
  0.130867539028E-13
  0.638378239159E-14
  0.104187491967E-13
  0.105766090330E-13
 -0.972139035937E-14
 -0.168962066560E-14
 -0.451721993144E-14
  0.453109771925E-14
 -0.586336534880E-14
 -0.113450915329E-13
  0.508065811644E-13
 -0.691113832829E-14
  0.963812363253E-14
  0.127710342301E-13
 -0.105644659687E-14
 -0.673072708679E-14
 -0.292474378050E-14
 -0.111716191853E-13
 -0.173472347598E-15
 -0.228289609439E-14
  0.718869408445E-14
  0.245636844198E-14
  0.125455201783E-13
  0.281892564846E-14
 -0.711410097498E-14
 -0.212087292173E-13
 -0.165076285974E-13
 -0.411476408502E-14
  0.169655955951E-13
 -0.146341272433E-13
 -0.477395900589E-14
 -0.621724893790E-14
  0.145994327738E-13
  0.813238365538E-14
  0.284494650060E-14
 -0.608887940068E-14
 -0.101238462058E-13
 -0.804911692853E-15
 -0.662664367823E-14
 -0.264371857739E-14
  0.148492329544E-14
  0.812544476148E-14
  0.846892000972E-14
 -0.281025203108E-15
  0.390486254442E-14
 -0.141345268823E-13
 -0.630051566475E-14
  0.102556851900E-13
  0.147798440153E-13
 -0.111646802914E-13
  0.598340821334E-13
  0.336883299035E-14
 -0.971445146547E-16
  0.570377078901E-14
 -0.217013906845E-14
 -0.114318277067E-14
 -0.546784839628E-14
 -0.768135555163E-14
 -0.811156697367E-14
 -0.372618602640E-14
 -0.208166817117E-14
  0.862504512256E-14
  0.414598910758E-14
 -0.204350425470E-14
  0.125090909853E-13
  0.201227923213E-15
  0.981853487403E-15
 -0.625888230132E-14
  0.292127433354E-14
 -0.964506252643E-15
 -0.409394740331E-15
 -0.355618312575E-14
 -0.136349265212E-14
 -0.308780778724E-15
 -0.223562487967E-14
 -0.990006687740E-14
  0.520417042793E-15
  0.340005801291E-15
 -0.200534033823E-14
  0.106858966120E-14
  0.471844785466E-15
  0.199146255042E-14
  0.447558656802E-14
  0.357092827530E-14
  0.595010152260E-15
 -0.659194920871E-16
  0.832667268469E-15
 -0.346944695195E-17
 -0.149186218934E-14
 -0.360822483003E-15
 -0.209554595898E-14
 -0.100960906302E-14
  0.584601811404E-15
 -0.274346517726E-14
 -0.559795265698E-14
  0.822258927613E-15
  0.239044894990E-14
 -0.117961196366E-15
  0.287270207622E-14
  0.114144804719E-14
 -0.655725473919E-15
  0.136956418428E-14
  0.359001023353E-14
  0.617561557448E-15
 -0.135308431126E-15
 -0.125940924356E-14
 -0.645317133063E-15
  0.513478148889E-15
 -0.610622663544E-15
 -0.249800180541E-15
  0.155778168143E-14
 -0.206345357467E-14
 -0.456232274182E-14
  0.128716481917E-14
  0.186309301320E-14
  0.131145094784E-14
  0.383026943496E-14
 -0.461436444610E-15
 -0.218575157973E-15
  0.170263109167E-14
  0.391787297049E-14
 -0.926342336172E-15
  0.551642065361E-15
 -0.202268757299E-14
 -0.395516952523E-15
  0.132532873565E-14
 -0.832667268469E-15
 -0.482253126322E-15
  0.132185928869E-14
 -0.116204788847E-14
 -0.312250225676E-14
  0.154043444667E-14
  0.527355936697E-15
  0.402455846427E-15
  0.237310171514E-14
 -0.149533163629E-14
  0.759808882478E-15
  0.216146545107E-14
  0.361863317089E-14
 -0.162890534394E-14
 -0.797972798949E-16
 -0.129757316003E-14
  0.145716771982E-15
  0.166533453694E-14
 -0.149186218934E-14
 -0.999200722163E-15
  0.164104840827E-14
 -0.891214185783E-16
 -0.152135248843E-14
  0.210595429984E-14
  0.867361737988E-16
 -0.199840144433E-14
 -0.756339435526E-15
 -0.173819292293E-14
  0.132532873565E-14
  0.190212429141E-14
  0.339311911901E-14
 -0.758074159002E-15
 -0.167227343084E-14
 -0.102695629778E-14
  0.697358837343E-15
  0.110675357767E-14
 -0.225514051877E-14
 -0.221003770839E-14
  0.140512601554E-14
 -0.224213009270E-15
 -0.110501885420E-14
  0.200534033823E-14
 -0.485722573274E-16
 -0.378169717763E-14
 -0.326128013484E-14
 -0.133573707650E-14
  0.118308141062E-14
  0.594142790522E-15
  0.194158925049E-14
 -0.190819582357E-15
 -0.236963226818E-14
 -0.122818422099E-14
  0.614092110496E-15
  0.718175519054E-15
 -0.215105711021E-14
 -0.286576318231E-14
  0.610622663544E-15
  0.139211558947E-15
 -0.608887940068E-15
  0.144328993201E-14
 -0.596744875736E-15
 -0.458660887048E-14
  0.296984659087E-14
 -0.419109191796E-14
 -0.195676808090E-14
  0.250494069931E-14
  0.233146835171E-14
 -0.825034485175E-14
 -0.777850006628E-14
 -0.387537224533E-14
  0.413002423059E-14
 -0.141275879884E-13
  0.820177259442E-14
 -0.479458595222E-14
  0.100960906302E-13
  0.612704331715E-14
 -0.145959633269E-13
 -0.143218770177E-13
  0.588418203051E-14
 -0.308433834029E-14
 -0.111924358670E-13
 -0.507233144376E-14
  0.128577704039E-13
 -0.631092400560E-14
  0.265065747129E-14
 -0.695277169172E-14
 -0.534641775296E-14
 -0.410782519111E-14
 -0.159594559790E-15
  0.711236625150E-14
 -0.695624113867E-14
 -0.665637792281E-14
 -0.669603261727E-14
 -0.715399961493E-14
 -0.512090370108E-14
  0.311556336285E-14
  0.458660887048E-14
  0.131838984174E-14
  0.102765018717E-13
  0.954791801178E-14
 -0.828503932127E-14
 -0.485028683883E-14
 -0.334454686168E-14
  0.251881848712E-14
  0.507233144376E-14
  0.420496970577E-14
 -0.205564731903E-14
  0.359434704222E-14
 -0.201921812604E-14
  0.497345220563E-14
  0.341393580072E-14
  0.513478148889E-14
  0.341415264116E-14
 -0.575928194024E-15
  0.228983498829E-14
 -0.478436734674E-14
  0.620337115009E-14
  0.385629028710E-14
  0.698052726733E-14
  0.461436444610E-14
  0.132185928869E-14
  0.971445146547E-15
  0.617561557448E-15
 -0.800748356511E-14
  0.375394160201E-14
  0.156125112838E-14
 -0.195329863395E-14
 -0.293515212135E-14
 -0.135447209004E-13
  0.371924713249E-14
 -0.868749516769E-14
  0.262984078958E-14
  0.149741330446E-13
  0.783401121751E-14
 -0.630745455865E-14
 -0.539845945724E-14
 -0.361516372394E-14
 -0.313638004457E-14
  0.880545636406E-14
  0.191721638565E-13
  0.460048665829E-14
 -0.218922102668E-14
 -0.127918509119E-13
 -0.266106581215E-14
 -0.931199561904E-14
  0.881239525796E-15
  0.641327269069E-14
 -0.346944695195E-14
  0.191513471748E-14
  0.509835229590E-14
 -0.125698063069E-13
  0.931199561904E-14
  0.587030424271E-14
 -0.564825963778E-14
 -0.471844785466E-14
 -0.132463484626E-13
  0.101211899105E-13
  0.872912853112E-14
  0.693195501000E-14
  0.410495205536E-14
  0.198313587774E-13
  0.727196081129E-14
  0.102001740387E-13
 -0.204003480775E-14
  0.540539835114E-14
 -0.242167397246E-14
 -0.436456426556E-14
 -0.305311331772E-15
  0.222946661133E-13
  0.451028103754E-15
 -0.698746616123E-14
 -0.111091691402E-13
 -0.152274026721E-13
 -0.238697950294E-14
 -0.115463194561E-13
  0.874647576588E-14
  0.103111963412E-13
  0.158900670399E-14
 -0.423619472834E-14
  0.881239525796E-15
 -0.724420523568E-14
 -0.450854631406E-14
  0.185684800869E-13
  0.681746326059E-14
 -0.954097911787E-15
  0.121569421196E-13
 -0.102903796595E-13
  0.120112253477E-13
 -0.725114412958E-14
  0.838912272982E-14
 -0.165562008547E-13
 -0.536896915815E-14
 -0.109565134743E-13
  0.557887069874E-14
  0.629357677084E-14
 -0.367761376907E-14
 -0.109946773907E-13
 -0.639072128550E-14
  0.118169363184E-13
  0.587724313661E-14
  0.673072708679E-14
  0.147382106519E-13
  0.164521174462E-13
  0.180411241502E-15
  0.564479019083E-14
  0.564825963778E-14
  0.523886489745E-14
  0.437150315946E-14
  0.540539835114E-14
  0.221350715535E-14
  0.709154956979E-14
 -0.192762472651E-13
 -0.641847686111E-14
  0.305831748815E-14
 -0.342781358853E-14
  0.118655085757E-13
  0.291433543964E-15
 -0.663358257214E-14
 -0.573174320506E-14
  0.243078127071E-15
  0.499600361081E-14
  0.203309591384E-14
  0.287270207622E-14
  0.646011022454E-14
 -0.134545152797E-13
 -0.254310461578E-14
  0.435762537165E-14
 -0.415639744844E-14
 -0.102834407656E-13
 -0.822258927613E-14
  0.185962356625E-14
 -0.275821032680E-14
  0.209554595898E-14
 -0.725114412958E-14
 -0.486416462664E-14
 -0.105332409461E-13
  0.832667268469E-16
 -0.990787313304E-14
 -0.217881268583E-14
 -0.125593979661E-14
 -0.945250822060E-14
  0.874994521283E-14
  0.533947885906E-14
  0.595010152260E-15
  0.109287578987E-14
  0.378169717763E-14
  0.423272528138E-15
 -0.433680868994E-14
 -0.746624984060E-14
 -0.281025203108E-14
 -0.190125692967E-14
  0.914546216535E-14
  0.348332473976E-14
 -0.861810622865E-14
  0.297678548478E-13
  0.767788610467E-14
  0.104777297949E-13
  0.181105130892E-14
  0.136002320517E-13
  0.374006381421E-14
  0.379557496544E-14
 -0.176317294098E-13
  0.124900090270E-15
  0.490926743701E-14
  0.697358837343E-14
 -0.129063426613E-14
  0.897198981775E-14
 -0.209623984837E-13
  0.963118473862E-14
  0.540539835114E-14
 -0.106650799303E-13
  0.395516952523E-14
 -0.113554998737E-13
 -0.112375386774E-13
 -0.103389519168E-13
  0.853137005485E-14
 -0.233493779866E-13
 -0.932587340685E-14
 -0.531866217734E-14
  0.122228616117E-13
 -0.174374403805E-13
 -0.784691322336E-15
 -0.104083408559E-15
 -0.628316842999E-14
 -0.133990041284E-13
  0.555111512313E-16
  0.603683769640E-15
  0.305311331772E-14
  0.985669879050E-14
  0.104707909010E-13
  0.578009862195E-14
  0.114630527293E-13
  0.100718045015E-13
 -0.872912853112E-14
  0.117406084854E-13
  0.539152056334E-14
  0.527995615979E-14
 -0.381639164715E-14
 -0.144328993201E-14
  0.153657468693E-13
  0.879157857625E-14
  0.244942954808E-14
  0.189206289525E-13
 -0.183880688454E-15
  0.143877965098E-13
 -0.386496390448E-14
 -0.972139035937E-14
  0.948546796664E-14
 -0.573499581158E-14
  0.344169137634E-14
  0.806299471634E-14
  0.132185928869E-13
 -0.128716481917E-13
  0.382159581758E-14
  0.128647092978E-13
 -0.142733047603E-13
  0.113659082146E-13
 -0.364638874650E-14
  0.558580959265E-14
 -0.745237205280E-14
 -0.589805981832E-15
 -0.850881864967E-14
 -0.555111512313E-15
 -0.215105711021E-14
  0.117891807427E-13
  0.975608482889E-14
  0.512090370108E-14
  0.797278909559E-14
 -0.588071258356E-15
  0.684521883620E-14
 -0.142941214420E-14
  0.183880688454E-14
 -0.844463388106E-14
  0.578356806891E-14
  0.506018837942E-14
 -0.231412111695E-13
  0.697011892647E-14
 -0.207819872422E-14
 -0.173749903354E-13
  0.120042864538E-14
 -0.532213162430E-14
 -0.478089789979E-14
 -0.367067487517E-14
 -0.110328413072E-13
 -0.883321193967E-14
 -0.100544572668E-13
  0.187350135405E-14
 -0.456232274182E-14
 -0.106581410364E-13
 -0.248412401760E-14
  0.401068067646E-14
  0.179684826046E-14
  0.128161370405E-13
 -0.156125112838E-15
 -0.544703171457E-14
 -0.608887940068E-14
 -0.531302432605E-14
  0.100960906302E-13
 -0.676021738588E-14
 -0.112410081243E-13
  0.592234594698E-14
 -0.180792880666E-13
 -0.751482209793E-14
 -0.148249468257E-13
  0.168771246978E-13
 -0.342781358853E-14
  0.181799020282E-14
 -0.209381123550E-14
 -0.927036225562E-14
  0.485722573274E-15
 -0.794156407302E-14
  0.990874049478E-14
 -0.201089145335E-13
 -0.418415302406E-14
  0.129861399412E-13
  0.151753609678E-13
  0.600908212078E-14
 -0.129826704942E-13
 -0.657113252700E-14
  0.349720252757E-14
  0.260694243970E-13
  0.714706072102E-15
  0.162023172656E-13
  0.205738204251E-14
 -0.617561557448E-15
  0.140165656859E-14
  0.110918219054E-13
 -0.693368973348E-14
  0.357977536503E-13
 -0.138153377627E-13
  0.901362318118E-14
  0.106477326955E-13
 -0.363251095870E-14
  0.779584730104E-14
 -0.221524187882E-14
 -0.111993747609E-13
  0.918015663487E-14
 -0.972832925328E-14
 -0.141206490945E-13
  0.266453525910E-14
 -0.554417622922E-14
 -0.154737334057E-14
 -0.558797799699E-14
 -0.558580959265E-15
 -0.616173778667E-14
 -0.391353616180E-14
  0.881239525796E-15
 -0.826422263955E-14
  0.415639744844E-14
  0.114491749414E-14
 -0.805605582244E-14
 -0.116226472890E-14
 -0.622418783180E-14
  0.457966997658E-14
  0.120077559007E-13
  0.305311331772E-15
  0.587724313661E-14
  0.391353616180E-14
  0.102730324247E-13
  0.156992474576E-13
  0.103632380455E-13
  0.803870858768E-14
  0.148492329544E-14
  0.103311456612E-13
 -0.149984191733E-13
  0.435068647775E-14
  0.261856508699E-14
  0.440619762898E-14
  0.664052146604E-14
 -0.167227343084E-14
 -0.247024622979E-14
 -0.129410371308E-13
 -0.191652249626E-13
  0.131353261601E-13
  0.231759056391E-14
  0.895117313604E-15
  0.201297312152E-13
  0.834055047250E-14
 -0.568989300120E-14
  0.289351875793E-13
  0.101984393153E-13
 -0.145716771982E-13
 -0.117059140159E-13
  0.107552855511E-14
 -0.190472637662E-14
  0.131665511827E-13
  0.944036515627E-14
 -0.135585986882E-13
 -0.854524784266E-14
  0.152794443764E-13
 -0.183256188002E-13
  0.489330798104E-13
 -0.529090660173E-14
 -0.134831382170E-14
  0.684868828316E-14
 -0.906566488545E-14
 -0.922525944524E-14
 -0.981853487403E-14
  0.591020288265E-14
  0.120736753928E-13
 -0.796585020169E-14
 -0.479477568760E-14
 -0.205391259556E-14
 -0.867361737988E-14
  0.827116153346E-14
 -0.844463388106E-14
 -0.136349265212E-13
  0.459007831743E-14
  0.530608543214E-15
  0.237310171514E-14
 -0.353189699709E-14
  0.926689280867E-14
  0.911076769583E-14
  0.904137875679E-14
  0.106512021425E-13
  0.105748743096E-13
  0.580958892105E-14
  0.775768338457E-14
 -0.673072708679E-14
  0.118169363184E-13
 -0.124691923453E-13
 -0.897372454123E-14
 -0.456319010356E-14
 -0.192276750077E-13
 -0.160982338571E-13
  0.928424004343E-14
 -0.742461647718E-15
 -0.532213162430E-14
  0.128091981466E-13
  0.463518112781E-14
  0.480865347541E-14
 -0.421190859967E-14
 -0.122644949752E-14
  0.121846976953E-13
  0.580785419757E-14
  0.101654795692E-14
  0.183117410124E-13
 -0.139575850877E-13
 -0.322727955471E-13
  0.187350135405E-15
  0.843769498715E-14
 -0.332719962692E-14
 -0.860769788780E-14
  0.110467190950E-13
  0.727196081129E-14
 -0.671684929898E-14
  0.113728471085E-13
  0.120493892641E-13
  0.358046925442E-14
 -0.643582409587E-14
  0.393435284352E-14
  0.719910242530E-15
 -0.326388222005E-14
  0.306768499492E-13
 -0.520417042793E-15
 -0.359434704222E-14
 -0.385455556362E-14
 -0.415119327801E-14
  0.558580959265E-14
  0.371230823859E-15
 -0.107136521876E-13
 -0.339311911901E-14
  0.187350135405E-14
 -0.866667848598E-14
 -0.323742768704E-14
  0.545397060847E-14
 -0.367067487517E-14
 -0.669603261727E-14
  0.813238365538E-14
  0.131838984174E-14
 -0.475314232418E-14
 -0.149880108324E-14
  0.666827704165E-14
  0.224126273096E-14
  0.420843915272E-14
 -0.611663497629E-14
  0.752436307705E-15
  0.176941794550E-14
  0.135187000483E-13
  0.198799310347E-14
  0.123130672325E-13
 -0.149533163629E-14
  0.317107451409E-14
  0.525621213221E-15
 -0.455191440096E-14
  0.202268757299E-14
  0.188044024796E-14
  0.486416462664E-14
  0.416333634234E-15
  0.183880688454E-14
 -0.593275428784E-14
 -0.504804531509E-14
 -0.340005801291E-14
 -0.257432963835E-14
 -0.698052726733E-14
  0.537937749900E-14
  0.775421393762E-14
  0.302535774210E-14
 -0.107205910815E-14
  0.665439925385E-14
 -0.628663787694E-14
 -0.399680288865E-14
  0.401068067646E-14
  0.237310171514E-14
 -0.200880978518E-14
  0.461436444610E-15
 -0.372792074987E-14
 -0.731359417472E-14
 -0.228853394568E-14
 -0.158900670399E-14
 -0.321964677141E-14
  0.186309301320E-14
  0.826075319260E-14
 -0.721644966006E-14
 -0.320750370708E-14
  0.270616862252E-15
 -0.532213162430E-14
 -0.544009282066E-14
 -0.782230183405E-14
 -0.170349845341E-14
 -0.397251675999E-14
 -0.374006381421E-14
  0.142594269725E-14
 -0.863198401646E-14
 -0.666133814775E-15
  0.715538739371E-13
  0.274086309204E-14
  0.136002320517E-14
  0.137390099297E-14
 -0.365159291693E-14
  0.507927033766E-14
 -0.257432963835E-14
 -0.328209681655E-14
 -0.732053306862E-15
  0.457966997658E-14
  0.275821032680E-15
  0.133573707650E-14
  0.357006091356E-14
  0.302535774210E-14
  0.214151613109E-14
  0.151267887105E-14
  0.680705491973E-14
  0.353102963535E-14
 -0.527355936697E-15
  0.381292220020E-14
 -0.624500451352E-16
  0.607847105982E-14
 -0.436803371251E-14
  0.253269627493E-14
  0.698399671428E-14
  0.194982918700E-14
  0.308086889333E-14
 -0.170349845341E-13
 -0.492661467177E-15
  0.155431223448E-14
  0.125940924356E-14
 -0.756339435526E-15
 -0.148145384848E-14
  0.567774993687E-14
 -0.462477278695E-14
  0.160461921528E-14
  0.360822483003E-15
  0.333066907388E-15
 -0.801442245901E-15
 -0.435415592470E-15
 -0.244596010113E-14
 -0.242861286637E-15
 -0.392914867309E-15
  0.175207071074E-14
 -0.784095011142E-15
 -0.257259491487E-14
 -0.264350173695E-14
  0.383373888191E-15
 -0.104083408559E-14
  0.843075609325E-15
 -0.264024913044E-14
 -0.378169717763E-14
 -0.239391839685E-14
  0.264371857739E-14
 -0.808381139805E-15
 -0.341046635377E-14
 -0.304617442382E-14
 -0.304704178555E-14
  0.312250225676E-15
  0.327862736960E-14
  0.447558656802E-15
  0.464905891562E-15
  0.212330153460E-14
 -0.444089209850E-15
 -0.483640905102E-14
 -0.283800760670E-14
 -0.160461921528E-14
  0.366373598126E-14
 -0.482947015712E-14
 -0.292474378050E-14
  0.156992474576E-15
  0.301147995430E-14
  0.749400541622E-15
  0.302535774210E-14
 -0.162196645004E-14
  0.261683036351E-14
  0.287313575709E-14
  0.440619762898E-14
  0.165492619608E-14
  0.728583859910E-15
 -0.735522753814E-15
 -0.211636264069E-14
  0.870831184940E-15
  0.128716481917E-14
  0.260208521397E-15
  0.523886489745E-15
  0.000000000000E+00
 -0.395516952523E-15
  0.105471187339E-14
  0.269922972862E-14
 -0.278596590242E-14
 -0.137390099297E-14
  0.159594559790E-15
  0.738992200766E-15
  0.301147995430E-14
  0.536029554077E-14
  0.475054023896E-14
  0.122948526360E-15
  0.759808882478E-15
  0.544703171457E-15
 -0.242861286637E-15
  0.114665221762E-14
  0.492314522482E-14
 -0.343475248243E-15
  0.235228503342E-14
 -0.293515212135E-14
  0.188044024796E-14
 -0.602816407902E-15
  0.440619762898E-15
  0.212677098155E-14
 -0.151961776496E-14
 -0.352235601797E-14
 -0.399333344170E-14
 -0.409741685026E-14
 -0.291433543964E-15
  0.310168557505E-14
  0.492661467177E-15
 -0.340005801291E-14
  0.912464548364E-15
  0.262290189568E-14
 -0.456579218877E-14
 -0.391180143833E-15
  0.128282801048E-14
 -0.117961196366E-15
 -0.194289029309E-15
 -0.159247615095E-14