# vtk DataFile Version 3.0
MachLine results file. Generated by MachLine, USU AeroLab (c) 2023.
ASCII
DATASET POLYDATA
POINTS                 308 float
  0.999999900165E+00  0.000000000000E+00 -0.573402141099E-08
  0.965617081316E+00  0.503720627990E+00 -0.394952967507E-02
  0.999999900165E+00  0.503720627990E+00 -0.573402141099E-08
  0.965617081316E+00  0.000000000000E+00 -0.394952967507E-02
  0.905490042408E+00  0.503720627990E+00 -0.105276893178E-01
  0.905490042408E+00  0.000000000000E+00 -0.105276893178E-01
  0.807861735305E+00  0.503720627990E+00 -0.203685193924E-01
  0.807861735305E+00  0.000000000000E+00 -0.203685193924E-01
  0.666965298462E+00  0.503720627990E+00 -0.327305850383E-01
  0.666965298462E+00  0.000000000000E+00 -0.327305850383E-01
  0.494699904191E+00  0.503720627990E+00 -0.442891747950E-01
  0.494699904191E+00  0.000000000000E+00 -0.442891747950E-01
  0.322148056877E+00  0.000000000000E+00 -0.499219386463E-01
  0.322148056877E+00  0.503720627990E+00 -0.499219386463E-01
  0.180771089238E+00  0.000000000000E+00 -0.467581934386E-01
  0.180771089238E+00  0.503720627990E+00 -0.467581934386E-01
  0.832331799010E-01  0.000000000000E+00 -0.364527339013E-01
  0.832331799010E-01  0.503720627990E+00 -0.364527339013E-01
  0.246817062182E-01  0.000000000000E+00 -0.217021513149E-01
  0.246817062182E-01  0.503720627990E+00 -0.217021513149E-01
  0.100000000000E-06  0.000000000000E+00  0.000000000000E+00
  0.100000000000E-06  0.503720627990E+00  0.000000000000E+00
  0.246817062182E-01  0.503720627990E+00  0.217021513149E-01
  0.246817062182E-01  0.000000000000E+00  0.217021513149E-01
  0.832331799010E-01  0.503720627990E+00  0.364527339013E-01
  0.832331799010E-01  0.000000000000E+00  0.364527339013E-01
  0.180771089238E+00  0.503720627990E+00  0.467581934386E-01
  0.180771089238E+00  0.000000000000E+00  0.467581934386E-01
  0.322148056877E+00  0.503720627990E+00  0.499219386463E-01
  0.322148056877E+00  0.000000000000E+00  0.499219386463E-01
  0.494699904191E+00  0.503720627990E+00  0.442891747950E-01
  0.494699904191E+00  0.000000000000E+00  0.442891747950E-01
  0.666965298462E+00  0.000000000000E+00  0.327305850383E-01
  0.666965298462E+00  0.503720627990E+00  0.327305850383E-01
  0.807861735305E+00  0.000000000000E+00  0.203685193924E-01
  0.807861735305E+00  0.503720627990E+00  0.203685193924E-01
  0.905490042408E+00  0.000000000000E+00  0.105276893178E-01
  0.905490042408E+00  0.503720627990E+00  0.105276893178E-01
  0.965617081316E+00  0.000000000000E+00  0.394952967507E-02
  0.965617081316E+00  0.503720627990E+00  0.394952967507E-02
  0.965617081316E+00  0.110747748820E+01 -0.394952967507E-02
  0.999999900165E+00  0.110747748820E+01 -0.573402141099E-08
  0.905490042408E+00  0.110747748820E+01 -0.105276893178E-01
  0.807861735305E+00  0.110747748820E+01 -0.203685193924E-01
  0.666965298462E+00  0.110747748820E+01 -0.327305850383E-01
  0.494699904191E+00  0.110747748820E+01 -0.442891747950E-01
  0.322148056877E+00  0.110747748820E+01 -0.499219386463E-01
  0.180771089238E+00  0.110747748820E+01 -0.467581934386E-01
  0.832331799010E-01  0.110747748820E+01 -0.364527339013E-01
  0.246817062182E-01  0.110747748820E+01 -0.217021513149E-01
  0.100000000000E-06  0.110747748820E+01  0.000000000000E+00
  0.246817062182E-01  0.110747748820E+01  0.217021513149E-01
  0.832331799010E-01  0.110747748820E+01  0.364527339013E-01
  0.180771089238E+00  0.110747748820E+01  0.467581934386E-01
  0.322148056877E+00  0.110747748820E+01  0.499219386463E-01
  0.494699904191E+00  0.110747748820E+01  0.442891747950E-01
  0.666965298462E+00  0.110747748820E+01  0.327305850383E-01
  0.807861735305E+00  0.110747748820E+01  0.203685193924E-01
  0.905490042408E+00  0.110747748820E+01  0.105276893178E-01
  0.965617081316E+00  0.110747748820E+01  0.394952967507E-02
  0.965617081316E+00  0.175813428970E+01 -0.394952967507E-02
  0.999999900165E+00  0.175813428970E+01 -0.573402141099E-08
  0.905490042408E+00  0.175813428970E+01 -0.105276893178E-01
  0.807861735305E+00  0.175813428970E+01 -0.203685193924E-01
  0.666965298462E+00  0.175813428970E+01 -0.327305850383E-01
  0.494699904191E+00  0.175813428970E+01 -0.442891747950E-01
  0.322148056877E+00  0.175813428970E+01 -0.499219386463E-01
  0.180771089238E+00  0.175813428970E+01 -0.467581934386E-01
  0.832331799010E-01  0.175813428970E+01 -0.364527339013E-01
  0.246817062182E-01  0.175813428970E+01 -0.217021513149E-01
  0.100000000000E-06  0.175813428970E+01  0.000000000000E+00
  0.246817062182E-01  0.175813428970E+01  0.217021513149E-01
  0.832331799010E-01  0.175813428970E+01  0.364527339013E-01
  0.180771089238E+00  0.175813428970E+01  0.467581934386E-01
  0.322148056877E+00  0.175813428970E+01  0.499219386463E-01
  0.494699904191E+00  0.175813428970E+01  0.442891747950E-01
  0.666965298462E+00  0.175813428970E+01  0.327305850383E-01
  0.807861735305E+00  0.175813428970E+01  0.203685193924E-01
  0.905490042408E+00  0.175813428970E+01  0.105276893178E-01
  0.965617081316E+00  0.175813428970E+01  0.394952967507E-02
  0.965617081316E+00  0.238369488720E+01 -0.394952967507E-02
  0.999999900165E+00  0.238369488720E+01 -0.573402141099E-08
  0.905490042408E+00  0.238369488720E+01 -0.105276893178E-01
  0.807861735305E+00  0.238369488720E+01 -0.203685193924E-01
  0.666965298462E+00  0.238369488720E+01 -0.327305850383E-01
  0.494699904191E+00  0.238369488720E+01 -0.442891747950E-01
  0.322148056877E+00  0.238369488720E+01 -0.499219386463E-01
  0.180771089238E+00  0.238369488720E+01 -0.467581934386E-01
  0.832331799010E-01  0.238369488720E+01 -0.364527339013E-01
  0.246817062182E-01  0.238369488720E+01 -0.217021513149E-01
  0.100000000000E-06  0.238369488720E+01  0.000000000000E+00
  0.246817062182E-01  0.238369488720E+01  0.217021513149E-01
  0.832331799010E-01  0.238369488720E+01  0.364527339013E-01
  0.180771089238E+00  0.238369488720E+01  0.467581934386E-01
  0.322148056877E+00  0.238369488720E+01  0.499219386463E-01
  0.494699904191E+00  0.238369488720E+01  0.442891747950E-01
  0.666965298462E+00  0.238369488720E+01  0.327305850383E-01
  0.807861735305E+00  0.238369488720E+01  0.203685193924E-01
  0.905490042408E+00  0.238369488720E+01  0.105276893178E-01
  0.965617081316E+00  0.238369488720E+01  0.394952967507E-02
  0.965617081316E+00  0.292249171970E+01 -0.394952967507E-02
  0.999999900165E+00  0.292249171970E+01 -0.573402141099E-08
  0.905490042408E+00  0.292249171970E+01 -0.105276893178E-01
  0.807861735305E+00  0.292249171970E+01 -0.203685193924E-01
  0.666965298462E+00  0.292249171970E+01 -0.327305850383E-01
  0.494699904191E+00  0.292249171970E+01 -0.442891747950E-01
  0.322148056877E+00  0.292249171970E+01 -0.499219386463E-01
  0.180771089238E+00  0.292249171970E+01 -0.467581934386E-01
  0.832331799010E-01  0.292249171970E+01 -0.364527339013E-01
  0.246817062182E-01  0.292249171970E+01 -0.217021513149E-01
  0.100000000000E-06  0.292249171970E+01  0.000000000000E+00
  0.246817062182E-01  0.292249171970E+01  0.217021513149E-01
  0.832331799010E-01  0.292249171970E+01  0.364527339013E-01
  0.180771089238E+00  0.292249171970E+01  0.467581934386E-01
  0.322148056877E+00  0.292249171970E+01  0.499219386463E-01
  0.494699904191E+00  0.292249171970E+01  0.442891747950E-01
  0.666965298462E+00  0.292249171970E+01  0.327305850383E-01
  0.807861735305E+00  0.292249171970E+01  0.203685193924E-01
  0.905490042408E+00  0.292249171970E+01  0.105276893178E-01
  0.965617081316E+00  0.292249171970E+01  0.394952967507E-02
  0.965617081316E+00  0.334432208550E+01 -0.394952967507E-02
  0.999999900165E+00  0.334432208550E+01 -0.573402141099E-08
  0.905490042408E+00  0.334432208550E+01 -0.105276893178E-01
  0.807861735305E+00  0.334432208550E+01 -0.203685193924E-01
  0.666965298462E+00  0.334432208550E+01 -0.327305850383E-01
  0.494699904191E+00  0.334432208550E+01 -0.442891747950E-01
  0.322148056877E+00  0.334432208550E+01 -0.499219386463E-01
  0.180771089238E+00  0.334432208550E+01 -0.467581934386E-01
  0.832331799010E-01  0.334432208550E+01 -0.364527339013E-01
  0.246817062182E-01  0.334432208550E+01 -0.217021513149E-01
  0.100000000000E-06  0.334432208550E+01  0.000000000000E+00
  0.246817062182E-01  0.334432208550E+01  0.217021513149E-01
  0.832331799010E-01  0.334432208550E+01  0.364527339013E-01
  0.180771089238E+00  0.334432208550E+01  0.467581934386E-01
  0.322148056877E+00  0.334432208550E+01  0.499219386463E-01
  0.494699904191E+00  0.334432208550E+01  0.442891747950E-01
  0.666965298462E+00  0.334432208550E+01  0.327305850383E-01
  0.807861735305E+00  0.334432208550E+01  0.203685193924E-01
  0.905490042408E+00  0.334432208550E+01  0.105276893178E-01
  0.965617081316E+00  0.334432208550E+01  0.394952967507E-02
  0.965617081316E+00  0.365057098370E+01 -0.394952967507E-02
  0.999999900165E+00  0.365057098370E+01 -0.573402141099E-08
  0.905490042408E+00  0.365057098370E+01 -0.105276893178E-01
  0.807861735305E+00  0.365057098370E+01 -0.203685193924E-01
  0.666965298462E+00  0.365057098370E+01 -0.327305850383E-01
  0.494699904191E+00  0.365057098370E+01 -0.442891747950E-01
  0.322148056877E+00  0.365057098370E+01 -0.499219386463E-01
  0.180771089238E+00  0.365057098370E+01 -0.467581934386E-01
  0.832331799010E-01  0.365057098370E+01 -0.364527339013E-01
  0.246817062182E-01  0.365057098370E+01 -0.217021513149E-01
  0.100000000000E-06  0.365057098370E+01  0.000000000000E+00
  0.246817062182E-01  0.365057098370E+01  0.217021513149E-01
  0.832331799010E-01  0.365057098370E+01  0.364527339013E-01
  0.180771089238E+00  0.365057098370E+01  0.467581934386E-01
  0.322148056877E+00  0.365057098370E+01  0.499219386463E-01
  0.494699904191E+00  0.365057098370E+01  0.442891747950E-01
  0.666965298462E+00  0.365057098370E+01  0.327305850383E-01
  0.807861735305E+00  0.365057098370E+01  0.203685193924E-01
  0.905490042408E+00  0.365057098370E+01  0.105276893178E-01
  0.965617081316E+00  0.365057098370E+01  0.394952967507E-02
  0.965617081316E+00  0.386093553560E+01 -0.394952967507E-02
[...]
POINT_DATA                 308
SCALARS BC_type int 1
LOOKUP_TABLE default
           1
           1
           1
           1
           1
           1
           1
           1
           1
           1
           1
           1
           1
           1
           1
           1
           1
           1
           1
           1
           1
           1
           1
           1
           1
           1
           1
           1
           1
           1
           1
           1
           1
           1
           1
           1
           1
           1
           1
           1
           1
           1
           1
           1
           1
           1
           1
           1
           1
           1
           1
           1
           1
           1
           1
           1
           1
           1
           1
           1
           1
           1
           1
           1
           1
           1
           1
           1
           1
           1
           1
           1
           1
           1
           1
           1
           1
           1
           1
           1
           1
           1
           1
           1
           1
           1
           1
           1
           1
           1
           1
           1
           1
           1
           1
           1
           1
           1
           1
           1
           1
           1
           1
           1
           1
           1
           1
           1
           1
           1
           1
           1
           1
           1
           1
           1
           1
           1
           1
           1
           1
           1
           1
           1
           1
           1
           1
           1
           1
           1
           1
           1
           1
           1
           1
           1
           1
           1
           1
           1
           1
           1
           1
           1
           1
           1
           1
           1
           1
           1
           1
           1
           1
           1
           1
           1
           1
           1
           1
           1
           1
           1
           1
           1
           1
           1
           1
           1
           1
           1
           1
           1
           1
           1
           1
           1
           1
           1
           1
           1
           1
           1
           1
           1
           1
           1
           1
           1
           1
           1
           1
           1
           1
           1
           1
           1
           1
           1
           1
           1
           1
           1
           1
           1
           1
           1
           1
           1
           1
           1
           1
           1
           1
           1
           1
           1
           1
           1
           1
           1
           1
           1
           1
           1
           1
           1
           1
           1
           1
           1
           1
           1
           1
           1
           1
           1
           1
           1
           1
           1
           1
           1
           1
           1
           1
           1
           1
           1
           1
           1
           1
           1
           1
           1
           1
           1
           1
           1
           1
           1
           1
           1
           1
           1
           1
           1
           1
           1
           1
           1
           1
           1
           1
           1
           1
           1
           1
           1
           1
           1
           1
           1
           1
           1
           1
           1
           1
           1
           1
           1
           1
           1
           1
           1
           1
           1
           1
           1
           1
           1
           1
           1
           1
           1
           1
           1
           1
           1
SCALARS residual float 1
LOOKUP_TABLE default
 -0.245047038216E-13
  0.292821322745E-13
 -0.390763810199E-13
  0.324358595538E-13
 -0.547652201366E-13
 -0.352912143953E-13
  0.259861576701E-14
  0.133573707650E-13
 -0.387051501960E-13
 -0.338323119520E-13
 -0.276272060784E-13
 -0.299482660893E-13
 -0.434374758385E-14
 -0.567254576644E-14
 -0.266939248483E-13
 -0.277208811461E-13
 -0.209277040142E-13
 -0.217811879644E-13
 -0.212954653911E-13
 -0.220795604022E-13
 -0.245498066320E-13
 -0.246330733589E-13
 -0.330568905582E-13
 -0.339589467657E-13
 -0.124553145575E-13
 -0.141275879884E-13
 -0.351420281763E-13
 -0.381066705968E-13
 -0.370172642539E-13
 -0.424747043093E-13
  0.100336405850E-13
  0.205876982129E-13
 -0.276029199497E-13
 -0.101689490162E-13
  0.596883653614E-13
  0.770598862498E-13
  0.165180369383E-13
  0.133087985077E-13
 -0.619886086906E-13
  0.168268177170E-13
 -0.124449062167E-13
 -0.772472363852E-13
 -0.482652112721E-13
 -0.345314055128E-13
 -0.725808302349E-14
 -0.272629141485E-13
 -0.197689087322E-13
 -0.190056304028E-13
 -0.205738204251E-13
 -0.286229373536E-13
 -0.718175519054E-14
 -0.282551759767E-13
 -0.264770844138E-13
  0.369426711444E-13
  0.990527104783E-14
  0.937132316192E-13
  0.211913819825E-13
 -0.489296103634E-13
 -0.817748646575E-14
  0.799360577730E-14
 -0.638690489385E-13
 -0.789646126265E-14
 -0.292188148676E-13
 -0.179370407416E-14
 -0.215105711021E-13
 -0.137459488236E-13
 -0.117059140159E-13
 -0.166464064755E-13
 -0.269922972862E-13
 -0.785829734617E-14
 -0.310923162217E-13
 -0.318495230189E-13
  0.268257638325E-13
 -0.709848846370E-14
  0.733649252460E-13
  0.670297151117E-14
 -0.827116153346E-14
 -0.120042864538E-14
  0.605140937360E-13
 -0.452415882535E-14
  0.458591498109E-13
 -0.487283824402E-14
  0.103736463863E-13
 -0.197827865200E-13
 -0.214619988448E-13
 -0.304201108747E-13
 -0.320646287300E-13
 -0.413349909856E-13
 -0.219338436303E-13
 -0.476623948642E-13
 -0.553931900349E-13
 -0.104083408559E-13
 -0.624535145821E-13
  0.111438636097E-13
 -0.357630591807E-13
  0.435068647775E-14
  0.257814603000E-13
  0.113267034640E-12
  0.511188313901E-13
  0.770980501663E-13
  0.150365830898E-13
  0.106095687791E-13
 -0.225514051877E-14
 -0.548172618409E-15
 -0.623806561961E-14
 -0.150920942410E-13
 -0.320299342604E-13
 -0.210075012941E-13
 -0.539334202299E-13
 -0.700498686834E-13
 -0.287339596561E-13
 -0.678450351455E-13
 -0.808381139805E-15
 -0.833604019146E-13
 -0.174964209787E-13
 -0.135030875370E-13
  0.867951543970E-13
  0.389271948009E-14
  0.968392033229E-13
  0.551607370891E-13
  0.467325830811E-13
  0.600353100566E-13
  0.363320484809E-13
  0.496963581398E-13
  0.238559172416E-13
  0.673072708679E-14
  0.198209504365E-13
 -0.934495536509E-14
 -0.177080572428E-13
  0.116053000543E-13
 -0.782013342970E-13
  0.320403426013E-13
 -0.225444662938E-13
  0.220205798040E-13
  0.173472347598E-15
 -0.206744343867E-13
  0.345765083232E-13
  0.914407438657E-13
  0.975955427585E-14
  0.304912345372E-13
  0.418901024979E-13
  0.101169073119E-13
  0.164659952340E-13
  0.121708199075E-13
 -0.827810042736E-14
  0.136488043090E-13
 -0.834401991945E-14
 -0.389844406756E-13
  0.386149445752E-13
 -0.935015953551E-14
 -0.425492974188E-13
  0.248967513272E-13
  0.117059140159E-13
 -0.169794733829E-13
  0.530825383649E-13
 -0.913852327145E-14
  0.657460197395E-13
  0.264423899443E-13
  0.343596678887E-13
  0.500779973045E-13
  0.841722525013E-13
  0.471428451831E-13
  0.416056078478E-13
  0.728098137337E-13
  0.327238236508E-13
  0.108758488326E-13
 -0.186135828972E-14
  0.377892162007E-13
 -0.276549616540E-13
  0.504284114466E-13
  0.194080862492E-13
 -0.107240605285E-13
  0.552648204977E-13
  0.294902990916E-14
 -0.424313362224E-13
 -0.118099974245E-13
  0.754171031181E-14
  0.821552027797E-13
  0.768326374745E-13
 -0.208340289465E-13
  0.114706855125E-12
  0.536654054528E-13
  0.112295589494E-12
 -0.259584020945E-13
  0.687384177356E-13
  0.712615730314E-13
 -0.475140760070E-14
 -0.223102786245E-13
 -0.480587791785E-13
  0.163757896132E-14
 -0.108142661492E-13
 -0.644970188368E-14
  0.108801856413E-13
 -0.390035226339E-13
 -0.122783727630E-13
  0.105254346905E-13
  0.460408620950E-13
  0.944036515627E-14
  0.142420797378E-13
  0.424729695858E-13
  0.403774236268E-13
  0.985322934355E-14
  0.265239219477E-14
  0.369461405914E-13
  0.268014777038E-15
 -0.211202583200E-13
 -0.438364622379E-13
  0.968669588985E-14
 -0.657807142090E-14
  0.530825383649E-15
  0.223328300297E-13
 -0.316274784140E-13
 -0.110692705002E-13
  0.523366072702E-14
  0.124388346845E-13
 -0.219060880546E-13
  0.238628561355E-13
  0.547478729018E-14
  0.367414432212E-14
  0.202789174342E-13
 -0.273548544927E-13
  0.517728221405E-14
 -0.295163199437E-14
 -0.181469422822E-13
 -0.355791784923E-13
  0.213058737319E-13
  0.395516952523E-15
  0.330464822174E-14
  0.273461808753E-13
 -0.272490363606E-13
 -0.821738510570E-14
 -0.562223878564E-14
 -0.194111220153E-13
 -0.263192245775E-13
  0.301009217551E-13
 -0.180064296806E-14
 -0.320229953665E-14
  0.273774058979E-13
 -0.304287844921E-13
 -0.248551179638E-13
 -0.117562209967E-13
 -0.135516597943E-13
 -0.302570468680E-13
  0.265100441599E-13
  0.319015647232E-14
  0.276861866766E-14
  0.272039335503E-13
 -0.254032905822E-13
 -0.443048375764E-14
 -0.174148889753E-13
 -0.461150215236E-13
 -0.176976489019E-13
  0.310966530304E-13
  0.376781938982E-14
  0.282412981889E-14
  0.292613155928E-13
 -0.204784106339E-13
 -0.497579408232E-13
 -0.215253162517E-13
 -0.800054467121E-14
 -0.274502642839E-13
  0.266280053562E-13
  0.267841304691E-14
  0.170870262384E-14
  0.261388133360E-13
 -0.242965370045E-13
 -0.117440779324E-14
 -0.266175970154E-13
 -0.639900459010E-13
 -0.690419943439E-14
  0.291780488659E-13
  0.110952913523E-13
  0.106373243547E-13
  0.282274204011E-13
 -0.831106017340E-14
 -0.658379600837E-13
 -0.286983978248E-13
 -0.298198965520E-14
 -0.253512488779E-13
  0.258404408982E-13
  0.166880398389E-14
  0.134094124693E-14
  0.257363574896E-13
 -0.239738784380E-13
 -0.225514051877E-15
 -0.306751152257E-13
 -0.711336371750E-13
 -0.278076173199E-14
  0.281892564846E-13
  0.134406374919E-13
  0.795474797144E-13
  0.205113703799E-13
  0.162335422882E-13
  0.221662965760E-13
  0.928770949038E-14
 -0.776462227847E-14
  0.434513536263E-13
  0.176247905159E-13
 -0.222218077273E-13
 -0.414356049472E-13
  0.110224329664E-13
 -0.139749323225E-13
 -0.435745189931E-13
 -0.513651621237E-14
  0.251673681895E-13
  0.326891291813E-13
  0.210317874227E-13
  0.234118280318E-13
