# vtk DataFile Version 3.0
MachLine results file. Generated by MachLine, USU AeroLab (c) 2022.
ASCII
DATASET POLYDATA
POINTS                3668 float
  0.999999919371E+00  0.000000000000E+00 -0.466559956060E-08
  0.999999919371E+00  0.000000000000E+00  0.466559956060E-08
  0.993202459647E+00  0.105801853900E+00 -0.791941939830E-03
  0.999999924416E+00  0.105801853900E+00 -0.437363348695E-08
  0.999999924416E+00  0.105801853900E+00  0.437363348695E-08
  0.993202459902E+00  0.000000000000E+00 -0.791944047446E-03
  0.985311370229E+00  0.105801853900E+00 -0.170442380795E-02
  0.985311370483E+00  0.000000000000E+00 -0.170442591058E-02
  0.976172393194E+00  0.105801853900E+00 -0.275194480189E-02
  0.976172393448E+00  0.000000000000E+00 -0.275194689812E-02
  0.965617083865E+00  0.105801853900E+00 -0.394955285420E-02
  0.965617084117E+00  0.000000000000E+00 -0.394955494233E-02
  0.953464375652E+00  0.105801853900E+00 -0.531230683383E-02
  0.953464375902E+00  0.000000000000E+00 -0.531230891188E-02
  0.939523298485E+00  0.105801853900E+00 -0.685464613158E-02
  0.939523298733E+00  0.000000000000E+00 -0.685464819735E-02
  0.923597238487E+00  0.105801853900E+00 -0.858958109791E-02
  0.923597238733E+00  0.000000000000E+00 -0.858958314908E-02
  0.905490044459E+00  0.105801853900E+00 -0.105277095028E-01
  0.905490044702E+00  0.000000000000E+00 -0.105277115371E-01
  0.885014225593E+00  0.105801853900E+00 -0.126760904306E-01
  0.885014225833E+00  0.000000000000E+00 -0.126760924461E-01
  0.862001344233E+00  0.105801853900E+00 -0.150370084827E-01
  0.862001344469E+00  0.000000000000E+00 -0.150370104782E-01
  0.836314367994E+00  0.105801853900E+00 -0.176057434167E-01
  0.836314368227E+00  0.000000000000E+00 -0.176057453920E-01
  0.807861736704E+00  0.105801853900E+00 -0.203685353126E-01
  0.807861736934E+00  0.000000000000E+00 -0.203685372691E-01
  0.776612345397E+00  0.105801853900E+00 -0.233020844776E-01
  0.776612345624E+00  0.000000000000E+00 -0.233020864188E-01
  0.742610011470E+00  0.105801853900E+00 -0.263730246997E-01
  0.742610011696E+00  0.000000000000E+00 -0.263730266311E-01
  0.705985641549E+00  0.105801853900E+00 -0.295360538941E-01
  0.705985641775E+00  0.000000000000E+00 -0.295360558230E-01
  0.666965299185E+00  0.105801853900E+00 -0.327305965597E-01
  0.666965299411E+00  0.000000000000E+00 -0.327305984953E-01
  0.625872711847E+00  0.105801853900E+00 -0.358860334390E-01
  0.625872712074E+00  0.000000000000E+00 -0.358860353910E-01
  0.583124110300E+00  0.105801853900E+00 -0.389241500465E-01
  0.583124110530E+00  0.000000000000E+00 -0.389241520239E-01
  0.539215097188E+00  0.105801853900E+00 -0.417548671818E-01
  0.539215097420E+00  0.000000000000E+00 -0.417548691927E-01
  0.494699904468E+00  0.105801853900E+00 -0.442891853246E-01
  0.494699905218E+00  0.000000000000E+00 -0.442891995803E-01
  0.450164556565E+00  0.000000000000E+00 -0.464415290656E-01
  0.450164556622E+00  0.105801853900E+00 -0.464415270399E-01
  0.406197043041E+00  0.000000000000E+00 -0.481350819624E-01
  0.406197043138E+00  0.105801853900E+00 -0.481350799696E-01
  0.363356899003E+00  0.000000000000E+00 -0.493086246740E-01
  0.363356899143E+00  0.105801853900E+00 -0.493086227071E-01
  0.322148056504E+00  0.000000000000E+00 -0.499219521397E-01
  0.322148056690E+00  0.105801853900E+00 -0.499219501906E-01
  0.282997350661E+00  0.000000000000E+00 -0.499589654272E-01
  0.282997350894E+00  0.105801853900E+00 -0.499589634874E-01
  0.246240747109E+00  0.000000000000E+00 -0.494245797238E-01
  0.246240747395E+00  0.105801853900E+00 -0.494245777858E-01
  0.212117346449E+00  0.000000000000E+00 -0.483433837346E-01
  0.212117346791E+00  0.105801853900E+00 -0.483433817927E-01
  0.180771087571E+00  0.000000000000E+00 -0.467582113213E-01
  0.180771087974E+00  0.105801853900E+00 -0.467582093722E-01
  0.152257604381E+00  0.000000000000E+00 -0.447218849962E-01
  0.152257604855E+00  0.105801853900E+00 -0.447218830395E-01
  0.126557844703E+00  0.000000000000E+00 -0.422894572920E-01
  0.126557845259E+00  0.105801853900E+00 -0.422894553303E-01
  0.103591342067E+00  0.000000000000E+00 -0.395175649180E-01
  0.103591342721E+00  0.105801853900E+00 -0.395175629576E-01
  0.832331748192E-01  0.000000000000E+00 -0.364527556949E-01
  0.832331755923E-01  0.105801853900E+00 -0.364527537463E-01
  0.653287165190E-01  0.000000000000E+00 -0.331318981342E-01
  0.653287174449E-01  0.105801853900E+00 -0.331318962143E-01
  0.497093666275E-01  0.000000000000E+00 -0.295748887473E-01
  0.497093677583E-01  0.105801853900E+00 -0.295748868854E-01
  0.362089221055E-01  0.000000000000E+00 -0.257769631457E-01
  0.362089235230E-01  0.105801853900E+00 -0.257769613947E-01
  0.246816866810E-01  0.000000000000E+00 -0.217021703094E-01
  0.246816885349E-01  0.105801853900E+00 -0.217021687828E-01
  0.150380560771E-01  0.000000000000E+00 -0.172594038935E-01
  0.150380586445E-01  0.105801853900E+00 -0.172594028722E-01
  0.732370473997E-02  0.000000000000E+00 -0.122713676339E-01
  0.732370850421E-02  0.105801853900E+00 -0.122713679481E-01
  0.195572569150E-02  0.000000000000E+00 -0.646620058808E-02
  0.195573049793E-02  0.105801853900E+00 -0.646620427981E-02
  0.811479938883E-07  0.000000000000E+00  0.000000000000E+00
  0.760620371810E-07  0.105801853900E+00  0.000000000000E+00
  0.195573049793E-02  0.105801853900E+00  0.646620427981E-02
  0.195572569150E-02  0.000000000000E+00  0.646620058808E-02
  0.732370850421E-02  0.105801853900E+00  0.122713679481E-01
  0.732370473997E-02  0.000000000000E+00  0.122713676339E-01
  0.150380586445E-01  0.105801853900E+00  0.172594028722E-01
  0.150380560771E-01  0.000000000000E+00  0.172594038935E-01
  0.246816885349E-01  0.105801853900E+00  0.217021687828E-01
  0.246816866810E-01  0.000000000000E+00  0.217021703094E-01
  0.362089235230E-01  0.105801853900E+00  0.257769613947E-01
  0.362089221055E-01  0.000000000000E+00  0.257769631457E-01
  0.497093677583E-01  0.105801853900E+00  0.295748868854E-01
  0.497093666275E-01  0.000000000000E+00  0.295748887473E-01
  0.653287174449E-01  0.105801853900E+00  0.331318962143E-01
  0.653287165190E-01  0.000000000000E+00  0.331318981342E-01
  0.832331755923E-01  0.105801853900E+00  0.364527537463E-01
  0.832331748192E-01  0.000000000000E+00  0.364527556949E-01
  0.103591342721E+00  0.105801853900E+00  0.395175629576E-01
  0.103591342067E+00  0.000000000000E+00  0.395175649180E-01
  0.126557845259E+00  0.105801853900E+00  0.422894553303E-01
  0.126557844703E+00  0.000000000000E+00  0.422894572920E-01
  0.152257604855E+00  0.105801853900E+00  0.447218830395E-01
  0.152257604381E+00  0.000000000000E+00  0.447218849962E-01
  0.180771087974E+00  0.105801853900E+00  0.467582093722E-01
  0.180771087571E+00  0.000000000000E+00  0.467582113213E-01
  0.212117346791E+00  0.105801853900E+00  0.483433817927E-01
  0.212117346449E+00  0.000000000000E+00  0.483433837346E-01
  0.246240747395E+00  0.105801853900E+00  0.494245777858E-01
  0.246240747109E+00  0.000000000000E+00  0.494245797238E-01
  0.282997350894E+00  0.105801853900E+00  0.499589634874E-01
  0.282997350661E+00  0.000000000000E+00  0.499589654272E-01
  0.322148056690E+00  0.105801853900E+00  0.499219501906E-01
  0.322148056504E+00  0.000000000000E+00  0.499219521397E-01
  0.363356899143E+00  0.105801853900E+00  0.493086227071E-01
  0.363356899003E+00  0.000000000000E+00  0.493086246740E-01
  0.406197043138E+00  0.105801853900E+00  0.481350799696E-01
  0.406197043041E+00  0.000000000000E+00  0.481350819624E-01
  0.450164556622E+00  0.105801853900E+00  0.464415270399E-01
  0.450164556565E+00  0.000000000000E+00  0.464415290656E-01
  0.494699904468E+00  0.105801853900E+00  0.442891853246E-01
  0.494699905218E+00  0.000000000000E+00  0.442891995803E-01
  0.539215097420E+00  0.000000000000E+00  0.417548691927E-01
  0.539215097188E+00  0.105801853900E+00  0.417548671818E-01
  0.583124110530E+00  0.000000000000E+00  0.389241520239E-01
  0.583124110300E+00  0.105801853900E+00  0.389241500465E-01
  0.625872712074E+00  0.000000000000E+00  0.358860353910E-01
  0.625872711847E+00  0.105801853900E+00  0.358860334390E-01
  0.666965299411E+00  0.000000000000E+00  0.327305984953E-01
  0.666965299185E+00  0.105801853900E+00  0.327305965597E-01
  0.705985641775E+00  0.000000000000E+00  0.295360558230E-01
  0.705985641549E+00  0.105801853900E+00  0.295360538941E-01
  0.742610011696E+00  0.000000000000E+00  0.263730266311E-01
  0.742610011470E+00  0.105801853900E+00  0.263730246997E-01
  0.776612345624E+00  0.000000000000E+00  0.233020864188E-01
  0.776612345397E+00  0.105801853900E+00  0.233020844776E-01
  0.807861736934E+00  0.000000000000E+00  0.203685372691E-01
  0.807861736704E+00  0.105801853900E+00  0.203685353126E-01
  0.836314368227E+00  0.000000000000E+00  0.176057453920E-01
  0.836314367994E+00  0.105801853900E+00  0.176057434167E-01
  0.862001344469E+00  0.000000000000E+00  0.150370104782E-01
  0.862001344233E+00  0.105801853900E+00  0.150370084827E-01
  0.885014225833E+00  0.000000000000E+00  0.126760924461E-01
  0.885014225593E+00  0.105801853900E+00  0.126760904306E-01
  0.905490044702E+00  0.000000000000E+00  0.105277115371E-01
  0.905490044459E+00  0.105801853900E+00  0.105277095028E-01
  0.923597238733E+00  0.000000000000E+00  0.858958314908E-02
  0.923597238487E+00  0.105801853900E+00  0.858958109791E-02
  0.939523298733E+00  0.000000000000E+00  0.685464819735E-02
  0.939523298485E+00  0.105801853900E+00  0.685464613158E-02
  0.953464375902E+00  0.000000000000E+00  0.531230891188E-02
  0.953464375652E+00  0.105801853900E+00  0.531230683383E-02
  0.965617084117E+00  0.000000000000E+00  0.394955494233E-02
  0.965617083865E+00  0.105801853900E+00  0.394955285420E-02
  0.976172393448E+00  0.000000000000E+00  0.275194689812E-02
  0.976172393194E+00  0.105801853900E+00  0.275194480189E-02
  0.985311370483E+00  0.000000000000E+00  0.170442591058E-02
  0.985311370229E+00  0.105801853900E+00  0.170442380795E-02
  0.993202459902E+00  0.000000000000E+00  0.791944047446E-03
[...]
POINT_DATA                3668
SCALARS phi float 1
LOOKUP_TABLE default
  0.284494650060E-15
  0.326128013484E-15
 -0.228983498829E-15
 -0.412864187282E-15
 -0.593275428784E-15
  0.145716771982E-15
 -0.360822483003E-15
 -0.121430643318E-15
 -0.333066907388E-15
 -0.246330733589E-15
  0.260208521397E-15
 -0.589805981832E-16
 -0.319189119580E-15
  0.277555756156E-16
  0.225514051877E-15
  0.117961196366E-15
  0.107552855511E-15
  0.902056207508E-16
 -0.832667268469E-16
 -0.138777878078E-16
  0.156125112838E-15
 -0.242861286637E-16
  0.242861286637E-16
  0.131838984174E-15
  0.242861286637E-16
 -0.128369537222E-15
  0.451028103754E-16
  0.346944695195E-15
  0.621031004400E-15
  0.222044604925E-15
  0.693889390391E-17
 -0.867361737988E-16
 -0.624500451352E-16
  0.201227923213E-15
  0.520417042793E-16
  0.419803081186E-15
 -0.208166817117E-16
  0.176941794550E-15
 -0.183880688454E-15
  0.480518402846E-15
 -0.208166817117E-16
  0.222044604925E-15
  0.158727198052E-15
  0.377302356025E-15
  0.524753851483E-16
  0.381639164715E-16
 -0.200143721041E-15
  0.127068494615E-15
  0.235922392733E-15
 -0.107552855511E-15
  0.730318583386E-15
  0.000000000000E+00
  0.758074159002E-15
  0.104083408559E-16
  0.867361737988E-16
 -0.114491749414E-15
 -0.624500451352E-16
  0.593275428784E-15
  0.496130914129E-15
 -0.589805981832E-16
  0.256739074445E-15
 -0.180411241502E-15
  0.194289029309E-15
 -0.437150315946E-15
 -0.117961196366E-15
  0.693889390391E-16
  0.686950496487E-15
  0.000000000000E+00
  0.124900090270E-15
  0.208166817117E-15
  0.388578058619E-15
  0.159594559790E-15
  0.506539254985E-15
  0.346944695195E-16
  0.388578058619E-15
  0.291433543964E-15
  0.263677968348E-15
  0.249800180541E-15
  0.499600361081E-15
 -0.763278329430E-16
  0.381639164715E-15
 -0.416333634234E-16
 -0.138777878078E-16
 -0.763278329430E-16
 -0.353883589099E-15
  0.333066907388E-15
 -0.145716771982E-15
  0.159594559790E-15
  0.971445146547E-16
  0.138777878078E-15
 -0.437150315946E-15
  0.763278329430E-16
 -0.111022302463E-15
  0.152655665886E-15
  0.346944695195E-16
  0.333066907388E-15
 -0.832667268469E-16
  0.693889390391E-16
  0.555111512313E-16
  0.971445146547E-16
  0.138777878078E-16
  0.277555756156E-15
  0.485722573274E-16
  0.128369537222E-15
 -0.100613961607E-15
  0.294902990916E-15
 -0.104083408559E-16
  0.104083408559E-16
 -0.867361737988E-17
  0.919403442268E-16
 -0.121430643318E-16
  0.196023752785E-15
  0.137043154602E-15
 -0.131838984174E-15
 -0.143982048506E-15
  0.227682456222E-16
  0.771951946810E-16
 -0.467074295907E-15
 -0.200360561475E-15
  0.369496100383E-15
  0.241126563161E-15
 -0.451028103754E-16
  0.312250225676E-15
 -0.343475248243E-15
  0.451028103754E-16
 -0.568989300120E-15
  0.294902990916E-15
 -0.398986399475E-15
  0.312250225676E-15
 -0.107552855511E-15
  0.961036805691E-15
  0.173472347598E-16
  0.246330733589E-15
 -0.326128013484E-15
  0.416333634234E-16
 -0.124900090270E-15
 -0.402455846427E-15
 -0.190819582357E-15
  0.208166817117E-16
 -0.242861286637E-16
 -0.249800180541E-15
  0.381639164715E-15
 -0.222044604925E-15
 -0.291433543964E-15
 -0.117961196366E-15
 -0.145716771982E-15
 -0.627969898304E-15
  0.728583859910E-16
  0.274086309204E-15
  0.662664367823E-15
  0.145716771982E-15
  0.239391839685E-15
  0.485722573274E-16
  0.235922392733E-15
 -0.367761376907E-15
 -0.222044604925E-15
  0.274086309204E-15
 -0.208166817117E-16
  0.725114412958E-15
 -0.534294830601E-15
  0.131838984174E-15
 -0.277555756156E-15
 -0.100613961607E-15
 -0.451028103754E-16
  0.492661467177E-15
 -0.728583859910E-16
 -0.107552855511E-15
 -0.319189119580E-15
 -0.253269627493E-15
 -0.201227923213E-15
  0.378169717763E-15
  0.312250225676E-16
 -0.381639164715E-16
 -0.294902990916E-15
 -0.284494650060E-15
  0.170002900646E-15
  0.520417042793E-16
  0.693889390391E-17
 -0.589805981832E-16
  0.183880688454E-15
 -0.936750677027E-16
  0.936750677027E-16
  0.147451495458E-15
  0.131838984174E-15
 -0.170436581515E-15
  0.451028103754E-16
  0.754604712050E-16
 -0.187350135405E-15
  0.220309881449E-15
 -0.232452945781E-15
  0.322658566532E-15
  0.277555756156E-16
  0.107552855511E-15
 -0.485722573274E-16
 -0.312250225676E-15
 -0.284494650060E-15
 -0.180411241502E-15
  0.222044604925E-15
 -0.111022302463E-15
  0.277555756156E-16
 -0.215105711021E-15
 -0.180411241502E-15
 -0.902056207508E-16
  0.208166817117E-15
  0.208166817117E-16
 -0.763278329430E-16
  0.111022302463E-15
  0.138777878078E-16
 -0.416333634234E-16
  0.693889390391E-17
  0.194289029309E-15
 -0.971445146547E-16
 -0.902056207508E-16
 -0.142247325030E-15
  0.451028103754E-16
  0.170002900646E-15
 -0.190819582357E-16
  0.693889390391E-17
 -0.150920942410E-15
  0.368628738645E-16
 -0.117961196366E-15
 -0.129236898960E-15
  0.279290479632E-15
  0.797972798949E-16
 -0.104083408559E-16
 -0.142247325030E-15
 -0.416333634234E-16
  0.159594559790E-15
  0.260208521397E-15
 -0.492661467177E-15
  0.461436444610E-15
 -0.232452945781E-15
  0.638378239159E-15
  0.693889390391E-17
 -0.922872889220E-15
 -0.530825383649E-15
  0.662664367823E-15
 -0.589805981832E-15
  0.173472347598E-16
 -0.392047505571E-15
 -0.270616862252E-15
 -0.971445146547E-16
 -0.867361737988E-16
 -0.211636264069E-15
  0.877770078844E-15
  0.627969898304E-15
  0.832667268469E-16
  0.121430643318E-15
 -0.194289029309E-15
  0.419803081186E-15
  0.228983498829E-15
 -0.520417042793E-15
 -0.485722573274E-16
  0.246330733589E-15
  0.173472347598E-16
 -0.104083408559E-16
  0.589805981832E-16
 -0.124900090270E-15
  0.156125112838E-15
 -0.218575157973E-15
 -0.763278329430E-16
 -0.277555756156E-16
 -0.248065457065E-15
 -0.572458747072E-16
 -0.780625564190E-16
 -0.563785129692E-16
  0.767615138120E-16
  0.338271077815E-16
  0.954097911787E-16
 -0.100613961607E-15
 -0.104083408559E-16
 -0.104083408559E-15
  0.232452945781E-15
  0.693889390391E-17
  0.437150315946E-15
 -0.201227923213E-15
 -0.541233724505E-15
  0.138777878078E-16
  0.249800180541E-15
 -0.333066907388E-15
  0.485722573274E-16
  0.381639164715E-15
 -0.222044604925E-15
  0.145716771982E-15
 -0.555111512313E-16
 -0.624500451352E-16
  0.832667268469E-16
  0.416333634234E-16
  0.277555756156E-16
 -0.201227923213E-15
 -0.693889390391E-17
  0.902056207508E-16
  0.124900090270E-15
 -0.156125112838E-15
  0.225514051877E-15
  0.693889390391E-16
  0.416333634234E-15
 -0.954097911787E-16
 -0.170002900646E-15
 -0.137043154602E-15
  0.179543879764E-15
 -0.316587034366E-16
 -0.162196645004E-15
 -0.902056207508E-16
 -0.867361737988E-17
  0.104083408559E-16
 -0.412864187282E-15
 -0.350414142147E-15
 -0.971445146547E-16
  0.107552855511E-15
  0.589805981832E-16
 -0.416333634234E-16
 -0.430211422042E-15
  0.520417042793E-15
 -0.346944695195E-16
 -0.485722573274E-15
  0.235922392733E-15
  0.142247325030E-15
 -0.680011602583E-15
 -0.589805981832E-16
 -0.208166817117E-15
 -0.173472347598E-16
  0.135308431126E-15
  0.222044604925E-15
 -0.693889390391E-16
 -0.544703171457E-15
 -0.134961486431E-14
  0.589805981832E-16
 -0.513478148889E-15
  0.277555756156E-16
 -0.485722573274E-16
 -0.284494650060E-15
  0.291433543964E-15
  0.225514051877E-15
  0.215105711021E-15
 -0.416333634234E-16
  0.138777878078E-15
 -0.902056207508E-16
  0.277555756156E-16
  0.281025203108E-15
 -0.104083408559E-16
  0.378169717763E-15
 -0.315719672628E-15
  0.220309881449E-15
  0.255004350969E-15
  0.832667268469E-16
 -0.165232411087E-15
  0.652689707836E-16
 -0.155257751100E-15
  0.173472347598E-17
 -0.294902990916E-16
 -0.190819582357E-15
 -0.173472347598E-15
 -0.971445146547E-16
 -0.253269627493E-15
 -0.298372437868E-15
  0.402455846427E-15
  0.201227923213E-15
 -0.145716771982E-15
  0.215105711021E-15
  0.180411241502E-15
  0.159594559790E-15
  0.832667268469E-16
  0.763278329430E-16
 -0.152655665886E-15
  0.187350135405E-15
 -0.222044604925E-15
  0.416333634234E-16
  0.902056207508E-16
  0.763278329430E-16
  0.416333634234E-16
  0.187350135405E-15
  0.166533453694E-15
 -0.104083408559E-15
 -0.451028103754E-16
 -0.346944695195E-17
  0.346944695195E-16
  0.589805981832E-16
  0.693889390391E-17
 -0.884708972748E-16
 -0.789299181569E-16
  0.136826314168E-15
 -0.169135538908E-16
 -0.193421667571E-15
  0.277555756156E-16
 -0.364291929955E-16
 -0.107552855511E-15
 -0.294902990916E-15
 -0.173472347598E-15
  0.416333634234E-16
  0.149186218934E-15
 -0.738992200766E-15
 -0.121430643318E-15
 -0.267147415300E-15
 -0.423272528138E-15
 -0.166533453694E-15
  0.832667268469E-16
  0.732053306862E-15
 -0.263677968348E-15
 -0.173472347598E-16
  0.686950496487E-15
 -0.197758476261E-15
 -0.371230823859E-15
 -0.440619762898E-15
 -0.228983498829E-15
  0.253269627493E-15
  0.138777878078E-16
  0.589805981832E-16
  0.624500451352E-16
 -0.152655665886E-15
  0.232452945781E-15
  0.218575157973E-15
 -0.312250225676E-15
  0.239391839685E-15
 -0.239391839685E-15
  0.284494650060E-15
 -0.437150315946E-15
  0.551642065361E-15
  0.156125112838E-15
 -0.336536354340E-15
 -0.319189119580E-15
  0.232452945781E-15
 -0.170002900646E-15
 -0.208166817117E-16
 -0.154390389362E-15
  0.497865637605E-15
 -0.170870262384E-15
  0.287530416143E-15
  0.185398571495E-15
 -0.806646416329E-16
 -0.133573707650E-15
 -0.173472347598E-16
 -0.197758476261E-15
 -0.405925293379E-15
  0.281025203108E-15
 -0.117961196366E-15
 -0.270616862252E-15
 -0.194289029309E-15
  0.138777878078E-16
 -0.277555756156E-15
 -0.971445146547E-16
 -0.902056207508E-16
 -0.555111512313E-16
 -0.104083408559E-15
 -0.277555756156E-16
  0.104083408559E-15
 -0.270616862252E-15
  0.395516952523E-15
 -0.235922392733E-15
 -0.152655665886E-15
 -0.145716771982E-15
  0.971445146547E-16
 -0.409394740331E-15
  0.208166817117E-15
 -0.284494650060E-15
  0.902056207508E-16
 -0.797972798949E-16
  0.173472347598E-16
 -0.149186218934E-15
 -0.468375338514E-16
  0.105818132035E-15
  0.110154940725E-15
 -0.421104123793E-15
 -0.488324658487E-15
 -0.884708972748E-16
  0.360822483003E-15
  0.225514051877E-16
  0.936750677027E-16
 -0.173472347598E-16
  0.131838984174E-15
 -0.388578058619E-15
  0.811850586757E-15
 -0.742461647718E-15
  0.173472347598E-15
  0.145716771982E-15
 -0.541233724505E-15
 -0.249800180541E-15
 -0.326128013484E-15
 -0.274086309204E-15
 -0.204697370165E-15
  0.121430643318E-15
  0.124900090270E-15
  0.329597460436E-15
 -0.104083408559E-16
 -0.104083408559E-15
  0.142247325030E-15
  0.440619762898E-15
 -0.253269627493E-15
 -0.485722573274E-15
  0.149186218934E-15
  0.551642065361E-15
  0.180411241502E-15
 -0.902056207508E-16
 -0.152655665886E-15
  0.308780778724E-15
 -0.173472347598E-15
 -0.728583859910E-16
 -0.346944695195E-16
 -0.246330733589E-15
 -0.346944695195E-16
 -0.173472347598E-16
 -0.211636264069E-15
 -0.131838984174E-15
  0.000000000000E+00
 -0.971445146547E-16
 -0.130104260698E-15
 -0.352148865623E-15
 -0.255871712707E-15
 -0.204263689296E-15
 -0.316587034366E-15
  0.112757025938E-15
 -0.503069808033E-16
 -0.185615411930E-15
 -0.242861286637E-15
 -0.451028103754E-16
  0.208166817117E-16
  0.624500451352E-16
  0.138777878078E-15
 -0.152655665886E-15
 -0.971445146547E-16
  0.693889390391E-16
 -0.256739074445E-15
 -0.902056207508E-16
 -0.208166817117E-15
 -0.388578058619E-15
 -0.284494650060E-15
  0.277555756156E-16
  0.228983498829E-15
  0.111022302463E-15
 -0.971445146547E-16
 -0.485722573274E-15
 -0.124900090270E-15
  0.485722573274E-16
  0.215105711021E-15
 -0.222044604925E-15
  0.693889390391E-17
  0.218575157973E-15
  0.381639164715E-16
  0.225514051877E-15
  0.416333634234E-16
 -0.242861286637E-16
  0.102348685083E-15
 -0.138777878078E-15
  0.685215773011E-16
  0.797972798949E-16
 -0.667868538251E-16
  0.676542155631E-16
  0.607153216592E-16
 -0.242861286637E-15
 -0.111022302463E-15
  0.728583859910E-16
  0.489192020225E-15
  0.655725473919E-15
  0.170002900646E-15
 -0.104083408559E-15
  0.104083408559E-15
  0.180411241502E-15
 -0.478783679370E-15
 -0.159594559790E-15
  0.114491749414E-15
 -0.468375338514E-15
 -0.371230823859E-15
 -0.374700270811E-15
 -0.253269627493E-15
 -0.346944695195E-16
  0.451028103754E-16
  0.343475248243E-15
 -0.222044604925E-15
 -0.381639164715E-16
  0.666133814775E-15
 -0.173472347598E-16
  0.204697370165E-15
 -0.867361737988E-16
  0.326128013484E-15
 -0.183880688454E-15
 -0.520417042793E-16
  0.763278329430E-16
 -0.485722573274E-16
  0.201227923213E-15
  0.867361737988E-16
  0.246330733589E-15
  0.624500451352E-16
  0.287964097012E-15
  0.451028103754E-16
 -0.187350135405E-15
 -0.156125112838E-15
  0.202962646689E-15
  0.173472347598E-16
  0.196891114523E-15
  0.377302356025E-15
  0.951929507442E-16
  0.572458747072E-16
  0.116226472890E-15
 -0.190819582357E-15
  0.138777878078E-16
  0.131838984174E-15
 -0.520417042793E-16
 -0.111022302463E-15
 -0.187350135405E-15
  0.416333634234E-16
  0.610622663544E-15
 -0.104083408559E-15
  0.971445146547E-16
 -0.249800180541E-15
  0.333066907388E-15
  0.346944695195E-16
  0.000000000000E+00
 -0.353883589099E-15
 -0.124900090270E-15
  0.485722573274E-16
  0.353883589099E-15
  0.000000000000E+00
 -0.111022302463E-15
 -0.187350135405E-15
  0.555111512313E-16
 -0.194289029309E-15
 -0.693889390391E-16
 -0.381639164715E-16
 -0.190819582357E-15
 -0.246330733589E-15
 -0.346944695195E-17
 -0.242861286637E-16
 -0.183880688454E-15
  0.199493199737E-15
 -0.954097911787E-16
 -0.364291929955E-15
  0.477048955894E-16
  0.659194920871E-16
 -0.228983498829E-15
  0.152655665886E-15
 -0.426741975090E-15
 -0.381639164715E-15
  0.218575157973E-15
 -0.343475248243E-15
 -0.294902990916E-15
 -0.499600361081E-15
  0.416333634234E-16
 -0.603683769640E-15
  0.971445146547E-16
  0.416333634234E-16
  0.589805981832E-16
 -0.208166817117E-16
 -0.197758476261E-15
 -0.346944695195E-17
  0.145716771982E-15
  0.215105711021E-15
 -0.249800180541E-15
 -0.124900090270E-15
 -0.485722573274E-16
 -0.242861286637E-16
  0.419803081186E-15
 -0.631439345256E-15
  0.163064006742E-15
 -0.197758476261E-15
 -0.152655665886E-15
  0.357353036051E-15
  0.430211422042E-15
 -0.159594559790E-15
  0.284494650060E-15
  0.527355936697E-15
  0.773686670286E-15
  0.222044604925E-15
  0.135308431126E-15
 -0.242861286637E-16
  0.215105711021E-15
  0.156125112838E-15
  0.256739074445E-15
 -0.537764277553E-16
  0.272351585728E-15
 -0.313984949152E-15
  0.242427605768E-15
  0.118178036801E-16
  0.338271077815E-16
  0.102348685083E-15
 -0.175207071074E-15
  0.312250225676E-15
  0.416333634234E-16
  0.111022302463E-15
 -0.104083408559E-16
 -0.416333634234E-16
  0.291433543964E-15
 -0.208166817117E-16
  0.485722573274E-16
 -0.249800180541E-15
 -0.201227923213E-15
 -0.416333634234E-16
 -0.416333634234E-16
 -0.478783679370E-15
  0.117961196366E-15
  0.693889390391E-16
 -0.242861286637E-15
  0.180411241502E-15
 -0.256739074445E-15
  0.902056207508E-16
 -0.145716771982E-15
 -0.346944695195E-16
  0.208166817117E-16
 -0.485722573274E-16
  0.242861286637E-16
 -0.142247325030E-15
 -0.867361737988E-16
 -0.187350135405E-15
 -0.111022302463E-15
 -0.105818132035E-15
  0.173472347598E-17
 -0.919403442268E-16
  0.143114686768E-15
  0.361689844741E-15
 -0.555111512313E-16
  0.520417042793E-16
 -0.371230823859E-15
 -0.797972798949E-16
 -0.104083408559E-15
 -0.402455846427E-15
  0.381639164715E-16
  0.797972798949E-16
 -0.728583859910E-16
 -0.104083408559E-15
 -0.249800180541E-15
 -0.492661467177E-15
 -0.457966997658E-15
 -0.503069808033E-15
 -0.496130914129E-15
 -0.641847686111E-15
 -0.457966997658E-15
 -0.329597460436E-15
 -0.159594559790E-15
 -0.520417042793E-16
 -0.971445146547E-16
  0.208166817117E-15
  0.204697370165E-15
  0.239391839685E-15
 -0.763278329430E-16
  0.281025203108E-15
  0.183880688454E-15
 -0.693889390391E-17
  0.107552855511E-15
  0.232452945781E-15
 -0.426741975090E-15
  0.197758476261E-15
  0.170002900646E-15
  0.936750677027E-16
 -0.211636264069E-15
 -0.350414142147E-15
  0.333066907388E-15
  0.267147415300E-15
 -0.270616862252E-15
 -0.971445146547E-16
 -0.123165366794E-15
  0.213370987545E-15
  0.355618312575E-16
 -0.117093834628E-16
 -0.227574036005E-15
 -0.131838984174E-15
  0.503069808033E-16
  0.298372437868E-15
  0.152655665886E-15
  0.398986399475E-15
  0.346944695195E-15
 -0.704297731247E-15
  0.277555756156E-15
  0.194289029309E-15
 -0.277555756156E-15
 -0.402455846427E-15
  0.166533453694E-15
  0.187350135405E-15
  0.367761376907E-15
 -0.284494650060E-15
 -0.416333634234E-16
  0.187350135405E-15
 -0.180411241502E-15
  0.624500451352E-16
 -0.201227923213E-15
 -0.270616862252E-15
  0.555111512313E-16
 -0.693889390391E-16
  0.624500451352E-16
 -0.138777878078E-15
 -0.131838984174E-15
 -0.114491749414E-15
 -0.971445146547E-16
 -0.104083408559E-15
  0.000000000000E+00
 -0.555111512313E-16
 -0.624500451352E-16
  0.312250225676E-16
 -0.190602741923E-15
 -0.932413868338E-16
 -0.306178693510E-15
 -0.178676518026E-15
  0.145716771982E-15
 -0.104083408559E-15
 -0.107552855511E-15
  0.100613961607E-15
 -0.104083408559E-15
  0.291433543964E-15
  0.228983498829E-15
  0.100613961607E-14
 -0.315719672628E-15
 -0.631439345256E-15
 -0.201227923213E-15
  0.444089209850E-15
  0.659194920871E-16
  0.693889390391E-17
  0.173472347598E-16
 -0.242861286637E-15
 -0.246330733589E-15
 -0.232452945781E-15
 -0.138777878078E-15
  0.166533453694E-15
  0.867361737988E-16
  0.346944695195E-16
  0.135308431126E-15
 -0.451028103754E-16
 -0.253269627493E-15
  0.461436444610E-15
  0.197758476261E-15
  0.163064006742E-15
  0.596744875736E-15
  0.451028103754E-15
  0.145716771982E-15
  0.409394740331E-15
  0.426741975090E-15
 -0.520417042793E-16
 -0.142247325030E-15
 -0.228983498829E-15
 -0.128369537222E-15
 -0.548172618409E-15
 -0.364291929955E-15
 -0.487457296749E-15
 -0.192554305833E-15
 -0.587203896618E-15
 -0.385108611667E-15
 -0.276688394418E-15
 -0.407660016855E-15
 -0.608887940068E-15
 -0.367761376907E-15
  0.346944695195E-15
  0.159594559790E-15
 -0.170002900646E-15
 -0.176941794550E-15
 -0.208166817117E-15
 -0.513478148889E-15
 -0.145716771982E-15
 -0.555111512313E-15
  0.305311331772E-15
  0.215105711021E-15
 -0.478783679370E-15
 -0.346944695195E-16
  0.124900090270E-15
 -0.228983498829E-15
 -0.117961196366E-15
  0.166533453694E-15
 -0.485722573274E-16
  0.159594559790E-15
  0.201227923213E-15
  0.159594559790E-15
 -0.187350135405E-15
  0.117961196366E-15
  0.367761376907E-15
  0.107552855511E-15
  0.346944695195E-17
  0.173472347598E-15
  0.111022302463E-15
  0.459701721134E-15
  0.341740524767E-15
  0.346944695195E-15
  0.157642995879E-15
  0.550341022754E-15
  0.176941794550E-15
  0.376434994287E-15
 -0.107552855511E-15
  0.416333634234E-16
  0.253269627493E-15
  0.693889390391E-16
  0.107552855511E-15
 -0.249800180541E-15
  0.728583859910E-16
  0.357353036051E-15
 -0.208166817117E-16
  0.492661467177E-15
 -0.527355936697E-15
 -0.645317133063E-15
 -0.409394740331E-15
 -0.395516952523E-15
 -0.145369827287E-14
  0.346944695195E-17
  0.107552855511E-15
  0.100613961607E-15
 -0.336536354340E-15
 -0.242861286637E-16
  0.204697370165E-15
 -0.260208521397E-15
  0.263677968348E-15
  0.124900090270E-15
 -0.260208521397E-15
 -0.215105711021E-15
 -0.242861286637E-15
 -0.693889390391E-17
 -0.485722573274E-16
 -0.138777878078E-15
  0.419803081186E-15
 -0.381639164715E-16
 -0.152655665886E-15
 -0.149186218934E-15
 -0.114491749414E-15
  0.253269627493E-15
 -0.156125112838E-15
  0.170002900646E-15
 -0.225514051877E-15
  0.832667268469E-16
 -0.647051856539E-15
 -0.421537804662E-15
 -0.328730098698E-15
 -0.182145964978E-15
 -0.289698820488E-15
 -0.237657116209E-15
 -0.124900090270E-15
  0.117961196366E-15
  0.149186218934E-15
 -0.419803081186E-15
 -0.322658566532E-15
 -0.374700270811E-15
 -0.138777878078E-16
  0.485722573274E-16
  0.249800180541E-15
 -0.208166817117E-16
 -0.201227923213E-15
  0.562050406216E-15
  0.693889390391E-16
 -0.485722573274E-16
  0.693889390391E-16
  0.111022302463E-15
  0.367761376907E-15
  0.117961196366E-15
  0.111022302463E-15
  0.131838984174E-15
  0.138777878078E-15
  0.513478148889E-15
  0.298372437868E-15
  0.187350135405E-15
  0.107552855511E-15
  0.340005801291E-15
  0.329597460436E-15
  0.270616862252E-15
  0.196023752785E-15
  0.444089209850E-15
  0.198625837999E-15