# vtk DataFile Version 3.0
MachLine results file. Generated by MachLine, USU AeroLab (c) 2022.
ASCII
DATASET POLYDATA
POINTS                1502 float
  0.640727973946E-07  0.153764987899E-24  0.000000000000E+00
  0.415603951267E-01  0.442531071290E-24  0.487637560083E-01
  0.415603922145E-01  0.154061961979E-01  0.462760190820E-01
  0.415603921030E-01  0.287914539913E-01  0.393499896236E-01
  0.415603921146E-01  0.393499896149E-01  0.287914539850E-01
  0.415603922499E-01  0.462760190510E-01  0.154061961877E-01
  0.415603881240E-01  0.487637624708E-01  0.268175999871E-24
  0.415603922499E-01  0.462760190510E-01 -0.154061961877E-01
  0.415603921146E-01  0.393499896149E-01 -0.287914539850E-01
  0.415603921030E-01  0.287914539913E-01 -0.393499896236E-01
  0.415603922145E-01  0.154061961979E-01 -0.462760190820E-01
  0.415603951267E-01 -0.470189263245E-24 -0.487637560083E-01
  0.415603922145E-01 -0.154061961979E-01 -0.462760190820E-01
  0.415603921030E-01 -0.287914539913E-01 -0.393499896236E-01
  0.415603921146E-01 -0.393499896149E-01 -0.287914539850E-01
  0.415603922499E-01 -0.462760190510E-01 -0.154061961877E-01
  0.415603881240E-01 -0.487637624708E-01 -0.268175999871E-24
  0.415603922499E-01 -0.462760190510E-01  0.154061961877E-01
  0.415603921146E-01 -0.393499896149E-01  0.287914539850E-01
  0.415603921030E-01 -0.287914539913E-01  0.393499896236E-01
  0.415603922145E-01 -0.154061961979E-01  0.462760190820E-01
  0.873305539836E-01  0.000000000000E+00  0.950964250256E-01
  0.873305529514E-01  0.300443246232E-01  0.902449718408E-01
  0.873305527510E-01  0.561475253538E-01  0.767382064450E-01
  0.873305527658E-01  0.767382064324E-01  0.561475253446E-01
  0.873305529949E-01  0.902449717968E-01  0.300443246087E-01
  0.873305522861E-01  0.950964268340E-01 -0.368083193328E-24
  0.873305529949E-01  0.902449717968E-01 -0.300443246087E-01
  0.873305527658E-01  0.767382064324E-01 -0.561475253446E-01
  0.873305527510E-01  0.561475253538E-01 -0.767382064450E-01
  0.873305529514E-01  0.300443246232E-01 -0.902449718408E-01
  0.873305539836E-01  0.000000000000E+00 -0.950964250256E-01
  0.873305529514E-01 -0.300443246232E-01 -0.902449718408E-01
  0.873305527510E-01 -0.561475253538E-01 -0.767382064450E-01
  0.873305527658E-01 -0.767382064324E-01 -0.561475253446E-01
  0.873305529949E-01 -0.902449717968E-01 -0.300443246087E-01
  0.873305522861E-01 -0.950964268340E-01  0.368083193328E-24
  0.873305529949E-01 -0.902449717968E-01  0.300443246087E-01
  0.873305527658E-01 -0.767382064324E-01  0.561475253446E-01
  0.873305527510E-01 -0.561475253538E-01  0.767382064450E-01
  0.873305529514E-01 -0.300443246232E-01  0.902449718408E-01
  0.137365182309E+00 -0.220277248152E-24  0.139059943253E+00
  0.137365181080E+00  0.439339551443E-01  0.131965640667E+00
  0.137365180779E+00  0.821047866348E-01  0.112214635065E+00
  0.137365180795E+00  0.112214635049E+00  0.821047866232E-01
  0.137365181126E+00  0.131965640613E+00  0.439339551266E-01
  0.137365180378E+00  0.139059945616E+00  0.280071211435E-24
  0.137365181126E+00  0.131965640613E+00 -0.439339551266E-01
  0.137365180795E+00  0.112214635049E+00 -0.821047866232E-01
  0.137365180779E+00  0.821047866348E-01 -0.112214635065E+00
  0.137365181080E+00  0.439339551443E-01 -0.131965640667E+00
  0.137365182309E+00  0.293702997536E-24 -0.139059943253E+00
  0.137365181080E+00 -0.439339551443E-01 -0.131965640667E+00
  0.137365180779E+00 -0.821047866348E-01 -0.112214635065E+00
  0.137365180795E+00 -0.112214635049E+00 -0.821047866232E-01
  0.137365181126E+00 -0.131965640613E+00 -0.439339551266E-01
  0.137365180378E+00 -0.139059945616E+00 -0.280071211435E-24
  0.137365181126E+00 -0.131965640613E+00  0.439339551266E-01
  0.137365180795E+00 -0.112214635049E+00  0.821047866232E-01
  0.137365180779E+00 -0.821047866348E-01  0.112214635065E+00
  0.137365181080E+00 -0.439339551443E-01  0.131965640667E+00
  0.191718952635E+00  0.331800693210E-24  0.180716273373E+00
  0.191718951331E+00  0.570946633138E-01  0.171496825190E+00
  0.191718950946E+00  0.106699821053E+00  0.145829274658E+00
  0.191718950961E+00  0.145829274641E+00  0.106699821040E+00
  0.191718951375E+00  0.171496825133E+00  0.570946632948E-01
  0.191718950682E+00  0.180716276105E+00  0.000000000000E+00
  0.191718951375E+00  0.171496825133E+00 -0.570946632948E-01
  0.191718950961E+00  0.145829274641E+00 -0.106699821040E+00
  0.191718950946E+00  0.106699821053E+00 -0.145829274658E+00
  0.191718951331E+00  0.570946633138E-01 -0.171496825190E+00
  0.191718952635E+00 -0.331800693210E-24 -0.180716273373E+00
  0.191718951331E+00 -0.570946633138E-01 -0.171496825190E+00
  0.191718950946E+00 -0.106699821053E+00 -0.145829274658E+00
  0.191718950961E+00 -0.145829274641E+00 -0.106699821040E+00
  0.191718951375E+00 -0.171496825133E+00 -0.570946632948E-01
  0.191718950682E+00 -0.180716276105E+00  0.000000000000E+00
  0.191718951375E+00 -0.171496825133E+00  0.570946632948E-01
  0.191718950961E+00 -0.145829274641E+00  0.106699821040E+00
  0.191718950946E+00 -0.106699821053E+00  0.145829274658E+00
  0.191718951331E+00 -0.570946633138E-01  0.171496825190E+00
  0.250446537626E+00 -0.277472738961E-24  0.220127378035E+00
  0.250446536325E+00  0.695460253281E-01  0.208897326959E+00
  0.250446535876E+00  0.129969213055E+00  0.177632126092E+00
  0.250446535890E+00  0.177632126074E+00  0.129969213042E+00
  0.250446536364E+00  0.208897326901E+00  0.695460253089E-01
  0.250446535769E+00  0.220127380994E+00 -0.177170159892E-24
  0.250446536364E+00  0.208897326901E+00 -0.695460253089E-01
  0.250446535890E+00  0.177632126074E+00 -0.129969213042E+00
  0.250446535876E+00  0.129969213055E+00 -0.177632126092E+00
  0.250446536325E+00  0.695460253281E-01 -0.208897326959E+00
  0.250446537626E+00  0.554945477922E-24 -0.220127378035E+00
  0.250446536325E+00 -0.695460253281E-01 -0.208897326959E+00
  0.250446535876E+00 -0.129969213055E+00 -0.177632126092E+00
  0.250446535890E+00 -0.177632126074E+00 -0.129969213042E+00
  0.250446536364E+00 -0.208897326901E+00 -0.695460253089E-01
  0.250446535769E+00 -0.220127380994E+00  0.177170159892E-24
  0.250446536364E+00 -0.208897326901E+00  0.695460253089E-01
  0.250446535890E+00 -0.177632126074E+00  0.129969213042E+00
  0.250446535876E+00 -0.129969213055E+00  0.177632126092E+00
  0.250446536325E+00 -0.695460253281E-01  0.208897326959E+00
  0.313602610010E+00  0.101924108192E-24  0.257355219826E+00
  0.313602608757E+00  0.813076173615E-01  0.244225947478E+00
  0.313602608264E+00  0.151949547030E+00  0.207673190164E+00
  0.313602608276E+00  0.207673190146E+00  0.151949547017E+00
  0.313602608790E+00  0.244225947421E+00  0.813076173427E-01
  0.313602608307E+00  0.257355222911E+00  0.000000000000E+00
  0.313602608790E+00  0.244225947421E+00 -0.813076173427E-01
  0.313602608276E+00  0.207673190146E+00 -0.151949547017E+00
  0.313602608264E+00  0.151949547030E+00 -0.207673190164E+00
  0.313602608757E+00  0.813076173615E-01 -0.244225947478E+00
  0.313602610010E+00  0.203848216383E-24 -0.257355219826E+00
  0.313602608757E+00 -0.813076173615E-01 -0.244225947478E+00
  0.313602608264E+00 -0.151949547030E+00 -0.207673190164E+00
  0.313602608276E+00 -0.207673190146E+00 -0.151949547017E+00
  0.313602608790E+00 -0.244225947421E+00 -0.813076173427E-01
  0.313602608307E+00 -0.257355222911E+00  0.000000000000E+00
  0.313602608790E+00 -0.244225947421E+00  0.813076173427E-01
  0.313602608276E+00 -0.207673190146E+00  0.151949547017E+00
  0.313602608264E+00 -0.151949547030E+00  0.207673190164E+00
  0.313602608757E+00 -0.813076173615E-01  0.244225947478E+00
  0.381241842587E+00  0.889378116631E-24  0.292461761263E+00
  0.381241841405E+00  0.923990155728E-01  0.277541488208E+00
  0.381241840887E+00  0.172677407368E+00  0.236002467650E+00
  0.381241840898E+00  0.236002467632E+00  0.172677407355E+00
  0.381241841433E+00  0.277541488153E+00  0.923990155548E-01
  0.381241841060E+00  0.292461764401E+00 -0.214537087344E-24
  0.381241841433E+00  0.277541488153E+00 -0.923990155548E-01
  0.381241840898E+00  0.236002467632E+00 -0.172677407355E+00
  0.381241840887E+00  0.172677407368E+00 -0.236002467650E+00
  0.381241841405E+00  0.923990155728E-01 -0.277541488208E+00
  0.381241842587E+00 -0.444689058316E-24 -0.292461761263E+00
  0.381241841405E+00 -0.923990155728E-01 -0.277541488208E+00
  0.381241840887E+00 -0.172677407368E+00 -0.236002467650E+00
  0.381241840898E+00 -0.236002467632E+00 -0.172677407355E+00
  0.381241841433E+00 -0.277541488153E+00 -0.923990155548E-01
  0.381241841060E+00 -0.292461764401E+00  0.214537087344E-24
  0.381241841433E+00 -0.277541488153E+00  0.923990155548E-01
  0.381241840898E+00 -0.236002467632E+00  0.172677407355E+00
  0.381241840887E+00 -0.172677407368E+00  0.236002467650E+00
  0.381241841405E+00 -0.923990155728E-01  0.277541488208E+00
  0.453418908131E+00 -0.240374150923E-24  0.325508964850E+00
  0.453418907035E+00  0.102839796111E+00  0.308902750564E+00
  0.453418906506E+00  0.192189378414E+00  0.262669959286E+00
  0.453418906515E+00  0.262669959270E+00  0.192189378402E+00
  0.453418907058E+00  0.308902750512E+00  0.102839796094E+00
  0.453418906783E+00  0.325508967988E+00  0.698190767390E-24
  0.453418907058E+00  0.308902750512E+00 -0.102839796094E+00
  0.453418906515E+00  0.262669959270E+00 -0.192189378402E+00
  0.453418906506E+00  0.192189378414E+00 -0.262669959286E+00
  0.453418907035E+00  0.102839796111E+00 -0.308902750564E+00
  0.453418908131E+00  0.240374150923E-24 -0.325508964850E+00
  0.453418907035E+00 -0.102839796111E+00 -0.308902750564E+00
  0.453418906506E+00 -0.192189378414E+00 -0.262669959286E+00
  0.453418906515E+00 -0.262669959270E+00 -0.192189378402E+00
  0.453418907058E+00 -0.308902750512E+00 -0.102839796094E+00
  0.453418906783E+00 -0.325508967988E+00 -0.698190767390E-24
  0.453418907058E+00 -0.308902750512E+00  0.102839796094E+00
  0.453418906515E+00 -0.262669959270E+00  0.192189378402E+00
  0.453418906506E+00 -0.192189378414E+00  0.262669959286E+00
  0.453418907035E+00 -0.102839796111E+00  0.308902750564E+00
[...]
POINT_DATA                1502
SCALARS phi float 1
LOOKUP_TABLE default
  0.000000000000E+00
  0.000000000000E+00
  0.000000000000E+00
  0.000000000000E+00
  0.000000000000E+00
  0.000000000000E+00
  0.000000000000E+00
  0.000000000000E+00
  0.000000000000E+00
  0.000000000000E+00
  0.000000000000E+00
  0.000000000000E+00
  0.000000000000E+00
  0.000000000000E+00
  0.000000000000E+00
  0.000000000000E+00
  0.000000000000E+00
  0.000000000000E+00
  0.000000000000E+00
  0.000000000000E+00
  0.000000000000E+00
  0.000000000000E+00
  0.000000000000E+00
  0.000000000000E+00
  0.000000000000E+00
  0.000000000000E+00
  0.000000000000E+00
  0.000000000000E+00
  0.000000000000E+00
  0.000000000000E+00
  0.000000000000E+00
  0.000000000000E+00
  0.000000000000E+00
  0.000000000000E+00
  0.000000000000E+00
  0.000000000000E+00
  0.000000000000E+00
  0.000000000000E+00
  0.000000000000E+00
  0.000000000000E+00
  0.000000000000E+00
  0.000000000000E+00
  0.000000000000E+00
  0.000000000000E+00
  0.000000000000E+00
  0.000000000000E+00
  0.000000000000E+00
  0.000000000000E+00
  0.000000000000E+00
  0.000000000000E+00
  0.000000000000E+00
  0.000000000000E+00
  0.000000000000E+00
  0.000000000000E+00
  0.000000000000E+00
  0.000000000000E+00
  0.000000000000E+00
  0.000000000000E+00
  0.000000000000E+00
  0.000000000000E+00
  0.000000000000E+00
  0.000000000000E+00
  0.000000000000E+00
  0.000000000000E+00
  0.000000000000E+00
  0.000000000000E+00
  0.000000000000E+00
  0.000000000000E+00
  0.000000000000E+00
  0.000000000000E+00
  0.000000000000E+00
  0.000000000000E+00
  0.000000000000E+00
  0.000000000000E+00
  0.000000000000E+00
  0.000000000000E+00
  0.000000000000E+00
  0.000000000000E+00
  0.000000000000E+00
  0.000000000000E+00
  0.000000000000E+00
  0.000000000000E+00
  0.000000000000E+00
  0.000000000000E+00
  0.000000000000E+00
  0.000000000000E+00
  0.000000000000E+00
  0.000000000000E+00
  0.000000000000E+00
  0.000000000000E+00
  0.000000000000E+00
  0.000000000000E+00
  0.000000000000E+00
  0.000000000000E+00
  0.000000000000E+00
  0.000000000000E+00
  0.000000000000E+00
  0.000000000000E+00
  0.000000000000E+00
  0.000000000000E+00
  0.000000000000E+00
  0.000000000000E+00
  0.000000000000E+00
  0.000000000000E+00
  0.000000000000E+00
  0.000000000000E+00
  0.000000000000E+00
  0.000000000000E+00
  0.000000000000E+00
  0.000000000000E+00
  0.000000000000E+00
  0.000000000000E+00
  0.000000000000E+00
  0.000000000000E+00
  0.000000000000E+00
  0.000000000000E+00
  0.000000000000E+00
  0.000000000000E+00
  0.000000000000E+00
  0.000000000000E+00
  0.000000000000E+00
  0.000000000000E+00
  0.000000000000E+00
  0.000000000000E+00
  0.000000000000E+00
 -0.346944695195E-17
  0.000000000000E+00
  0.000000000000E+00
  0.000000000000E+00
 -0.693889390391E-17
  0.000000000000E+00
  0.000000000000E+00
  0.000000000000E+00
  0.000000000000E+00
  0.000000000000E+00
 -0.346944695195E-17
  0.000000000000E+00
  0.000000000000E+00
  0.000000000000E+00
 -0.693889390391E-17
  0.000000000000E+00
  0.000000000000E+00
  0.000000000000E+00
 -0.693889390391E-17
  0.000000000000E+00
  0.000000000000E+00
  0.693889390391E-17
  0.000000000000E+00
  0.000000000000E+00
 -0.693889390391E-17
  0.693889390391E-17
  0.000000000000E+00
  0.000000000000E+00
 -0.693889390391E-17
  0.000000000000E+00
  0.000000000000E+00
  0.693889390391E-17
  0.000000000000E+00
  0.000000000000E+00
 -0.693889390391E-17
  0.138777878078E-16
  0.138777878078E-16
  0.000000000000E+00
  0.693889390391E-17
 -0.693889390391E-17
  0.693889390391E-17
  0.000000000000E+00
 -0.693889390391E-17
 -0.693889390391E-17
 -0.693889390391E-17
  0.000000000000E+00
  0.208166817117E-16
  0.000000000000E+00
  0.693889390391E-17
 -0.693889390391E-17
  0.693889390391E-17
  0.000000000000E+00
 -0.693889390391E-17
 -0.693889390391E-17
 -0.693889390391E-17
  0.693889390391E-17
  0.138777878078E-16
  0.277555756156E-16
  0.138777878078E-16
  0.000000000000E+00
 -0.138777878078E-16
 -0.277555756156E-16
 -0.277555756156E-16
  0.000000000000E+00
  0.277555756156E-16
  0.138777878078E-16
  0.138777878078E-16
  0.277555756156E-16
  0.138777878078E-16
  0.000000000000E+00
 -0.138777878078E-16
 -0.277555756156E-16
 -0.277555756156E-16
  0.000000000000E+00
  0.277555756156E-16
  0.000000000000E+00
 -0.138777878078E-16
  0.416333634234E-16
  0.555111512313E-16
  0.138777878078E-16
 -0.277555756156E-16
 -0.138777878078E-16
  0.416333634234E-16
  0.277555756156E-16
 -0.277555756156E-16
  0.138777878078E-16
 -0.693889390391E-16
  0.555111512313E-16
  0.555111512313E-16
  0.138777878078E-16
 -0.277555756156E-16
 -0.138777878078E-16
  0.416333634234E-16
  0.277555756156E-16
 -0.416333634234E-16
  0.000000000000E+00
  0.138777878078E-16
  0.000000000000E+00
  0.138777878078E-16
  0.000000000000E+00
  0.000000000000E+00
 -0.693889390391E-16
  0.000000000000E+00
 -0.277555756156E-16
  0.000000000000E+00
  0.000000000000E+00
  0.000000000000E+00
  0.000000000000E+00
  0.138777878078E-16
  0.000000000000E+00
  0.000000000000E+00
 -0.693889390391E-16
  0.000000000000E+00
 -0.277555756156E-16
 -0.138777878078E-16
  0.277555756156E-16
 -0.416333634234E-16
  0.416333634234E-16
 -0.555111512313E-16
 -0.416333634234E-16
  0.000000000000E+00
 -0.693889390391E-16
 -0.416333634234E-16
  0.000000000000E+00
 -0.416333634234E-16
  0.555111512313E-16
 -0.693889390391E-16
  0.555111512313E-16
 -0.555111512313E-16
 -0.416333634234E-16
  0.000000000000E+00
 -0.693889390391E-16
 -0.416333634234E-16
  0.000000000000E+00
 -0.277555756156E-16
  0.555111512313E-16
  0.693889390391E-16
  0.138777878078E-16
  0.416333634234E-16
  0.277555756156E-16
  0.555111512313E-16
 -0.138777878078E-16
 -0.277555756156E-16
 -0.416333634234E-16
  0.555111512313E-16
  0.000000000000E+00
  0.277555756156E-16
 -0.138777878078E-16
  0.416333634234E-16
  0.277555756156E-16
  0.555111512313E-16
 -0.138777878078E-16
 -0.277555756156E-16
 -0.555111512313E-16
  0.416333634234E-16
  0.000000000000E+00
  0.555111512313E-16
  0.555111512313E-16
  0.555111512313E-16
 -0.971445146547E-16
 -0.693889390391E-16
 -0.416333634234E-16
 -0.138777878078E-16
  0.000000000000E+00
  0.138777878078E-16
 -0.416333634234E-16
  0.124900090270E-15
  0.555111512313E-16
  0.555111512313E-16
 -0.971445146547E-16
 -0.693889390391E-16
 -0.416333634234E-16
 -0.138777878078E-16
 -0.277555756156E-16
  0.416333634234E-16
  0.138777878078E-16
  0.555111512313E-16
 -0.555111512313E-16
  0.000000000000E+00
 -0.555111512313E-16
 -0.277555756156E-16
 -0.277555756156E-16
  0.111022302463E-15
  0.832667268469E-16
  0.277555756156E-16
  0.277555756156E-16
  0.166533453694E-15
 -0.555111512313E-16
  0.000000000000E+00
 -0.555111512313E-16
 -0.277555756156E-16
 -0.277555756156E-16
  0.111022302463E-15
  0.832667268469E-16
  0.000000000000E+00
  0.555111512313E-16
  0.832667268469E-16
  0.555111512313E-16
 -0.555111512313E-16
 -0.277555756156E-16
  0.555111512313E-16
 -0.832667268469E-16
 -0.277555756156E-16
 -0.832667268469E-16
 -0.111022302463E-15
 -0.555111512313E-16
 -0.277555756156E-16
  0.277555756156E-16
 -0.555111512313E-16
 -0.277555756156E-16
  0.555111512313E-16
 -0.832667268469E-16
 -0.555111512313E-16
 -0.111022302463E-15
 -0.832667268469E-16
  0.000000000000E+00
  0.166533453694E-15
 -0.194289029309E-15
  0.000000000000E+00
  0.138777878078E-15
  0.277555756156E-16
 -0.555111512313E-16
 -0.111022302463E-15
  0.832667268469E-16
  0.138777878078E-15
  0.555111512313E-16
  0.555111512313E-16
 -0.194289029309E-15
 -0.555111512313E-16
  0.138777878078E-15
  0.277555756156E-16
 -0.555111512313E-16
 -0.111022302463E-15
  0.111022302463E-15
  0.138777878078E-15
 -0.555111512313E-16
  0.832667268469E-16
  0.555111512313E-16
 -0.832667268469E-16
 -0.832667268469E-16
  0.832667268469E-16
  0.555111512313E-16
  0.138777878078E-15
 -0.111022302463E-15
 -0.555111512313E-16
 -0.832667268469E-16
  0.555111512313E-16
  0.555111512313E-16
 -0.555111512313E-16
 -0.832667268469E-16
  0.832667268469E-16
  0.555111512313E-16
  0.138777878078E-15
 -0.138777878078E-15
 -0.277555756156E-16
 -0.555111512313E-16
 -0.832667268469E-16
  0.000000000000E+00
  0.000000000000E+00
  0.000000000000E+00
 -0.222044604925E-15
 -0.111022302463E-15
  0.277555756156E-16
  0.111022302463E-15
  0.277555756156E-16
  0.555111512313E-16
  0.555111512313E-16
 -0.277555756156E-16
 -0.555111512313E-16
  0.277555756156E-16
 -0.277555756156E-15
 -0.111022302463E-15
  0.000000000000E+00
  0.111022302463E-15
 -0.277555756156E-16
  0.111022302463E-15
 -0.194289029309E-15
  0.555111512313E-16
 -0.222044604925E-15
 -0.194289029309E-15
  0.138777878078E-15
  0.832667268469E-16
 -0.277555756156E-16
  0.111022302463E-15
 -0.194289029309E-15
 -0.194289029309E-15
 -0.277555756156E-16
  0.000000000000E+00
 -0.194289029309E-15
 -0.166533453694E-15
  0.832667268469E-16
  0.832667268469E-16
 -0.277555756156E-16
  0.166533453694E-15
 -0.166533453694E-15
 -0.166533453694E-15
  0.555111512313E-16
 -0.277555756156E-16
 -0.555111512313E-16
  0.832667268469E-16
 -0.222044604925E-15
  0.277555756156E-16
  0.000000000000E+00
 -0.832667268469E-16
 -0.832667268469E-16
 -0.555111512313E-16
  0.166533453694E-15
 -0.555111512313E-16
 -0.832667268469E-16
  0.222044604925E-15
 -0.222044604925E-15
  0.000000000000E+00
 -0.555111512313E-16
 -0.111022302463E-15
  0.000000000000E+00
  0.277555756156E-16
 -0.277555756156E-16
  0.111022302463E-15
  0.000000000000E+00
 -0.277555756156E-16
  0.194289029309E-15
  0.277555756156E-16
 -0.111022302463E-15
 -0.111022302463E-15
 -0.277555756156E-16
  0.277555756156E-16
  0.832667268469E-16
  0.166533453694E-15
  0.832667268469E-16
 -0.555111512313E-16
  0.194289029309E-15
  0.277555756156E-16
 -0.111022302463E-15
  0.000000000000E+00
 -0.277555756156E-16
  0.277555756156E-15
  0.832667268469E-16
 -0.277555756156E-16
 -0.555111512313E-16
  0.138777878078E-15
  0.000000000000E+00
 -0.832667268469E-16
 -0.222044604925E-15
 -0.277555756156E-16
 -0.222044604925E-15
 -0.555111512313E-16
  0.194289029309E-15
 -0.277555756156E-16
 -0.555111512313E-16
  0.222044604925E-15
 -0.111022302463E-15
 -0.277555756156E-16
 -0.194289029309E-15
 -0.111022302463E-15
 -0.166533453694E-15
 -0.138777878078E-15
 -0.832667268469E-16
 -0.194289029309E-15
 -0.832667268469E-16
 -0.166533453694E-15
  0.555111512313E-16
 -0.555111512313E-16
 -0.277555756156E-15
 -0.138777878078E-15
  0.832667268469E-16
 -0.138777878078E-15
 -0.832667268469E-16
 -0.249800180541E-15
 -0.138777878078E-15
 -0.166533453694E-15
 -0.277555756156E-16
  0.277555756156E-16
 -0.138777878078E-15
  0.000000000000E+00
  0.000000000000E+00
  0.000000000000E+00
  0.194289029309E-15
 -0.249800180541E-15
  0.222044604925E-15
 -0.832667268469E-16
 -0.166533453694E-15
 -0.555111512313E-16
 -0.416333634234E-15
 -0.166533453694E-15
  0.388578058619E-15
 -0.277555756156E-16
  0.000000000000E+00
 -0.166533453694E-15
  0.194289029309E-15
  0.000000000000E+00
  0.555111512313E-16
 -0.277555756156E-16
 -0.194289029309E-15
 -0.555111512313E-16
  0.333066907388E-15
 -0.333066907388E-15
  0.111022302463E-15
  0.832667268469E-16
  0.111022302463E-15
  0.194289029309E-15
  0.305311331772E-15
  0.832667268469E-16
  0.138777878078E-15
  0.555111512313E-16
 -0.277555756156E-15
  0.555111512313E-16
  0.249800180541E-15
 -0.832667268469E-16
  0.555111512313E-16
  0.305311331772E-15
  0.277555756156E-15
  0.222044604925E-15
  0.832667268469E-16
  0.249800180541E-15
 -0.222044604925E-15
 -0.111022302463E-15
  0.222044604925E-15
 -0.555111512313E-16
  0.277555756156E-15
  0.111022302463E-15
 -0.832667268469E-16
  0.388578058619E-15
 -0.277555756156E-15
  0.555111512313E-16
  0.305311331772E-15
 -0.277555756156E-16
  0.000000000000E+00
 -0.166533453694E-15
  0.832667268469E-16
  0.138777878078E-15
 -0.832667268469E-16
  0.416333634234E-15
 -0.555111512313E-16
  0.000000000000E+00
  0.194289029309E-15
 -0.111022302463E-15
  0.832667268469E-16
 -0.194289029309E-15
  0.555111512313E-16
 -0.444089209850E-15
 -0.555111512313E-16
 -0.277555756156E-16
  0.000000000000E+00
  0.555111512313E-16
 -0.111022302463E-15
 -0.555111512313E-16
  0.249800180541E-15
 -0.277555756156E-15
  0.277555756156E-16
 -0.277555756156E-15
 -0.555111512313E-16
  0.000000000000E+00
 -0.832667268469E-16
  0.277555756156E-16
 -0.555111512313E-16
 -0.277555756156E-15
  0.555111512313E-16
 -0.111022302463E-15
 -0.138777878078E-15
  0.138777878078E-15
  0.138777878078E-15
 -0.111022302463E-15
  0.000000000000E+00
 -0.277555756156E-16
  0.111022302463E-15
 -0.277555756156E-16
 -0.166533453694E-15
 -0.555111512313E-16
  0.832667268469E-16
  0.222044604925E-15
  0.249800180541E-15
 -0.166533453694E-15
  0.222044604925E-15
 -0.166533453694E-15
  0.277555756156E-16
  0.138777878078E-15
 -0.832667268469E-16
  0.222044604925E-15
  0.000000000000E+00
 -0.555111512313E-16
 -0.388578058619E-15
  0.832667268469E-16
  0.471844785466E-15
  0.000000000000E+00
  0.000000000000E+00
 -0.333066907388E-15
 -0.166533453694E-15
  0.111022302463E-15
 -0.305311331772E-15
  0.138777878078E-15
 -0.222044604925E-15
  0.555111512313E-16
  0.499600361081E-15
 -0.166533453694E-15
 -0.194289029309E-15
 -0.471844785466E-15
 -0.555111512313E-16
  0.166533453694E-15
  0.832667268469E-16
 -0.555111512313E-16
  0.305311331772E-15
  0.222044604925E-15
 -0.222044604925E-15
 -0.277555756156E-15
  0.194289029309E-15
 -0.832667268469E-16
 -0.166533453694E-15
  0.222044604925E-15
  0.138777878078E-15
  0.277555756156E-16
  0.305311331772E-15
  0.333066907388E-15
 -0.222044604925E-15
 -0.222044604925E-15
  0.360822483003E-15
  0.305311331772E-15
  0.166533453694E-15
  0.555111512313E-16
 -0.832667268469E-16
  0.166533453694E-15
 -0.194289029309E-15
 -0.111022302463E-15
 -0.388578058619E-15
  0.277555756156E-16
 -0.111022302463E-15
 -0.277555756156E-16
 -0.222044604925E-15
 -0.138777878078E-15
 -0.138777878078E-15
  0.166533453694E-15
 -0.832667268469E-16
 -0.249800180541E-15
 -0.277555756156E-15
  0.277555756156E-15
 -0.832667268469E-16
 -0.277555756156E-16
  0.832667268469E-16
 -0.138777878078E-15
  0.111022302463E-15
 -0.333066907388E-15
 -0.222044604925E-15
  0.305311331772E-15
  0.305311331772E-15
  0.222044604925E-15
 -0.111022302463E-15
 -0.111022302463E-15
  0.277555756156E-16
 -0.249800180541E-15
  0.832667268469E-16
 -0.194289029309E-15
 -0.111022302463E-15
  0.194289029309E-15
  0.277555756156E-15
  0.222044604925E-15
  0.000000000000E+00
  0.138777878078E-15
  0.249800180541E-15
  0.111022302463E-15
 -0.277555756156E-16
 -0.166533453694E-15
 -0.277555756156E-16
 -0.111022302463E-15
  0.111022302463E-15
 -0.194289029309E-15
  0.000000000000E+00
  0.194289029309E-15
  0.277555756156E-16
  0.832667268469E-16
 -0.277555756156E-16
 -0.277555756156E-16
 -0.166533453694E-15
 -0.832667268469E-16
  0.138777878078E-15
 -0.277555756156E-16
  0.277555756156E-16
  0.832667268469E-16
  0.222044604925E-15
 -0.166533453694E-15
 -0.277555756156E-16
 -0.555111512313E-16
  0.555111512313E-16
  0.277555756156E-15
  0.277555756156E-16
  0.305311331772E-15
 -0.277555756156E-16
 -0.277555756156E-16
  0.249800180541E-15
 -0.138777878078E-15
 -0.555111512313E-16
 -0.111022302463E-15
 -0.832667268469E-16
  0.249800180541E-15
  0.138777878078E-15
  0.305311331772E-15
  0.832667268469E-16
  0.138777878078E-15
 -0.138777878078E-15
  0.166533453694E-15
  0.277555756156E-16
  0.832667268469E-16
  0.111022302463E-15
 -0.194289029309E-15
 -0.222044604925E-15
  0.000000000000E+00
 -0.832667268469E-16
  0.194289029309E-15
 -0.277555756156E-16
  0.111022302463E-15
 -0.555111512313E-16
  0.138777878078E-15
  0.111022302463E-15
 -0.832667268469E-16
 -0.555111512313E-16
  0.000000000000E+00
 -0.277555756156E-16
  0.832667268469E-16
  0.138777878078E-15
  0.291433543964E-15
  0.111022302463E-15
 -0.138777878078E-15
  0.124900090270E-15
  0.444089209850E-15
 -0.138777878078E-16
  0.000000000000E+00
  0.124900090270E-15
 -0.305311331772E-15
  0.416333634234E-16
  0.138777878078E-15
  0.138777878078E-16
 -0.166533453694E-15
 -0.277555756156E-16
  0.388578058619E-15
  0.138777878078E-16
  0.555111512313E-16
  0.194289029309E-15
 -0.166533453694E-15
 -0.124900090270E-15
  0.138777878078E-15
  0.971445146547E-16
  0.277555756156E-16
 -0.111022302463E-15
  0.138777878078E-15
  0.555111512313E-16
  0.152655665886E-15
  0.277555756156E-16
  0.693889390391E-16
  0.416333634234E-16
  0.416333634234E-16
 -0.138777878078E-16
  0.555111512313E-16
 -0.263677968348E-15
  0.208166817117E-15
  0.152655665886E-15
  0.194289029309E-15
  0.124900090270E-15
  0.124900090270E-15
 -0.555111512313E-16
  0.319189119580E-15
  0.555111512313E-16
  0.180411241502E-15
 -0.693889390391E-16
 -0.124900090270E-15
  0.416333634234E-16
  0.000000000000E+00
 -0.971445146547E-16
  0.971445146547E-16
 -0.111022302463E-15
  0.360822483003E-15
  0.152655665886E-15
 -0.693889390391E-16
 -0.555111512313E-16
 -0.263677968348E-15
  0.111022302463E-15
 -0.832667268469E-16
 -0.249800180541E-15
 -0.693889390391E-16
  0.333066907388E-15
 -0.235922392733E-15
 -0.166533453694E-15
 -0.222044604925E-15
 -0.277555756156E-16
  0.138777878078E-16
  0.000000000000E+00
  0.832667268469E-16
 -0.555111512313E-16
  0.416333634234E-16
  0.971445146547E-16
 -0.235922392733E-15
 -0.222044604925E-15
 -0.180411241502E-15
  0.000000000000E+00
 -0.111022302463E-15
 -0.693889390391E-16
  0.124900090270E-15
  0.138777878078E-16
  0.138777878078E-15
  0.277555756156E-16
  0.166533453694E-15
 -0.277555756156E-16
 -0.277555756156E-16
  0.832667268469E-16
  0.124900090270E-15
 -0.416333634234E-16
  0.555111512313E-16
 -0.832667268469E-16
  0.971445146547E-16
  0.263677968348E-15
  0.166533453694E-15
 -0.277555756156E-16
 -0.555111512313E-16
  0.222044604925E-15
  0.208166817117E-15
  0.277555756156E-16
  0.000000000000E+00
 -0.416333634234E-16
  0.208166817117E-15
  0.111022302463E-15
 -0.152655665886E-15
 -0.555111512313E-16
  0.277555756156E-16
 -0.277555756156E-16
  0.416333634234E-16
  0.000000000000E+00
  0.138777878078E-16
 -0.277555756156E-16
 -0.222044604925E-15
  0.555111512313E-16
 -0.194289029309E-15
  0.138777878078E-16
  0.416333634234E-16
 -0.832667268469E-16
 -0.832667268469E-16
  0.693889390391E-16
  0.124900090270E-15
 -0.971445146547E-16
 -0.208166817117E-15
 -0.971445146547E-16
  0.194289029309E-15
  0.138777878078E-15
  0.555111512313E-16
  0.555111512313E-16
  0.832667268469E-16
  0.693889390391E-16
 -0.152655665886E-15
  0.000000000000E+00
  0.138777878078E-15
 -0.194289029309E-15
  0.152655665886E-15
  0.277555756156E-16
 -0.832667268469E-16
  0.000000000000E+00
  0.693889390391E-16
  0.971445146547E-16
  0.138777878078E-16
  0.000000000000E+00
  0.235922392733E-15
  0.138777878078E-16
 -0.832667268469E-16
 -0.555111512313E-16
  0.194289029309E-15
  0.138777878078E-15
 -0.277555756156E-16
 -0.693889390391E-16
 -0.693889390391E-16
 -0.416333634234E-16
 -0.277555756156E-16
 -0.277555756156E-16
 -0.138777878078E-16
  0.555111512313E-16
  0.138777878078E-16
  0.555111512313E-16
 -0.277555756156E-16
  0.277555756156E-16
 -0.555111512313E-16
 -0.277555756156E-16
  0.000000000000E+00
  0.693889390391E-16
  0.117961196366E-15
 -0.693889390391E-17
  0.693889390391E-16
  0.693889390391E-17
 -0.277555756156E-16
 -0.693889390391E-16
  0.131838984174E-15
  0.485722573274E-16
  0.208166817117E-16
  0.117961196366E-15
  0.138777878078E-16
 -0.138777878078E-15
  0.555111512313E-16
 -0.485722573274E-16
 -0.763278329430E-16
 -0.131838984174E-15
  0.693889390391E-16
  0.693889390391E-17
 -0.346944695195E-16
 -0.693889390391E-17
  0.971445146547E-16
  0.693889390391E-17
 -0.555111512313E-16
 -0.693889390391E-17
  0.131838984174E-15
 -0.208166817117E-16
 -0.277555756156E-16
 -0.693889390391E-17
 -0.346944695195E-16
 -0.277555756156E-16
  0.124900090270E-15
  0.485722573274E-16
 -0.624500451352E-16
 -0.485722573274E-16
  0.416333634234E-16
  0.693889390391E-17
 -0.416333634234E-16
 -0.208166817117E-16
  0.000000000000E+00
 -0.693889390391E-16
  0.485722573274E-16
  0.208166817117E-16
  0.485722573274E-16
  0.194289029309E-15
  0.971445146547E-16
 -0.131838984174E-15