# vtk DataFile Version 3.0
MachLine results file. Generated by MachLine, USU AeroLab (c) 2023.
ASCII
DATASET POLYDATA
POINTS                 440 float
  0.238310945453E-01  0.172622301480E+00 -0.279825257660E-01
  0.238310945453E-01  0.155523918737E+00 -0.802769140227E-01
  0.238310945453E-01  0.123766417300E+00 -0.123766417300E+00
  0.238310945453E-01  0.802769140227E-01 -0.155523918737E+00
  0.238310945453E-01  0.279825257660E-01 -0.172622301480E+00
  0.238310945453E-01 -0.279825257660E-01 -0.172622301480E+00
  0.238310945453E-01 -0.802769140227E-01 -0.155523918737E+00
  0.238310945453E-01 -0.123766417300E+00 -0.123766417300E+00
  0.238310945453E-01 -0.155523918737E+00 -0.802769140227E-01
  0.238310945453E-01 -0.172622301480E+00 -0.279825257660E-01
  0.238310945453E-01 -0.172622301480E+00  0.279825257660E-01
  0.238310945453E-01 -0.155523918737E+00  0.802769140227E-01
  0.238310945453E-01 -0.123766417300E+00  0.123766417300E+00
  0.238310945453E-01 -0.802769140227E-01  0.155523918737E+00
  0.238310945453E-01 -0.279825257660E-01  0.172622301480E+00
  0.238310945453E-01  0.279825257660E-01  0.172622301480E+00
  0.238310945453E-01  0.802769140227E-01  0.155523918737E+00
  0.238310945453E-01  0.123766417300E+00  0.123766417300E+00
  0.238310945453E-01  0.155523918737E+00  0.802769140227E-01
  0.238310945453E-01  0.172622301480E+00  0.279825257660E-01
  0.102989864633E+00  0.416360146077E+00 -0.531355717467E-01
  0.693682532253E-01  0.332227093870E+00 -0.811180975127E-01
  0.102989864633E+00  0.379373777777E+00 -0.180419077076E+00
  0.693682532253E-01  0.291241014430E+00 -0.179577893586E+00
  0.102989864633E+00  0.306490104300E+00 -0.287312463513E+00
  0.693682532253E-01  0.223067396863E+00 -0.259483512993E+00
  0.102989864633E+00  0.204730939567E+00 -0.366793917127E+00
  0.693682532253E-01  0.133412485769E+00 -0.315128711127E+00
  0.102989864633E+00  0.811180975127E-01 -0.411841623983E+00
  0.693682532253E-01  0.279825257660E-01 -0.340807243380E+00
  0.693682532253E-01 -0.279825257660E-01 -0.340807243380E+00
  0.102989864633E+00 -0.811180975127E-01 -0.411841623983E+00
  0.693682532253E-01 -0.133412485769E+00 -0.315128711127E+00
  0.102989864633E+00 -0.204730939567E+00 -0.366793917127E+00
  0.693682532253E-01 -0.223067396863E+00 -0.259483512993E+00
  0.102989864633E+00 -0.306490104300E+00 -0.287312463513E+00
  0.693682532253E-01 -0.291241014430E+00 -0.179577893586E+00
  0.102989864633E+00 -0.379373777777E+00 -0.180419077076E+00
  0.693682532253E-01 -0.332227093870E+00 -0.811180975127E-01
  0.102989864633E+00 -0.416360146077E+00 -0.531355717467E-01
  0.102989864633E+00 -0.416360146077E+00  0.531355717467E-01
  0.693682532253E-01 -0.332227093870E+00  0.811180975127E-01
  0.102989864633E+00 -0.379373777777E+00  0.180419077076E+00
  0.693682532253E-01 -0.291241014430E+00  0.179577893586E+00
  0.102989864633E+00 -0.306490104300E+00  0.287312463513E+00
  0.693682532253E-01 -0.223067396863E+00  0.259483512993E+00
  0.102989864633E+00 -0.204730939567E+00  0.366793917127E+00
  0.693682532253E-01 -0.133412485769E+00  0.315128711127E+00
  0.102989864633E+00 -0.811180975127E-01  0.411841623983E+00
  0.693682532253E-01 -0.279825257660E-01  0.340807243380E+00
  0.693682532253E-01  0.279825257660E-01  0.340807243380E+00
  0.102989864633E+00  0.811180975127E-01  0.411841623983E+00
  0.693682532253E-01  0.133412485769E+00  0.315128711127E+00
  0.102989864633E+00  0.204730939567E+00  0.366793917127E+00
  0.693682532253E-01  0.223067396863E+00  0.259483512993E+00
  0.102989864633E+00  0.306490104300E+00  0.287312463513E+00
  0.693682532253E-01  0.291241014430E+00  0.179577893586E+00
  0.102989864633E+00  0.379373777777E+00  0.180419077076E+00
  0.693682532253E-01  0.332227093870E+00  0.811180975127E-01
  0.102989864633E+00  0.416360146077E+00  0.531355717467E-01
  0.240891735887E+00  0.627474765430E+00 -0.744520795433E-01
  0.188751605963E+00  0.551423513090E+00 -0.127587651290E+00
  0.240891735887E+00  0.573401576343E+00 -0.266725411287E+00
  0.188751605963E+00  0.485484893237E+00 -0.291574311307E+00
  0.240891735887E+00  0.465017860843E+00 -0.428601744713E+00
  0.188751605963E+00  0.374155835253E+00 -0.425181080410E+00
  0.240891735887E+00  0.312890819103E+00 -0.549513879647E+00
  0.188751605963E+00  0.226888630853E+00 -0.518955666883E+00
  0.240891735887E+00  0.127587651290E+00 -0.618894615920E+00
  0.188751605963E+00  0.531355717467E-01 -0.563445779020E+00
  0.188751605963E+00 -0.531355717467E-01 -0.563445779020E+00
  0.240891735887E+00 -0.127587651290E+00 -0.618894615920E+00
  0.188751605963E+00 -0.226888630853E+00 -0.518955666883E+00
  0.240891735887E+00 -0.312890819103E+00 -0.549513879647E+00
  0.188751605963E+00 -0.374155835253E+00 -0.425181080410E+00
  0.240891735887E+00 -0.465017860843E+00 -0.428601744713E+00
  0.188751605963E+00 -0.485484893237E+00 -0.291574311307E+00
  0.240891735887E+00 -0.573401576343E+00 -0.266725411287E+00
  0.188751605963E+00 -0.551423513090E+00 -0.127587651290E+00
  0.240891735887E+00 -0.627474765430E+00 -0.744520795433E-01
  0.240891735887E+00 -0.627474765430E+00  0.744520795433E-01
  0.188751605963E+00 -0.551423513090E+00  0.127587651290E+00
  0.240891735887E+00 -0.573401576343E+00  0.266725411287E+00
  0.188751605963E+00 -0.485484893237E+00  0.291574311307E+00
  0.240891735887E+00 -0.465017860843E+00  0.428601744713E+00
  0.188751605963E+00 -0.374155835253E+00  0.425181080410E+00
  0.240891735887E+00 -0.312890819103E+00  0.549513879647E+00
  0.188751605963E+00 -0.226888630853E+00  0.518955666883E+00
  0.240891735887E+00 -0.127587651290E+00  0.618894615920E+00
  0.188751605963E+00 -0.531355717467E-01  0.563445779020E+00
  0.188751605963E+00  0.531355717467E-01  0.563445779020E+00
  0.240891735887E+00  0.127587651290E+00  0.618894615920E+00
  0.188751605963E+00  0.226888630853E+00  0.518955666883E+00
  0.240891735887E+00  0.312890819103E+00  0.549513879647E+00
  0.188751605963E+00  0.374155835253E+00  0.425181080410E+00
  0.240891735887E+00  0.465017860843E+00  0.428601744713E+00
  0.188751605963E+00  0.485484893237E+00  0.291574311307E+00
  0.240891735887E+00  0.573401576343E+00  0.266725411287E+00
  0.188751605963E+00  0.551423513090E+00  0.127587651290E+00
  0.240891735887E+00  0.627474765430E+00  0.744520795433E-01
  0.427974071470E+00  0.796566139020E+00 -0.909249907533E-01
  0.360502968640E+00  0.732403743167E+00 -0.165377070297E+00
  0.427974071470E+00  0.728985261053E+00 -0.335299785937E+00
  0.360502968640E+00  0.646034346570E+00 -0.383512555180E+00
  0.427974071470E+00  0.592323283410E+00 -0.541298038253E+00
  0.360502968640E+00  0.499223480790E+00 -0.561538327767E+00
  0.427974071470E+00  0.399985466390E+00 -0.695514487407E+00
  0.360502968640E+00  0.304514830293E+00 -0.686910703590E+00
  0.427974071470E+00  0.165377070297E+00 -0.784543873090E+00
  0.360502968640E+00  0.744520795433E-01 -0.747085998183E+00
  0.360502968640E+00 -0.744520795433E-01 -0.747085998183E+00
  0.427974071470E+00 -0.165377070297E+00 -0.784543873090E+00
  0.360502968640E+00 -0.304514830293E+00 -0.686910703590E+00
  0.427974071470E+00 -0.399985466390E+00 -0.695514487407E+00
  0.360502968640E+00 -0.499223480790E+00 -0.561538327767E+00
  0.427974071470E+00 -0.592323283410E+00 -0.541298038253E+00
  0.360502968640E+00 -0.646034346570E+00 -0.383512555180E+00
  0.427974071470E+00 -0.728985261053E+00 -0.335299785937E+00
  0.360502968640E+00 -0.732403743167E+00 -0.165377070297E+00
  0.427974071470E+00 -0.796566139020E+00 -0.909249907533E-01
  0.427974071470E+00 -0.796566139020E+00  0.909249907533E-01
  0.360502968640E+00 -0.732403743167E+00  0.165377070297E+00
  0.427974071470E+00 -0.728985261053E+00  0.335299785937E+00
  0.360502968640E+00 -0.646034346570E+00  0.383512555180E+00
  0.427974071470E+00 -0.592323283410E+00  0.541298038253E+00
  0.360502968640E+00 -0.499223480790E+00  0.561538327767E+00
  0.427974071470E+00 -0.399985466390E+00  0.695514487407E+00
  0.360502968640E+00 -0.304514830293E+00  0.686910703590E+00
  0.427974071470E+00 -0.165377070297E+00  0.784543873090E+00
  0.360502968640E+00 -0.744520795433E-01  0.747085998183E+00
  0.360502968640E+00  0.744520795433E-01  0.747085998183E+00
  0.427974071470E+00  0.165377070297E+00  0.784543873090E+00
  0.360502968640E+00  0.304514830293E+00  0.686910703590E+00
  0.427974071470E+00  0.399985466390E+00  0.695514487407E+00
  0.360502968640E+00  0.499223480790E+00  0.561538327767E+00
  0.427974071470E+00  0.592323283410E+00  0.541298038253E+00
  0.360502968640E+00  0.646034346570E+00  0.383512555180E+00
  0.427974071470E+00  0.728985261053E+00  0.335299785937E+00
  0.360502968640E+00  0.732403743167E+00  0.165377070297E+00
  0.427974071470E+00  0.796566139020E+00  0.909249907533E-01
  0.654674234527E+00  0.914234246330E+00 -0.101547246973E+00
  0.575059704413E+00  0.865930379907E+00 -0.192472237727E+00
  0.654674234527E+00  0.837502778537E+00 -0.382246070297E+00
  0.575059704413E+00  0.764720055537E+00 -0.450621538963E+00
  0.654674234527E+00  0.681379968470E+00 -0.619065121493E+00
  0.575059704413E+00  0.591934110827E+00 -0.661528851540E+00
  0.654674234527E+00  0.461243795183E+00 -0.796626421517E+00
  0.575059704413E+00  0.362394953367E+00 -0.810371767870E+00
  0.654674234527E+00  0.192472237727E+00 -0.899551991313E+00
  0.575059704413E+00  0.909249907533E-01 -0.882327880350E+00
  0.575059704413E+00 -0.909249907533E-01 -0.882327880350E+00
  0.654674234527E+00 -0.192472237727E+00 -0.899551991313E+00
  0.575059704413E+00 -0.362394953367E+00 -0.810371767870E+00
  0.654674234527E+00 -0.461243795183E+00 -0.796626421517E+00
  0.575059704413E+00 -0.591934110827E+00 -0.661528851540E+00
  0.654674234527E+00 -0.681379968470E+00 -0.619065121493E+00
  0.575059704413E+00 -0.764720055537E+00 -0.450621538963E+00
  0.654674234527E+00 -0.837502778537E+00 -0.382246070297E+00
  0.575059704413E+00 -0.865930379907E+00 -0.192472237727E+00
  0.654674234527E+00 -0.914234246330E+00 -0.101547246973E+00
  0.654674234527E+00 -0.914234246330E+00  0.101547246973E+00
[...]
POINT_DATA                 440
SCALARS BC_type int 1
LOOKUP_TABLE default
           3
           3
           3
           3
           3
           3
           3
           3
           3
           3
           3
           3
           3
           3
           3
           3
           3
           3
           3
           3
           3
           3
           3
           3
           3
           3
           3
           3
           3
           3
           3
           3
           3
           3
           3
           3
           3
           3
           3
           3
           3
           3
           3
           3
           3
           3
           3
           3
           3
           3
           3
           3
           3
           3
           3
           3
           3
           3
           3
           3
           3
           3
           3
           3
           3
           3
           3
           3
           3
           3
           3
           3
           3
           3
           3
           3
           3
           3
           3
           3
           3
           3
           3
           3
           3
           3
           3
           3
           3
           3
           3
           3
           3
           3
           3
           3
           3
           3
           3
           3
           3
           3
           3
           3
           3
           3
           3
           3
           3
           3
           3
           3
           3
           3
           3
           3
           3
           3
           3
           3
           3
           3
           3
           3
           3
           3
           3
           3
           3
           3
           3
           3
           3
           3
           3
           3
           3
           3
           3
           3
           3
           3
           3
           3
           3
           3
           3
           3
           3
           3
           3
           3
           3
           3
           3
           3
           3
           3
           3
           3
           3
           3
           3
           3
           3
           3
           3
           3
           3
           3
           3
           3
           3
           3
           3
           3
           3
           3
           3
           3
           3
           3
           3
           3
           3
           3
           3
           3
           3
           3
           3
           3
           3
           3
           3
           3
           3
           3
           3
           3
           3
           3
           3
           3
           3
           3
           3
           3
           3
           3
           3
           3
           3
           3
           3
           3
           3
           3
           3
           3
           3
           3
           3
           3
           3
           3
           3
           3
           3
           3
           3
           3
           3
           3
           3
           3
           3
           3
           3
           3
           3
           3
           3
           3
           3
           3
           3
           3
           3
           3
           3
           3
           3
           3
           3
           3
           3
           3
           3
           3
           3
           3
           3
           3
           3
           3
           3
           3
           3
           3
           3
           3
           3
           3
           3
           3
           3
           3
           3
           3
           3
           3
           3
           3
           3
           3
           3
           3
           3
           3
           3
           3
           3
           3
           3
           3
           3
           3
           3
           3
           3
           3
           3
           3
           3
           3
           3
           3
           3
           3
           3
           3
           3
           3
           3
           3
           3
           3
           3
           3
           3
           3
           3
           3
           3
           3
           3
           3
           3
           3
           3
           3
           3
           3
           3
           3
           3
           3
           3
           3
           3
           3
           3
           3
           3
           3
           3
           3
           3
           3
           3
           3
           3
           3
           3
           3
           3
           3
           3
           3
           3
           3
           3
           3
           3
           3
           3
           3
           3
           3
           3
           3
           3
           3
           3
           3
           3
           3
           3
           3
           3
           3
           3
           3
           3
           3
           3
           3
           3
           3
           3
           3
           3
           3
           3
           3
           3
           3
           3
           3
           3
           3
           3
           3
           3
           3
           3
           3
           3
           3
           3
           3
           3
           3
           3
           3
           3
           3
           3
           3
           3
           3
           3
           3
           3
           3
           3
           3
           3
           3
           3
           3
           3
           3
           3
           3
           3
           3
           3
           3
SCALARS residual float 1
LOOKUP_TABLE default
  0.180073696276E-02
  0.246249151009E-02
 -0.881880230685E-03
  0.116100921979E-02
 -0.109699088851E-02
 -0.109699088853E-02
  0.116100921986E-02
 -0.881880230574E-03
  0.246249150998E-02
  0.180073696265E-02
  0.180073696277E-02
  0.246249151009E-02
 -0.881880230688E-03
  0.116100921979E-02
 -0.109699088851E-02
 -0.109699088853E-02
  0.116100921986E-02
 -0.881880230572E-03
  0.246249150998E-02
  0.180073696266E-02
 -0.943323961412E-02
  0.725886646140E-02
 -0.187326495744E-01
  0.809436777117E-02
 -0.153527302948E-01
  0.645366992742E-02
 -0.185100072552E-01
  0.133139189541E-01
 -0.136999135804E-01
  0.127566232482E-02
  0.127566232481E-02
 -0.136999135804E-01
  0.133139189541E-01
 -0.185100072551E-01
  0.645366992751E-02
 -0.153527302948E-01
  0.809436777107E-02
 -0.187326495745E-01
  0.725886646132E-02
 -0.943323961411E-02
 -0.943323961412E-02
  0.725886646139E-02
 -0.187326495744E-01
  0.809436777117E-02
 -0.153527302948E-01
  0.645366992742E-02
 -0.185100072552E-01
  0.133139189541E-01
 -0.136999135804E-01
  0.127566232482E-02
  0.127566232481E-02
 -0.136999135804E-01
  0.133139189541E-01
 -0.185100072551E-01
  0.645366992751E-02
 -0.153527302948E-01
  0.809436777107E-02
 -0.187326495745E-01
  0.725886646133E-02
 -0.943323961411E-02
 -0.886392904256E-02
  0.188443836891E-01
 -0.245194948703E-01
  0.246773460876E-01
 -0.209957361083E-01
  0.217137050623E-01
 -0.194155477465E-01
  0.294291509684E-01
 -0.236296712353E-01
  0.134909113393E-01
  0.134909113393E-01
 -0.236296712352E-01
  0.294291509684E-01
 -0.194155477465E-01
  0.217137050623E-01
 -0.209957361083E-01
  0.246773460876E-01
 -0.245194948703E-01
  0.188443836891E-01
 -0.886392904255E-02
 -0.886392904256E-02
  0.188443836891E-01
 -0.245194948703E-01
  0.246773460876E-01
 -0.209957361083E-01
  0.217137050623E-01
 -0.194155477465E-01
  0.294291509684E-01
 -0.236296712353E-01
  0.134909113393E-01
  0.134909113393E-01
 -0.236296712353E-01
  0.294291509684E-01
 -0.194155477465E-01
  0.217137050623E-01
 -0.209957361083E-01
  0.246773460876E-01
 -0.245194948703E-01
  0.188443836891E-01
 -0.886392904255E-02
 -0.102589689210E-01
  0.228750452589E-01
 -0.309865367819E-01
  0.251184249634E-01
 -0.236375634938E-01
  0.199962891262E-01
 -0.251093009206E-01
  0.307173496303E-01
 -0.254376411573E-01
  0.111569805778E-01
  0.111569805778E-01
 -0.254376411573E-01
  0.307173496303E-01
 -0.251093009206E-01
  0.199962891262E-01
 -0.236375634938E-01
  0.251184249634E-01
 -0.309865367819E-01
  0.228750452589E-01
 -0.102589689210E-01
 -0.102589689210E-01
  0.228750452588E-01
 -0.309865367819E-01
  0.251184249634E-01
 -0.236375634938E-01
  0.199962891262E-01
 -0.251093009206E-01
  0.307173496303E-01
 -0.254376411573E-01
  0.111569805778E-01
  0.111569805778E-01
 -0.254376411573E-01
  0.307173496303E-01
 -0.251093009206E-01
  0.199962891262E-01
 -0.236375634938E-01
  0.251184249634E-01
 -0.309865367819E-01
  0.228750452589E-01
 -0.102589689210E-01
 -0.127414616417E-01
  0.263102840074E-01
 -0.361029227343E-01
  0.290955569512E-01
 -0.269781948421E-01
  0.258281804790E-01
 -0.289335412412E-01
  0.374389263972E-01
 -0.290010621387E-01
  0.137871737789E-01
  0.137871737789E-01
 -0.290010621387E-01
  0.374389263972E-01
 -0.289335412412E-01
  0.258281804790E-01
 -0.269781948421E-01
  0.290955569512E-01
 -0.361029227343E-01
  0.263102840074E-01
 -0.127414616417E-01
 -0.127414616417E-01
  0.263102840074E-01
 -0.361029227343E-01
  0.290955569512E-01
 -0.269781948421E-01
  0.258281804790E-01
 -0.289335412412E-01
  0.374389263972E-01
 -0.290010621387E-01
  0.137871737789E-01
  0.137871737789E-01
 -0.290010621387E-01
  0.374389263972E-01
 -0.289335412412E-01
  0.258281804790E-01
 -0.269781948421E-01
  0.290955569512E-01
 -0.361029227343E-01
  0.263102840074E-01
 -0.127414616417E-01
 -0.143802149231E-01
  0.298034772859E-01
 -0.389843005133E-01
  0.320786069973E-01
 -0.281648783599E-01
  0.282126940289E-01
 -0.312881711604E-01
  0.390869917665E-01
 -0.306746913081E-01
  0.143057977089E-01
  0.143057977089E-01
 -0.306746913081E-01
  0.390869917665E-01
 -0.312881711604E-01
  0.282126940289E-01
 -0.281648783599E-01
  0.320786069973E-01
 -0.389843005133E-01
  0.298034772859E-01
 -0.143802149231E-01
 -0.143802149231E-01
  0.298034772859E-01
 -0.389843005133E-01
  0.320786069973E-01
 -0.281648783599E-01
  0.282126940289E-01
 -0.312881711604E-01
  0.390869917665E-01
 -0.306746913081E-01
  0.143057977089E-01
  0.143057977089E-01
 -0.306746913081E-01
  0.390869917665E-01
 -0.312881711604E-01
  0.282126940289E-01
 -0.281648783599E-01
  0.320786069973E-01
 -0.389843005133E-01
  0.298034772859E-01
 -0.143802149231E-01
 -0.143057977268E-01
  0.306746913159E-01
 -0.390869917841E-01
  0.312881711684E-01
 -0.282126940458E-01
  0.281648783691E-01
 -0.320786070140E-01
  0.389843005213E-01
 -0.298034773017E-01
  0.143802149323E-01
  0.143802149323E-01
 -0.298034773017E-01
  0.389843005213E-01
 -0.320786070140E-01
  0.281648783691E-01
 -0.282126940458E-01
  0.312881711684E-01
 -0.390869917841E-01
  0.306746913159E-01
 -0.143057977268E-01
 -0.143057977268E-01
  0.306746913159E-01
 -0.390869917841E-01
  0.312881711684E-01
 -0.282126940458E-01
  0.281648783691E-01
 -0.320786070140E-01
  0.389843005213E-01
 -0.298034773017E-01
  0.143802149323E-01
  0.143802149323E-01
 -0.298034773017E-01
  0.389843005213E-01
 -0.320786070140E-01
  0.281648783691E-01
 -0.282126940458E-01
  0.312881711684E-01
 -0.390869917841E-01
  0.306746913159E-01
 -0.143057977268E-01
 -0.137871737732E-01
  0.290010621459E-01
 -0.374389263894E-01
  0.289335412495E-01
 -0.258281804719E-01
  0.269781948496E-01
 -0.290955569448E-01
  0.361029227411E-01
 -0.263102840006E-01
  0.127414616518E-01
  0.127414616518E-01
 -0.263102840006E-01
  0.361029227411E-01
 -0.290955569448E-01
  0.269781948496E-01
 -0.258281804719E-01
  0.289335412495E-01
 -0.374389263894E-01
  0.290010621459E-01
 -0.137871737732E-01
 -0.137871737732E-01
  0.290010621459E-01
 -0.374389263894E-01
  0.289335412495E-01
 -0.258281804719E-01
  0.269781948496E-01
 -0.290955569448E-01
  0.361029227411E-01
 -0.263102840006E-01
  0.127414616518E-01
  0.127414616518E-01
 -0.263102840006E-01
  0.361029227411E-01
 -0.290955569448E-01
  0.269781948496E-01
 -0.258281804719E-01
  0.289335412495E-01
 -0.374389263894E-01
  0.290010621459E-01
 -0.137871737732E-01
 -0.111569805643E-01
  0.254376411439E-01
 -0.307173496164E-01
  0.251093009067E-01
 -0.199962891135E-01
  0.236375634793E-01
 -0.251184249504E-01
  0.309865367681E-01
 -0.228750452472E-01
  0.102589689062E-01
  0.102589689062E-01
 -0.228750452472E-01
  0.309865367681E-01
 -0.251184249505E-01
  0.236375634793E-01
 -0.199962891135E-01
  0.251093009067E-01
 -0.307173496164E-01
  0.254376411439E-01
 -0.111569805643E-01
 -0.111569805643E-01
  0.254376411439E-01
 -0.307173496164E-01
  0.251093009067E-01
 -0.199962891135E-01
  0.236375634793E-01
 -0.251184249505E-01
  0.309865367681E-01
 -0.228750452472E-01
  0.102589689062E-01
  0.102589689062E-01
 -0.228750452472E-01
  0.309865367681E-01
 -0.251184249505E-01
  0.236375634793E-01
 -0.199962891135E-01
  0.251093009067E-01
 -0.307173496164E-01
  0.254376411439E-01
 -0.111569805643E-01
 -0.134909113517E-01
  0.236296712333E-01
 -0.294291509798E-01
  0.194155477444E-01
 -0.217137050741E-01
  0.209957361055E-01
 -0.246773460986E-01
  0.245194948690E-01
 -0.188443836993E-01
  0.886392903862E-02
  0.886392903862E-02
 -0.188443836993E-01
  0.245194948690E-01
 -0.246773460986E-01
  0.209957361055E-01
 -0.217137050742E-01
  0.194155477444E-01
 -0.294291509798E-01
  0.236296712333E-01
 -0.134909113517E-01
 -0.134909113517E-01
  0.236296712333E-01
 -0.294291509798E-01
  0.194155477444E-01
 -0.217137050741E-01
  0.209957361055E-01
 -0.246773460986E-01
  0.245194948690E-01
 -0.188443836993E-01
  0.886392903862E-02
  0.886392903862E-02
 -0.188443836993E-01
  0.245194948690E-01
 -0.246773460986E-01
  0.209957361055E-01
 -0.217137050742E-01
  0.194155477444E-01
 -0.294291509798E-01
  0.236296712333E-01
 -0.134909113517E-01
 -0.127566232729E-02
  0.136999135925E-01
 -0.133139189619E-01
  0.185100072730E-01
 -0.645366993512E-02
  0.153527303083E-01
 -0.809436777849E-02
  0.187326495936E-01
 -0.725886646783E-02
  0.943323962770E-02
  0.943323962770E-02
 -0.725886646783E-02
  0.187326495936E-01
 -0.809436777851E-02
  0.153527303083E-01
 -0.645366993509E-02
  0.185100072730E-01
 -0.133139189619E-01
  0.136999135925E-01
 -0.127566232731E-02
 -0.127566232729E-02
  0.136999135925E-01
 -0.133139189619E-01
  0.185100072730E-01
 -0.645366993512E-02
  0.153527303083E-01
 -0.809436777849E-02
  0.187326495936E-01
 -0.725886646783E-02
  0.943323962771E-02
  0.943323962770E-02
 -0.725886646784E-02
  0.187326495936E-01
 -0.809436777851E-02
  0.153527303083E-01
 -0.645366993510E-02
  0.185100072730E-01
 -0.133139189619E-01
  0.136999135925E-01
 -0.127566232732E-02
  0.109699089106E-02
 -0.116100922240E-02
  0.881880232376E-03
 -0.246249151029E-02
 -0.180073696605E-02
 -0.180073696608E-02
 -0.246249151032E-02
  0.881880232418E-03
 -0.116100922239E-02
  0.109699089105E-02
  0.109699089107E-02
 -0.116100922241E-02
  0.881880232380E-03
 -0.246249151029E-02
 -0.180073696606E-02
 -0.180073696609E-02
 -0.246249151031E-02
  0.881880232414E-03
 -0.116100922240E-02
  0.109699089104E-02
