# vtk DataFile Version 3.0
MachLine results file. Generated by MachLine, USU AeroLab (c) 2023.
ASCII
DATASET POLYDATA
POINTS                 192 float
  0.147790063510E+02  0.125000000000E+00  0.000000000000E+00
  0.150000000000E+02  0.000000000000E+00  0.000000000000E+00
  0.151096701650E+02  0.125000000000E+00  0.165331906983E-01
  0.150000000000E+02  0.000000000000E+00  0.000000000000E+00
  0.145580127020E+02  0.250000000000E+00  0.000000000000E+00
  0.147790063510E+02  0.125000000000E+00  0.000000000000E+00
  0.152193403299E+02  0.250000000000E+00  0.330663813965E-01
  0.151096701650E+02  0.125000000000E+00  0.165331906983E-01
  0.143370190530E+02  0.375000000000E+00  0.000000000000E+00
  0.145580127020E+02  0.250000000000E+00  0.000000000000E+00
  0.153290104949E+02  0.375000000000E+00  0.495995720948E-01
  0.152193403299E+02  0.250000000000E+00  0.330663813965E-01
  0.141160254040E+02  0.500000000000E+00  0.000000000000E+00
  0.143370190530E+02  0.375000000000E+00  0.000000000000E+00
  0.154386806599E+02  0.500000000000E+00  0.661327627930E-01
  0.153290104949E+02  0.375000000000E+00  0.495995720948E-01
  0.138950317550E+02  0.625000000000E+00  0.000000000000E+00
  0.141160254040E+02  0.500000000000E+00  0.000000000000E+00
  0.155483508248E+02  0.625000000000E+00  0.826659534913E-01
  0.154386806599E+02  0.500000000000E+00  0.661327627930E-01
  0.136740381060E+02  0.750000000000E+00  0.000000000000E+00
  0.138950317550E+02  0.625000000000E+00  0.000000000000E+00
  0.156580209898E+02  0.750000000000E+00  0.991991441895E-01
  0.155483508248E+02  0.625000000000E+00  0.826659534913E-01
  0.134530444570E+02  0.875000000000E+00  0.000000000000E+00
  0.136740381060E+02  0.750000000000E+00  0.000000000000E+00
  0.157676911548E+02  0.875000000000E+00  0.115732334888E+00
  0.156580209898E+02  0.750000000000E+00  0.991991441895E-01
  0.132320508080E+02  0.100000000000E+01  0.000000000000E+00
  0.134530444570E+02  0.875000000000E+00  0.000000000000E+00
  0.158773613197E+02  0.100000000000E+01  0.132265525586E+00
  0.157676911548E+02  0.875000000000E+00  0.115732334888E+00
  0.130110571590E+02  0.112500000000E+01  0.000000000000E+00
  0.132320508080E+02  0.100000000000E+01  0.000000000000E+00
  0.159870314847E+02  0.112500000000E+01  0.148798716284E+00
  0.158773613197E+02  0.100000000000E+01  0.132265525586E+00
  0.127900635090E+02  0.125000000000E+01  0.000000000000E+00
  0.130110571590E+02  0.112500000000E+01  0.000000000000E+00
  0.160967016501E+02  0.125000000000E+01  0.165331907057E+00
  0.159870314847E+02  0.112500000000E+01  0.148798716284E+00
  0.125690698600E+02  0.137500000000E+01  0.000000000000E+00
  0.127900635090E+02  0.125000000000E+01  0.000000000000E+00
  0.162063718151E+02  0.137500000000E+01  0.181865097756E+00
  0.160967016501E+02  0.125000000000E+01  0.165331907057E+00
  0.123480762110E+02  0.150000000000E+01  0.000000000000E+00
  0.125690698600E+02  0.137500000000E+01  0.000000000000E+00
  0.163160419801E+02  0.150000000000E+01  0.198398288454E+00
  0.162063718151E+02  0.137500000000E+01  0.181865097756E+00
  0.121270825620E+02  0.162500000000E+01  0.000000000000E+00
  0.123480762110E+02  0.150000000000E+01  0.000000000000E+00
  0.164257121450E+02  0.162500000000E+01  0.214931479152E+00
  0.163160419801E+02  0.150000000000E+01  0.198398288454E+00
  0.119060889130E+02  0.175000000000E+01  0.000000000000E+00
  0.121270825620E+02  0.162500000000E+01  0.000000000000E+00
  0.165353823100E+02  0.175000000000E+01  0.231464669850E+00
  0.164257121450E+02  0.162500000000E+01  0.214931479152E+00
  0.116850952640E+02  0.187500000000E+01  0.000000000000E+00
  0.119060889130E+02  0.175000000000E+01  0.000000000000E+00
  0.166450524750E+02  0.187500000000E+01  0.247997860549E+00
  0.165353823100E+02  0.175000000000E+01  0.231464669850E+00
  0.114641016150E+02  0.200000000000E+01  0.000000000000E+00
  0.116850952640E+02  0.187500000000E+01  0.000000000000E+00
  0.167547226399E+02  0.200000000000E+01  0.264531051247E+00
  0.166450524750E+02  0.187500000000E+01  0.247997860549E+00
  0.116117823130E+02  0.228125000000E+01  0.000000000000E+00
  0.114641016150E+02  0.200000000000E+01  0.000000000000E+00
  0.166814347125E+02  0.228125000000E+01  0.253482619975E+00
  0.167547226399E+02  0.200000000000E+01  0.264531051247E+00
  0.117594630110E+02  0.256250000000E+01  0.000000000000E+00
  0.116117823130E+02  0.228125000000E+01  0.000000000000E+00
  0.166081467851E+02  0.256250000000E+01  0.242434188703E+00
  0.166814347125E+02  0.228125000000E+01  0.253482619975E+00
  0.119071437090E+02  0.284375000000E+01  0.000000000000E+00
  0.117594630110E+02  0.256250000000E+01  0.000000000000E+00
  0.165348588576E+02  0.284375000000E+01  0.231385757431E+00
  0.166081467851E+02  0.256250000000E+01  0.242434188703E+00
  0.120548244070E+02  0.312500000000E+01  0.000000000000E+00
  0.119071437090E+02  0.284375000000E+01  0.000000000000E+00
  0.164615709302E+02  0.312500000000E+01  0.220337326160E+00
  0.165348588576E+02  0.284375000000E+01  0.231385757431E+00
  0.122025051050E+02  0.340625000000E+01  0.000000000000E+00
  0.120548244070E+02  0.312500000000E+01  0.000000000000E+00
  0.163882830028E+02  0.340625000000E+01  0.209288894888E+00
  0.164615709302E+02  0.312500000000E+01  0.220337326160E+00
  0.123501858030E+02  0.368750000000E+01  0.000000000000E+00
  0.122025051050E+02  0.340625000000E+01  0.000000000000E+00
  0.163149950753E+02  0.368750000000E+01  0.198240463616E+00
  0.163882830028E+02  0.340625000000E+01  0.209288894888E+00
  0.124978665010E+02  0.396875000000E+01  0.000000000000E+00
  0.123501858030E+02  0.368750000000E+01  0.000000000000E+00
  0.162417071479E+02  0.396875000000E+01  0.187192032344E+00
  0.163149950753E+02  0.368750000000E+01  0.198240463616E+00
  0.126455471980E+02  0.425000000000E+01  0.000000000000E+00
  0.124978665010E+02  0.396875000000E+01  0.000000000000E+00
  0.161684192209E+02  0.425000000000E+01  0.176143601147E+00
  0.162417071479E+02  0.396875000000E+01  0.187192032344E+00
  0.127932278960E+02  0.453125000000E+01  0.000000000000E+00
  0.126455471980E+02  0.425000000000E+01  0.000000000000E+00
  0.160951312935E+02  0.453125000000E+01  0.165095169875E+00
  0.161684192209E+02  0.425000000000E+01  0.176143601147E+00
  0.129409085940E+02  0.481250000000E+01  0.000000000000E+00
  0.127932278960E+02  0.453125000000E+01  0.000000000000E+00
  0.160218433661E+02  0.481250000000E+01  0.154046738603E+00
  0.160951312935E+02  0.453125000000E+01  0.165095169875E+00
  0.130885892920E+02  0.509375000000E+01  0.000000000000E+00
  0.129409085940E+02  0.481250000000E+01  0.000000000000E+00
  0.159485554386E+02  0.509375000000E+01  0.142998307332E+00
  0.160218433661E+02  0.481250000000E+01  0.154046738603E+00
  0.132362699900E+02  0.537500000000E+01  0.000000000000E+00
  0.130885892920E+02  0.509375000000E+01  0.000000000000E+00
  0.158752675112E+02  0.537500000000E+01  0.131949876060E+00
  0.159485554386E+02  0.509375000000E+01  0.142998307332E+00
  0.133839506880E+02  0.565625000000E+01  0.000000000000E+00
  0.132362699900E+02  0.537500000000E+01  0.000000000000E+00
  0.158019795838E+02  0.565625000000E+01  0.120901444788E+00
  0.158752675112E+02  0.537500000000E+01  0.131949876060E+00
  0.135316313860E+02  0.593750000000E+01  0.000000000000E+00
  0.133839506880E+02  0.565625000000E+01  0.000000000000E+00
  0.157286916563E+02  0.593750000000E+01  0.109853013516E+00
  0.158019795838E+02  0.565625000000E+01  0.120901444788E+00
  0.136793120840E+02  0.621875000000E+01  0.000000000000E+00
  0.135316313860E+02  0.593750000000E+01  0.000000000000E+00
  0.156554037289E+02  0.621875000000E+01  0.988045822444E-01
  0.157286916563E+02  0.593750000000E+01  0.109853013516E+00
  0.138269927820E+02  0.650000000000E+01  0.000000000000E+00
  0.136793120840E+02  0.621875000000E+01  0.000000000000E+00
  0.155821158015E+02  0.650000000000E+01  0.877561509726E-01
  0.156554037289E+02  0.621875000000E+01  0.988045822444E-01
  0.126363636360E+02  0.152247706760E+01  0.563818797160E+00
  0.126363636360E+02  0.155000000000E+01  0.700000000000E+00
  0.161307956921E+02  0.152247706760E+01  0.738540399964E+00
  0.161206075722E+02  0.155000000000E+01  0.874212196808E+00
  0.126363636360E+02  0.144743884700E+01  0.452561153040E+00
  0.126363636360E+02  0.152247706760E+01  0.563818797160E+00
  0.161391192066E+02  0.144743884700E+01  0.627698931570E+00
  0.161307956921E+02  0.152247706760E+01  0.738540399964E+00
  0.126363636360E+02  0.133618120280E+01  0.377522932390E+00
  0.126363636360E+02  0.144743884700E+01  0.452561153040E+00
  0.161447330386E+02  0.133618120280E+01  0.552941402518E+00
  0.161391192066E+02  0.144743884700E+01  0.627698931570E+00
  0.126363636360E+02  0.120000000000E+01  0.350000000000E+00
  0.126363636360E+02  0.133618120280E+01  0.377522932390E+00
  0.161467921108E+02  0.120000000000E+01  0.525521423741E+00
  0.161447330386E+02  0.133618120280E+01  0.552941402518E+00
  0.126363636360E+02  0.106381879720E+01  0.377522932390E+00
  0.126363636360E+02  0.120000000000E+01  0.350000000000E+00
  0.161447330386E+02  0.106381879720E+01  0.552941402518E+00
  0.161467921108E+02  0.120000000000E+01  0.525521423741E+00
  0.126363636360E+02  0.952561153040E+00  0.452561153040E+00
  0.126363636360E+02  0.106381879720E+01  0.377522932390E+00
  0.161391192066E+02  0.952561153040E+00  0.627698931570E+00
  0.161447330386E+02  0.106381879720E+01  0.552941402518E+00
  0.126363636360E+02  0.877522932390E+00  0.563818797160E+00
  0.126363636360E+02  0.952561153040E+00  0.452561153040E+00
  0.161307956921E+02  0.877522932390E+00  0.738540399964E+00
  0.161391192066E+02  0.952561153040E+00  0.627698931570E+00
  0.126363636360E+02  0.850000000000E+00  0.700000000000E+00
  0.126363636360E+02  0.877522932390E+00  0.563818797160E+00
  0.161206075722E+02  0.850000000000E+00  0.874212196808E+00
  0.161307956921E+02  0.877522932390E+00  0.738540399964E+00
  0.126363636360E+02  0.877522932390E+00  0.836181202840E+00
  0.126363636360E+02  0.850000000000E+00  0.700000000000E+00
  0.161104194522E+02  0.877522932390E+00  0.100988399365E+01
  0.161206075722E+02  0.850000000000E+00  0.874212196808E+00
  0.126363636360E+02  0.952561153040E+00  0.947438846960E+00
  0.126363636360E+02  0.877522932390E+00  0.836181202840E+00
  0.161020959377E+02  0.952561153040E+00  0.112072546205E+01
  0.161104194522E+02  0.877522932390E+00  0.100988399365E+01
  0.126363636360E+02  0.106381879720E+01  0.102247706760E+01
  0.126363636360E+02  0.952561153040E+00  0.947438846960E+00
  0.160964821058E+02  0.106381879720E+01  0.119548299109E+01
  0.161020959377E+02  0.952561153040E+00  0.112072546205E+01
  0.126363636360E+02  0.120000000000E+01  0.105000000000E+01
  0.126363636360E+02  0.106381879720E+01  0.102247706760E+01
  0.160944230335E+02  0.120000000000E+01  0.122290296988E+01
  0.160964821058E+02  0.106381879720E+01  0.119548299109E+01
  0.126363636360E+02  0.133618120280E+01  0.102247706760E+01
  0.126363636360E+02  0.120000000000E+01  0.105000000000E+01
  0.160964821058E+02  0.133618120280E+01  0.119548299109E+01
  0.160944230335E+02  0.120000000000E+01  0.122290296988E+01
  0.126363636360E+02  0.144743884700E+01  0.947438846960E+00
  0.126363636360E+02  0.133618120280E+01  0.102247706760E+01
  0.161020959377E+02  0.144743884700E+01  0.112072546205E+01
  0.160964821058E+02  0.133618120280E+01  0.119548299109E+01
  0.126363636360E+02  0.152247706760E+01  0.836181202840E+00
  0.126363636360E+02  0.144743884700E+01  0.947438846960E+00
  0.161104194522E+02  0.152247706760E+01  0.100988399365E+01
  0.161020959377E+02  0.144743884700E+01  0.112072546205E+01
  0.126363636360E+02  0.155000000000E+01  0.700000000000E+00
  0.126363636360E+02  0.152247706760E+01  0.836181202840E+00
  0.161206075722E+02  0.155000000000E+01  0.874212196808E+00
  0.161104194522E+02  0.152247706760E+01  0.100988399365E+01
POLYGONS                  95                 380
3                   0                   2                   1
3                   4                   6                   5
3                   6                   7                   5
3                   8                  10                   9
3                  10                  11                   9
3                  12                  14                  13
3                  14                  15                  13
3                  16                  18                  17
3                  18                  19                  17
3                  20                  22                  21
3                  22                  23                  21
3                  24                  26                  25
3                  26                  27                  25
3                  28                  30                  29
3                  30                  31                  29
3                  32                  34                  33
3                  34                  35                  33
3                  36                  38                  37
3                  38                  39                  37
3                  40                  42                  41
3                  42                  43                  41
3                  44                  46                  45
3                  46                  47                  45
3                  48                  50                  49
3                  50                  51                  49
3                  52                  54                  53
3                  54                  55                  53
3                  56                  58                  57
3                  58                  59                  57
3                  60                  62                  61
3                  62                  63                  61
3                  64                  67                  65
3                  64                  66                  67
3                  68                  71                  69
3                  68                  70                  71
3                  72                  75                  73
3                  72                  74                  75
3                  76                  79                  77
3                  76                  78                  79
3                  80                  83                  81
3                  80                  82                  83
3                  84                  87                  85
3                  84                  86                  87
3                  88                  91                  89
3                  88                  90                  91
3                  92                  95                  93
3                  92                  94                  95
3                  96                  99                  97
3                  96                  98                  99
3                 100                 103                 101
3                 100                 102                 103
3                 104                 107                 105
3                 104                 106                 107
3                 108                 111                 109
3                 108                 110                 111
3                 112                 115                 113
3                 112                 114                 115
3                 116                 119                 117
3                 116                 118                 119
3                 120                 123                 121
3                 120                 122                 123
3                 124                 127                 125
3                 124                 126                 127
3                 128                 130                 129
3                 130                 131                 129
3                 132                 134                 133
3                 134                 135                 133
3                 136                 138                 137
3                 138                 139                 137
3                 140                 142                 141
3                 142                 143                 141
3                 144                 147                 145
3                 144                 146                 147
3                 148                 151                 149
3                 148                 150                 151
3                 152                 155                 153
3                 152                 154                 155
3                 156                 159                 157
3                 156                 158                 159
3                 160                 163                 161
3                 160                 162                 163
3                 164                 167                 165
3                 164                 166                 167
3                 168                 171                 169
3                 168                 170                 171
3                 172                 175                 173
3                 172                 174                 175
3                 176                 178                 177
3                 178                 179                 177
3                 180                 182                 181
3                 182                 183                 181
3                 184                 186                 185
3                 186                 187                 185
3                 188                 190                 189
3                 190                 191                 189
POINT_DATA                 192
SCALARS mu float 1
LOOKUP_TABLE default
 -0.450026736997E+00
 -0.450102938994E+00
 -0.450026736997E+00
 -0.450102938994E+00
 -0.444799628266E+00
 -0.450026736997E+00
 -0.444799628266E+00
 -0.450026736997E+00
 -0.441314019486E+00
 -0.444799628266E+00
 -0.441314019486E+00
 -0.444799628266E+00
 -0.427561483679E+00
 -0.441314019486E+00
 -0.427561483679E+00
 -0.441314019486E+00
 -0.419719127824E+00
 -0.427561483679E+00
 -0.419719127824E+00
 -0.427561483679E+00
 -0.414796670401E+00
 -0.419719127824E+00
 -0.414796670401E+00
 -0.419719127824E+00
 -0.401361580148E+00
 -0.414796670401E+00
 -0.401361580148E+00
 -0.414796670401E+00
 -0.387261563018E+00
 -0.401361580148E+00
 -0.387261563018E+00
 -0.401361580148E+00
 -0.386450877650E+00
 -0.387261563018E+00
 -0.386450877650E+00
 -0.387261563018E+00
 -0.382175181437E+00
 -0.386450877650E+00
 -0.382175181437E+00
 -0.386450877650E+00
 -0.367163661307E+00
 -0.382175181437E+00
 -0.367163661307E+00
 -0.382175181437E+00
 -0.346379012484E+00
 -0.367163661307E+00
 -0.346379012484E+00
 -0.367163661307E+00
 -0.306263150589E+00
 -0.346379012484E+00
 -0.306263150589E+00
 -0.346379012484E+00
 -0.272980620519E+00
 -0.306263150589E+00
 -0.272980620519E+00
 -0.306263150589E+00
 -0.257097604492E+00
 -0.272980620519E+00
 -0.257097604492E+00
 -0.272980620519E+00
 -0.235615252482E+00
 -0.257097604492E+00
 -0.235615252482E+00
 -0.257097604492E+00
 -0.237528340348E+00
 -0.235615252482E+00
 -0.237528340348E+00
 -0.235615252482E+00
 -0.240085712313E+00
 -0.237528340348E+00
 -0.240085712313E+00
 -0.237528340348E+00
 -0.265953990629E+00
 -0.240085712313E+00
 -0.265953990629E+00
 -0.240085712313E+00
 -0.272117679153E+00
 -0.265953990629E+00
 -0.272117679153E+00
 -0.265953990629E+00
 -0.273471813565E+00
 -0.272117679153E+00
 -0.273471813565E+00
 -0.272117679153E+00
 -0.267351630092E+00
 -0.273471813565E+00
 -0.267351630092E+00
 -0.273471813565E+00
 -0.260632533919E+00
 -0.267351630092E+00
 -0.260632533919E+00
 -0.267351630092E+00
 -0.252066604200E+00
 -0.260632533919E+00
 -0.252066604200E+00
 -0.260632533919E+00
 -0.242099110715E+00
 -0.252066604200E+00
 -0.242099110715E+00
 -0.252066604200E+00
 -0.230872451904E+00
 -0.242099110715E+00
 -0.230872451904E+00
 -0.242099110715E+00
 -0.218060292164E+00
 -0.230872451904E+00
 -0.218060292164E+00
 -0.230872451904E+00
 -0.202061990766E+00
 -0.218060292164E+00
 -0.202061990766E+00
 -0.218060292164E+00
 -0.178725684341E+00
 -0.202061990766E+00
 -0.178725684341E+00
 -0.202061990766E+00
 -0.158489386970E+00
 -0.178725684341E+00
 -0.158489386970E+00
 -0.178725684341E+00
 -0.118963138341E+00
 -0.158489386970E+00
 -0.118963138341E+00
 -0.158489386970E+00
  0.000000000000E+00
 -0.118963138341E+00
  0.000000000000E+00
 -0.118963138341E+00
 -0.249807557441E+00
 -0.236199360959E+00
 -0.249807557441E+00
 -0.236199360959E+00
 -0.273138512118E+00
 -0.249807557441E+00
 -0.273138512118E+00
 -0.249807557441E+00
 -0.298778357564E+00
 -0.273138512118E+00
 -0.298778357564E+00
 -0.273138512118E+00
 -0.319596463705E+00
 -0.298778357564E+00
 -0.319596463705E+00
 -0.298778357564E+00
 -0.317518812022E+00
 -0.319596463705E+00
 -0.317518812022E+00
 -0.319596463705E+00
 -0.293220365509E+00
 -0.317518812022E+00
 -0.293220365509E+00
 -0.317518812022E+00
 -0.280107036073E+00
 -0.293220365509E+00
 -0.280107036073E+00
 -0.293220365509E+00
 -0.250500225718E+00
 -0.280107036073E+00
 -0.250500225718E+00
 -0.280107036073E+00
 -0.236391432948E+00
 -0.250500225718E+00
 -0.236391432948E+00
 -0.250500225718E+00
 -0.220184603640E+00
 -0.236391432948E+00
 -0.220184603640E+00
 -0.236391432948E+00
 -0.212370956921E+00
 -0.220184603640E+00
 -0.212370956921E+00
 -0.220184603640E+00
 -0.211275296161E+00
 -0.212370956921E+00
 -0.211275296161E+00
 -0.212370956921E+00
 -0.207683699527E+00
 -0.211275296161E+00
 -0.207683699527E+00
 -0.211275296161E+00
 -0.211167380620E+00
 -0.207683699527E+00
 -0.211167380620E+00
 -0.207683699527E+00
 -0.226445082340E+00
 -0.211167380620E+00
 -0.226445082340E+00
 -0.211167380620E+00
 -0.236199360959E+00
 -0.226445082340E+00
 -0.236199360959E+00
 -0.226445082340E+00
