# vtk DataFile Version 3.0
MachLine results file. Generated by MachLine, USU AeroLab (c) 2022.
ASCII
DATASET POLYDATA
POINTS                 142 float
 -0.318380999565E+01 -0.564765274525E+00  0.000000000000E+00
 -0.478249933932E+01 -0.564765274525E+00 -0.159868934367E+00
 -0.318380999565E+01  0.564765274525E+00  0.000000000000E+00
 -0.478249933932E+01  0.564765274525E+00 -0.159868934367E+00
 -0.319912385941E+01 -0.673654556274E+00  0.000000000000E+00
 -0.478265096174E+01 -0.673654556274E+00 -0.158352710233E+00
 -0.319912385941E+01  0.673654556274E+00  0.000000000000E+00
 -0.478265096174E+01  0.673654556274E+00 -0.158352710233E+00
 -0.327855944633E+01 -0.789197027683E+00  0.000000000000E+00
 -0.478343745270E+01 -0.789197027683E+00 -0.150487800637E+00
 -0.327855944633E+01  0.789197027683E+00  0.000000000000E+00
 -0.478343745270E+01  0.789197027683E+00 -0.150487800637E+00
 -0.328542494774E+01 -0.463406026363E+00  0.000000000000E+00
 -0.478350542796E+01 -0.463406026363E+00 -0.149808048022E+00
 -0.328542494774E+01  0.463406026363E+00  0.000000000000E+00
 -0.478350542796E+01  0.463406026363E+00 -0.149808048022E+00
 -0.336192941666E+01 -0.910462439060E+00  0.000000000000E+00
 -0.478426289795E+01 -0.910462439060E+00 -0.142233348129E+00
 -0.336192941666E+01  0.910462439060E+00  0.000000000000E+00
 -0.478426289795E+01  0.910462439060E+00 -0.142233348129E+00
 -0.337867283821E+01 -0.370392799377E+00  0.000000000000E+00
 -0.478442867440E+01 -0.370392799377E+00 -0.140575583619E+00
 -0.337867283821E+01  0.370392799377E+00  0.000000000000E+00
 -0.478442867440E+01  0.370392799377E+00 -0.140575583619E+00
 -0.344856262207E+01 -0.103647446632E+01  0.000000000000E+00
 -0.478512065246E+01 -0.103647446632E+01 -0.133655803039E+00
 -0.344856262207E+01  0.103647446632E+01  0.000000000000E+00
 -0.478512065246E+01  0.103647446632E+01 -0.133655803039E+00
 -0.346280288696E+01 -0.286474496126E+00  0.000000000000E+00
 -0.478526164518E+01 -0.286474496126E+00 -0.132245875822E+00
 -0.346280288696E+01  0.286474496126E+00  0.000000000000E+00
 -0.478526164518E+01  0.286474496126E+00 -0.132245875822E+00
 -0.353713750839E+01 -0.212326809764E+00  0.000000000000E+00
 -0.478599763153E+01 -0.212326809764E+00 -0.124886012314E+00
 -0.353713750839E+01  0.212326809764E+00  0.000000000000E+00
 -0.478599763153E+01  0.212326809764E+00 -0.124886012314E+00
 -0.353776168823E+01 -0.116621863842E+01  0.000000000000E+00
 -0.478600381153E+01 -0.116621863842E+01 -0.124824212330E+00
 -0.353776168823E+01  0.116621863842E+01  0.000000000000E+00
 -0.478600381153E+01  0.116621863842E+01 -0.124824212330E+00
 -0.360107851028E+01 -0.148546695709E+00  0.000000000000E+00
 -0.478663071076E+01 -0.148546695709E+00 -0.118555220048E+00
 -0.360107851028E+01  0.148546695709E+00  0.000000000000E+00
 -0.478663071076E+01  0.148546695709E+00 -0.118555220048E+00
 -0.362880849838E+01 -0.129865014553E+01  0.000000000000E+00
 -0.478690526509E+01 -0.129865014553E+01 -0.115809676671E+00
 -0.362880849838E+01  0.129865014553E+01  0.000000000000E+00
 -0.478690526509E+01  0.129865014553E+01 -0.115809676671E+00
 -0.365411090851E+01 -0.956476926804E-01  0.000000000000E+00
 -0.478715578401E+01 -0.956476926804E-01 -0.113304487550E+00
 -0.365411090851E+01  0.956476926804E-01  0.000000000000E+00
 -0.478715578401E+01  0.956476926804E-01 -0.113304487550E+00
 -0.369580793381E+01 -0.540557093918E-01  0.000000000000E+00
 -0.478756862584E+01 -0.540557093918E-01 -0.109176069203E+00
 -0.369580793381E+01  0.540557093918E-01  0.000000000000E+00
 -0.478756862584E+01  0.540557093918E-01 -0.109176069203E+00
 -0.372096967697E+01 -0.143270277977E+01  0.000000000000E+00
 -0.478781775201E+01 -0.143270277977E+01 -0.106684807504E+00
 -0.372096967697E+01  0.143270277977E+01  0.000000000000E+00
 -0.478781775201E+01  0.143270277977E+01 -0.106684807504E+00
 -0.372583365440E+01 -0.241056177765E-01  0.000000000000E+00
 -0.478786591020E+01 -0.241056177765E-01 -0.106203225580E+00
 -0.372583365440E+01  0.241056177765E-01  0.000000000000E+00
 -0.478786591020E+01  0.241056177765E-01 -0.106203225580E+00
 -0.374394631386E+01 -0.603855913505E-02  0.000000000000E+00
 -0.478804524346E+01 -0.603855913505E-02 -0.104409892960E+00
 -0.374394631386E+01  0.603855913505E-02  0.000000000000E+00
 -0.478804524346E+01  0.603855913505E-02 -0.104409892960E+00
 -0.375000000000E+01  0.000000000000E+00  0.000000000000E+00
 -0.478810518095E+01  0.000000000000E+00 -0.103810518095E+00
 -0.381350326538E+01 -0.156729722023E+01  0.000000000000E+00
 -0.478873392615E+01 -0.156729722023E+01 -0.975230660772E-01
 -0.381350326538E+01  0.156729722023E+01  0.000000000000E+00
 -0.478873392615E+01  0.156729722023E+01 -0.975230660772E-01
 -0.390566444397E+01 -0.170134985447E+01  0.000000000000E+00
 -0.478964641307E+01 -0.170134985447E+01 -0.883981969099E-01
 -0.390566444397E+01  0.170134985447E+01  0.000000000000E+00
 -0.478964641307E+01  0.170134985447E+01 -0.883981969099E-01
 -0.399671125412E+01 -0.183378136158E+01  0.000000000000E+00
 -0.479054786663E+01 -0.183378136158E+01 -0.793836612515E-01
 -0.399671125412E+01  0.183378136158E+01  0.000000000000E+00
 -0.479054786663E+01  0.183378136158E+01 -0.793836612515E-01
 -0.408591032028E+01 -0.196352553368E+01  0.000000000000E+00
 -0.479143102571E+01 -0.196352553368E+01 -0.705520705426E-01
 -0.408591032028E+01  0.196352553368E+01  0.000000000000E+00
 -0.479143102571E+01  0.196352553368E+01 -0.705520705426E-01
 -0.417254352570E+01 -0.208953762054E+01  0.000000000000E+00
 -0.479228878021E+01 -0.208953762054E+01 -0.619745254515E-01
 -0.417254352570E+01  0.208953762054E+01  0.000000000000E+00
 -0.479228878021E+01  0.208953762054E+01 -0.619745254515E-01
 -0.425591373444E+01 -0.221080303192E+01  0.000000000000E+00
 -0.479311422783E+01 -0.221080303192E+01 -0.537200493386E-01
 -0.425591373444E+01  0.221080303192E+01  0.000000000000E+00
 -0.479311422783E+01  0.221080303192E+01 -0.537200493386E-01
 -0.433534908295E+01 -0.232634544373E+01  0.000000000000E+00
 -0.479390071643E+01 -0.232634544373E+01 -0.458551633475E-01
 -0.433534908295E+01  0.232634544373E+01  0.000000000000E+00
 -0.479390071643E+01  0.232634544373E+01 -0.458551633475E-01
 -0.441021013260E+01 -0.243523478508E+01  0.000000000000E+00
 -0.479464191494E+01 -0.243523478508E+01 -0.384431782337E-01
 -0.441021013260E+01  0.243523478508E+01  0.000000000000E+00
 -0.479464191494E+01  0.243523478508E+01 -0.384431782337E-01
 -0.447989463806E+01 -0.253659391403E+01  0.000000000000E+00
 -0.479533186054E+01 -0.253659391403E+01 -0.315437222475E-01
 -0.447989463806E+01  0.253659391403E+01  0.000000000000E+00
 -0.479533186054E+01  0.253659391403E+01 -0.315437222475E-01
 -0.454384136200E+01 -0.262960720062E+01  0.000000000000E+00
 -0.479596499642E+01 -0.262960720062E+01 -0.252123634416E-01
 -0.454384136200E+01  0.262960720062E+01  0.000000000000E+00
 -0.479596499642E+01  0.262960720062E+01 -0.252123634416E-01
 -0.460153532028E+01 -0.271352553368E+01  0.000000000000E+00
 -0.479653622373E+01 -0.271352553368E+01 -0.195000903446E-01
 -0.460153532028E+01  0.271352553368E+01  0.000000000000E+00
 -0.479653622373E+01  0.271352553368E+01 -0.195000903446E-01
 -0.465251159668E+01 -0.278767323494E+01  0.000000000000E+00
 -0.479704093933E+01 -0.278767323494E+01 -0.144529342653E-01
 -0.465251159668E+01  0.278767323494E+01  0.000000000000E+00
 -0.479704093933E+01  0.278767323494E+01 -0.144529342653E-01
 -0.469636058807E+01 -0.285145330429E+01  0.000000000000E+00
 -0.479747508776E+01 -0.285145330429E+01 -0.101114499693E-01
 -0.469636058807E+01  0.285145330429E+01  0.000000000000E+00
 -0.479747508776E+01  0.285145330429E+01 -0.101114499693E-01
 -0.473272848129E+01 -0.290435218811E+01  0.000000000000E+00
 -0.479783516591E+01 -0.290435218811E+01 -0.651066846238E-02
 -0.473272848129E+01  0.290435218811E+01  0.000000000000E+00
 -0.479783516591E+01  0.290435218811E+01 -0.651066846238E-02
 -0.476132297516E+01 -0.294594430923E+01  0.000000000000E+00
 -0.479811827971E+01 -0.294594430923E+01 -0.367953045545E-02
 -0.476132297516E+01  0.294594430923E+01  0.000000000000E+00
 -0.479811827971E+01  0.294594430923E+01 -0.367953045545E-02
 -0.478191375732E+01 -0.297589445114E+01  0.000000000000E+00
 -0.479832214884E+01 -0.297589445114E+01 -0.164083915248E-02
 -0.478191375732E+01  0.297589445114E+01  0.000000000000E+00
 -0.479832214884E+01  0.297589445114E+01 -0.164083915248E-02
 -0.479433488846E+01 -0.299396133423E+01  0.000000000000E+00
 -0.479844513034E+01 -0.299396133423E+01 -0.411024188119E-03
 -0.479433488846E+01  0.299396133423E+01  0.000000000000E+00
 -0.479844513034E+01  0.299396133423E+01 -0.411024188119E-03
 -0.479848623276E+01 -0.300000000000E+01  0.000000000000E+00
 -0.479848623276E+01 -0.300000000000E+01  0.000000000000E+00
 -0.479848623276E+01  0.300000000000E+01  0.000000000000E+00
 -0.479848623276E+01  0.300000000000E+01  0.000000000000E+00
POLYGONS                 138                 552
3                  64                  65                  69
3                  64                  69                  68
3                  60                  61                  65
3                  60                  65                  64
3                  52                  53                  61
3                  52                  61                  60
3                  48                  49                  53
3                  48                  53                  52
3                  40                  41                  49
3                  40                  49                  48
3                  32                  33                  41
3                  32                  41                  40
3                  28                  29                  33
3                  28                  33                  32
3                  20                  21                  29
3                  20                  29                  28
3                  12                  13                  21
3                  12                  21                  20
3                   0                   1                  13
3                   0                  13                  12
3                   4                   5                   1
3                   4                   1                   0
3                   8                   9                   5
3                   8                   5                   4
3                  16                  17                   9
3                  16                   9                   8
3                  24                  25                  17
3                  24                  17                  16
3                  36                  37                  25
3                  36                  25                  24
3                  44                  45                  37
3                  44                  37                  36
3                  56                  57                  45
3                  56                  45                  44
3                  70                  71                  57
3                  70                  57                  56
3                  74                  75                  71
3                  74                  71                  70
3                  78                  79                  75
3                  78                  75                  74
3                  82                  83                  79
3                  82                  79                  78
3                  86                  87                  83
3                  86                  83                  82
3                  90                  91                  87
3                  90                  87                  86
3                  94                  95                  91
3                  94                  91                  90
3                  98                  99                  95
3                  98                  95                  94
3                 102                 103                  99
3                 102                  99                  98
3                 106                 107                 103
3                 106                 103                 102
3                 110                 111                 107
3                 110                 107                 106
3                 114                 115                 111
3                 114                 111                 110
3                 118                 119                 115
3                 118                 115                 114
3                 122                 123                 119
3                 122                 119                 118
3                 126                 127                 123
3                 126                 123                 122
3                 130                 131                 127
3                 130                 127                 126
3                 134                 135                 131
3                 134                 131                 130
3                 138                 135                 134
3                  68                  69                  67
3                  68                  67                  66
3                  66                  67                  63
3                  66                  63                  62
3                  62                  63                  55
3                  62                  55                  54
3                  54                  55                  51
3                  54                  51                  50
3                  50                  51                  43
3                  50                  43                  42
3                  42                  43                  35
3                  42                  35                  34
3                  34                  35                  31
3                  34                  31                  30
3                  30                  31                  23
3                  30                  23                  22
3                  22                  23                  15
3                  22                  15                  14
3                  14                  15                   3
3                  14                   3                   2
3                   2                   3                   7
3                   2                   7                   6
3                   6                   7                  11
3                   6                  11                  10
3                  10                  11                  19
3                  10                  19                  18
3                  18                  19                  27
3                  18                  27                  26
3                  26                  27                  39
3                  26                  39                  38
3                  38                  39                  47
3                  38                  47                  46
3                  46                  47                  59
3                  46                  59                  58
3                  58                  59                  73
3                  58                  73                  72
3                  72                  73                  77
3                  72                  77                  76
3                  76                  77                  81
3                  76                  81                  80
3                  80                  81                  85
3                  80                  85                  84
3                  84                  85                  89
3                  84                  89                  88
3                  88                  89                  93
3                  88                  93                  92
3                  92                  93                  97
3                  92                  97                  96
3                  96                  97                 101
3                  96                 101                 100
3                 100                 101                 105
3                 100                 105                 104
3                 104                 105                 109
3                 104                 109                 108
3                 108                 109                 113
3                 108                 113                 112
3                 112                 113                 117
3                 112                 117                 116
3                 116                 117                 121
3                 116                 121                 120
3                 120                 121                 125
3                 120                 125                 124
3                 124                 125                 129
3                 124                 129                 128
3                 128                 129                 133
3                 128                 133                 132
3                 132                 133                 137
3                 132                 137                 136
3                 136                 137                 141
CELL_DATA                 138
NORMALS normals float
  0.990123195891E-01  0.992603522431E-01 -0.990123195891E+00
  0.990123195891E-01  0.992603522431E-01 -0.990123195891E+00
  0.990123011905E-01  0.992622058413E-01 -0.990123011905E+00
  0.990123011905E-01  0.992622058413E-01 -0.990123011905E+00
  0.990123000316E-01  0.992623225968E-01 -0.990123000316E+00
  0.990123000316E-01  0.992623225968E-01 -0.990123000316E+00
  0.990122996732E-01  0.992623587059E-01 -0.990122996732E+00
  0.990122996732E-01  0.992623587059E-01 -0.990122996732E+00
  0.990123034091E-01  0.992619823330E-01 -0.990123034091E+00
  0.990123034091E-01  0.992619823330E-01 -0.990123034091E+00
  0.990123025885E-01  0.992620649986E-01 -0.990123025885E+00
  0.990123025885E-01  0.992620649986E-01 -0.990123025885E+00
  0.990123039715E-01  0.992619256749E-01 -0.990123039715E+00
  0.990123039715E-01  0.992619256749E-01 -0.990123039715E+00
  0.990123019126E-01  0.992621330991E-01 -0.990123019126E+00
  0.990123019126E-01  0.992621330991E-01 -0.990123019126E+00
  0.990123022331E-01  0.992621008107E-01 -0.990123022331E+00
  0.990123022331E-01  0.992621008107E-01 -0.990123022331E+00
  0.990123023845E-01  0.992620855577E-01 -0.990123023845E+00
  0.990123023845E-01  0.992620855577E-01 -0.990123023845E+00
  0.994939775744E-01 -0.139925362078E-01 -0.994939775744E+00
  0.994939775744E-01 -0.139925362078E-01 -0.994939775744E+00
  0.992717052231E-01 -0.682494157584E-01 -0.992717052231E+00
  0.992717052231E-01 -0.682494157584E-01 -0.992717052231E+00
  0.992717060254E-01 -0.682492978993E-01 -0.992717060254E+00
  0.992717060254E-01 -0.682492978993E-01 -0.992717060254E+00
  0.992717063635E-01 -0.682492482328E-01 -0.992717063635E+00
  0.992717063635E-01 -0.682492482328E-01 -0.992717063635E+00
  0.992717062958E-01 -0.682492581699E-01 -0.992717062958E+00
  0.992717062958E-01 -0.682492581699E-01 -0.992717062958E+00
  0.992717052686E-01 -0.682494090727E-01 -0.992717052686E+00
  0.992717052686E-01 -0.682494090727E-01 -0.992717052686E+00
  0.992717060628E-01 -0.682492924011E-01 -0.992717060628E+00
  0.992717060628E-01 -0.682492924011E-01 -0.992717060628E+00
  0.992717064722E-01 -0.682492322570E-01 -0.992717064722E+00
  0.992717064722E-01 -0.682492322570E-01 -0.992717064722E+00
  0.992717060628E-01 -0.682492924011E-01 -0.992717060628E+00
  0.992717060628E-01 -0.682492924011E-01 -0.992717060628E+00
  0.992717052686E-01 -0.682494090727E-01 -0.992717052686E+00
  0.992717052686E-01 -0.682494090727E-01 -0.992717052686E+00
  0.992717062958E-01 -0.682492581699E-01 -0.992717062958E+00
  0.992717062958E-01 -0.682492581699E-01 -0.992717062958E+00
  0.992717065821E-01 -0.682492161111E-01 -0.992717065821E+00
  0.992717065821E-01 -0.682492161111E-01 -0.992717065821E+00
  0.992717047031E-01 -0.682494921585E-01 -0.992717047031E+00
  0.992717047031E-01 -0.682494921585E-01 -0.992717047031E+00
  0.992717063724E-01 -0.682492469159E-01 -0.992717063724E+00
  0.992717063724E-01 -0.682492469159E-01 -0.992717063724E+00
  0.992717083265E-01 -0.682489598498E-01 -0.992717083265E+00
  0.992717083265E-01 -0.682489598498E-01 -0.992717083265E+00
  0.992717053333E-01 -0.682493995754E-01 -0.992717053333E+00
  0.992717053333E-01 -0.682493995754E-01 -0.992717053333E+00
  0.992717053789E-01 -0.682493928733E-01 -0.992717053789E+00
  0.992717053789E-01 -0.682493928733E-01 -0.992717053789E+00
  0.992717051895E-01 -0.682494207016E-01 -0.992717051895E+00
  0.992717051895E-01 -0.682494207016E-01 -0.992717051895E+00
  0.992717084584E-01 -0.682489404672E-01 -0.992717084584E+00
  0.992717084584E-01 -0.682489404672E-01 -0.992717084584E+00
  0.992717039827E-01 -0.682495979946E-01 -0.992717039827E+00
  0.992717039827E-01 -0.682495979946E-01 -0.992717039827E+00
  0.992717071622E-01 -0.682491308914E-01 -0.992717071622E+00
  0.992717071622E-01 -0.682491308914E-01 -0.992717071622E+00
  0.992717074711E-01 -0.682490855073E-01 -0.992717074711E+00
  0.992717074711E-01 -0.682490855073E-01 -0.992717074711E+00
  0.992717046871E-01 -0.682494945101E-01 -0.992717046871E+00
  0.992717046871E-01 -0.682494945101E-01 -0.992717046871E+00
  0.992717004779E-01 -0.682501128714E-01 -0.992717004779E+00
  0.992717004779E-01 -0.682501128714E-01 -0.992717004779E+00
  0.992717325796E-01 -0.682453967303E-01 -0.992717325796E+00
  0.990123195891E-01 -0.992603522431E-01 -0.990123195891E+00
  0.990123195891E-01 -0.992603522431E-01 -0.990123195891E+00
  0.990123011905E-01 -0.992622058413E-01 -0.990123011905E+00
  0.990123011905E-01 -0.992622058413E-01 -0.990123011905E+00
  0.990123000316E-01 -0.992623225968E-01 -0.990123000316E+00
  0.990123000316E-01 -0.992623225968E-01 -0.990123000316E+00
  0.990122996732E-01 -0.992623587059E-01 -0.990122996732E+00
  0.990122996732E-01 -0.992623587059E-01 -0.990122996732E+00
  0.990123034091E-01 -0.992619823330E-01 -0.990123034091E+00
  0.990123034091E-01 -0.992619823330E-01 -0.990123034091E+00
  0.990123025885E-01 -0.992620649986E-01 -0.990123025885E+00
  0.990123025885E-01 -0.992620649986E-01 -0.990123025885E+00
  0.990123039715E-01 -0.992619256749E-01 -0.990123039715E+00
  0.990123039715E-01 -0.992619256749E-01 -0.990123039715E+00
  0.990123019126E-01 -0.992621330991E-01 -0.990123019126E+00
  0.990123019126E-01 -0.992621330991E-01 -0.990123019126E+00
  0.990123022331E-01 -0.992621008107E-01 -0.990123022331E+00
  0.990123022331E-01 -0.992621008107E-01 -0.990123022331E+00
  0.990123023845E-01 -0.992620855577E-01 -0.990123023845E+00
  0.990123023845E-01 -0.992620855577E-01 -0.990123023845E+00
  0.994939775744E-01  0.139925362078E-01 -0.994939775744E+00
  0.994939775744E-01  0.139925362078E-01 -0.994939775744E+00
  0.992717052231E-01  0.682494157584E-01 -0.992717052231E+00
  0.992717052231E-01  0.682494157584E-01 -0.992717052231E+00
  0.992717060254E-01  0.682492978993E-01 -0.992717060254E+00
  0.992717060254E-01  0.682492978993E-01 -0.992717060254E+00
  0.992717063635E-01  0.682492482328E-01 -0.992717063635E+00
  0.992717063635E-01  0.682492482328E-01 -0.992717063635E+00
  0.992717062958E-01  0.682492581699E-01 -0.992717062958E+00
  0.992717062958E-01  0.682492581699E-01 -0.992717062958E+00
  0.992717052686E-01  0.682494090727E-01 -0.992717052686E+00
  0.992717052686E-01  0.682494090727E-01 -0.992717052686E+00
  0.992717060628E-01  0.682492924011E-01 -0.992717060628E+00
  0.992717060628E-01  0.682492924011E-01 -0.992717060628E+00
  0.992717064722E-01  0.682492322570E-01 -0.992717064722E+00
  0.992717064722E-01  0.682492322570E-01 -0.992717064722E+00
  0.992717060628E-01  0.682492924011E-01 -0.992717060628E+00
  0.992717060628E-01  0.682492924011E-01 -0.992717060628E+00
  0.992717052686E-01  0.682494090727E-01 -0.992717052686E+00
  0.992717052686E-01  0.682494090727E-01 -0.992717052686E+00
  0.992717062958E-01  0.682492581699E-01 -0.992717062958E+00
  0.992717062958E-01  0.682492581699E-01 -0.992717062958E+00
  0.992717065821E-01  0.682492161111E-01 -0.992717065821E+00
  0.992717065821E-01  0.682492161111E-01 -0.992717065821E+00
  0.992717047031E-01  0.682494921585E-01 -0.992717047031E+00
  0.992717047031E-01  0.682494921585E-01 -0.992717047031E+00
  0.992717063724E-01  0.682492469159E-01 -0.992717063724E+00
  0.992717063724E-01  0.682492469159E-01 -0.992717063724E+00
  0.992717083265E-01  0.682489598498E-01 -0.992717083265E+00
  0.992717083265E-01  0.682489598498E-01 -0.992717083265E+00
  0.992717053333E-01  0.682493995754E-01 -0.992717053333E+00
  0.992717053333E-01  0.682493995754E-01 -0.992717053333E+00
  0.992717053789E-01  0.682493928733E-01 -0.992717053789E+00
  0.992717053789E-01  0.682493928733E-01 -0.992717053789E+00
  0.992717051895E-01  0.682494207016E-01 -0.992717051895E+00
  0.992717051895E-01  0.682494207016E-01 -0.992717051895E+00
  0.992717084584E-01  0.682489404672E-01 -0.992717084584E+00
  0.992717084584E-01  0.682489404672E-01 -0.992717084584E+00
  0.992717039827E-01  0.682495979946E-01 -0.992717039827E+00
  0.992717039827E-01  0.682495979946E-01 -0.992717039827E+00
  0.992717071622E-01  0.682491308914E-01 -0.992717071622E+00
  0.992717071622E-01  0.682491308914E-01 -0.992717071622E+00
  0.992717074711E-01  0.682490855073E-01 -0.992717074711E+00
  0.992717074711E-01  0.682490855073E-01 -0.992717074711E+00
  0.992717046871E-01  0.682494945101E-01 -0.992717046871E+00
  0.992717046871E-01  0.682494945101E-01 -0.992717046871E+00
  0.992717004779E-01  0.682501128714E-01 -0.992717004779E+00
  0.992717004779E-01  0.682501128714E-01 -0.992717004779E+00
  0.992717325796E-01  0.682453967303E-01 -0.992717325796E+00
POINT_DATA                 142
SCALARS mu float 1
LOOKUP_TABLE default
 -0.789650218998E+00
 -0.789650218998E+00
 -0.945680540984E+00
 -0.945680540984E+00
 -0.762440429879E+00
 -0.762440429879E+00
 -0.953844564301E+00
 -0.953844564301E+00
 -0.747109049692E+00
 -0.747109049692E+00
 -0.981581627197E+00
 -0.981581627197E+00
 -0.838240373823E+00
 -0.838240373823E+00
 -0.965795413203E+00
 -0.965795413203E+00
 -0.735037670470E+00
 -0.735037670470E+00
 -0.101852459437E+01
 -0.101852459437E+01
 -0.872134930137E+00
 -0.872134930137E+00
 -0.974459397627E+00
 -0.974459397627E+00
 -0.708289817402E+00
 -0.708289817402E+00
 -0.105006467808E+01
 -0.105006467808E+01
 -0.897563605260E+00
 -0.897563605260E+00
 -0.976580318172E+00
 -0.976580318172E+00
 -0.917457175053E+00
 -0.917457175053E+00
 -0.975553254421E+00
 -0.975553254421E+00
 -0.673841145533E+00
 -0.673841145533E+00
 -0.108233104207E+01
 -0.108233104207E+01
 -0.933514383690E+00
 -0.933514383690E+00
 -0.974615248259E+00
 -0.974615248259E+00
 -0.646839564323E+00
 -0.646839564323E+00
 -0.113096314112E+01
 -0.113096314112E+01
 -0.943523422115E+00
 -0.943523422115E+00
 -0.970253471320E+00
 -0.970253471320E+00
 -0.952568734068E+00
 -0.952568734068E+00
 -0.968187848070E+00
 -0.968187848070E+00
 -0.629125712335E+00
 -0.629125712335E+00
 -0.120436851885E+01
 -0.120436851885E+01
 -0.958469410922E+00
 -0.958469410922E+00
 -0.965436974302E+00
 -0.965436974302E+00
 -0.961626282044E+00
 -0.961626282044E+00
 -0.963362262078E+00
 -0.963362262078E+00
 -0.962528597304E+00
 -0.962528597304E+00
 -0.620726759832E+00
 -0.620726759832E+00
 -0.130747078070E+01
 -0.130747078070E+01
 -0.622133560286E+00
 -0.622133560286E+00
 -0.144145105532E+01
 -0.144145105532E+01
 -0.628660514977E+00
 -0.628660514977E+00
 -0.158755079641E+01
 -0.158755079641E+01
 -0.639273005001E+00
 -0.639273005001E+00
 -0.171228542426E+01
 -0.171228542426E+01
 -0.624582482311E+00
 -0.624582482311E+00
 -0.177866239712E+01
 -0.177866239712E+01
 -0.215616908371E+00
 -0.215616908371E+00
 -0.158573253019E+01
 -0.158573253019E+01
  0.316113485347E+01
  0.316113485347E+01
  0.295769781411E+00
  0.295769781411E+00
  0.141247898040E+02
  0.141247898040E+02
  0.648952004228E+01
  0.648952004228E+01
  0.167464583429E+02
  0.167464583429E+02
  0.829013999180E+01
  0.829013999180E+01
  0.165500098063E+02
  0.165500098063E+02
  0.858001145476E+01
  0.858001145476E+01
  0.144509098983E+02
  0.144509098983E+02
  0.768805522757E+01
  0.768805522757E+01
  0.113626688598E+02
  0.113626688598E+02
  0.614376242406E+01
  0.614376242406E+01
  0.915485544359E+01
  0.915485544359E+01
  0.501160673355E+01
  0.501160673355E+01
  0.762868900947E+01
  0.762868900947E+01
  0.421067633311E+01
  0.421067633311E+01
  0.583418579555E+01
  0.583418579555E+01
  0.323492280202E+01
  0.323492280202E+01
  0.347013227660E+01
  0.347013227660E+01
  0.192850682604E+01
  0.192850682604E+01
  0.120466514726E+01
  0.120466514726E+01
  0.670193175437E+00
  0.670193175437E+00
  0.000000000000E+00
  0.000000000000E+00
  0.000000000000E+00
  0.000000000000E+00
