# vtk DataFile Version 3.0
MachLine results file. Generated by MachLine, USU AeroLab (c) 2022.
ASCII
DATASET POLYDATA
POINTS                 632 float
  0.230003683940E+00  0.293037974680E-02  0.000000000000E+00
  0.230000000000E+00  0.000000000000E+00  0.000000000000E+00
  0.298849981580E+02  0.293037974680E-02  0.000000000000E+00
  0.298850000000E+02  0.000000000000E+00  0.000000000000E+00
  0.230007367880E+00  0.586075949370E-02  0.000000000000E+00
  0.230003683940E+00  0.293037974680E-02  0.000000000000E+00
  0.298849963161E+02  0.586075949370E-02  0.000000000000E+00
  0.298849981580E+02  0.293037974680E-02  0.000000000000E+00
  0.230011051820E+00  0.879113924050E-02  0.000000000000E+00
  0.230007367880E+00  0.586075949370E-02  0.000000000000E+00
  0.298849944741E+02  0.879113924050E-02  0.000000000000E+00
  0.298849963161E+02  0.586075949370E-02  0.000000000000E+00
  0.230014735750E+00  0.117215189870E-01  0.000000000000E+00
  0.230011051820E+00  0.879113924050E-02  0.000000000000E+00
  0.298849926321E+02  0.117215189870E-01  0.000000000000E+00
  0.298849944741E+02  0.879113924050E-02  0.000000000000E+00
  0.230018419690E+00  0.146518987340E-01  0.000000000000E+00
  0.230014735750E+00  0.117215189870E-01  0.000000000000E+00
  0.298849907902E+02  0.146518987340E-01  0.000000000000E+00
  0.298849926321E+02  0.117215189870E-01  0.000000000000E+00
  0.230022103630E+00  0.175822784810E-01  0.000000000000E+00
  0.230018419690E+00  0.146518987340E-01  0.000000000000E+00
  0.298849889482E+02  0.175822784810E-01  0.000000000000E+00
  0.298849907902E+02  0.146518987340E-01  0.000000000000E+00
  0.230025787570E+00  0.205126582280E-01  0.000000000000E+00
  0.230022103630E+00  0.175822784810E-01  0.000000000000E+00
  0.298849871062E+02  0.205126582280E-01  0.000000000000E+00
  0.298849889482E+02  0.175822784810E-01  0.000000000000E+00
  0.230029471510E+00  0.234430379750E-01  0.000000000000E+00
  0.230025787570E+00  0.205126582280E-01  0.000000000000E+00
  0.298849852642E+02  0.234430379750E-01  0.000000000000E+00
  0.298849871062E+02  0.205126582280E-01  0.000000000000E+00
  0.230033155450E+00  0.263734177220E-01  0.000000000000E+00
  0.230029471510E+00  0.234430379750E-01  0.000000000000E+00
  0.298849834223E+02  0.263734177220E-01  0.000000000000E+00
  0.298849852642E+02  0.234430379750E-01  0.000000000000E+00
  0.230036839390E+00  0.293037974680E-01  0.000000000000E+00
  0.230033155450E+00  0.263734177220E-01  0.000000000000E+00
  0.298849815803E+02  0.293037974680E-01  0.000000000000E+00
  0.298849834223E+02  0.263734177220E-01  0.000000000000E+00
  0.230040523320E+00  0.322341772150E-01  0.000000000000E+00
  0.230036839390E+00  0.293037974680E-01  0.000000000000E+00
  0.298849797383E+02  0.322341772150E-01  0.000000000000E+00
  0.298849815803E+02  0.293037974680E-01  0.000000000000E+00
  0.230044207260E+00  0.351645569620E-01  0.000000000000E+00
  0.230040523320E+00  0.322341772150E-01  0.000000000000E+00
  0.298849778964E+02  0.351645569620E-01  0.000000000000E+00
  0.298849797383E+02  0.322341772150E-01  0.000000000000E+00
  0.230047891200E+00  0.380949367090E-01  0.000000000000E+00
  0.230044207260E+00  0.351645569620E-01  0.000000000000E+00
  0.298849760544E+02  0.380949367090E-01  0.000000000000E+00
  0.298849778964E+02  0.351645569620E-01  0.000000000000E+00
  0.230051575140E+00  0.410253164560E-01  0.000000000000E+00
  0.230047891200E+00  0.380949367090E-01  0.000000000000E+00
  0.298849742124E+02  0.410253164560E-01  0.000000000000E+00
  0.298849760544E+02  0.380949367090E-01  0.000000000000E+00
  0.230055259080E+00  0.439556962030E-01  0.000000000000E+00
  0.230051575140E+00  0.410253164560E-01  0.000000000000E+00
  0.298849723705E+02  0.439556962030E-01  0.000000000000E+00
  0.298849742124E+02  0.410253164560E-01  0.000000000000E+00
  0.230058943020E+00  0.468860759490E-01  0.000000000000E+00
  0.230055259080E+00  0.439556962030E-01  0.000000000000E+00
  0.298849705285E+02  0.468860759490E-01  0.000000000000E+00
  0.298849723705E+02  0.439556962030E-01  0.000000000000E+00
  0.230062626960E+00  0.498164556960E-01  0.000000000000E+00
  0.230058943020E+00  0.468860759490E-01  0.000000000000E+00
  0.298849686865E+02  0.498164556960E-01  0.000000000000E+00
  0.298849705285E+02  0.468860759490E-01  0.000000000000E+00
  0.230066310890E+00  0.527468354430E-01  0.000000000000E+00
  0.230062626960E+00  0.498164556960E-01  0.000000000000E+00
  0.298849668446E+02  0.527468354430E-01  0.000000000000E+00
  0.298849686865E+02  0.498164556960E-01  0.000000000000E+00
  0.230069994830E+00  0.556772151900E-01  0.000000000000E+00
  0.230066310890E+00  0.527468354430E-01  0.000000000000E+00
  0.298849650026E+02  0.556772151900E-01  0.000000000000E+00
  0.298849668446E+02  0.527468354430E-01  0.000000000000E+00
  0.230073678770E+00  0.586075949370E-01  0.000000000000E+00
  0.230069994830E+00  0.556772151900E-01  0.000000000000E+00
  0.298849631606E+02  0.586075949370E-01  0.000000000000E+00
  0.298849650026E+02  0.556772151900E-01  0.000000000000E+00
  0.230077362710E+00  0.615379746840E-01  0.000000000000E+00
  0.230073678770E+00  0.586075949370E-01  0.000000000000E+00
  0.298849613186E+02  0.615379746840E-01  0.000000000000E+00
  0.298849631606E+02  0.586075949370E-01  0.000000000000E+00
  0.230081046650E+00  0.644683544300E-01  0.000000000000E+00
  0.230077362710E+00  0.615379746840E-01  0.000000000000E+00
  0.298849594767E+02  0.644683544300E-01  0.000000000000E+00
  0.298849613186E+02  0.615379746840E-01  0.000000000000E+00
  0.230084730590E+00  0.673987341770E-01  0.000000000000E+00
  0.230081046650E+00  0.644683544300E-01  0.000000000000E+00
  0.298849576347E+02  0.673987341770E-01  0.000000000000E+00
  0.298849594767E+02  0.644683544300E-01  0.000000000000E+00
  0.230088414530E+00  0.703291139240E-01  0.000000000000E+00
  0.230084730590E+00  0.673987341770E-01  0.000000000000E+00
  0.298849557927E+02  0.703291139240E-01  0.000000000000E+00
  0.298849576347E+02  0.673987341770E-01  0.000000000000E+00
  0.230092098460E+00  0.732594936710E-01  0.000000000000E+00
  0.230088414530E+00  0.703291139240E-01  0.000000000000E+00
  0.298849539508E+02  0.732594936710E-01  0.000000000000E+00
  0.298849557927E+02  0.703291139240E-01  0.000000000000E+00
  0.230095782400E+00  0.761898734180E-01  0.000000000000E+00
  0.230092098460E+00  0.732594936710E-01  0.000000000000E+00
  0.298849521088E+02  0.761898734180E-01  0.000000000000E+00
  0.298849539508E+02  0.732594936710E-01  0.000000000000E+00
  0.230099466340E+00  0.791202531650E-01  0.000000000000E+00
  0.230095782400E+00  0.761898734180E-01  0.000000000000E+00
  0.298849502668E+02  0.791202531650E-01  0.000000000000E+00
  0.298849521088E+02  0.761898734180E-01  0.000000000000E+00
  0.230103150280E+00  0.820506329110E-01  0.000000000000E+00
  0.230099466340E+00  0.791202531650E-01  0.000000000000E+00
  0.298849484249E+02  0.820506329110E-01  0.000000000000E+00
  0.298849502668E+02  0.791202531650E-01  0.000000000000E+00
  0.230106834220E+00  0.849810126580E-01  0.000000000000E+00
  0.230103150280E+00  0.820506329110E-01  0.000000000000E+00
  0.298849465829E+02  0.849810126580E-01  0.000000000000E+00
  0.298849484249E+02  0.820506329110E-01  0.000000000000E+00
  0.230110518160E+00  0.879113924050E-01  0.000000000000E+00
  0.230106834220E+00  0.849810126580E-01  0.000000000000E+00
  0.298849447409E+02  0.879113924050E-01  0.000000000000E+00
  0.298849465829E+02  0.849810126580E-01  0.000000000000E+00
  0.230114202100E+00  0.908417721520E-01  0.000000000000E+00
  0.230110518160E+00  0.879113924050E-01  0.000000000000E+00
  0.298849428989E+02  0.908417721520E-01  0.000000000000E+00
  0.298849447409E+02  0.879113924050E-01  0.000000000000E+00
  0.230117886030E+00  0.937721518990E-01  0.000000000000E+00
  0.230114202100E+00  0.908417721520E-01  0.000000000000E+00
  0.298849410570E+02  0.937721518990E-01  0.000000000000E+00
  0.298849428989E+02  0.908417721520E-01  0.000000000000E+00
  0.230121569970E+00  0.967025316460E-01  0.000000000000E+00
  0.230117886030E+00  0.937721518990E-01  0.000000000000E+00
  0.298849392150E+02  0.967025316460E-01  0.000000000000E+00
  0.298849410570E+02  0.937721518990E-01  0.000000000000E+00
  0.230125253910E+00  0.996329113920E-01  0.000000000000E+00
  0.230121569970E+00  0.967025316460E-01  0.000000000000E+00
  0.298849373730E+02  0.996329113920E-01  0.000000000000E+00
  0.298849392150E+02  0.967025316460E-01  0.000000000000E+00
  0.230128937850E+00  0.102563291140E+00  0.000000000000E+00
  0.230125253910E+00  0.996329113920E-01  0.000000000000E+00
  0.298849355311E+02  0.102563291140E+00  0.000000000000E+00
  0.298849373730E+02  0.996329113920E-01  0.000000000000E+00
  0.230132621790E+00  0.105493670890E+00  0.000000000000E+00
  0.230128937850E+00  0.102563291140E+00  0.000000000000E+00
  0.298849336891E+02  0.105493670890E+00  0.000000000000E+00
  0.298849355311E+02  0.102563291140E+00  0.000000000000E+00
  0.230136305730E+00  0.108424050630E+00  0.000000000000E+00
  0.230132621790E+00  0.105493670890E+00  0.000000000000E+00
  0.298849318471E+02  0.108424050630E+00  0.000000000000E+00
  0.298849336891E+02  0.105493670890E+00  0.000000000000E+00
  0.230139989660E+00  0.111354430380E+00  0.000000000000E+00
  0.230136305730E+00  0.108424050630E+00  0.000000000000E+00
  0.298849300052E+02  0.111354430380E+00  0.000000000000E+00
  0.298849318471E+02  0.108424050630E+00  0.000000000000E+00
  0.230143673600E+00  0.114284810130E+00  0.000000000000E+00
  0.230139989660E+00  0.111354430380E+00  0.000000000000E+00
  0.298849281632E+02  0.114284810130E+00  0.000000000000E+00
  0.298849300052E+02  0.111354430380E+00  0.000000000000E+00
  0.230147357540E+00  0.117215189870E+00  0.000000000000E+00
  0.230143673600E+00  0.114284810130E+00  0.000000000000E+00
  0.298849263212E+02  0.117215189870E+00  0.000000000000E+00
  0.298849281632E+02  0.114284810130E+00  0.000000000000E+00
  0.230151041480E+00  0.120145569620E+00  0.000000000000E+00
[...]
POINT_DATA                 632
SCALARS mu float 1
LOOKUP_TABLE default
 -0.376411074619E-10
 -0.825672323481E-10
 -0.376411074619E-10
 -0.825672323481E-10
  0.192030604005E-08
 -0.376411074619E-10
  0.192030604005E-08
 -0.376411074619E-10
 -0.777882000415E-08
  0.192030604005E-08
 -0.777882000415E-08
  0.192030604005E-08
 -0.165346416745E-08
 -0.777882000415E-08
 -0.165346416745E-08
 -0.777882000415E-08
  0.192519035869E-08
 -0.165346416745E-08
  0.192519035869E-08
 -0.165346416745E-08
 -0.232830172676E-09
  0.192519035869E-08
 -0.232830172676E-09
  0.192519035869E-08
  0.118087170684E-09
 -0.232830172676E-09
  0.118087170684E-09
 -0.232830172676E-09
 -0.609681532690E-10
  0.118087170684E-09
 -0.609681532690E-10
  0.118087170684E-09
 -0.101916656364E-08
 -0.609681532690E-10
 -0.101916656364E-08
 -0.609681532690E-10
 -0.381533003975E-10
 -0.101916656364E-08
 -0.381533003975E-10
 -0.101916656364E-08
 -0.206380899783E-09
 -0.381533003975E-10
 -0.206380899783E-09
 -0.381533003975E-10
  0.293068690496E-08
 -0.206380899783E-09
  0.293068690496E-08
 -0.206380899783E-09
  0.164190795942E-09
  0.293068690496E-08
  0.164190795942E-09
  0.293068690496E-08
  0.257627647384E-08
  0.164190795942E-09
  0.257627647384E-08
  0.164190795942E-09
  0.210122318308E-08
  0.257627647384E-08
  0.210122318308E-08
  0.257627647384E-08
  0.434103642789E-10
  0.210122318308E-08
  0.434103642789E-10
  0.210122318308E-08
  0.283747015055E-08
  0.434103642789E-10
  0.283747015055E-08
  0.434103642789E-10
 -0.108184697702E-08
  0.283747015055E-08
 -0.108184697702E-08
  0.283747015055E-08
 -0.346840620460E-10
 -0.108184697702E-08
 -0.346840620460E-10
 -0.108184697702E-08
 -0.416906257780E-10
 -0.346840620460E-10
 -0.416906257780E-10
 -0.346840620460E-10
 -0.255090949666E-09
 -0.416906257780E-10
 -0.255090949666E-09
 -0.416906257780E-10
  0.185980086973E-08
 -0.255090949666E-09
  0.185980086973E-08
 -0.255090949666E-09
 -0.751044868007E-09
  0.185980086973E-08
 -0.751044868007E-09
  0.185980086973E-08
 -0.104831025804E-09
 -0.751044868007E-09
 -0.104831025804E-09
 -0.751044868007E-09
  0.948696079811E-09
 -0.104831025804E-09
  0.948696079811E-09
 -0.104831025804E-09
 -0.217995854007E-09
  0.948696079811E-09
 -0.217995854007E-09
  0.948696079811E-09
 -0.152847660960E-08
 -0.217995854007E-09
 -0.152847660960E-08
 -0.217995854007E-09
  0.162096654025E-09
 -0.152847660960E-08
  0.162096654025E-09
 -0.152847660960E-08
  0.747292831999E-09
  0.162096654025E-09
  0.747292831999E-09
  0.162096654025E-09
 -0.745995004051E-09
  0.747292831999E-09
 -0.745995004051E-09
  0.747292831999E-09
 -0.132287223385E-08
 -0.745995004051E-09
 -0.132287223385E-08
 -0.745995004051E-09
  0.524188449916E-09
 -0.132287223385E-08
  0.524188449916E-09
 -0.132287223385E-08
  0.166794565356E-10
  0.524188449916E-09
  0.166794565356E-10
  0.524188449916E-09
 -0.101431568342E-08
  0.166794565356E-10
 -0.101431568342E-08
  0.166794565356E-10
 -0.391343025910E-09
 -0.101431568342E-08
 -0.391343025910E-09
 -0.101431568342E-08
  0.651158776855E-09
 -0.391343025910E-09
  0.651158776855E-09
 -0.391343025910E-09
  0.359834541612E-09
  0.651158776855E-09
  0.359834541612E-09
  0.651158776855E-09
  0.285924002573E-10
  0.359834541612E-09
  0.285924002573E-10
  0.359834541612E-09
  0.636111545708E-09
  0.285924002573E-10
  0.636111545708E-09
  0.285924002573E-10
  0.337414452281E-09
  0.636111545708E-09
  0.337414452281E-09
  0.636111545708E-09
  0.627737516373E-10
  0.337414452281E-09
  0.627737516373E-10
  0.337414452281E-09
  0.267850059786E-09
  0.627737516373E-10
  0.267850059786E-09
  0.627737516373E-10
  0.325612283474E-09
  0.267850059786E-09
  0.325612283474E-09
  0.267850059786E-09
  0.138548824831E-09
  0.325612283474E-09
  0.138548824831E-09
  0.325612283474E-09
 -0.129516078716E-10
  0.138548824831E-09
 -0.129516078716E-10
  0.138548824831E-09
 -0.280885575975E-09
 -0.129516078716E-10
 -0.280885575975E-09
 -0.129516078716E-10
  0.200888036945E-09
 -0.280885575975E-09
  0.200888036945E-09
 -0.280885575975E-09
 -0.149092549721E-09
  0.200888036945E-09
 -0.149092549721E-09
  0.200888036945E-09
  0.735593258397E-10
 -0.149092549721E-09
  0.735593258397E-10
 -0.149092549721E-09
  0.138079046677E-09
  0.735593258397E-10
  0.138079046677E-09
  0.735593258397E-10
  0.135817015403E-08
  0.138079046677E-09
  0.135817015403E-08
  0.138079046677E-09
  0.691884848025E-09
  0.135817015403E-08
  0.691884848025E-09
  0.135817015403E-08
 -0.207518936930E-09
  0.691884848025E-09
 -0.207518936930E-09
  0.691884848025E-09
  0.785921430583E-09
 -0.207518936930E-09
  0.785921430583E-09
 -0.207518936930E-09
  0.201227865967E-09
  0.785921430583E-09
  0.201227865967E-09
  0.785921430583E-09
  0.971834552069E-09
  0.201227865967E-09
  0.971834552069E-09
  0.201227865967E-09
 -0.282091780403E-08
  0.971834552069E-09
 -0.282091780403E-08
  0.971834552069E-09
 -0.985181644597E-09
 -0.282091780403E-08
 -0.985181644597E-09
 -0.282091780403E-08
  0.859065022677E-09
 -0.985181644597E-09
  0.859065022677E-09
 -0.985181644597E-09
 -0.397331906959E-10
  0.859065022677E-09
 -0.397331906959E-10
  0.859065022677E-09
  0.976579255831E-10
 -0.397331906959E-10
  0.976579255831E-10
 -0.397331906959E-10
  0.129833810109E-08
  0.976579255831E-10
  0.129833810109E-08
  0.976579255831E-10
 -0.466900772818E-09
  0.129833810109E-08
 -0.466900772818E-09
  0.129833810109E-08
 -0.331676235088E-09
 -0.466900772818E-09
 -0.331676235088E-09
 -0.466900772818E-09
  0.555941091773E-10
 -0.331676235088E-09
  0.555941091773E-10
 -0.331676235088E-09
 -0.531728400893E-09
  0.555941091773E-10
 -0.531728400893E-09
  0.555941091773E-10
 -0.103121007068E-08
 -0.531728400893E-09
 -0.103121007068E-08
 -0.531728400893E-09
  0.456566056663E-09
 -0.103121007068E-08
  0.456566056663E-09
 -0.103121007068E-08
  0.236439785285E-09
  0.456566056663E-09
  0.236439785285E-09
  0.456566056663E-09
  0.256385356305E-09
  0.236439785285E-09
  0.256385356305E-09
  0.236439785285E-09
 -0.104000714291E-09
  0.256385356305E-09
 -0.104000714291E-09
  0.256385356305E-09
 -0.508466810323E-10
 -0.104000714291E-09
 -0.508466810323E-10
 -0.104000714291E-09
  0.107344141171E-10
 -0.508466810323E-10
  0.107344141171E-10
 -0.508466810323E-10
 -0.255820718342E-10
  0.107344141171E-10
 -0.255820718342E-10
  0.107344141171E-10
  0.867165291397E-11
 -0.255820718342E-10
  0.867165291397E-11
 -0.255820718342E-10
 -0.513661124269E-11
  0.867165291397E-11
 -0.513661124269E-11
  0.867165291397E-11
  0.119470275686E-11
 -0.513661124269E-11
  0.119470275686E-11
 -0.513661124269E-11
 -0.343711010716E-11
  0.119470275686E-11
 -0.343711010716E-11
  0.119470275686E-11
  0.000000000000E+00
 -0.343711010716E-11
  0.000000000000E+00
 -0.343711010716E-11
 -0.825672323481E-10
 -0.100584107449E-09
 -0.825672323481E-10
 -0.100584107449E-09
 -0.100584107449E-09
  0.161067804060E-10
 -0.100584107449E-09
  0.161067804060E-10
  0.161067804060E-10
  0.374310011805E-09
  0.161067804060E-10
  0.374310011805E-09
  0.374310011805E-09
 -0.217155358365E-10
  0.374310011805E-09
 -0.217155358365E-10
 -0.217155358365E-10
 -0.288541846449E-09
 -0.217155358365E-10
 -0.288541846449E-09
 -0.288541846449E-09
  0.148173755245E-05
 -0.288541846449E-09
  0.148173755245E-05
  0.148173755245E-05
 -0.740431310015E-10
  0.148173755245E-05
 -0.740431310015E-10
 -0.740431310015E-10
  0.406502878450E-09
 -0.740431310015E-10
  0.406502878450E-09
  0.406502878450E-09
  0.108140596087E-09
  0.406502878450E-09
  0.108140596087E-09
  0.108140596087E-09
  0.892839305243E-06
  0.108140596087E-09
  0.892839305243E-06
  0.892839305243E-06
  0.492688612998E-09
  0.892839305243E-06
  0.492688612998E-09
  0.492688612998E-09
 -0.316433061611E-09
  0.492688612998E-09
 -0.316433061611E-09
 -0.316433061611E-09
 -0.969581324910E-06
 -0.316433061611E-09
 -0.969581324910E-06
 -0.969581324910E-06
 -0.542881586039E-10
 -0.969581324910E-06
 -0.542881586039E-10
 -0.542881586039E-10
  0.129342874952E-09
 -0.542881586039E-10
  0.129342874952E-09
  0.129342874952E-09
  0.473824559005E-06
  0.129342874952E-09
  0.473824559005E-06
  0.473824559005E-06
 -0.195276928091E-09
  0.473824559005E-06
 -0.195276928091E-09
 -0.195276928091E-09
  0.191692761057E-09
 -0.195276928091E-09
  0.191692761057E-09
  0.191692761057E-09
 -0.551581989718E-10
  0.191692761057E-09
 -0.551581989718E-10
 -0.551581989718E-10
 -0.257411589223E-09
 -0.551581989718E-10
 -0.257411589223E-09
 -0.257411589223E-09
  0.444466699015E-06
 -0.257411589223E-09
  0.444466699015E-06
  0.444466699015E-06
  0.875574317580E-06
  0.444466699015E-06
  0.875574317580E-06
  0.875574317580E-06
  0.169301470412E-09
  0.875574317580E-06
  0.169301470412E-09
  0.169301470412E-09
  0.559575287582E-10
  0.169301470412E-09
  0.559575287582E-10
  0.559575287582E-10
  0.105898526059E-09
  0.559575287582E-10
  0.105898526059E-09
  0.105898526059E-09
 -0.136713088766E-09
  0.105898526059E-09
 -0.136713088766E-09
 -0.136713088766E-09
  0.390302475444E-06
 -0.136713088766E-09
  0.390302475444E-06
  0.390302475444E-06
 -0.140220001842E-09
  0.390302475444E-06
 -0.140220001842E-09
 -0.140220001842E-09
 -0.216330812205E-09
 -0.140220001842E-09
 -0.216330812205E-09
 -0.216330812205E-09
  0.121907987503E-09
 -0.216330812205E-09
  0.121907987503E-09
  0.121907987503E-09
  0.631599420117E-10
  0.121907987503E-09
  0.631599420117E-10
  0.631599420117E-10
 -0.289297295971E-10
  0.631599420117E-10
 -0.289297295971E-10
 -0.289297295971E-10
 -0.147240108560E-10
 -0.289297295971E-10
 -0.147240108560E-10
 -0.147240108560E-10
 -0.942815745180E-10
 -0.147240108560E-10
 -0.942815745180E-10
 -0.942815745180E-10
  0.108331070243E-09
 -0.942815745180E-10
  0.108331070243E-09
  0.108331070243E-09
 -0.135339438549E-09
  0.108331070243E-09
 -0.135339438549E-09
 -0.135339438549E-09
 -0.223926198641E-06
 -0.135339438549E-09
 -0.223926198641E-06
 -0.223926198641E-06
 -0.403658732749E-06
 -0.223926198641E-06
 -0.403658732749E-06
 -0.403658732749E-06
 -0.142068215861E-09
 -0.403658732749E-06
 -0.142068215861E-09
 -0.142068215861E-09
 -0.136310246619E-09
 -0.142068215861E-09
 -0.136310246619E-09
 -0.136310246619E-09
  0.119622102633E-06
 -0.136310246619E-09
  0.119622102633E-06
  0.119622102633E-06
 -0.278876514980E-09
  0.119622102633E-06
 -0.278876514980E-09
 -0.278876514980E-09
 -0.120612314163E-09
 -0.278876514980E-09
 -0.120612314163E-09
 -0.120612314163E-09
 -0.154391124515E-07
 -0.120612314163E-09
 -0.154391124515E-07
 -0.154391124515E-07
  0.126969498080E-09
 -0.154391124515E-07
  0.126969498080E-09
  0.126969498080E-09
  0.202649114806E-06
  0.126969498080E-09
  0.202649114806E-06
  0.202649114806E-06
 -0.153869339145E-10
  0.202649114806E-06
 -0.153869339145E-10
 -0.153869339145E-10
  0.181217756743E-06
 -0.153869339145E-10
  0.181217756743E-06
  0.181217756743E-06
 -0.495726092757E-06
  0.181217756743E-06
 -0.495726092757E-06
 -0.495726092757E-06
 -0.102709458993E-09
 -0.495726092757E-06
 -0.102709458993E-09
 -0.102709458993E-09
 -0.104343925644E-09
 -0.102709458993E-09
 -0.104343925644E-09
 -0.104343925644E-09
 -0.572535554123E-10
 -0.104343925644E-09
 -0.572535554123E-10
 -0.572535554123E-10
  0.713900343572E-09
 -0.572535554123E-10
  0.713900343572E-09
  0.713900343572E-09
  0.527365991588E-10
  0.713900343572E-09
  0.527365991588E-10
  0.527365991588E-10
  0.315562998041E-09
  0.527365991588E-10
  0.315562998041E-09
  0.315562998041E-09
  0.918443954825E-06
  0.315562998041E-09
  0.918443954825E-06
  0.918443954825E-06
 -0.552683710429E-10
  0.918443954825E-06
 -0.552683710429E-10
 -0.552683710429E-10
 -0.102359602002E-05
 -0.552683710429E-10
 -0.102359602002E-05
 -0.102359602002E-05
  0.106843073244E-05
 -0.102359602002E-05
  0.106843073244E-05
  0.106843073244E-05
 -0.211433607601E-09
  0.106843073244E-05
 -0.211433607601E-09
 -0.211433607601E-09
 -0.214411421010E-05
 -0.211433607601E-09
 -0.214411421010E-05
 -0.214411421010E-05
 -0.106159311810E-09
 -0.214411421010E-05
 -0.106159311810E-09
 -0.106159311810E-09
  0.821309036406E-11
 -0.106159311810E-09
  0.821309036406E-11
  0.821309036406E-11
  0.387832257628E-10
  0.821309036406E-11
  0.387832257628E-10
  0.387832257628E-10
  0.151361449416E-10
  0.387832257628E-10
  0.151361449416E-10
  0.151361449416E-10
 -0.190814109782E-08
  0.151361449416E-10
 -0.190814109782E-08
 -0.190814109782E-08
 -0.570340758128E-11
 -0.190814109782E-08
 -0.570340758128E-11
 -0.570340758128E-11
  0.135608978255E-05
 -0.570340758128E-11
  0.135608978255E-05
  0.135608978255E-05
  0.310695909105E-10
  0.135608978255E-05
  0.310695909105E-10
  0.310695909105E-10
 -0.253284784639E-10
  0.310695909105E-10
 -0.253284784639E-10
 -0.253284784639E-10
  0.134397245936E-10
 -0.253284784639E-10
  0.134397245936E-10
  0.134397245936E-10
  0.244576409906E-10
  0.134397245936E-10
  0.244576409906E-10
  0.244576409906E-10
  0.376567852970E-06
  0.244576409906E-10
  0.376567852970E-06
  0.376567852970E-06
  0.481860298733E-09
  0.376567852970E-06
  0.481860298733E-09
  0.481860298733E-09
 -0.137410291479E-10
  0.481860298733E-09
 -0.137410291479E-10
 -0.137410291479E-10
 -0.190313725646E-06
 -0.137410291479E-10
 -0.190313725646E-06
 -0.190313725646E-06
 -0.254670419667E-06
 -0.190313725646E-06
 -0.254670419667E-06
 -0.254670419667E-06
  0.848754276575E-07
 -0.254670419667E-06
  0.848754276575E-07
  0.848754276575E-07
  0.000000000000E+00
  0.848754276575E-07
  0.000000000000E+00
