# vtk DataFile Version 3.0
MachLine results file. Generated by MachLine, USU AeroLab (c) 2022.
ASCII
DATASET POLYDATA
POINTS                 482 float
  0.236813288641E+00  0.000000000000E+00  0.686565968816E-16
  0.624814081843E+00  0.000000000000E+00 -0.216428737068E+00
  0.624814081843E+00  0.000000000000E+00  0.216428737068E+00
  0.936286588147E+00  0.579506026584E+00 -0.561895002135E-17
  0.134949075789E+01  0.639768029252E+00 -0.218865761583E+00
  0.134949075789E+01  0.639768029252E+00  0.218865761583E+00
  0.166333682055E+01  0.000000000000E+00 -0.417572791145E+00
  0.166333682055E+01  0.000000000000E+00  0.417572791145E+00
  0.201092498640E+01  0.156702214196E+01 -0.279641648794E-16
  0.240530328697E+01  0.164611001899E+01 -0.173337958184E+00
  0.240530328697E+01  0.164611001899E+01  0.173337958184E+00
  0.240761478271E+01  0.684598059678E+00 -0.420944840504E+00
  0.240761478271E+01  0.684598059678E+00  0.420944840504E+00
  0.344986477255E+01  0.289573058939E+01  0.174541604789E-16
  0.345037803883E+01  0.170398970512E+01 -0.366807975171E+00
  0.345037803883E+01  0.170398970512E+01  0.366807975171E+00
  0.347800745605E+01  0.000000000000E+00 -0.567847677909E+00
  0.347800745605E+01  0.000000000000E+00  0.567847677909E+00
  0.382075010340E+01  0.299831190111E+01 -0.115133872484E+00
  0.382075010340E+01  0.299831190111E+01  0.115133872484E+00
  0.422430015314E+01  0.716137624114E+00 -0.571459768044E+00
  0.422430015314E+01  0.716137624114E+00  0.571459768044E+00
  0.484917759257E+01  0.307283909445E+01 -0.297433607780E+00
  0.484917759257E+01  0.307283909445E+01  0.297433607780E+00
  0.534018405594E+01  0.465304866619E+01 -0.173147533833E-15
  0.526047475105E+01  0.174211864828E+01 -0.516294363350E+00
  0.526047475105E+01  0.174211864828E+01  0.516294363350E+00
  0.568323099534E+01  0.478346862540E+01 -0.439725145123E-01
  0.568323099534E+01  0.478346862540E+01  0.439725145123E-01
  0.612417134702E+01  0.000000000000E+00 -0.595279552601E+00
  0.612417134702E+01  0.000000000000E+00  0.595279552601E+00
  0.669135356720E+01  0.487830145179E+01 -0.212393034855E+00
  0.669135356720E+01  0.487830145179E+01  0.212393034855E+00
  0.665084364825E+01  0.311939966149E+01 -0.445466940557E+00
  0.665084364825E+01  0.311939966149E+01  0.445466940557E+00
  0.686955818900E+01  0.759312873477E+00 -0.590921055075E+00
  0.686955818900E+01  0.759312873477E+00  0.590921055075E+00
  0.776249866534E+01  0.692475051734E+01  0.171518464496E-15
  0.807478710201E+01  0.708592944887E+01  0.380216172375E-01
  0.807478710201E+01  0.708592944887E+01 -0.380216172375E-01
  0.790049533303E+01  0.179053183560E+01 -0.535989223717E+00
  0.790049533303E+01  0.179053183560E+01  0.535989223717E+00
  0.848270467544E+01  0.493517742996E+01 -0.358426458783E+00
  0.848270467544E+01  0.493517742996E+01  0.358426458783E+00
  0.905956171061E+01  0.720411070487E+01 -0.114183193516E+00
  0.905956171061E+01  0.720411070487E+01  0.114183193516E+00
  0.928414007832E+01  0.317453791780E+01 -0.465426284732E+00
  0.928414007832E+01  0.317453791780E+01  0.465426284732E+00
  0.936918949172E+01  0.000000000000E+00 -0.545743690960E+00
  0.936918949172E+01  0.000000000000E+00  0.545743690960E+00
  0.101159225602E+02  0.794960532146E+00 -0.454736260094E+00
  0.101159225602E+02  0.794960532146E+00  0.454736260094E+00
  0.107698779598E+02  0.977579734077E+01 -0.266148844492E-15
  0.110513600465E+02  0.996778311833E+01  0.125191640434E+00
  0.110513600465E+02  0.996778311833E+01 -0.125191640434E+00
  0.108390257876E+02  0.727287612994E+01 -0.257653312483E+00
  0.108390257876E+02  0.727287612994E+01  0.257653312483E+00
  0.111077391158E+02  0.499858060283E+01 -0.378608094034E+00
  0.111077391158E+02  0.499858060283E+01  0.378608094034E+00
  0.111445459163E+02  0.182849472198E+01 -0.419868581828E+00
  0.111445459163E+02  0.182849472198E+01  0.419868581828E+00
  0.120113534448E+02  0.101107474954E+02 -0.959230672239E-02
  0.120113534448E+02  0.101107474954E+02  0.959230672239E-02
  0.125250361739E+02  0.321565675889E+01 -0.372497616769E+00
  0.125250361739E+02  0.321565675889E+01  0.372497616769E+00
  0.126243136587E+02  0.000000000000E+00 -0.233171846172E+00
  0.126243136587E+02  0.000000000000E+00  0.233171846172E+00
  0.133819915766E+02  0.800835563401E+00 -0.246449036529E+00
  0.133819915766E+02  0.800835563401E+00  0.246449036529E+00
  0.134544920274E+02  0.734584847698E+01 -0.277940113121E+00
  0.134544920274E+02  0.734584847698E+01  0.277940113121E+00
  0.137781778782E+02  0.101921535121E+02 -0.150102654710E+00
  0.137781778782E+02  0.101921535121E+02  0.150102654710E+00
  0.143607290970E+02  0.132235146632E+02  0.358200537065E-15
  0.146155825426E+02  0.134421291046E+02  0.207904533946E+00
  0.146155825426E+02  0.134421291046E+02 -0.207904533946E+00
  0.143444079225E+02  0.504392766285E+01 -0.309313034721E+00
  0.143444079225E+02  0.504392766285E+01  0.309313034721E+00
  0.144109693642E+02  0.183401626208E+01 -0.225306739425E+00
  0.144109693642E+02  0.183401626208E+01  0.225306739425E+00
  0.153052613066E+02  0.000000000000E+00 -0.328042146203E-01
  0.153052613066E+02  0.000000000000E+00  0.328042146203E-01
  0.155520869150E+02  0.136085835290E+02  0.897721388398E-01
  0.155520869150E+02  0.136085835290E+02 -0.897721388398E-01
  0.157913137049E+02  0.322132611731E+01 -0.190270033220E+00
  0.157913137049E+02  0.322132611731E+01  0.190270033220E+00
  0.160648925436E+02  0.794659927807E+00 -0.502216371963E-01
  0.160648925436E+02  0.794659927807E+00  0.502216371963E-01
  0.163834337554E+02  0.102753390791E+02 -0.170340803960E+00
  0.163834337554E+02  0.102753390791E+02  0.170340803960E+00
  0.166857394972E+02  0.739662069831E+01 -0.228636182819E+00
  0.166857394972E+02  0.739662069831E+01  0.228636182819E+00
  0.170930631623E+02  0.182864877122E+01 -0.230723664070E-01
  0.170930631623E+02  0.182864877122E+01  0.230723664070E-01
  0.171723477555E+02  0.000000000000E+00  0.680462145376E-01
  0.171723477555E+02  0.000000000000E+00 -0.680462145376E-01
  0.173069204312E+02  0.137019833079E+02 -0.477608182868E-01
  0.173069204312E+02  0.137019833079E+02  0.477608182868E-01
  0.176096460679E+02  0.505063830948E+01 -0.135052453148E+00
  0.176096460679E+02  0.505063830948E+01  0.135052453148E+00
  0.184540795969E+02  0.172099332601E+02  0.254723380449E-15
  0.179308784442E+02  0.785350094203E+00  0.626997710838E-01
  0.179308784442E+02  0.785350094203E+00 -0.626997710838E-01
  0.186912126312E+02  0.174462690303E+02  0.273695681491E+00
  0.186912126312E+02  0.174462690303E+02 -0.273695681491E+00
  0.183249181351E+02  0.000000000000E+00  0.118153062387E+00
  0.183249181351E+02  0.000000000000E+00 -0.118153062387E+00
  0.184720186926E+02  0.321734839001E+01  0.223902251239E-01
  0.184720186926E+02  0.321734839001E+01 -0.223902251239E-01
  0.189576725578E+02  0.182071733764E+01  0.102578694882E+00
  0.189576725578E+02  0.182071733764E+01 -0.102578694882E+00
  0.188391380017E+02  0.129494027695E-02 -0.282518883299E-01
  0.190812628765E+02  0.779575073234E+00  0.132909556662E+00
  0.190812628765E+02  0.779575073234E+00 -0.132909556662E+00
  0.196090470060E+02  0.176313934661E+02  0.168873366163E+00
  0.196090470060E+02  0.176313934661E+02 -0.168873366163E+00
  0.196083004081E+02  0.103324949922E+02 -0.134101768364E+00
  0.196083004081E+02  0.103324949922E+02  0.134101768364E+00
  0.196157783120E+02  0.900019067971E+00 -0.151596691548E-01
  0.199024602820E+02  0.137948877555E+02 -0.678259770345E-01
  0.199024602820E+02  0.137948877555E+02  0.678259770345E-01
  0.199489762945E+02  0.740533366320E+01 -0.577859476918E-01
  0.199489762945E+02  0.740533366320E+01  0.577859476918E-01
  0.201067723114E+02  0.181622699691E+01  0.185052878217E+00
  0.201067723114E+02  0.181622699691E+01 -0.185052878217E+00
  0.202885132768E+02  0.504850029612E+01  0.907700212596E-01
  0.202885132768E+02  0.504850029612E+01 -0.907700212596E-01
  0.203349619247E+02  0.321108312517E+01  0.163389223979E+00
  0.203349619247E+02  0.321108312517E+01 -0.163389223979E+00
  0.206041595611E+02  0.197379950391E+01 -0.197146145061E-01
  0.213543437461E+02  0.177343329519E+02  0.338022472306E-01
  0.213543437461E+02  0.177343329519E+02 -0.338022472306E-01
  0.214831075765E+02  0.320754691663E+01  0.255166254059E+00
  0.214831075765E+02  0.320754691663E+01 -0.255166254059E+00
  0.219333557261E+02  0.341226066736E+01 -0.255424664644E-01
  0.221500231178E+02  0.504367034355E+01  0.244899927977E+00
  0.221500231178E+02  0.504367034355E+01 -0.244899927977E+00
  0.228810637673E+02  0.215867975191E+02  0.611503964226E-16
  0.226259884161E+02  0.740505455059E+01  0.179783442099E+00
  0.226259884161E+02  0.740505455059E+01 -0.179783442099E+00
  0.231130862555E+02  0.218282457318E+02  0.310411856421E+00
  0.231130862555E+02  0.218282457318E+02 -0.310411856421E+00
  0.228690046211E+02  0.103437443612E+02  0.346636415255E-01
  0.228690046211E+02  0.103437443612E+02 -0.346636415255E-01
  0.231207299943E+02  0.138586444364E+02 -0.366729847416E-01
  0.231207299943E+02  0.138586444364E+02  0.366729847416E-01
  0.232975862701E+02  0.504071661379E+01  0.342632245164E+00
  0.232975862701E+02  0.504071661379E+01 -0.342632245164E+00
  0.240205100458E+02  0.220237825143E+02  0.213046333828E+00
  0.240205100458E+02  0.220237825143E+02 -0.213046333828E+00
  0.239421415810E+02  0.178349832500E+02  0.139455486876E-01
  0.239421415810E+02  0.178349832500E+02 -0.139455486876E-01
  0.236910036873E+02  0.530226143951E+01 -0.326018791185E-01
  0.244865050967E+02  0.740121775905E+01  0.342870631782E+00
  0.244865050967E+02  0.740121775905E+01 -0.342870631782E+00
  0.255444234464E+02  0.103450604481E+02  0.280423095882E+00
  0.255444234464E+02  0.103450604481E+02 -0.280423095882E+00
  0.257604847986E+02  0.221320459064E+02  0.793855525672E-01
  0.257604847986E+02  0.221320459064E+02 -0.793855525672E-01
  0.256337481291E+02  0.739858606553E+01  0.444224248897E+00
  0.256337481291E+02  0.739858606553E+01 -0.444224248897E+00
[...]
POINT_DATA                 482
SCALARS BC_type int 1
LOOKUP_TABLE default
           2
           2
           2
           2
           2
           2
           2
           2
           2
           2
           2
           2
           2
           2
           2
           2
           2
           2
           2
           2
           2
           2
           2
           2
           2
           2
           2
           2
           2
           2
           2
           2
           2
           2
           2
           2
           2
           2
           2
           2
           2
           2
           2
           2
           2
           2
           2
           2
           2
           2
           2
           2
           2
           2
           2
           2
           2
           2
           2
           2
           2
           2
           2
           2
           2
           2
           2
           2
           2
           2
           2
           2
           2
           2
           2
           2
           2
           2
           2
           2
           2
           2
           2
           2
           2
           2
           2
           2
           2
           2
           2
           2
           2
           2
           2
           2
           2
           2
           2
           2
           2
           2
           2
           2
           2
           2
           2
           2
           2
           2
           2
           2
           2
           2
           2
           2
           2
           2
           2
           2
           2
           2
           2
           2
           2
           2
           2
           2
           2
           2
           2
           2
           2
           2
           2
           2
           2
           2
           2
           2
           2
           2
           2
           2
           2
           2
           2
           2
           2
           2
           2
           2
           2
           2
           2
           2
           2
           2
           2
           2
           2
           2
           2
           2
           2
           2
           2
           2
           2
           2
           2
           2
           2
           2
           2
           2
           2
           2
           2
           2
           2
           2
           2
           2
           2
           2
           2
           2
           2
           2
           2
           2
           2
           2
           2
           2
           2
           2
           2
           2
           2
           2
           2
           2
           2
           2
           2
           2
           2
           2
           2
           2
           2
           2
           2
           2
           2
           2
           2
           2
           2
           2
           2
           2
           2
           2
           2
           2
           2
           2
           2
           2
           2
           2
           2
           2
           2
           2
           2
           2
           2
           2
           2
           2
           2
           2
           2
           2
           2
           2
           2
           2
           2
           2
           2
           2
           2
           2
           2
           2
           2
           2
           2
           2
           2
           2
           2
           2
           2
           2
           2
           2
           2
           2
           2
           2
           2
           2
           2
           2
           2
           2
           2
           2
           2
           2
           2
           2
           2
           2
           2
           2
           2
           2
           2
           2
           2
           2
           2
           2
           2
           2
           2
           2
           2
           2
           2
           2
           2
           2
           2
           2
           2
           2
           2
           2
           2
           2
           2
           2
           2
           2
           2
           2
           2
           2
           2
           2
           2
           2
           2
           2
           2
           2
           2
           2
           2
           2
           2
           2
           2
           2
           2
           2
           2
           2
           2
           2
           2
           2
           2
           2
           2
           2
           2
           2
           2
           2
           2
           2
           2
           2
           2
           2
           2
           2
           2
           2
           2
           2
           2
           2
           2
           2
           2
           2
           2
           2
           2
           2
           2
           2
           2
           2
           2
           2
           2
           2
           2
           2
           2
           2
           2
           2
           2
           2
           2
           2
           2
           2
           2
           2
           2
           2
           2
           2
           2
           2
           2
           2
           2
           2
           2
           2
           2
           2
           2
           2
           2
           2
           2
           2
           2
           2
           2
           2
           2
           2
           2
           2
           2
           2
           2
           2
           2
           2
           2
           2
           2
           2
           2
           2
           2
           2
           2
           2
           2
           2
           2
           2
           2
           2
           2
           2
           2
           2
           2
           2
           2
           2
           2
           2
           2
           2
           2
           2
           2
           2
           2
           2
           2
           2
           2
           2
           2
           2
           2
           2
           2
           2
           2
           2
SCALARS residual float 1
LOOKUP_TABLE default
 -0.904451513684E-11
 -0.117128529098E-11
  0.956457135715E-12
  0.731572580293E-10
 -0.251938470086E-10
 -0.241724418260E-10
 -0.712074843534E-11
 -0.580979708786E-11
 -0.273450151411E-09
  0.120197185538E-09
  0.125866872480E-09
  0.152566848044E-10
  0.193463023379E-10
  0.100212682597E-08
 -0.605817618293E-10
 -0.516884313129E-10
  0.292033064397E-11
  0.483835194132E-11
 -0.558333379530E-09
 -0.544881917364E-09
 -0.160822466455E-10
 -0.347721851313E-11
  0.181088033457E-09
  0.202394545568E-09
 -0.276999667648E-08
  0.796696042471E-11
  0.238413733200E-10
  0.169079861223E-08
  0.187770510252E-08
 -0.925926002537E-11
  0.455901982832E-11
 -0.599752247865E-09
 -0.550683942890E-09
 -0.718936021826E-10
 -0.228794760915E-10
 -0.525535170937E-11
  0.161959334832E-10
  0.108638076313E-08
 -0.807053979202E-09
 -0.934152311061E-09
 -0.312168069172E-10
  0.211697326336E-10
  0.137845290737E-09
  0.164900981758E-09
  0.226036078743E-09
  0.381223941304E-09
 -0.287627699436E-10
  0.526085841557E-10
 -0.622435436526E-11
  0.567368374504E-11
 -0.402771149766E-10
  0.392699206486E-10
  0.404351396810E-08
 -0.241169750836E-08
 -0.241611708418E-08
 -0.433063362948E-09
  0.230954810831E-09
 -0.152132528797E-09
  0.795186139158E-10
 -0.592237370256E-10
  0.596145355303E-10
  0.579998804540E-08
 -0.491210272457E-08
 -0.106540554157E-09
  0.106020081603E-09
 -0.421831458652E-10
  0.425259827352E-10
 -0.109848130592E-09
  0.110434328349E-09
  0.157367452402E-10
  0.382964771006E-10
  0.264659050231E-08
 -0.290079249510E-08
  0.495644947307E-08
 -0.168264513434E-08
 -0.378371112220E-08
 -0.169981362319E-09
  0.180101267233E-09
 -0.185467641245E-09
  0.187355908565E-09
 -0.736344318852E-09
  0.737298222475E-09
 -0.497797891796E-08
  0.586902082489E-08
 -0.275742095823E-09
  0.274496869679E-09
 -0.833100699538E-09
  0.830807422858E-09
 -0.380441278480E-08
  0.385392695534E-08
 -0.484060791450E-09
  0.472258676609E-09
 -0.447845849294E-08
  0.447813519600E-08
  0.109960041073E-09
 -0.110357945005E-09
 -0.108181414049E-06
  0.107783385772E-06
 -0.406014777354E-09
  0.405862010666E-09
  0.318185655601E-08
  0.291866086854E-09
 -0.290963697580E-09
 -0.147080214674E-08
 -0.207953121389E-08
  0.887823148332E-11
 -0.909494701773E-11
  0.562337731935E-09
 -0.563776580975E-09
  0.186645365829E-09
 -0.183739246040E-09
  0.757935936235E-10
 -0.786535281350E-10
  0.704314828681E-09
  0.312457615337E-09
 -0.216431317313E-10
  0.127364785385E-10
 -0.639426289695E-08
  0.263777373277E-07
 -0.946887013242E-09
  0.947323997025E-09
 -0.747384376609E-10
  0.750262074689E-10
  0.110404130282E-09
 -0.112347464665E-09
 -0.392681442918E-10
  0.360884655493E-10
  0.286629386892E-08
 -0.362900465234E-08
  0.312203951580E-08
  0.866862137627E-11
 -0.261646704303E-09
 -0.681055212226E-11
  0.736832816983E-11
 -0.116249410098E-08
  0.323225890497E-10
  0.736818606129E-09
  0.758177520765E-09
 -0.168450142723E-08
  0.168601843598E-08
  0.641124557887E-07
 -0.641321555861E-07
  0.809308176031E-11
 -0.887823148332E-11
 -0.332420313498E-09
 -0.280650169771E-09
 -0.707327529881E-09
  0.845655989679E-09
 -0.201580974135E-10
  0.621724893790E-12
 -0.214939177567E-11
 -0.171485936562E-09
  0.170466307736E-09
  0.318770787544E-09
  0.253557175256E-10
 -0.266986432962E-10
 -0.867004246174E-10
 -0.910098663098E-09
  0.911168029916E-09
 -0.294981816751E-09
 -0.389015042401E-09
  0.366334518276E-09
  0.202021510631E-09
  0.177138304025E-10
 -0.182431847406E-10
 -0.587050408285E-10
 -0.452686776953E-10
 -0.391050747339E-09
  0.279740675069E-09
  0.350688367234E-10
 -0.365929508916E-10
 -0.734274863134E-10
  0.716262604783E-10
 -0.121691101640E-09
 -0.113598019880E-09
  0.146041401194E-09
 -0.148421719359E-09
  0.149224632651E-09
  0.959943236012E-11
 -0.999023086479E-11
 -0.212072137629E-09
  0.232454056004E-09
  0.339476002864E-09
  0.384382303764E-09
  0.227196039759E-10
 -0.240625297465E-10
 -0.176136438768E-09
 -0.112954978704E-09
 -0.120564891404E-09
 -0.251802134699E-09
  0.251560550169E-09
  0.488853402203E-11
 -0.631672492091E-11
 -0.278717493529E-09
  0.407368361266E-09
 -0.493827201353E-10
 -0.358113538823E-11
  0.243005615630E-11
 -0.809087907783E-09
  0.491532148317E-09
  0.621625417807E-09
 -0.182438952834E-09
  0.179547043899E-09
  0.217212914322E-10
 -0.253450593846E-10
 -0.321172421991E-09
 -0.107348796519E-09
 -0.138541622619E-09
 -0.693454182965E-09
  0.655987264508E-09
 -0.454747350886E-12
 -0.710542735760E-13
  0.210379624832E-08
 -0.194859239855E-08
 -0.919349929518E-09
  0.467224481326E-09
 -0.806181787993E-10
  0.790620902080E-10
  0.767386154621E-12
 -0.125055521494E-11
 -0.540268274563E-09
  0.667057520332E-10
 -0.660769217120E-09
  0.668762822897E-09
  0.339070993505E-10
 -0.315054649036E-10
 -0.215365503209E-09
  0.738396721545E-08
 -0.742350891869E-08
 -0.558749491120E-09
  0.395061761083E-11
 -0.465405491923E-11
  0.374363651190E-09
  0.385384169022E-09
  0.122395960034E-08
 -0.108509823349E-08
 -0.117215392947E-08
 -0.246068054821E-09
  0.243566944391E-09
 -0.406430444855E-11
  0.282796008833E-11
  0.128991928250E-09
  0.240456188294E-08
 -0.261165666871E-08
 -0.281217893416E-08
  0.281946199721E-08
  0.786464227076E-09
 -0.816207545995E-09
  0.149185552800E-09
 -0.747704120840E-10
  0.760635998631E-10
 -0.739461825106E-10
 -0.498474150845E-09
  0.614932105236E-09
 -0.415035117385E-09
 -0.231494823311E-10
 -0.393960419842E-09
  0.439570158051E-09
  0.215649720303E-10
 -0.202575733965E-10
  0.549960077478E-11
  0.142935618896E-08
 -0.147891654478E-08
  0.154680179776E-08
 -0.160992641440E-08
 -0.857227178130E-09
  0.174034653355E-08
 -0.176508763161E-08
 -0.872219629855E-09
  0.871068550623E-09
  0.617014705995E-08
 -0.616365980477E-08
 -0.952127265919E-12
  0.203783656616E-10
 -0.209823269870E-10
 -0.864901039677E-09
  0.869299299211E-09
 -0.248025600058E-08
  0.252184406691E-08
 -0.412114786741E-12
 -0.302853209178E-08
  0.310961212335E-08
  0.762902629958E-09
 -0.741074757116E-09
  0.782378606345E-10
 -0.775628450356E-10
 -0.473384886845E-09
  0.442675229806E-09
  0.632610408502E-09
 -0.590929971622E-09
  0.506894792807E-08
 -0.509481168365E-08
 -0.214058104575E-09
  0.174168235390E-09
  0.155253587764E-10
 -0.108521902575E-08
  0.114535936291E-08
 -0.338481243034E-09
 -0.204693151318E-09
  0.204288141958E-09
 -0.815231970819E-08
  0.809530575907E-08
  0.103999653334E-07
 -0.105524549099E-07
  0.780750042395E-08
 -0.767221308706E-08
  0.313416137487E-08
 -0.312808623448E-08
 -0.595264282310E-08
  0.247716513968E-08
 -0.229433538834E-08
 -0.760920215725E-10
 -0.476514827596E-08
  0.476367034707E-08
 -0.265610253791E-07
  0.268109587864E-07
  0.962657509262E-08
 -0.982594627885E-08
 -0.249862353030E-09
  0.249208653713E-09
  0.662927277517E-07
 -0.663990320504E-07
 -0.878729196074E-07
  0.874865335732E-07
  0.729028855062E-07
 -0.720918365005E-07
 -0.311295380584E-07
  0.318149488976E-07
 -0.356386067324E-07
  0.346113466776E-07
  0.351777629248E-08
 -0.354573614914E-08
  0.458783233626E-09
  0.760344676110E-09
 -0.759911245041E-09
 -0.265885091721E-09
  0.268236988177E-09
 -0.248304132811E-08
  0.267522395347E-07
 -0.267494471018E-07
  0.110003128384E-06
 -0.112046443235E-06
 -0.358219239160E-06
  0.362763429962E-06
  0.251714027399E-08
 -0.229670149565E-08
  0.642759992786E-06
 -0.647207635041E-06
 -0.682261507734E-06
  0.683895336806E-06
 -0.146836498516E-08
  0.399098034620E-06
 -0.397960505438E-06
 -0.867771632329E-09
  0.320701332157E-08
 -0.462880933583E-08
  0.112640847760E-07
 -0.112810951691E-07
 -0.381840692398E-08
  0.382146936317E-08
 -0.247546694254E-08
  0.247644749152E-08
  0.134778090910E-07
 -0.617487927457E-08
  0.684426026965E-08
 -0.746868096257E-07
  0.399294819431E-07
  0.141209000049E-07
 -0.140452627306E-07
  0.158161356012E-06
 -0.100258731095E-06
 -0.527619903323E-08
  0.527568033704E-08
 -0.151710715102E-06
  0.115887651475E-06
  0.610503647636E-07
 -0.893953071568E-07
 -0.423261781179E-08
  0.351822464495E-07
  0.205531591746E-07
 -0.208228456700E-07
  0.175995680252E-07
 -0.176003709385E-07
 -0.577375303124E-07
  0.162643232215E-07
 -0.161128852483E-07
 -0.661787709078E-07
  0.662015153807E-07
  0.178289454311E-07
 -0.178268990680E-07
 -0.356231311116E-08
  0.433004032629E-08
  0.371061688043E-07
 -0.445534737992E-07
  0.212997974813E-08
  0.595397153802E-08
 -0.527745243062E-07
  0.585396549013E-07
 -0.847403711646E-07
  0.847404635351E-07
  0.336646014887E-05
 -0.336646962751E-05
  0.567787623140E-06
  0.763813474691E-07
 -0.763831167205E-07
  0.417683132525E-06
 -0.417586271340E-06
  0.272489010911E-06
 -0.272490140674E-06
  0.254469178174E-06
 -0.255944350158E-06
 -0.277872302945E-07
  0.277822991279E-07
  0.669997390901E-07
 -0.652926743783E-07
 -0.109212905386E-06
  0.109773310442E-06
 -0.207135897767E-06
 -0.955964196692E-10
 -0.503196289259E-05
 -0.797001760589E-06
  0.797014052978E-06
 -0.408006314956E-06
  0.408005789154E-06
  0.110005387910E-05
 -0.110003075804E-05
  0.212095295495E-04
 -0.566012010950E-05
  0.566004123925E-05
  0.723295295302E-05
 -0.723300142624E-05
 -0.393262345710E-05
  0.393262327236E-05
  0.103071329249E-09
  0.972391802634E-07
 -0.972332117044E-07
  0.364762868799E-06
 -0.364754953353E-06
  0.818532015501E-06
 -0.818520362600E-06
 -0.156300893650E-05
  0.156300031051E-05
  0.203893357309E-05
 -0.220978790821E-10
 -0.511590769747E-12
 -0.756372742217E-10
  0.639579411654E-08
 -0.286539503236E-08
  0.260897081716E-09
  0.194972926693E-10
  0.838511482470E-10
  0.120937926340E-09
  0.122131638136E-09
  0.216552109578E-09
  0.415056433667E-09
  0.337202266110E-09
  0.248084575105E-08
 -0.684710244059E-08
  0.577347307740E-07
 -0.567791438755E-06
  0.503196274337E-05
 -0.212095321359E-04
  0.276528627126E-04
  0.785220777288E-10
 -0.262815724739E-07
 -0.931876797949E-11
 -0.339959171924E-10
  0.329549720846E-10
  0.166057390061E-09
 -0.529986721176E-09
  0.459152715848E-10
  0.799651900252E-09
  0.895745699836E-09
  0.839449398882E-09
  0.578405945362E-08
  0.146673073687E-08
  0.422625134888E-08
 -0.773022890144E-08
  0.206298366834E-06
 -0.276528607799E-04
 -0.203892949457E-05
  0.137902134156E-09
