# vtk DataFile Version 3.0
MachLine results file. Generated by MachLine, USU AeroLab (c) 2022.
ASCII
DATASET POLYDATA
POINTS                7064 float
  0.000000000000E+00  0.000000000000E+00  0.000000000000E+00
  0.389988087118E-01  0.000000000000E+00 -0.109218262136E+00
  0.389988087118E-01  0.000000000000E+00  0.109218262136E+00
  0.147665724158E+00  0.000000000000E+00 -0.234920635819E+00
  0.147665724158E+00  0.000000000000E+00  0.234920635819E+00
  0.161138445139E+00  0.161138445139E+00  0.000000000000E+00
  0.200137257576E+00  0.161138445139E+00 -0.109218269587E+00
  0.200137257576E+00  0.161138445139E+00  0.109218269587E+00
  0.290265858173E+00  0.000000000000E+00 -0.347333192825E+00
  0.290265858173E+00  0.000000000000E+00  0.347333192825E+00
  0.308804154396E+00  0.161138445139E+00 -0.234920650721E+00
  0.308804154396E+00  0.161138445139E+00  0.234920650721E+00
  0.335006117821E+00  0.335006117821E+00  0.000000000000E+00
  0.374004930258E+00  0.335006117821E+00 -0.109218277037E+00
  0.374004930258E+00  0.335006117821E+00  0.109218277037E+00
  0.451404303312E+00  0.161138445139E+00 -0.347333222628E+00
  0.451404303312E+00  0.161138445139E+00  0.347333222628E+00
  0.473465979099E+00  0.000000000000E+00 -0.436293870211E+00
  0.473465979099E+00  0.000000000000E+00  0.436293870211E+00
  0.482671856880E+00  0.335006117821E+00 -0.234920650721E+00
  0.482671856880E+00  0.335006117821E+00  0.234920650721E+00
  0.522506594658E+00  0.522506594658E+00  0.000000000000E+00
  0.561505436897E+00  0.522506594658E+00 -0.109218284488E+00
  0.561505436897E+00  0.522506594658E+00  0.109218284488E+00
  0.625271975994E+00  0.335006117821E+00 -0.347333222628E+00
  0.625271975994E+00  0.335006117821E+00  0.347333222628E+00
  0.634604454041E+00  0.161138445139E+00 -0.436293900013E+00
  0.634604454041E+00  0.161138445139E+00  0.436293900013E+00
  0.670172333717E+00  0.522506594658E+00 -0.234920665622E+00
  0.670172333717E+00  0.522506594658E+00  0.234920665622E+00
  0.689334988594E+00  0.000000000000E+00 -0.522850036621E+00
  0.689334988594E+00  0.000000000000E+00  0.522850036621E+00
  0.724590361118E+00  0.724590361118E+00  0.000000000000E+00
  0.763589203358E+00  0.724590361118E+00 -0.109218291938E+00
  0.763589203358E+00  0.724590361118E+00  0.109218291938E+00
  0.808472156525E+00  0.335006117821E+00 -0.436293929815E+00
  0.808472156525E+00  0.335006117821E+00  0.436293929815E+00
  0.812772512436E+00  0.522506594658E+00 -0.347333252430E+00
  0.812772512436E+00  0.522506594658E+00  0.347333252430E+00
  0.850473463535E+00  0.161138445139E+00 -0.522850036621E+00
  0.850473463535E+00  0.161138445139E+00  0.522850036621E+00
  0.872256100178E+00  0.724590361118E+00 -0.234920680523E+00
  0.872256100178E+00  0.724590361118E+00  0.234920680523E+00
  0.942254066467E+00  0.942254066467E+00  0.000000000000E+00
  0.944064557552E+00  0.000000000000E+00 -0.604293465614E+00
  0.944064557552E+00  0.000000000000E+00  0.604293465614E+00
  0.981252849102E+00  0.942254066467E+00 -0.109218299389E+00
  0.981252849102E+00  0.942254066467E+00  0.109218299389E+00
  0.995972692966E+00  0.522506594658E+00 -0.436293959618E+00
  0.995972692966E+00  0.522506594658E+00  0.436293959618E+00
  0.101485633850E+01  0.724590361118E+00 -0.347333282232E+00
  0.101485633850E+01  0.724590361118E+00  0.347333282232E+00
  0.102434122562E+01  0.335006117821E+00 -0.522850096226E+00
  0.102434122562E+01  0.335006117821E+00  0.522850096226E+00
  0.108991980553E+01  0.942254066467E+00 -0.234920710325E+00
  0.108991980553E+01  0.942254066467E+00  0.234920710325E+00
  0.110520303249E+01  0.161138445139E+00 -0.604293525219E+00
  0.110520303249E+01  0.161138445139E+00  0.604293525219E+00
  0.117653930187E+01  0.117653930187E+01  0.000000000000E+00
  0.119805645943E+01  0.724590361118E+00 -0.436293989420E+00
  0.119805645943E+01  0.724590361118E+00  0.436293989420E+00
  0.121184170246E+01  0.522506594658E+00 -0.522850096226E+00
  0.121184170246E+01  0.522506594658E+00  0.522850096226E+00
  0.121553814411E+01  0.117653930187E+01 -0.109218306839E+00
  0.121553814411E+01  0.117653930187E+01  0.109218306839E+00
  0.123251998425E+01  0.942254066467E+00 -0.347333312035E+00
  0.123251998425E+01  0.942254066467E+00  0.347333312035E+00
  0.123833239079E+01  0.000000000000E+00 -0.683996438980E+00
  0.123833239079E+01  0.000000000000E+00  0.683996438980E+00
  0.127907073498E+01  0.335006117821E+00 -0.604293525219E+00
  0.127907073498E+01  0.335006117821E+00  0.604293525219E+00
  0.132420504093E+01  0.117653930187E+01 -0.234920725226E+00
  0.132420504093E+01  0.117653930187E+01  0.234920725226E+00
  0.139947092533E+01  0.161138445139E+00 -0.683996498585E+00
  0.139947092533E+01  0.161138445139E+00  0.683996498585E+00
  0.141392552853E+01  0.724590361118E+00 -0.522850155830E+00
  0.141392552853E+01  0.724590361118E+00  0.522850155830E+00
  0.141572022438E+01  0.942254066467E+00 -0.436294019222E+00
  0.141572022438E+01  0.942254066467E+00  0.436294019222E+00
  0.142853081226E+01  0.142853081226E+01  0.000000000000E+00
  0.146657133102E+01  0.522506594658E+00 -0.604293584824E+00
  0.146657133102E+01  0.522506594658E+00  0.604293584824E+00
  0.146680521965E+01  0.117653930187E+01 -0.347333341837E+00
  0.146680521965E+01  0.117653930187E+01  0.347333341837E+00
  0.146752965450E+01  0.142853081226E+01 -0.109218314290E+00
  0.146752965450E+01  0.142853081226E+01  0.109218314290E+00
  0.157333862782E+01  0.335006117821E+00 -0.683996558189E+00
  0.157333862782E+01  0.335006117821E+00  0.683996558189E+00
  0.157619655132E+01  0.142853081226E+01 -0.234920740128E+00
  0.157619655132E+01  0.142853081226E+01  0.234920740128E+00
  0.157641971111E+01  0.000000000000E+00 -0.760520398617E+00
  0.157641971111E+01  0.000000000000E+00  0.760520398617E+00
  0.163158929348E+01  0.942254066467E+00 -0.522850155830E+00
  0.163158929348E+01  0.942254066467E+00  0.522850155830E+00
  0.165000545979E+01  0.117653930187E+01 -0.436294049025E+00
  0.165000545979E+01  0.117653930187E+01  0.436294049025E+00
  0.166865515709E+01  0.724590361118E+00 -0.604293584824E+00
  0.166865515709E+01  0.724590361118E+00  0.604293584824E+00
  0.169935321808E+01  0.169935321808E+01  0.000000000000E+00
  0.171879673004E+01  0.142853081226E+01 -0.347333371639E+00
  0.171879673004E+01  0.142853081226E+01  0.347333371639E+00
  0.173755824566E+01  0.161138445139E+00 -0.760520458221E+00
  0.173755824566E+01  0.161138445139E+00  0.760520458221E+00
  0.173835194111E+01  0.169935321808E+01 -0.109218329191E+00
  0.173835194111E+01  0.169935321808E+01  0.109218329191E+00
  0.176083922386E+01  0.522506594658E+00 -0.683996558189E+00
  0.176083922386E+01  0.522506594658E+00  0.683996558189E+00
  0.184701895714E+01  0.169935321808E+01 -0.234920755029E+00
  0.184701895714E+01  0.169935321808E+01  0.234920755029E+00
  0.186587452888E+01  0.117653930187E+01 -0.522850215435E+00
  0.186587452888E+01  0.117653930187E+01  0.522850215435E+00
  0.188631892204E+01  0.942254066467E+00 -0.604293644428E+00
  0.188631892204E+01  0.942254066467E+00  0.604293644428E+00
  0.190199697018E+01  0.142853081226E+01 -0.436294078827E+00
  0.190199697018E+01  0.142853081226E+01  0.436294078827E+00
  0.191142594814E+01  0.335006117821E+00 -0.760520458221E+00
  0.191142594814E+01  0.335006117821E+00  0.760520458221E+00
  0.196138751507E+01  0.000000000000E+00 -0.833668828011E+00
  0.196138751507E+01  0.000000000000E+00  0.833668828011E+00
  0.196292304993E+01  0.724590361118E+00 -0.683996617794E+00
  0.196292304993E+01  0.724590361118E+00  0.683996617794E+00
  0.198961913586E+01  0.169935321808E+01 -0.347333401442E+00
  0.198961913586E+01  0.169935321808E+01  0.347333401442E+00
  0.199016737938E+01  0.199016737938E+01  0.000000000000E+00
  0.202916622162E+01  0.199016737938E+01 -0.109218336642E+00
  0.202916622162E+01  0.199016737938E+01  0.109218336642E+00
  0.209892654419E+01  0.522506594658E+00 -0.760520517826E+00
  0.209892654419E+01  0.522506594658E+00  0.760520517826E+00
  0.211786603928E+01  0.142853081226E+01 -0.522850275040E+00
  0.211786603928E+01  0.142853081226E+01  0.522850275040E+00
  0.212060427666E+01  0.117653930187E+01 -0.604293704033E+00
  0.212060427666E+01  0.117653930187E+01  0.604293704033E+00
  0.212252616882E+01  0.161138445139E+00 -0.833668828011E+00
  0.212252616882E+01  0.161138445139E+00  0.833668828011E+00
  0.213783311844E+01  0.199016737938E+01 -0.234920784831E+00
  0.213783311844E+01  0.199016737938E+01  0.234920784831E+00
  0.217281937599E+01  0.169935321808E+01 -0.436294138432E+00
  0.217281937599E+01  0.169935321808E+01  0.436294138432E+00
  0.218058681488E+01  0.942254066467E+00 -0.683996677399E+00
  0.218058681488E+01  0.942254066467E+00  0.683996677399E+00
  0.228043341637E+01  0.199016737938E+01 -0.347333431244E+00
  0.228043341637E+01  0.199016737938E+01  0.347333431244E+00
  0.229639387131E+01  0.335006117821E+00 -0.833668887615E+00
  0.229639387131E+01  0.335006117821E+00  0.833668887615E+00
  0.230101037025E+01  0.724590361118E+00 -0.760520577431E+00
  0.230101037025E+01  0.724590361118E+00  0.760520577431E+00
  0.230216526985E+01  0.230216526985E+01  0.000000000000E+00
  0.234116411209E+01  0.230216526985E+01 -0.109218344092E+00
  0.234116411209E+01  0.230216526985E+01  0.109218344092E+00
  0.237259578705E+01  0.142853081226E+01 -0.604293763638E+00
  0.237259578705E+01  0.142853081226E+01  0.604293763638E+00
  0.238868856430E+01  0.169935321808E+01 -0.522850275040E+00
  0.238868856430E+01  0.169935321808E+01  0.522850275040E+00
  0.239635515213E+01  0.000000000000E+00 -0.902061045170E+00
  0.239635515213E+01  0.000000000000E+00  0.902061045170E+00
  0.241487216949E+01  0.117653930187E+01 -0.683996737003E+00
  0.241487216949E+01  0.117653930187E+01  0.683996737003E+00
  0.244983124733E+01  0.230216526985E+01 -0.234920799732E+00
  0.244983124733E+01  0.230216526985E+01  0.234920799732E+00
  0.246363353729E+01  0.199016737938E+01 -0.436294168234E+00
  0.246363353729E+01  0.199016737938E+01  0.436294168234E+00
[...]
CELL_DATA               13888
SCALARS C_p_inc float 1
LOOKUP_TABLE default
  0.223967474521E+00
  0.194487537874E+00
  0.170661292651E+00
  0.147917940817E+00
  0.144152075824E+00
  0.129931388748E+00
  0.126639793553E+00
  0.117617097112E+00
  0.114306756449E+00
  0.108075651669E+00
  0.104708147554E+00
  0.100134452016E+00
  0.967419490162E-01
  0.932366700010E-01
  0.898236865916E-01
  0.870281092347E-01
  0.835024229232E-01
  0.811471494484E-01
  0.772991929827E-01
  0.751744173973E-01
  0.710819589557E-01
  0.691827912017E-01
  0.652108454288E-01
  0.635984500447E-01
  0.596308897695E-01
  0.581479967099E-01
  0.532306160775E-01
  0.515434087577E-01
  0.468369862738E-01
  0.454569568434E-01
  0.406006876381E-01
  0.391418467788E-01
  0.329000192693E-01
  0.311182461140E-01
  0.275486382435E-01
  0.267916083039E-01
  0.233238003218E-01
  0.221931379897E-01
  0.216763230057E-01
  0.216652047599E-01
  0.218722736513E-01
  0.220378659834E-01
  0.263407185110E-01
  0.252940329336E-01
  0.363405412263E-01
  0.341642820318E-01
  0.475837094359E-01
  0.449144970040E-01
  0.744780955977E-01
  0.672681466345E-01
  0.109670371658E+00
  0.101128197698E+00
  0.147474778077E+00
  0.137697012852E+00
  0.187046985762E+00
  0.176140654377E+00
  0.227194499001E+00
  0.215349547409E+00
  0.266567157139E+00
  0.253753467990E+00
  0.308058831092E+00
  0.292914843207E+00
  0.355115516107E+00
  0.336855312230E+00
  0.406995275166E+00
  0.386027326528E+00
  0.465585193634E+00
  0.441620493781E+00
  0.528519895682E+00
  0.502735823945E+00
  0.604839749299E+00
  0.577556240560E+00
  0.686932927327E+00
  0.663858667623E+00
  0.785951571834E+00
  0.781912694531E+00
  0.845432646118E+00
  0.854245037404E+00
  0.779060251251E+00
  0.711124765771E+00
  0.335901622730E+00
  0.476136540184E+00
  0.806514878387E-02
  0.192830095884E+00
 -0.272957938443E+00
 -0.595536212564E-01
 -0.398038664179E+00
 -0.250633555365E+00
 -0.403735687254E+00
 -0.305230965342E+00
 -0.429430205901E+00
 -0.366994820718E+00
 -0.444136062926E+00
 -0.399180871125E+00
 -0.463045022217E+00
 -0.431915832014E+00
 -0.477675120960E+00
 -0.455339830072E+00
 -0.488513623135E+00
 -0.473834990077E+00
 -0.495402713405E+00
 -0.485253897525E+00
 -0.505181924534E+00
 -0.496265360842E+00
 -0.518862639358E+00
 -0.511212186447E+00
 -0.532371035434E+00
 -0.526347798794E+00
 -0.543490438750E+00
 -0.539216305501E+00
 -0.550945965225E+00
 -0.548501935620E+00
 -0.540996308460E+00
 -0.545502222836E+00
 -0.515401680131E+00
 -0.519781071000E+00
 -0.490149779081E+00
 -0.495595067072E+00
 -0.459348076457E+00
 -0.465997704106E+00
 -0.432902597781E+00
 -0.427137743314E+00
 -0.401592392061E+00
 -0.394580666991E+00
 -0.366969148034E+00
 -0.360777408877E+00
 -0.335070940710E+00
 -0.327685261993E+00
 -0.300252967525E+00
 -0.293467129868E+00
 -0.269718583953E+00
 -0.263103773200E+00
 -0.241155414012E+00
 -0.234134106248E+00
 -0.213396136626E+00
 -0.206562985891E+00
 -0.188403944191E+00
 -0.181247266848E+00
 -0.164334404180E+00
 -0.156582682126E+00
 -0.140711278547E+00
 -0.132355321273E+00
 -0.117917691875E+00
 -0.108840912914E+00
 -0.958727847363E-01
 -0.856824056228E-01
 -0.738955474744E-01
 -0.620895984559E-01
 -0.513633202592E-01
 -0.372650861472E-01
 -0.276097886101E-01
 -0.101480162733E-01
 -0.160937777431E-02
  0.211463594412E-01
  0.286680919552E-01
  0.604829938770E-01
  0.682547167912E-01
  0.114091495150E+00
  0.150276147623E+00
  0.202564130007E+00
  0.221764022021E+00
  0.222271972744E+00
  0.174341726012E+00
  0.170346293894E+00
  0.153423369947E+00
  0.144072747176E+00
  0.135560619689E+00
  0.126612215198E+00
  0.121157164939E+00
  0.114293532365E+00
  0.109841933381E+00
  0.104700577266E+00
  0.100678115055E+00
  0.967371380818E-01
  0.929410904027E-01
  0.898203736064E-01
  0.860724884647E-01
  0.835000819782E-01
  0.795176897954E-01
  0.772979215014E-01
  0.730366806196E-01
  0.710818555047E-01
  0.669200641433E-01
  0.652113815862E-01
  0.611858046840E-01
  0.596318136051E-01
  0.547747159539E-01
  0.532331156844E-01
  0.482280911589E-01
  0.468393298860E-01
  0.419482191265E-01
  0.406036365914E-01
  0.342437470132E-01
  0.329037442700E-01
  0.283496031618E-01
  0.275422167852E-01
  0.239621052783E-01
  0.233128109438E-01
  0.216303341036E-01
  0.216457079716E-01
  0.220010792043E-01
  0.216119724725E-01
  0.252620269758E-01
  0.238874174685E-01
  0.341520327929E-01
  0.316494886956E-01
  0.449108926064E-01
  0.411954254379E-01
  0.674026609753E-01
  0.608465719969E-01
  0.101303131891E+00
  0.932177825761E-01
  0.137860247437E+00
  0.128779930422E+00
  0.176225915827E+00
  0.166400501426E+00
  0.215274385534E+00
  0.204904395437E+00
  0.253451283848E+00
  0.242544008587E+00
  0.292238736054E+00
  0.280470989561E+00
  0.335359626126E+00
  0.322712070512E+00
  0.382969320623E+00
  0.369941204608E+00
  0.435585506800E+00
  0.422998983595E+00
  0.491663356475E+00
  0.480586302300E+00
  0.555856572603E+00
  0.548090877799E+00
  0.624086318989E+00
  0.620790190424E+00
  0.698659162391E+00
  0.698657417458E+00
  0.722344497600E+00
  0.709702024037E+00
  0.576112301633E+00
  0.514040221954E+00
  0.146172762775E+00
  0.220363340585E+00
 -0.130118383291E+00
 -0.268497487217E-01
 -0.389378330789E+00
 -0.271021909151E+00
 -0.497408647620E+00
 -0.386427856833E+00
 -0.481050206390E+00
 -0.398627006527E+00
 -0.490733822884E+00
 -0.427581415620E+00
 -0.491294974239E+00
 -0.443861648267E+00
 -0.499474313048E+00
 -0.463676084410E+00
 -0.505340079676E+00
 -0.478681943137E+00
 -0.509168364186E+00
 -0.489675846701E+00
 -0.511034880093E+00
 -0.496434993897E+00
 -0.517756423808E+00
 -0.506005988123E+00
 -0.529156737288E+00
 -0.519606005633E+00
 -0.540505136249E+00
 -0.533106194236E+00
 -0.549404165183E+00
 -0.544253960779E+00
 -0.554093360347E+00
 -0.551816298905E+00
 -0.539634658184E+00
 -0.541951907351E+00
 -0.512356359281E+00
 -0.516099419170E+00
 -0.485723255051E+00
 -0.490727978566E+00
 -0.453798112102E+00
 -0.459794644268E+00
 -0.427133115380E+00
 -0.421592088099E+00
 -0.394527009730E+00
 -0.388288246684E+00
 -0.360733056200E+00
 -0.354465693132E+00
 -0.327621914082E+00
 -0.320764533512E+00
 -0.293421865462E+00
 -0.286638596826E+00
 -0.263068631744E+00
 -0.256243082463E+00
 -0.234104417107E+00
 -0.227027452449E+00
 -0.206544087069E+00
 -0.199327797404E+00
 -0.181233287125E+00
 -0.173620246540E+00
 -0.156573784179E+00
 -0.148367552959E+00
 -0.132352815201E+00
 -0.123434652213E+00
 -0.108844261930E+00
 -0.989895026802E-01
 -0.856911973325E-01
 -0.745177506243E-01
 -0.621055468507E-01
 -0.491062940768E-01
 -0.372924868734E-01
 -0.217956137029E-01
 -0.101969257258E-01
  0.863041593461E-02
  0.210464197318E-01
  0.436273149866E-01
  0.602153930280E-01
  0.837539293254E-01
  0.113125713384E+00
  0.128293133328E+00
  0.198280405669E+00
  0.200562973203E+00
  0.227863315393E+00
  0.220984027329E+00
  0.175621161504E+00
  0.173938921953E+00
  0.156088543850E+00
  0.153204012933E+00
  0.140622720953E+00
  0.135465734138E+00
  0.126926038536E+00
  0.121115014915E+00
  0.114955796048E+00
  0.109820305782E+00
  0.104849289626E+00
  0.100665480932E+00
  0.963069328033E-01
  0.929329634026E-01
  0.888371047711E-01
  0.860669940898E-01
  0.818626108757E-01
  0.795143531950E-01
  0.750819128820E-01
  0.730355106362E-01
  0.687179006557E-01
  0.669204623402E-01
  0.627962343823E-01
  0.611871168578E-01
  0.562958162295E-01
  0.547778904264E-01
  0.496325452824E-01
  0.482326598252E-01
  0.432447249955E-01
  0.419535019489E-01
  0.354543251537E-01
  0.342497757719E-01
  0.291738085614E-01
  0.283461621609E-01
  0.244539864403E-01
  0.239489217977E-01
  0.215702796901E-01
  0.215913329325E-01
  0.215818613932E-01
  0.210080518589E-01
  0.238894378576E-01
  0.224457242095E-01
  0.317106812458E-01
  0.291459388847E-01
  0.413445235928E-01
  0.374900170725E-01
  0.611765716514E-01
  0.552364482282E-01
  0.935762504517E-01
  0.860601296408E-01
  0.129053193729E+00
  0.120670307783E+00
  0.166475102229E+00
  0.157565661578E+00
  0.204662274881E+00
  0.195470893035E+00
  0.241889285028E+00
  0.232535445465E+00
  0.279200949140E+00
  0.269716817486E+00
  0.320336348966E+00
  0.310897925602E+00
  0.365758431311E+00
  0.356819322304E+00
  0.415926924165E+00
  0.408215468607E+00
  0.469328455469E+00
  0.463565304544E+00
  0.530078005771E+00
  0.527139395478E+00
  0.593778941269E+00
  0.593368480819E+00
  0.659017510646E+00
  0.656840491222E+00
  0.662351815917E+00
  0.644873962677E+00
  0.474525602392E+00
  0.417283249502E+00
  0.272924571294E-01
  0.899244182459E-01
 -0.234718894500E+00
 -0.151650779266E+00
 -0.484775875240E+00
 -0.389233087307E+00
 -0.579317154122E+00
 -0.486431467464E+00
 -0.546689099818E+00
 -0.473638019164E+00
 -0.544621516429E+00
 -0.485434592721E+00
 -0.534677149469E+00
 -0.488145478862E+00
 -0.534394709596E+00
 -0.497735782927E+00
 -0.532991886460E+00
 -0.504603812222E+00
 -0.530885477270E+00
 -0.509069304832E+00
 -0.528230604056E+00
 -0.511237172594E+00
 -0.531687881875E+00
 -0.518071488895E+00
 -0.540498488168E+00
 -0.529581175545E+00
 -0.549450854316E+00
 -0.541077672492E+00
 -0.555882877523E+00
 -0.550172156095E+00
 -0.557423777739E+00
 -0.555184473457E+00
 -0.539476201321E+00
 -0.540951182219E+00
 -0.510127204407E+00
 -0.513488898267E+00
 -0.481911300095E+00
 -0.486733019183E+00
 -0.448851814476E+00
 -0.454631808132E+00
 -0.421553999055E+00
 -0.416165531843E+00
 -0.388196714739E+00
 -0.382217560394E+00
 -0.354369398836E+00
 -0.348059001500E+00
 -0.320663413654E+00
 -0.313912898174E+00
 -0.286560435134E+00
 -0.279712097904E+00
 -0.256179567631E+00
 -0.249154391467E+00
 -0.226978707394E+00
 -0.219700929883E+00
 -0.199293478404E+00
 -0.191729734529E+00
 -0.173595037534E+00
 -0.165547446705E+00
 -0.148352669138E+00
 -0.139660188266E+00
 -0.123431305580E+00
 -0.113930695570E+00
 -0.989972689639E-01
 -0.884290648372E-01
 -0.745381694164E-01
 -0.625591767159E-01
 -0.491457282225E-01
 -0.354022877064E-01
 -0.218693028505E-01
 -0.618948091033E-02
  0.848405927024E-02
  0.254530155006E-01
  0.433049619097E-01
  0.590008572249E-01
  0.830220535604E-01
  0.935702866841E-01
  0.126867480326E+00
  0.129722222140E+00
  0.197799845285E+00
  0.188030776591E+00
  0.221948505510E+00
  0.226722569779E+00
  0.174664900205E+00
  0.175216782508E+00
  0.156473434807E+00
  0.155837786610E+00
  0.142487306351E+00
  0.140469077878E+00
  0.130299313950E+00
  0.126841870286E+00
  0.119037060777E+00
  0.114911306942E+00
  0.108783396594E+00
  0.104824465234E+00
  0.997327482548E-01
  0.962919318091E-01
  0.917326131799E-01
  0.888275357553E-01
  0.843246621112E-01
  0.818568549163E-01
  0.772168057472E-01
  0.750794582690E-01
  0.705940092992E-01
  0.687178948094E-01
  0.644641803080E-01
  0.627977578306E-01
  0.578251771950E-01
  0.562995964420E-01
  0.510428943133E-01
  0.496384404226E-01
  0.445163975235E-01
  0.432513116624E-01
  0.365920958054E-01
  0.354612109707E-01
  0.300050387523E-01
  0.291723878777E-01
  0.248849497762E-01
  0.244384312614E-01
  0.215092820489E-01
  0.215285058516E-01
  0.209875577885E-01
  0.203400595483E-01
  0.224681508758E-01
  0.210193871832E-01
  0.292437894542E-01
  0.267184890383E-01
  0.377014939393E-01
  0.339140184451E-01
  0.556028898697E-01
  0.501847825890E-01
  0.864391404428E-01
  0.795496761724E-01
  0.120917745704E+00
  0.113232500591E+00
  0.157547278098E+00
  0.149486035302E+00
  0.195056992415E+00
  0.186910380947E+00
  0.231620656398E+00
  0.223577890888E+00
  0.268109691547E+00
  0.260342081703E+00
  0.308184321189E+00
  0.300956713517E+00
  0.352450318916E+00
  0.346141536865E+00
  0.401440993892E+00
  0.396563078391E+00
  0.453628205982E+00
  0.450604474808E+00
  0.512722927201E+00
  0.511806286146E+00
  0.573811905953E+00
  0.574058502230E+00
  0.631868124284E+00
  0.628141660935E+00
  0.618842540057E+00
  0.599367597351E+00
  0.397729388352E+00
  0.343598198970E+00
 -0.689911135320E-01
 -0.116641713716E-01
 -0.322732366857E+00
 -0.249842427794E+00
 -0.567413484310E+00
 -0.484053778199E+00
 -0.651620926014E+00
 -0.569640287512E+00
 -0.605684389775E+00
 -0.539253424504E+00
 -0.594106912882E+00
 -0.538627063209E+00
 -0.575555573840E+00
 -0.530557171972E+00
 -0.568175365749E+00
 -0.531653204186E+00
 -0.560579110628E+00
 -0.531357018917E+00
 -0.553281169766E+00
 -0.530034482503E+00
 -0.546410367683E+00
 -0.527879423943E+00
 -0.546575451133E+00
 -0.531650442495E+00
 -0.552655029439E+00
 -0.540722957650E+00
 -0.559039869588E+00
 -0.549953822837E+00
 -0.562770656633E+00
 -0.556720359865E+00
 -0.561070498459E+00
 -0.558716577492E+00
 -0.540077380634E+00
 -0.541004978015E+00
 -0.508476697081E+00
 -0.511549740617E+00
 -0.478554581318E+00
 -0.483223708680E+00
 -0.444301399275E+00
 -0.449968724758E+00
 -0.416132575754E+00
 -0.410869565208E+00
 -0.382117323395E+00
 -0.376268853638E+00
 -0.347935078799E+00
 -0.341600473125E+00
 -0.313786474885E+00
 -0.307056970736E+00
 -0.279608071156E+00
 -0.272660505907E+00
 -0.249066894168E+00
 -0.241852346689E+00
 -0.219632922691E+00
 -0.212114716751E+00
 -0.191679465673E+00
 -0.183767182951E+00
 -0.165510365998E+00
 -0.157043957785E+00
 -0.139638281341E+00
 -0.130470892917E+00
 -0.113925849174E+00
 -0.103885281786E+00
 -0.884425421244E-01
 -0.773178215116E-01
 -0.625964888232E-01
 -0.502279504843E-01
 -0.354784301191E-01
 -0.219720408435E-01
 -0.633769547138E-02
  0.752626208348E-02
  0.251658152759E-01
  0.376280076911E-01
  0.584737640505E-01
  0.675739372794E-01
  0.927231110255E-01
  0.977554813299E-01
  0.128586904466E+00
  0.130639122342E+00
  0.187027431589E+00
  0.190964121732E+00
  0.214926382818E+00
  0.221388878250E+00
  0.171552975168E+00
  0.174300756369E+00
  0.155219261176E+00
  0.156225181603E+00
  0.142583232191E+00
  0.142316244972E+00
  0.131681341972E+00
  0.130185792744E+00
  0.121543863933E+00
  0.118967228838E+00
  0.111897626715E+00
  0.108742244135E+00
  0.102882526883E+00
  0.997081401322E-01
  0.946057646856E-01
  0.917174274554E-01
  0.868462022542E-01
  0.843156336726E-01
  0.794214776679E-01
  0.772125424349E-01
  0.725356297004E-01
  0.705932058834E-01
  0.661864039614E-01
  0.644656324076E-01
  0.593780978637E-01
  0.578293392500E-01
  0.524577381141E-01
  0.510496337563E-01
  0.457780935504E-01
  0.445239724354E-01
  0.376875966305E-01
  0.365995974131E-01
  0.308289025511E-01
  0.300050766225E-01
  0.253017738014E-01
  0.248686652097E-01
  0.214520238420E-01
  0.214667998511E-01
  0.203258749497E-01
  0.196726921433E-01
  0.210538977417E-01
  0.196345288257E-01
  0.268341400334E-01
  0.244114379404E-01
  0.341499346045E-01
  0.305393217727E-01
  0.505487335159E-01
  0.455905175250E-01
  0.799096638060E-01
  0.736921172590E-01
  0.113435671554E+00
  0.106479779615E+00
  0.149387063019E+00
  0.142156079290E+00
  0.186377350299E+00
  0.179196556465E+00
  0.222508830881E+00
  0.215606368408E+00
  0.258574549013E+00
  0.252178104064E+00
  0.298165568644E+00
  0.292565638733E+00
  0.341925397560E+00
  0.337429520523E+00
  0.390416689006E+00
  0.387357262322E+00
  0.442102915868E+00
  0.440672635468E+00
  0.500259617356E+00
  0.500332947879E+00
  0.559449448671E+00
  0.559758760409E+00
  0.611245421466E+00
  0.606484887806E+00
  0.583815463757E+00
  0.563476938218E+00
  0.333281978476E+00
  0.281492925167E+00
 -0.152948691168E+00
 -0.984230444941E-01
 -0.400850296178E+00
 -0.333980311018E+00
 -0.641995247613E+00
 -0.566248941108E+00
 -0.717632951347E+00
 -0.642972776372E+00
 -0.660110754524E+00
 -0.598599687787E+00
 -0.640401147179E+00
 -0.588038004677E+00
 -0.614451904090E+00
 -0.571049287203E+00
 -0.600942507351E+00
 -0.564900405511E+00
 -0.587934292400E+00
 -0.558368216354E+00
 -0.575979302547E+00
 -0.551896311122E+00
 -0.565136147978E+00
 -0.545642462579E+00
 -0.562044248057E+00
 -0.546259558919E+00
 -0.565330270144E+00
 -0.552726764700E+00
 -0.569031980832E+00
 -0.559511138386E+00
 -0.569904387365E+00
 -0.563703504891E+00
 -0.565086723039E+00
 -0.562527034620E+00
 -0.541233168168E+00
 -0.541776334282E+00
 -0.507290797658E+00
 -0.510132141883E+00
 -0.475593358550E+00
 -0.480113816531E+00
 -0.440048528483E+00
 -0.445660242356E+00
 -0.410864356766E+00
 -0.405713218888E+00
 -0.376175835949E+00
 -0.370390594373E+00
 -0.341465271076E+00
 -0.335122421245E+00
 -0.306915878481E+00
 -0.300163605029E+00
 -0.272537872419E+00
 -0.265470744172E+00
 -0.241746468490E+00
 -0.234343471189E+00
 -0.212030504471E+00
 -0.204252930180E+00
 -0.183703102992E+00
 -0.175450478186E+00
 -0.156996824265E+00
 -0.148139720811E+00
 -0.130443692011E+00
 -0.120858209821E+00
 -0.103881384238E+00
 -0.934472138180E-01
 -0.773416425666E-01
 -0.660096900025E-01
 -0.502909665664E-01
 -0.382569507465E-01
 -0.220989915782E-01
 -0.100443417883E-01
  0.729367048409E-02
  0.181615207939E-01
  0.372402386751E-01
  0.457831637655E-01
  0.670020055637E-01
  0.729689591655E-01
  0.970103980871E-01
  0.101146807265E+00
  0.129748141914E+00
  0.133485353605E+00
  0.189593130614E+00
  0.195513325856E+00
  0.214203611670E+00
  0.214747857632E+00
  0.169602882020E+00
  0.171315606574E+00
  0.153644536939E+00
  0.155011259163E+00
  0.141787088873E+00
  0.142419415918E+00
  0.131828327461E+00
  0.131558885646E+00
  0.122692014344E+00
  0.121457482689E+00
  0.113913887229E+00
  0.111840581490E+00
  0.105401515203E+00
  0.102846474781E+00
  0.972222515254E-01
  0.945833125699E-01
  0.893097930636E-01
  0.868327990492E-01
  0.816452539481E-01
  0.794147043649E-01
  0.745183062353E-01
  0.725335463224E-01
  0.679520768680E-01
  0.661874349835E-01
  0.609591163780E-01
  0.593824002873E-01
  0.538812293876E-01
  0.524650191726E-01
  0.470384246164E-01
  0.457865177469E-01
  0.387618239138E-01
  0.376958470112E-01
  0.316444212295E-01
  0.308303970760E-01
  0.257304556369E-01
  0.252869136642E-01
  0.214133658208E-01
  0.214113544370E-01
  0.196627794329E-01
  0.190494027995E-01
  0.196768447911E-01
  0.183244103665E-01
  0.245349058474E-01
  0.222636347955E-01
  0.307801606486E-01
  0.274198560403E-01
  0.459381100115E-01
  0.414290925068E-01
  0.740180935747E-01
  0.684749249610E-01
  0.106636248186E+00
  0.100429855727E+00
  0.141995229450E+00
  0.135578479578E+00
  0.178590707851E+00
  0.172310296543E+00
  0.214463484866E+00
  0.208570710030E+00
  0.250367135805E+00
  0.245109259889E+00
  0.289839509723E+00
  0.285497799364E+00
  0.333505469525E+00
  0.330325911830E+00
  0.381903035500E+00
  0.380085126350E+00
  0.433464501025E+00
  0.433036776516E+00
  0.491020743038E+00
  0.491622364001E+00
  0.548602084635E+00
  0.548797195971E+00
  0.594628702787E+00
  0.589169194285E+00
  0.553940921565E+00
  0.533249629959E+00
  0.276201351882E+00
  0.226233899239E+00
 -0.229254482220E+00
 -0.176296614390E+00
 -0.472496254388E+00
 -0.409509821067E+00
 -0.711090200112E+00
 -0.640525624168E+00
 -0.779212904005E+00
 -0.709819754743E+00
 -0.711203913961E+00
 -0.653472564145E+00
 -0.684268001172E+00
 -0.634502793372E+00
 -0.651756374218E+00
 -0.609853441670E+00
 -0.632822212213E+00
 -0.597413512462E+00
 -0.614973387994E+00
 -0.585386739874E+00
 -0.598749606302E+00
 -0.574254281552E+00
 -0.584134300447E+00
 -0.564089981941E+00
 -0.577840045791E+00
 -0.561538926649E+00
 -0.578298260293E+00
 -0.565306428858E+00
 -0.579230922277E+00
 -0.569506492273E+00
 -0.577182613050E+00
 -0.570932978991E+00
 -0.569416186205E+00
 -0.566661603673E+00
 -0.542793150892E+00
 -0.543070521939E+00
 -0.506474776471E+00
 -0.509134160844E+00
 -0.472962834085E+00
 -0.477355581168E+00
 -0.436027808276E+00
 -0.441616445407E+00
 -0.405749861538E+00
 -0.400686082788E+00
 -0.370315181099E+00
 -0.364556411381E+00
 -0.334988767430E+00
 -0.328635891575E+00
 -0.300016647551E+00
 -0.293212128647E+00
 -0.265336189414E+00
 -0.258138229052E+00
 -0.234224453331E+00
 -0.226629301143E+00
 -0.204155895664E+00
 -0.196119130615E+00
 -0.175375258537E+00
 -0.166810333068E+00
 -0.148084924020E+00
 -0.138900013549E+00
 -0.120828309904E+00
 -0.110956468891E+00
 -0.934479898222E-01
 -0.829013768629E-01
 -0.660496369930E-01
 -0.550404910258E-01
 -0.383527728544E-01
 -0.274383380551E-01
 -0.102225190505E-01
 -0.275079314401E-03