# vtk DataFile Version 3.0
MachLine results file. Generated by MachLine, USU AeroLab (c) 2022.
ASCII
DATASET POLYDATA
POINTS                 156 float
  0.193396415710E+02  0.339639574289E+00  0.000000000000E+00
  0.190000000000E+02  0.000000000000E+00  0.000000000000E+00
  0.149482702678E+05  0.339639574289E+00  0.112251193244E+04
  0.149484372244E+05  0.000000000000E+00  0.112255002375E+04
  0.197353687286E+02  0.735364913940E+00  0.000000000000E+00
  0.193396415710E+02  0.339639574289E+00  0.000000000000E+00
  0.149480757412E+05  0.735364913940E+00  0.112246755104E+04
  0.149482702678E+05  0.339639574289E+00  0.112251193244E+04
  0.201952877045E+02  0.119528055191E+01  0.000000000000E+00
  0.197353687286E+02  0.735364913940E+00  0.000000000000E+00
  0.149478496601E+05  0.119528055191E+01  0.112241597043E+04
  0.149480757412E+05  0.735364913940E+00  0.112246755104E+04
  0.207282505035E+02  0.172824025154E+01  0.000000000000E+00
  0.201952877045E+02  0.119528055191E+01  0.000000000000E+00
  0.149475876730E+05  0.172824025154E+01  0.112235619785E+04
  0.149478496601E+05  0.119528055191E+01  0.112241597043E+04
  0.213437728882E+02  0.234375929832E+01  0.000000000000E+00
  0.207282505035E+02  0.172824025154E+01  0.000000000000E+00
  0.149472851024E+05  0.234375929832E+01  0.112228716609E+04
  0.149475876730E+05  0.172824025154E+01  0.112235619785E+04
  0.220518741608E+02  0.305185556412E+01  0.000000000000E+00
  0.213437728882E+02  0.234375929832E+01  0.000000000000E+00
  0.149469370229E+05  0.305185556412E+01  0.112220775146E+04
  0.149472851024E+05  0.234375929832E+01  0.112228716609E+04
  0.228628253937E+02  0.386280250549E+01  0.000000000000E+00
  0.220518741608E+02  0.305185556412E+01  0.000000000000E+00
  0.149465383859E+05  0.386280250549E+01  0.112211680206E+04
  0.149469370229E+05  0.305185556412E+01  0.112220775146E+04
  0.237868041992E+02  0.478677463531E+01  0.000000000000E+00
  0.228628253937E+02  0.386280250549E+01  0.000000000000E+00
  0.149460841881E+05  0.478677463531E+01  0.112201317644E+04
  0.149465383859E+05  0.386280250549E+01  0.112211680206E+04
  0.248334121704E+02  0.583337688446E+01  0.000000000000E+00
  0.237868041992E+02  0.478677463531E+01  0.000000000000E+00
  0.149455697099E+05  0.583337688446E+01  0.112189579778E+04
  0.149460841881E+05  0.478677463531E+01  0.112201317644E+04
  0.260110912323E+02  0.701104879379E+01  0.000000000000E+00
  0.248334121704E+02  0.583337688446E+01  0.000000000000E+00
  0.149449908014E+05  0.701104879379E+01  0.112176371930E+04
  0.149455697099E+05  0.583337688446E+01  0.112189579778E+04
  0.273264064789E+02  0.832635498047E+01  0.000000000000E+00
  0.260110912323E+02  0.701104879379E+01  0.000000000000E+00
  0.149443442354E+05  0.832635498047E+01  0.112161620471E+04
  0.149449908014E+05  0.701104879379E+01  0.112176371930E+04
  0.287832584381E+02  0.978319931030E+01  0.000000000000E+00
  0.273264064789E+02  0.832635498047E+01  0.000000000000E+00
  0.149436280947E+05  0.978319931030E+01  0.112145281657E+04
  0.149443442354E+05  0.832635498047E+01  0.112161620471E+04
  0.303820724487E+02  0.113820018768E+02  0.000000000000E+00
  0.287832584381E+02  0.978319931030E+01  0.000000000000E+00
  0.149428421700E+05  0.113820018768E+02  0.112127350717E+04
  0.149436280947E+05  0.978319931030E+01  0.112145281657E+04
  0.321190223694E+02  0.131189413071E+02  0.000000000000E+00
  0.303820724487E+02  0.113820018768E+02  0.000000000000E+00
  0.149419883422E+05  0.131189413071E+02  0.112107870561E+04
  0.149428421700E+05  0.113820018768E+02  0.112127350717E+04
  0.339854316711E+02  0.149853391647E+02  0.000000000000E+00
  0.321190223694E+02  0.131189413071E+02  0.000000000000E+00
  0.149410708765E+05  0.149853391647E+02  0.112086938500E+04
  0.149419883422E+05  0.131189413071E+02  0.112107870561E+04
  0.359674301147E+02  0.169673271179E+02  0.000000000000E+00
  0.339854316711E+02  0.149853391647E+02  0.000000000000E+00
  0.149400965909E+05  0.169673271179E+02  0.112064710088E+04
  0.149410708765E+05  0.149853391647E+02  0.112086938500E+04
  0.380459861755E+02  0.190458717346E+02  0.000000000000E+00
  0.359674301147E+02  0.169673271179E+02  0.000000000000E+00
  0.149390748407E+05  0.190458717346E+02  0.112041398769E+04
  0.149400965909E+05  0.169673271179E+02  0.112064710088E+04
  0.401973724365E+02  0.211972446442E+02  0.000000000000E+00
  0.380459861755E+02  0.190458717346E+02  0.000000000000E+00
  0.149380172896E+05  0.211972446442E+02  0.112017270648E+04
  0.149390748407E+05  0.190458717346E+02  0.112041398769E+04
  0.423940925598E+02  0.233939495087E+02  0.000000000000E+00
  0.401973724365E+02  0.211972446442E+02  0.000000000000E+00
  0.149369374539E+05  0.233939495087E+02  0.111992634100E+04
  0.149380172896E+05  0.211972446442E+02  0.112017270648E+04
  0.446062088013E+02  0.256060504913E+02  0.000000000000E+00
  0.423940925598E+02  0.233939495087E+02  0.000000000000E+00
  0.149358500499E+05  0.256060504913E+02  0.111967824883E+04
  0.149369374539E+05  0.233939495087E+02  0.111992634100E+04
  0.468029289246E+02  0.278027553558E+02  0.000000000000E+00
  0.446062088013E+02  0.256060504913E+02  0.000000000000E+00
  0.149347702141E+05  0.278027553558E+02  0.111943188336E+04
  0.149358500499E+05  0.256060504913E+02  0.111967824883E+04
  0.489543113708E+02  0.299541282654E+02  0.000000000000E+00
  0.468029289246E+02  0.278027553558E+02  0.000000000000E+00
  0.149337126649E+05  0.299541282654E+02  0.111919060257E+04
  0.149347702141E+05  0.278027553558E+02  0.111943188336E+04
  0.510328712463E+02  0.320326728821E+02  0.000000000000E+00
  0.489543113708E+02  0.299541282654E+02  0.000000000000E+00
  0.149326909129E+05  0.320326728821E+02  0.111895748895E+04
  0.149337126649E+05  0.299541282654E+02  0.111919060257E+04
  0.530148696899E+02  0.340146598816E+02  0.000000000000E+00
  0.510328712463E+02  0.320326728821E+02  0.000000000000E+00
  0.149317166273E+05  0.340146598816E+02  0.111873520483E+04
  0.149326909129E+05  0.320326728821E+02  0.111895748895E+04
  0.548812789917E+02  0.358810577393E+02  0.000000000000E+00
  0.530148696899E+02  0.340146598816E+02  0.000000000000E+00
  0.149307991615E+05  0.358810577393E+02  0.111852588422E+04
  0.149317166273E+05  0.340146598816E+02  0.111873520483E+04
  0.566182289124E+02  0.376179962158E+02  0.000000000000E+00
  0.548812789917E+02  0.358810577393E+02  0.000000000000E+00
  0.149299453338E+05  0.376179962158E+02  0.111833108267E+04
  0.149307991615E+05  0.358810577393E+02  0.111852588422E+04
  0.582170410156E+02  0.392168006897E+02  0.000000000000E+00
  0.566182289124E+02  0.376179962158E+02  0.000000000000E+00
  0.149291594100E+05  0.392168006897E+02  0.111815177348E+04
  0.149299453338E+05  0.376179962158E+02  0.111833108267E+04
  0.596738929749E+02  0.406736450195E+02  0.000000000000E+00
  0.582170410156E+02  0.392168006897E+02  0.000000000000E+00
  0.149284432693E+05  0.406736450195E+02  0.111798838533E+04
  0.149291594100E+05  0.392168006897E+02  0.111815177348E+04
  0.609892082214E+02  0.419889526367E+02  0.000000000000E+00
  0.596738929749E+02  0.406736450195E+02  0.000000000000E+00
  0.149277967033E+05  0.419889526367E+02  0.111784087075E+04
  0.149284432693E+05  0.406736450195E+02  0.111798838533E+04
  0.621668891907E+02  0.431666221619E+02  0.000000000000E+00
  0.609892082214E+02  0.419889526367E+02  0.000000000000E+00
  0.149272177939E+05  0.431666221619E+02  0.111770879205E+04
  0.149277967033E+05  0.419889526367E+02  0.111784087075E+04
  0.632134971619E+02  0.442132263184E+02  0.000000000000E+00
  0.621668891907E+02  0.431666221619E+02  0.000000000000E+00
  0.149267033157E+05  0.442132263184E+02  0.111759141339E+04
  0.149272177939E+05  0.431666221619E+02  0.111770879205E+04
  0.641374740601E+02  0.451371994019E+02  0.000000000000E+00
  0.632134971619E+02  0.442132263184E+02  0.000000000000E+00
  0.149262491188E+05  0.451371994019E+02  0.111748778799E+04
  0.149267033157E+05  0.442132263184E+02  0.111759141339E+04
  0.649484252930E+02  0.459481430054E+02  0.000000000000E+00
  0.641374740601E+02  0.451371994019E+02  0.000000000000E+00
  0.149258504817E+05  0.459481430054E+02  0.111739683858E+04
  0.149262491188E+05  0.451371994019E+02  0.111748778799E+04
  0.656565246582E+02  0.466562423706E+02  0.000000000000E+00
  0.649484252930E+02  0.459481430054E+02  0.000000000000E+00
  0.149255024033E+05  0.466562423706E+02  0.111731742417E+04
  0.149258504817E+05  0.459481430054E+02  0.111739683858E+04
  0.662720489502E+02  0.472717590332E+02  0.000000000000E+00
  0.656565246582E+02  0.466562423706E+02  0.000000000000E+00
  0.149251998317E+05  0.472717590332E+02  0.111724839219E+04
  0.149255024033E+05  0.466562423706E+02  0.111731742417E+04
  0.668050155640E+02  0.478047180176E+02  0.000000000000E+00
  0.662720489502E+02  0.472717590332E+02  0.000000000000E+00
  0.149249378427E+05  0.478047180176E+02  0.111718861919E+04
  0.149251998317E+05  0.472717590332E+02  0.111724839219E+04
  0.672649307251E+02  0.482646369934E+02  0.000000000000E+00
  0.668050155640E+02  0.478047180176E+02  0.000000000000E+00
  0.149247117635E+05  0.482646369934E+02  0.111713703901E+04
  0.149249378427E+05  0.478047180176E+02  0.111718861919E+04
  0.676606597900E+02  0.486603622437E+02  0.000000000000E+00
  0.672649307251E+02  0.482646369934E+02  0.000000000000E+00
  0.149245172360E+05  0.486603622437E+02  0.111709265740E+04
  0.149247117635E+05  0.482646369934E+02  0.111713703901E+04
  0.680002975464E+02  0.490000000000E+02  0.000000000000E+00
  0.676606597900E+02  0.486603622437E+02  0.000000000000E+00
  0.149243502812E+05  0.490000000000E+02  0.111705456651E+04
  0.149245172360E+05  0.486603622437E+02  0.111709265740E+04
POLYGONS                  78                 312
3                   0                   3                   1
3                   0                   2                   3
3                   4                   7                   5
3                   4                   6                   7
3                   8                  11                   9
3                   8                  10                  11
3                  12                  15                  13
3                  12                  14                  15
3                  16                  19                  17
3                  16                  18                  19
3                  20                  23                  21
3                  20                  22                  23
3                  24                  27                  25
3                  24                  26                  27
3                  28                  31                  29
3                  28                  30                  31
3                  32                  35                  33
3                  32                  34                  35
3                  36                  39                  37
3                  36                  38                  39
3                  40                  43                  41
3                  40                  42                  43
3                  44                  47                  45
3                  44                  46                  47
3                  48                  51                  49
3                  48                  50                  51
3                  52                  55                  53
3                  52                  54                  55
3                  56                  59                  57
3                  56                  58                  59
3                  60                  63                  61
3                  60                  62                  63
3                  64                  67                  65
3                  64                  66                  67
3                  68                  71                  69
3                  68                  70                  71
3                  72                  75                  73
3                  72                  74                  75
3                  76                  79                  77
3                  76                  78                  79
3                  80                  83                  81
3                  80                  82                  83
3                  84                  87                  85
3                  84                  86                  87
3                  88                  91                  89
3                  88                  90                  91
3                  92                  95                  93
3                  92                  94                  95
3                  96                  99                  97
3                  96                  98                  99
3                 100                 103                 101
3                 100                 102                 103
3                 104                 107                 105
3                 104                 106                 107
3                 108                 111                 109
3                 108                 110                 111
3                 112                 115                 113
3                 112                 114                 115
3                 116                 119                 117
3                 116                 118                 119
3                 120                 123                 121
3                 120                 122                 123
3                 124                 127                 125
3                 124                 126                 127
3                 128                 131                 129
3                 128                 130                 131
3                 132                 135                 133
3                 132                 134                 135
3                 136                 139                 137
3                 136                 138                 139
3                 140                 143                 141
3                 140                 142                 143
3                 144                 147                 145
3                 144                 146                 147
3                 148                 151                 149
3                 148                 150                 151
3                 152                 155                 153
3                 152                 154                 155
POINT_DATA                 156
SCALARS mu float 1
LOOKUP_TABLE default
 -0.683340066841E+00
  0.452753655047E-04
 -0.683340066841E+00
  0.452753655047E-04
 -0.103713747866E+01
 -0.683340066841E+00
 -0.103713747866E+01
 -0.683340066841E+00
 -0.126791744490E+01
 -0.103713747866E+01
 -0.126791744490E+01
 -0.103713747866E+01
 -0.143864598284E+01
 -0.126791744490E+01
 -0.143864598284E+01
 -0.126791744490E+01
 -0.157606941261E+01
 -0.143864598284E+01
 -0.157606941261E+01
 -0.143864598284E+01
 -0.169362341637E+01
 -0.157606941261E+01
 -0.169362341637E+01
 -0.157606941261E+01
 -0.179819953576E+01
 -0.169362341637E+01
 -0.179819953576E+01
 -0.169362341637E+01
 -0.189404465261E+01
 -0.179819953576E+01
 -0.189404465261E+01
 -0.179819953576E+01
 -0.198290147270E+01
 -0.189404465261E+01
 -0.198290147270E+01
 -0.189404465261E+01
 -0.206598858151E+01
 -0.198290147270E+01
 -0.206598858151E+01
 -0.198290147270E+01
 -0.214439148987E+01
 -0.206598858151E+01
 -0.214439148987E+01
 -0.206598858151E+01
 -0.221807647986E+01
 -0.214439148987E+01
 -0.221807647986E+01
 -0.214439148987E+01
 -0.228678966397E+01
 -0.221807647986E+01
 -0.228678966397E+01
 -0.221807647986E+01
 -0.235087673121E+01
 -0.228678966397E+01
 -0.235087673121E+01
 -0.228678966397E+01
 -0.240918530533E+01
 -0.235087673121E+01
 -0.240918530533E+01
 -0.235087673121E+01
 -0.246149798396E+01
 -0.240918530533E+01
 -0.246149798396E+01
 -0.240918530533E+01
 -0.250700985134E+01
 -0.246149798396E+01
 -0.250700985134E+01
 -0.246149798396E+01
 -0.254526734266E+01
 -0.250700985134E+01
 -0.254526734266E+01
 -0.250700985134E+01
 -0.257538370992E+01
 -0.254526734266E+01
 -0.257538370992E+01
 -0.254526734266E+01
 -0.259664053970E+01
 -0.257538370992E+01
 -0.259664053970E+01
 -0.257538370992E+01
 -0.260810100588E+01
 -0.259664053970E+01
 -0.260810100588E+01
 -0.259664053970E+01
 -0.260870580874E+01
 -0.260810100588E+01
 -0.260870580874E+01
 -0.260810100588E+01
 -0.259730350046E+01
 -0.260870580874E+01
 -0.259730350046E+01
 -0.260870580874E+01
 -0.257275264630E+01
 -0.259730350046E+01
 -0.257275264630E+01
 -0.259730350046E+01
 -0.253396141119E+01
 -0.257275264630E+01
 -0.253396141119E+01
 -0.257275264630E+01
 -0.247984629883E+01
 -0.253396141119E+01
 -0.247984629883E+01
 -0.253396141119E+01
 -0.240983576549E+01
 -0.247984629883E+01
 -0.240983576549E+01
 -0.247984629883E+01
 -0.232425023143E+01
 -0.240983576549E+01
 -0.232425023143E+01
 -0.240983576549E+01
 -0.222343169841E+01
 -0.232425023143E+01
 -0.222343169841E+01
 -0.232425023143E+01
 -0.210761604531E+01
 -0.222343169841E+01
 -0.210761604531E+01
 -0.222343169841E+01
 -0.197852767773E+01
 -0.210761604531E+01
 -0.197852767773E+01
 -0.210761604531E+01
 -0.183707625064E+01
 -0.197852767773E+01
 -0.183707625064E+01
 -0.197852767773E+01
 -0.168269068581E+01
 -0.183707625064E+01
 -0.168269068581E+01
 -0.183707625064E+01
 -0.151433134589E+01
 -0.168269068581E+01
 -0.151433134589E+01
 -0.168269068581E+01
 -0.132927207295E+01
 -0.151433134589E+01
 -0.132927207295E+01
 -0.151433134589E+01
 -0.112001225102E+01
 -0.132927207295E+01
 -0.112001225102E+01
 -0.132927207295E+01
 -0.869416083909E+00
 -0.112001225102E+01
 -0.869416083909E+00
 -0.112001225102E+01
 -0.533761469542E+00
 -0.869416083909E+00
 -0.533761469542E+00
 -0.869416083909E+00
  0.000000000000E+00
 -0.533761469542E+00
  0.000000000000E+00
 -0.533761469542E+00
