# vtk DataFile Version 3.0
MachLine results file. Generated by MachLine, USU AeroLab (c) 2022.
ASCII
DATASET POLYDATA
POINTS                7064 float
  0.248117048081E-05  0.000000000000E+00 -0.753360684505E-22
  0.390009530229E-01  0.000000000000E+00 -0.109216802644E+00
  0.390009530229E-01  0.000000000000E+00  0.109216802644E+00
  0.147667587429E+00  0.000000000000E+00 -0.234918546461E+00
  0.147667587429E+00  0.000000000000E+00  0.234918546461E+00
  0.161140126811E+00  0.161136763467E+00 -0.567342204492E-22
  0.200138918513E+00  0.161136784202E+00 -0.109217282026E+00
  0.200138918513E+00  0.161136784202E+00  0.109217282026E+00
  0.290267336203E+00  0.000000000000E+00 -0.347330612704E+00
  0.290267336203E+00  0.000000000000E+00  0.347330612704E+00
  0.308805753889E+00  0.161136845646E+00 -0.234918966854E+00
  0.308805753889E+00  0.161136845646E+00  0.234918966854E+00
  0.335007894265E+00  0.335004341377E+00 -0.119863089475E-22
  0.374006676601E+00  0.335004371478E+00 -0.109217238696E+00
  0.374006676601E+00  0.335004371478E+00  0.109217238696E+00
  0.451405695827E+00  0.161137052624E+00 -0.347330980480E+00
  0.451405695827E+00  0.161137052624E+00  0.347330980480E+00
  0.473467227553E+00  0.000000000000E+00 -0.436290954441E+00
  0.473467227553E+00  0.000000000000E+00  0.436290954441E+00
  0.482673530543E+00  0.335004444157E+00 -0.234918888772E+00
  0.482673530543E+00  0.335004444157E+00  0.234918888772E+00
  0.522508472950E+00  0.522504716366E+00  0.000000000000E+00
  0.561507275069E+00  0.522504756486E+00 -0.109217191547E+00
  0.561507275069E+00  0.522504756486E+00  0.109217191547E+00
  0.625273429732E+00  0.335004664083E+00 -0.347330881903E+00
  0.625273429732E+00  0.335004664083E+00  0.347330881903E+00
  0.634605647116E+00  0.161137252065E+00 -0.436291201616E+00
  0.634605647116E+00  0.161137252065E+00  0.436291201616E+00
  0.670174087105E+00  0.522504841270E+00 -0.234918819742E+00
  0.670174087105E+00  0.522504841270E+00  0.234918819742E+00
  0.689336105034E+00  0.000000000000E+00 -0.522846809678E+00
  0.689336105034E+00  0.000000000000E+00  0.522846809678E+00
  0.724592348672E+00  0.724588373564E+00 -0.536429592088E-22
  0.763591140102E+00  0.724588424374E+00 -0.109217140388E+00
  0.763591140102E+00  0.724588424374E+00  0.109217140388E+00
  0.808473398767E+00  0.335004875579E+00 -0.436291120216E+00
  0.808473398767E+00  0.335004875579E+00  0.436291120216E+00
  0.812774031945E+00  0.522505075150E+00 -0.347330805804E+00
  0.812774031945E+00  0.522505075150E+00  0.347330805804E+00
  0.850474557516E+00  0.161137351158E+00 -0.522846992743E+00
  0.850474557516E+00  0.161137351158E+00  0.522846992743E+00
  0.872257939128E+00  0.724588522168E+00 -0.234918744568E+00
  0.872257939128E+00  0.724588522168E+00  0.234918744568E+00
  0.942256171024E+00  0.942251961910E+00 -0.127801826535E-21
  0.944065572333E+00  0.000000000000E+00 -0.604289928279E+00
  0.944065572333E+00  0.000000000000E+00  0.604289928279E+00
  0.981254891470E+00  0.942252024099E+00 -0.109217085037E+00
  0.981254891470E+00  0.942252024099E+00  0.109217085037E+00
  0.995973988017E+00  0.522505299608E+00 -0.436291030581E+00
  0.995973988017E+00  0.522505299608E+00  0.436291030581E+00
  0.101485792856E+01  0.724588771058E+00 -0.347330722008E+00
  0.101485792856E+01  0.724588771058E+00  0.347330722008E+00
  0.102434236145E+01  0.335004981989E+00 -0.522846935900E+00
  0.102434236145E+01  0.335004981989E+00  0.522846935900E+00
  0.108992173615E+01  0.942252135844E+00 -0.234918677862E+00
  0.108992173615E+01  0.942252135844E+00  0.234918677862E+00
  0.110520403330E+01  0.161137444330E+00 -0.604290132511E+00
  0.110520403330E+01  0.161137444330E+00  0.604290132511E+00
  0.117654153149E+01  0.117653707225E+01  0.601761213589E-22
  0.119805781112E+01  0.724589009429E+00 -0.436290932283E+00
  0.119805781112E+01  0.724589009429E+00  0.436290932283E+00
  0.121184288325E+01  0.522505413871E+00 -0.522846810817E+00
  0.121184288325E+01  0.522505413871E+00  0.522846810817E+00
  0.121554029945E+01  0.117653714653E+01 -0.109217025314E+00
  0.121554029945E+01  0.117653714653E+01  0.109217025314E+00
  0.123252164987E+01  0.942252400848E+00 -0.347330630148E+00
  0.123252164987E+01  0.942252400848E+00  0.347330630148E+00
  0.123833332178E+01  0.000000000000E+00 -0.683992575719E+00
  0.123833332178E+01  0.000000000000E+00  0.683992575719E+00
  0.127907177119E+01  0.335005081612E+00 -0.604290012508E+00
  0.127907177119E+01  0.335005081612E+00  0.604290012508E+00
  0.132420706960E+01  0.117653727320E+01 -0.234918589542E+00
  0.132420706960E+01  0.117653727320E+01  0.234918589542E+00
  0.139947185373E+01  0.161137516738E+00 -0.683992760737E+00
  0.139947185373E+01  0.161137516738E+00  0.683992760737E+00
  0.141392675754E+01  0.724589132110E+00 -0.522846736253E+00
  0.141392675754E+01  0.724589132110E+00  0.522846736253E+00
  0.141572163672E+01  0.942252654127E+00 -0.436290824909E+00
  0.141572163672E+01  0.942252654127E+00  0.436290824909E+00
  0.142853317529E+01  0.142852844923E+01  0.127553543506E-21
  0.146657240526E+01  0.522505520421E+00 -0.604289943199E+00
  0.146657240526E+01  0.522505520421E+00  0.604289943199E+00
  0.146680696606E+01  0.117653755546E+01 -0.347330529873E+00
  0.146680696606E+01  0.117653755546E+01  0.347330529873E+00
  0.146753193045E+01  0.142852853631E+01 -0.109216961055E+00
  0.146753193045E+01  0.142852853631E+01  0.109216961055E+00
  0.157333958654E+01  0.335005159101E+00 -0.683992698276E+00
  0.157333958654E+01  0.335005159101E+00  0.683992698276E+00
  0.157619868467E+01  0.142852867891E+01 -0.234918494249E+00
  0.157619868467E+01  0.142852867891E+01  0.234918494249E+00
  0.157642056144E+01  0.000000000000E+00 -0.760516189264E+00
  0.157642056144E+01  0.000000000000E+00  0.760516189264E+00
  0.163159057413E+01  0.942252785815E+00 -0.522846592560E+00
  0.163159057413E+01  0.942252785815E+00  0.522846592560E+00
  0.165000693697E+01  0.117653782469E+01 -0.436290708060E+00
  0.165000693697E+01  0.117653782469E+01  0.436290708060E+00
  0.166865627212E+01  0.724589246086E+00 -0.604289804906E+00
  0.166865627212E+01  0.724589246086E+00  0.604289804906E+00
  0.169935572313E+01  0.169935071303E+01  0.169024916640E-22
  0.171879856266E+01  0.142852897964E+01 -0.347330420851E+00
  0.171879856266E+01  0.142852897964E+01  0.347330420851E+00
  0.173755909906E+01  0.161137591741E+00 -0.760516356356E+00
  0.173755909906E+01  0.161137591741E+00  0.760516356356E+00
  0.173835434555E+01  0.169935081364E+01 -0.109216899558E+00
  0.173835434555E+01  0.169935081364E+01  0.109216899558E+00
  0.176084021515E+01  0.522505603365E+00 -0.683992567137E+00
  0.176084021515E+01  0.522505603365E+00  0.683992567137E+00
  0.184702120201E+01  0.169935097321E+01 -0.234918391742E+00
  0.184702120201E+01  0.169935097321E+01  0.234918391742E+00
  0.186587586475E+01  0.117653796600E+01 -0.522846498523E+00
  0.186587586475E+01  0.117653796600E+01  0.522846498523E+00
  0.188632008077E+01  0.942252907738E+00 -0.604289716380E+00
  0.188632008077E+01  0.942252907738E+00  0.604289716380E+00
  0.190199851656E+01  0.142852926588E+01 -0.436290581359E+00
  0.190199851656E+01  0.142852926588E+01  0.436290581359E+00
  0.191142682723E+01  0.335005238732E+00 -0.760516232872E+00
  0.191142682723E+01  0.335005238732E+00  0.760516232872E+00
  0.196138828406E+01  0.000000000000E+00 -0.833664252954E+00
  0.196138828406E+01  0.000000000000E+00  0.833664252954E+00
  0.196292407617E+01  0.724589334880E+00 -0.683992486046E+00
  0.196292407617E+01  0.724589334880E+00  0.683992486046E+00
  0.198962106032E+01  0.169935129362E+01 -0.347330302783E+00
  0.198962106032E+01  0.169935129362E+01  0.347330302783E+00
  0.199017003531E+01  0.199016472345E+01 -0.179204840377E-22
  0.202916876266E+01  0.199016483834E+01 -0.109216825788E+00
  0.202916876266E+01  0.199016483834E+01  0.109216825788E+00
  0.209892745088E+01  0.522505687967E+00 -0.760516159807E+00
  0.209892745088E+01  0.522505687967E+00  0.760516159807E+00
  0.211786743409E+01  0.142852941745E+01 -0.522846394139E+00
  0.211786743409E+01  0.142852941745E+01  0.522846394139E+00
  0.212060548212E+01  0.117653809641E+01 -0.604289617574E+00
  0.212060548212E+01  0.117653809641E+01  0.604289617574E+00
  0.212252694648E+01  0.161137667481E+00 -0.833664346748E+00
  0.212252694648E+01  0.161137667481E+00  0.833664346748E+00
  0.213783548188E+01  0.199016501594E+01 -0.234918296716E+00
  0.213783548188E+01  0.199016501594E+01  0.234918296716E+00
  0.217282099607E+01  0.169935159800E+01 -0.436290474266E+00
  0.217282099607E+01  0.169935159800E+01  0.436290474266E+00
  0.218058787856E+01  0.942253002792E+00 -0.683992394927E+00
  0.218058787856E+01  0.942253002792E+00  0.683992394927E+00
  0.228043543846E+01  0.199016535729E+01 -0.347330175398E+00
  0.228043543846E+01  0.199016535729E+01  0.347330175398E+00
  0.229639467055E+01  0.335005318579E+00 -0.833664281975E+00
  0.229639467055E+01  0.335005318579E+00  0.833664281975E+00
  0.230101130656E+01  0.724589424811E+00 -0.760516077064E+00
  0.230101130656E+01  0.724589424811E+00  0.760516077064E+00
  0.230216808568E+01  0.230216245402E+01 -0.227993093794E-21
  0.234116679803E+01  0.230216258391E+01 -0.109216747083E+00
  0.234116679803E+01  0.230216258391E+01  0.109216747083E+00
  0.237259704239E+01  0.142852955692E+01 -0.604289508070E+00
  0.237259704239E+01  0.142852955692E+01  0.604289508070E+00
  0.238869002190E+01  0.169935176048E+01 -0.522846219438E+00
  0.238869002190E+01  0.169935176048E+01  0.522846219438E+00
  0.239635584192E+01  0.000000000000E+00 -0.902056088369E+00
  0.239635584192E+01  0.000000000000E+00  0.902056088369E+00
  0.241487327321E+01  0.117653819815E+01 -0.683992293322E+00
  0.241487327321E+01  0.117653819815E+01  0.683992293322E+00
  0.244983373656E+01  0.230216278062E+01 -0.234918179192E+00
  0.244983373656E+01  0.230216278062E+01  0.234918179192E+00
  0.246363523572E+01  0.199016568095E+01 -0.436290326871E+00
  0.246363523572E+01  0.199016568095E+01  0.436290326871E+00
[...]
POINT_DATA                7064
SCALARS phi float 1
LOOKUP_TABLE default
 -0.247418631949E-05
 -0.307022337374E-01
 -0.470801073580E-01
 -0.129638029366E+00
 -0.164865816409E+00
 -0.160686538870E+00
 -0.191386581427E+00
 -0.207764526935E+00
 -0.263407865282E+00
 -0.315492679538E+00
 -0.290322581883E+00
 -0.325550431968E+00
 -0.334064891775E+00
 -0.364764928241E+00
 -0.381142867250E+00
 -0.424092614364E+00
 -0.476177483771E+00
 -0.439421940237E+00
 -0.504847020817E+00
 -0.463700949816E+00
 -0.498928788192E+00
 -0.521037681367E+00
 -0.551737741096E+00
 -0.568115673035E+00
 -0.597470941204E+00
 -0.649555795829E+00
 -0.600106758132E+00
 -0.665531875778E+00
 -0.650673722523E+00
 -0.685901550547E+00
 -0.648193327827E+00
 -0.726598104057E+00
 -0.722552717962E+00
 -0.753252770867E+00
 -0.769630695135E+00
 -0.773485101381E+00
 -0.838910206820E+00
 -0.784443759964E+00
 -0.836528603177E+00
 -0.808878183355E+00
 -0.887282987037E+00
 -0.852188741122E+00
 -0.887416557873E+00
 -0.939603845718E+00
 -0.896099264347E+00
 -0.986717043260E+00
 -0.970303831989E+00
 -0.986681747957E+00
 -0.960457908229E+00
 -0.102588300023E+01
 -0.985958823677E+00
 -0.103804365432E+01
 -0.982256576901E+00
 -0.106066137206E+01
 -0.106923984862E+01
 -0.110446765537E+01
 -0.105678412675E+01
 -0.114740193629E+01
 -0.117322972417E+01
 -0.116197289972E+01
 -0.122739797698E+01
 -0.116922931914E+01
 -0.124763409554E+01
 -0.120392976231E+01
 -0.122030766932E+01
 -0.120300985756E+01
 -0.125509467443E+01
 -0.118356268634E+01
 -0.128613247131E+01
 -0.123016245917E+01
 -0.132078025071E+01
 -0.130286570676E+01
 -0.133809350027E+01
 -0.134424762097E+01
 -0.144681743369E+01
 -0.137074435990E+01
 -0.144914912512E+01
 -0.137902403877E+01
 -0.144444909992E+01
 -0.142451204514E+01
 -0.141713530919E+01
 -0.150775309034E+01
 -0.143663569938E+01
 -0.148872050122E+01
 -0.145521207533E+01
 -0.147158997270E+01
 -0.151762594401E+01
 -0.162019574736E+01
 -0.155414800622E+01
 -0.158937578544E+01
 -0.151496061245E+01
 -0.162900568366E+01
 -0.158779549269E+01
 -0.166620023636E+01
 -0.161264986594E+01
 -0.167807490958E+01
 -0.161865034732E+01
 -0.170926810773E+01
 -0.169457226368E+01
 -0.168791798147E+01
 -0.174000276696E+01
 -0.167564555407E+01
 -0.178969065033E+01
 -0.172527216611E+01
 -0.174165005426E+01
 -0.170459879322E+01
 -0.180716857691E+01
 -0.182420820203E+01
 -0.185943596587E+01
 -0.182142130855E+01
 -0.189982603812E+01
 -0.183570146804E+01
 -0.192631921518E+01
 -0.186393213238E+01
 -0.192935715701E+01
 -0.184902387706E+01
 -0.196306895481E+01
 -0.189336015365E+01
 -0.201837432222E+01
 -0.190611382123E+01
 -0.200868359276E+01
 -0.195797815881E+01
 -0.201006292659E+01
 -0.198456797239E+01
 -0.201526798500E+01
 -0.203164586209E+01
 -0.203599671697E+01
 -0.215004178376E+01
 -0.207270356309E+01
 -0.215110827701E+01
 -0.206932739468E+01
 -0.215994512700E+01
 -0.205404522522E+01
 -0.217905940785E+01
 -0.211420388566E+01
 -0.214943163525E+01
 -0.213399229081E+01
 -0.219941729938E+01
 -0.212316493591E+01
 -0.222573469377E+01
 -0.224797394285E+01
 -0.230005869153E+01
 -0.222742353972E+01
 -0.235243771264E+01
 -0.223751173978E+01
 -0.235155679416E+01
 -0.229568778992E+01
 -0.232638779345E+01
 -0.234276565874E+01
 -0.232060964057E+01
 -0.241122735647E+01
 -0.234276383458E+01
 -0.242116852230E+01
 -0.232197540316E+01
 -0.245724543723E+01
 -0.235679085608E+01
 -0.245936059870E+01
 -0.242532391573E+01
 -0.246055164769E+01
 -0.242398793825E+01
 -0.248941292472E+01
 -0.241439649417E+01
 -0.253941065599E+01
 -0.245456284892E+01
 -0.256860788936E+01
 -0.248266059189E+01
 -0.261793064718E+01
 -0.255909371444E+01
 -0.261117844259E+01
 -0.262914517943E+01
 -0.259066989839E+01
 -0.268128759621E+01
 -0.260807309509E+01
 -0.271064282084E+01
 -0.265984517299E+01
 -0.267622302684E+01
 -0.263275946887E+01
 -0.271116413767E+01
 -0.261591151234E+01
 -0.274092566160E+01
 -0.265603890279E+01
 -0.279130894830E+01
 -0.268818876314E+01
 -0.280223378806E+01
 -0.273510792879E+01
 -0.280053289155E+01
 -0.275878127767E+01
 -0.279400899309E+01
 -0.280312685641E+01
 -0.294790988600E+01
 -0.283296261649E+01
 -0.295797675166E+01
 -0.284301185785E+01
 -0.297828188323E+01
 -0.289255129336E+01
 -0.294463599952E+01
 -0.288066552292E+01
 -0.297128320094E+01
 -0.287813334558E+01
 -0.298070305276E+01
 -0.294387944561E+01
 -0.302228409380E+01
 -0.298617048413E+01
 -0.293947123356E+01
 -0.305351624130E+01
 -0.301687046737E+01
 -0.303324830903E+01
 -0.296381180951E+01
 -0.310859485886E+01
 -0.306856524785E+01
 -0.313399018972E+01
 -0.304452687188E+01
 -0.317979688462E+01
 -0.306658852542E+01
 -0.319160264487E+01
 -0.311580655356E+01
 -0.315103425127E+01
 -0.313719012180E+01
 -0.328197315240E+01
 -0.316812920008E+01
 -0.327069888694E+01
 -0.319178548931E+01
 -0.328240314579E+01
 -0.320953147733E+01
 -0.332357646615E+01
 -0.324957654731E+01
 -0.330166123002E+01
 -0.327733675244E+01
 -0.335574137830E+01
 -0.326157796713E+01
 -0.339684797460E+01
 -0.336800189278E+01
 -0.331787099017E+01
 -0.344288509224E+01
 -0.332416306909E+01
 -0.346894608848E+01
 -0.339870186539E+01
 -0.341507969409E+01
 -0.333826512148E+01
 -0.349174408179E+01
 -0.342559047857E+01
 -0.349101539790E+01
 -0.349763769445E+01
 -0.353286537327E+01
 -0.347924892048E+01
 -0.358181858524E+01
 -0.349952732466E+01
 -0.361357229281E+01
 -0.349520410906E+01
 -0.363047410072E+01
 -0.352524278522E+01
 -0.361586041836E+01
 -0.349895032222E+01
 -0.365242929189E+01
 -0.352567831732E+01
 -0.367046132402E+01
 -0.358793122789E+01
 -0.371294531083E+01
 -0.363140766284E+01
 -0.368349232509E+01
 -0.363436220803E+01
 -0.371276680981E+01
 -0.367232862269E+01
 -0.382580759147E+01
 -0.377587426559E+01
 -0.374648633100E+01
 -0.388175630516E+01
 -0.380657422784E+01
 -0.382295204172E+01
 -0.374272940877E+01
 -0.388751241017E+01
 -0.380742181200E+01
 -0.387284670266E+01
 -0.381270644542E+01
 -0.391527608624E+01
 -0.381064727523E+01
 -0.392469222087E+01
 -0.390551003608E+01
 -0.394073769485E+01
 -0.388226822927E+01
 -0.397288583727E+01
 -0.385930157133E+01
 -0.401278051995E+01
 -0.387792706434E+01
 -0.400294113531E+01
 -0.392809192484E+01
 -0.408903102617E+01
 -0.397635530889E+01
 -0.412113829443E+01
 -0.401619352568E+01
 -0.409459810163E+01
 -0.403928021795E+01
 -0.409136485381E+01
 -0.401654680107E+01
 -0.415181675599E+01
 -0.406081681176E+01
 -0.421429575662E+01
 -0.408877736013E+01
 -0.424971648705E+01
 -0.414410478768E+01
 -0.425814971790E+01
 -0.421100677137E+01
 -0.416973164256E+01
 -0.427230125759E+01
 -0.421529434169E+01
 -0.428071920649E+01
 -0.424170695963E+01
 -0.425808476018E+01
 -0.418904677036E+01
 -0.431406081858E+01
 -0.422763776424E+01
 -0.437242073224E+01
 -0.426409953481E+01
 -0.435471711585E+01
 -0.426215566652E+01
 -0.442309477467E+01
 -0.427786790856E+01
 -0.443134683025E+01
 -0.434064274730E+01
 -0.437587038488E+01
 -0.430654263179E+01
 -0.444181257460E+01
 -0.442406556566E+01
 -0.450247011406E+01
 -0.447441290152E+01
 -0.452649751403E+01
 -0.444912884074E+01
 -0.461006794660E+01
 -0.450113021410E+01
 -0.461517511808E+01
 -0.449769846297E+01
 -0.464248142061E+01
 -0.452250428009E+01
 -0.464751830367E+01
 -0.451149427587E+01
 -0.466497319063E+01
 -0.455156317171E+01
 -0.465413276804E+01
 -0.457224518784E+01
 -0.473891695451E+01
 -0.467458933584E+01
 -0.465042700101E+01
 -0.471585183834E+01
 -0.461766280723E+01
 -0.475293272713E+01
 -0.470528951270E+01
 -0.472166729808E+01
 -0.467197203759E+01
 -0.476258958988E+01
 -0.465064408663E+01
 -0.481158317086E+01
 -0.473293015297E+01
 -0.489960194320E+01
 -0.480422527729E+01
 -0.483945289480E+01
 -0.476277672266E+01
 -0.491625562880E+01
 -0.478769429324E+01
 -0.493247722978E+01
 -0.485919868115E+01
 -0.493760320923E+01
 -0.488296125886E+01
 -0.499700614366E+01
 -0.487952969446E+01
 -0.500454370045E+01
 -0.486769517078E+01
 -0.502863424970E+01
 -0.493799540389E+01
 -0.499007999166E+01
 -0.490630893172E+01
 -0.507298070319E+01
 -0.495943566436E+01
 -0.506200523122E+01
 -0.495112030605E+01
 -0.508639021010E+01
 -0.503283694154E+01
 -0.518631583730E+01
 -0.511400947585E+01
 -0.517943428862E+01
 -0.510710466431E+01
 -0.519772219503E+01
 -0.516776433512E+01
 -0.509881398350E+01
 -0.524359690601E+01
 -0.509328162708E+01
 -0.525995339627E+01
 -0.510132106756E+01
 -0.526226012168E+01
 -0.519846450042E+01
 -0.521484226995E+01
 -0.529740024225E+01
 -0.533262783642E+01
 -0.526136120674E+01
 -0.538637519322E+01
 -0.529083373772E+01
 -0.540487860147E+01
 -0.526802031610E+01
 -0.543820081384E+01
 -0.532278114276E+01
 -0.540118563992E+01
 -0.530814571364E+01
 -0.544341559991E+01
 -0.529479686936E+01
 -0.546146861693E+01
 -0.532283277165E+01
 -0.547631163735E+01
 -0.535260398558E+01
 -0.551354303109E+01
 -0.539456828050E+01
 -0.549713782502E+01
 -0.543117033905E+01
 -0.548325490076E+01
 -0.543227195678E+01
 -0.557705485442E+01
 -0.542870528619E+01
 -0.559888580526E+01
 -0.551184842513E+01
 -0.567852016741E+01
 -0.557068711207E+01
 -0.566130461056E+01
 -0.560718438473E+01
 -0.567260916697E+01
 -0.560208406170E+01
 -0.577226456203E+01
 -0.569161114209E+01
 -0.562266419993E+01
 -0.578360323507E+01
 -0.563395293249E+01
 -0.578743178414E+01
 -0.572231081968E+01
 -0.573868857385E+01
 -0.566923367723E+01
 -0.579424764232E+01
 -0.568997722324E+01
 -0.582524708088E+01
 -0.572596682408E+01
 -0.584001165600E+01
 -0.574547430881E+01
 -0.591214604419E+01
 -0.582124701294E+01
 -0.585647458501E+01
 -0.581595603559E+01
 -0.589436050026E+01
 -0.578929735853E+01
 -0.593408023832E+01
 -0.578905722905E+01
 -0.595923772714E+01
 -0.585815071279E+01
 -0.596072023321E+01
 -0.595501660459E+01
 -0.600710113900E+01
 -0.591266001628E+01
 -0.607359903923E+01
 -0.596741042059E+01
 -0.612088925628E+01
 -0.599057246757E+01
 -0.616075294407E+01
 -0.599675723135E+01
 -0.616342894026E+01
 -0.601038779485E+01
 -0.618135040837E+01
 -0.606386198606E+01
 -0.615447945963E+01
 -0.613103109856E+01
 -0.619645584888E+01
 -0.609784968623E+01
 -0.623311952227E+01
 -0.610436675037E+01
 -0.622938069220E+01
 -0.617112885754E+01
 -0.631591171754E+01
 -0.618954924619E+01
 -0.630359405343E+01
 -0.624712354042E+01
 -0.617107277139E+01
 -0.634203540451E+01
 -0.627782368179E+01
 -0.629420141890E+01
 -0.620762354383E+01
 -0.637780401507E+01
 -0.622378017200E+01
 -0.638471918089E+01
 -0.626681744097E+01
 -0.643348913952E+01
 -0.633980272835E+01
 -0.641820716801E+01
 -0.637675937427E+01
 -0.641198692336E+01
 -0.632443629235E+01
 -0.647791511016E+01
 -0.635132605083E+01
 -0.645389554549E+01
 -0.634445154339E+01
 -0.651541415780E+01
 -0.644124989871E+01
 -0.661143036308E+01
 -0.651052941088E+01
 -0.656261391686E+01
 -0.653298227156E+01
 -0.666825209305E+01
 -0.653142470697E+01
 -0.670238731919E+01
 -0.656794916336E+01
 -0.669296308013E+01
 -0.658770866396E+01
 -0.667832611109E+01
 -0.655723813016E+01
 -0.671817712309E+01
 -0.655681372779E+01
 -0.672348541418E+01
 -0.657900131410E+01
 -0.672378415240E+01
 -0.668654339908E+01
 -0.675196812067E+01
 -0.668272457369E+01
 -0.679676935455E+01
 -0.669253234117E+01
 -0.686271277911E+01
 -0.670626778556E+01
 -0.685974658355E+01
 -0.673293994145E+01
 -0.690390253212E+01
 -0.683519213121E+01
 -0.686589226033E+01
 -0.688226998098E+01
 -0.679386612571E+01
 -0.696217587519E+01
 -0.687517271690E+01
 -0.697774218423E+01
 -0.689531548948E+01
 -0.697371989385E+01
 -0.686793387817E+01
 -0.703460555052E+01
 -0.696482792750E+01
 -0.700005545281E+01
 -0.691426352070E+01
 -0.707520249573E+01
 -0.694999101338E+01
 -0.712095359886E+01
 -0.695455109908E+01
 -0.712286084846E+01
 -0.696259302138E+01
 -0.713277344901E+01
 -0.699656515187E+01
 -0.713183494805E+01
 -0.701413436819E+01
 -0.715891719183E+01
 -0.706112448138E+01
 -0.718613837135E+01
 -0.709859793277E+01
 -0.715068240936E+01
 -0.714322140532E+01
 -0.723383882462E+01
 -0.711414023604E+01
 -0.726761901227E+01
 -0.712792985915E+01
 -0.729623960777E+01
 -0.720657074887E+01
 -0.732061551071E+01
 -0.718361736363E+01
 -0.735457994229E+01
 -0.720139135519E+01
 -0.736806301161E+01
 -0.727461188998E+01
 -0.734003658174E+01
 -0.725258930299E+01
 -0.742276971850E+01
 -0.729609548337E+01
 -0.745703443857E+01
 -0.731490302849E+01
 -0.748321275709E+01
 -0.745657818075E+01
 -0.743068544606E+01
 -0.753325488464E+01
 -0.748727782223E+01
 -0.750365552601E+01
 -0.743490027664E+01
 -0.760586282893E+01
 -0.748338348510E+01
 -0.756178786194E+01
 -0.747771724149E+01
 -0.762250003969E+01
 -0.748974046140E+01
 -0.762501023053E+01
 -0.751641825060E+01
 -0.768472797560E+01
 -0.758621393909E+01
 -0.762144143998E+01
 -0.754927327930E+01
 -0.770275204976E+01
 -0.755841721524E+01
 -0.772508885378E+01
 -0.758497112673E+01
 -0.770998498830E+01
 -0.756370944784E+01
 -0.773388984935E+01
 -0.760916513145E+01
 -0.777250625716E+01
 -0.771998391239E+01
 -0.777206835874E+01
 -0.773128986073E+01
 -0.782190725098E+01
 -0.770396792750E+01
 -0.786490686094E+01
 -0.770496095158E+01
 -0.787592349362E+01
 -0.773346980328E+01
 -0.790177950528E+01
 -0.776208394230E+01
 -0.787612867471E+01
 -0.776985057940E+01
 -0.793319170317E+01
 -0.789599783799E+01
 -0.796142249898E+01
 -0.789716691899E+01
 -0.806734730462E+01
 -0.794024869612E+01
 -0.810692031484E+01
 -0.794322933731E+01
 -0.810657046037E+01
 -0.797089253926E+01
 -0.811567531921E+01
 -0.796709614959E+01
 -0.813540584486E+01
 -0.801875341348E+01
 -0.812132282205E+01
 -0.799495675207E+01
 -0.816591928206E+01
 -0.801358709350E+01
 -0.814885684288E+01
 -0.801285662145E+01
 -0.816633536641E+01
 -0.811189174779E+01
 -0.810476941295E+01
 -0.818317376128E+01
 -0.814259232830E+01
 -0.815897001489E+01
 -0.814048383009E+01
 -0.826549767072E+01
 -0.813020250430E+01
 -0.829354360741E+01
 -0.813910097306E+01
 -0.830003988282E+01
 -0.824152841900E+01
 -0.827675589496E+01
 -0.821837904946E+01
 -0.838668873631E+01
 -0.825419324833E+01
 -0.842437361613E+01
 -0.830607689095E+01
 -0.847703940703E+01
 -0.835267577256E+01
 -0.844329313274E+01
 -0.837529788210E+01
 -0.842738230206E+01
 -0.835015284917E+01
 -0.846419755089E+01
 -0.833171819941E+01
 -0.849505929899E+01
 -0.834812160019E+01
 -0.851479321504E+01
 -0.844643417932E+01
 -0.860258370045E+01
 -0.849473963929E+01
 -0.863952239934E+01
 -0.848843924442E+01
 -0.865674892112E+01
 -0.850603144129E+01
 -0.865951015899E+01
 -0.855131225335E+01
 -0.861673688286E+01
 -0.854876926500E+01
 -0.871211035952E+01
 -0.856910026329E+01
 -0.870436999143E+01
 -0.860268382384E+01
 -0.876362272595E+01
 -0.860712009971E+01
 -0.876326961711E+01
 -0.864013978806E+01
 -0.874270916559E+01
 -0.863602519817E+01
 -0.880620554620E+01
 -0.863953483127E+01
 -0.881049733154E+01
 -0.872855224665E+01
 -0.885356606504E+01
 -0.876008333239E+01
 -0.883848765146E+01
 -0.880156885973E+01
 -0.883226942860E+01
 -0.884864709778E+01
 -0.878049885570E+01
 -0.893664837245E+01
 -0.877843599114E+01
 -0.894674565589E+01
 -0.878239609288E+01
 -0.894573716287E+01
 -0.878325463882E+01
 -0.894992623000E+01
 -0.893120454078E+01
 -0.896643199372E+01
 -0.897153825652E+01
 -0.908558293541E+01
 -0.896747202066E+01
 -0.912362151751E+01
 -0.900798967573E+01
 -0.909860700505E+01
 -0.899656115394E+01
 -0.916752363647E+01
 -0.906497492318E+01
 -0.911705931188E+01
 -0.902987852972E+01
 -0.918335723637E+01
 -0.903367803869E+01
 -0.919701910036E+01
 -0.905025185479E+01
 -0.919503458451E+01
 -0.904389809537E+01
 -0.921407843957E+01
 -0.908955612495E+01
 -0.925786577589E+01
 -0.909585958747E+01
 -0.925679846228E+01
 -0.915716867503E+01
 -0.929243837168E+01
 -0.916898676258E+01
 -0.932513625596E+01
 -0.924098926205E+01
 -0.930641385963E+01
 -0.924683749130E+01
 -0.941350905696E+01
 -0.929545367380E+01
 -0.939802302842E+01
 -0.929510719507E+01
 -0.944217646043E+01
 -0.930373918139E+01
 -0.946708023299E+01
 -0.934993859888E+01
 -0.947495238501E+01
 -0.937839309673E+01
 -0.954935555958E+01
 -0.938603877678E+01
 -0.954218826517E+01
 -0.944976032050E+01
 -0.952816460982E+01
 -0.942301405990E+01
 -0.959132369514E+01
 -0.952584393400E+01
 -0.945579214035E+01
 -0.960286123394E+01
 -0.947903112680E+01
 -0.964921144738E+01
 -0.955654354005E+01
 -0.957292119285E+01
 -0.958539168884E+01
 -0.973887036506E+01
 -0.965547957729E+01
 -0.969070700486E+01
 -0.959373592463E+01
 -0.975707696437E+01
 -0.962685308131E+01
 -0.974089773654E+01
 -0.961966560214E+01
 -0.977581506607E+01
 -0.961970666842E+01
 -0.978064553215E+01
 -0.962917089940E+01
 -0.977623999028E+01
 -0.963832120059E+01
 -0.978310391652E+01
 -0.969766664741E+01
 -0.978828394537E+01
 -0.978924992454E+01
 -0.984133428627E+01
 -0.974001323845E+01
 -0.990668479470E+01
 -0.977855500884E+01
 -0.991382469078E+01
 -0.978004037690E+01
 -0.994834999451E+01
 -0.978626598652E+01
 -0.995722844563E+01
 -0.981614405836E+01
 -0.996321314557E+01
 -0.987094754525E+01
 -0.100270970009E+02
 -0.990485605481E+01
 -0.100681970808E+02
 -0.996526423089E+01
 -0.100306888008E+02
 -0.994261396285E+01
 -0.101127942758E+02
 -0.998513063245E+01
 -0.100876999547E+02
 -0.100052534129E+02
 -0.101302671749E+02
 -0.100176597541E+02
 -0.101647288367E+02
 -0.101436507694E+02
 -0.102804338214E+02
 -0.101740362219E+02
 -0.102524404813E+02
 -0.101410086850E+02
 -0.102971581307E+02
 -0.101618723137E+02
 -0.103301819118E+02
 -0.101734610271E+02
 -0.103269396894E+02
 -0.101752198198E+02
 -0.103361586530E+02
 -0.102847293317E+02
 -0.102213990102E+02
 -0.103923614458E+02
 -0.102347117710E+02
 -0.103817808477E+02
 -0.102383139858E+02
 -0.104016549963E+02
 -0.103154289269E+02
 -0.103318065623E+02
 -0.102597075307E+02
 -0.104044902228E+02
 -0.102638603206E+02
 -0.104305318478E+02
 -0.103043366567E+02
 -0.104411197218E+02
 -0.103165300278E+02
 -0.104305746499E+02
 -0.104143649367E+02
 -0.104495923412E+02
 -0.104219425323E+02
 -0.105125597987E+02
 -0.104338698133E+02
 -0.105691394707E+02
 -0.104310054252E+02
 -0.105871548592E+02
 -0.104357897111E+02
 -0.106059699969E+02
 -0.104683376391E+02
 -0.106154067088E+02
 -0.104777154200E+02
 -0.106144984800E+02
 -0.105481342990E+02
 -0.106002186339E+02
 -0.105697452062E+02
 -0.107380547827E+02
 -0.105953402987E+02
 -0.107586812916E+02
 -0.106646885786E+02
 -0.108014716419E+02
 -0.107241485752E+02
 -0.107895731131E+02
 -0.106949303442E+02
 -0.108199440815E+02
 -0.107094064998E+02
 -0.108119757984E+02
 -0.106849827891E+02
 -0.108559452172E+02
 -0.107196205357E+02
 -0.108666895971E+02
 -0.107421255610E+02
 -0.108982749635E+02
 -0.107632891501E+02
 -0.109242279695E+02
 -0.107948473450E+02
 -0.109483259924E+02
 -0.108193734549E+02
 -0.109860449696E+02
 -0.108662042740E+02
 -0.110029873399E+02
 -0.109329205456E+02
 -0.110113247751E+02
 -0.109150213758E+02
 -0.110598040432E+02
 -0.109809936969E+02
 -0.111064062888E+02
 -0.109596367761E+02
 -0.111298170508E+02
 -0.109771722312E+02
 -0.111405132046E+02
 -0.109896816734E+02
 -0.111367507341E+02
 -0.110779892054E+02
 -0.110048782232E+02
 -0.111731877763E+02
 -0.110408049321E+02
 -0.111548495298E+02
 -0.111086887899E+02
 -0.111250664092E+02
 -0.110832562906E+02
 -0.112200393584E+02
 -0.110755834887E+02
 -0.112317328756E+02
 -0.111235467347E+02
 -0.112588163671E+02
 -0.111416795941E+02
 -0.112670921935E+02
 -0.112076247729E+02
 -0.112428521547E+02
 -0.111808268351E+02
 -0.112714440790E+02
 -0.111781585289E+02
 -0.113491209299E+02
 -0.112796784157E+02
 -0.114267474652E+02
 -0.113413950526E+02
 -0.113934793611E+02
 -0.113150583527E+02
 -0.114404709560E+02
 -0.113168821537E+02
 -0.114536652314E+02
 -0.113846754600E+02
 -0.115456142642E+02
 -0.113850451190E+02
 -0.115483860711E+02
 -0.114192052331E+02
 -0.115442189543E+02
 -0.114074427770E+02
 -0.115741142777E+02
 -0.114326097979E+02
 -0.115887591674E+02
 -0.114682907894E+02
 -0.115708600645E+02
 -0.114501611868E+02
 -0.116036398004E+02
 -0.115174092967E+02
 -0.115828338076E+02
 -0.114684619952E+02
 -0.116367715410E+02
 -0.115020315110E+02
 -0.116274441175E+02
 -0.115151508621E+02
 -0.116853311064E+02
 -0.115681650497E+02
 -0.117049481275E+02
 -0.115907985402E+02
 -0.117378675860E+02
 -0.116046992356E+02
 -0.117494818866E+02
 -0.117261812490E+02
 -0.118045854493E+02
 -0.117035472061E+02
 -0.118289598151E+02
 -0.117020055852E+02
 -0.118729679752E+02
 -0.117964445084E+02
 -0.119101221709E+02
 -0.117996901563E+02