# vtk DataFile Version 3.0
MachLine results file. Generated by MachLine, USU AeroLab (c) 2022.
ASCII
DATASET POLYDATA
POINTS                7064 float
  0.000000000000E+00  0.000000000000E+00  0.000000000000E+00
  0.389988087118E-01  0.000000000000E+00 -0.109218262136E+00
  0.389988087118E-01  0.000000000000E+00  0.109218262136E+00
  0.147665724158E+00  0.000000000000E+00 -0.234920635819E+00
  0.147665724158E+00  0.000000000000E+00  0.234920635819E+00
  0.161138445139E+00  0.161138445139E+00  0.000000000000E+00
  0.200137257576E+00  0.161138445139E+00 -0.109218269587E+00
  0.200137257576E+00  0.161138445139E+00  0.109218269587E+00
  0.290265858173E+00  0.000000000000E+00 -0.347333192825E+00
  0.290265858173E+00  0.000000000000E+00  0.347333192825E+00
  0.308804154396E+00  0.161138445139E+00 -0.234920650721E+00
  0.308804154396E+00  0.161138445139E+00  0.234920650721E+00
  0.335006117821E+00  0.335006117821E+00  0.000000000000E+00
  0.374004930258E+00  0.335006117821E+00 -0.109218277037E+00
  0.374004930258E+00  0.335006117821E+00  0.109218277037E+00
  0.451404303312E+00  0.161138445139E+00 -0.347333222628E+00
  0.451404303312E+00  0.161138445139E+00  0.347333222628E+00
  0.473465979099E+00  0.000000000000E+00 -0.436293870211E+00
  0.473465979099E+00  0.000000000000E+00  0.436293870211E+00
  0.482671856880E+00  0.335006117821E+00 -0.234920650721E+00
  0.482671856880E+00  0.335006117821E+00  0.234920650721E+00
  0.522506594658E+00  0.522506594658E+00  0.000000000000E+00
  0.561505436897E+00  0.522506594658E+00 -0.109218284488E+00
  0.561505436897E+00  0.522506594658E+00  0.109218284488E+00
  0.625271975994E+00  0.335006117821E+00 -0.347333222628E+00
  0.625271975994E+00  0.335006117821E+00  0.347333222628E+00
  0.634604454041E+00  0.161138445139E+00 -0.436293900013E+00
  0.634604454041E+00  0.161138445139E+00  0.436293900013E+00
  0.670172333717E+00  0.522506594658E+00 -0.234920665622E+00
  0.670172333717E+00  0.522506594658E+00  0.234920665622E+00
  0.689334988594E+00  0.000000000000E+00 -0.522850036621E+00
  0.689334988594E+00  0.000000000000E+00  0.522850036621E+00
  0.724590361118E+00  0.724590361118E+00  0.000000000000E+00
  0.763589203358E+00  0.724590361118E+00 -0.109218291938E+00
  0.763589203358E+00  0.724590361118E+00  0.109218291938E+00
  0.808472156525E+00  0.335006117821E+00 -0.436293929815E+00
  0.808472156525E+00  0.335006117821E+00  0.436293929815E+00
  0.812772512436E+00  0.522506594658E+00 -0.347333252430E+00
  0.812772512436E+00  0.522506594658E+00  0.347333252430E+00
  0.850473463535E+00  0.161138445139E+00 -0.522850036621E+00
  0.850473463535E+00  0.161138445139E+00  0.522850036621E+00
  0.872256100178E+00  0.724590361118E+00 -0.234920680523E+00
  0.872256100178E+00  0.724590361118E+00  0.234920680523E+00
  0.942254066467E+00  0.942254066467E+00  0.000000000000E+00
  0.944064557552E+00  0.000000000000E+00 -0.604293465614E+00
  0.944064557552E+00  0.000000000000E+00  0.604293465614E+00
  0.981252849102E+00  0.942254066467E+00 -0.109218299389E+00
  0.981252849102E+00  0.942254066467E+00  0.109218299389E+00
  0.995972692966E+00  0.522506594658E+00 -0.436293959618E+00
  0.995972692966E+00  0.522506594658E+00  0.436293959618E+00
  0.101485633850E+01  0.724590361118E+00 -0.347333282232E+00
  0.101485633850E+01  0.724590361118E+00  0.347333282232E+00
  0.102434122562E+01  0.335006117821E+00 -0.522850096226E+00
  0.102434122562E+01  0.335006117821E+00  0.522850096226E+00
  0.108991980553E+01  0.942254066467E+00 -0.234920710325E+00
  0.108991980553E+01  0.942254066467E+00  0.234920710325E+00
  0.110520303249E+01  0.161138445139E+00 -0.604293525219E+00
  0.110520303249E+01  0.161138445139E+00  0.604293525219E+00
  0.117653930187E+01  0.117653930187E+01  0.000000000000E+00
  0.119805645943E+01  0.724590361118E+00 -0.436293989420E+00
  0.119805645943E+01  0.724590361118E+00  0.436293989420E+00
  0.121184170246E+01  0.522506594658E+00 -0.522850096226E+00
  0.121184170246E+01  0.522506594658E+00  0.522850096226E+00
  0.121553814411E+01  0.117653930187E+01 -0.109218306839E+00
  0.121553814411E+01  0.117653930187E+01  0.109218306839E+00
  0.123251998425E+01  0.942254066467E+00 -0.347333312035E+00
  0.123251998425E+01  0.942254066467E+00  0.347333312035E+00
  0.123833239079E+01  0.000000000000E+00 -0.683996438980E+00
  0.123833239079E+01  0.000000000000E+00  0.683996438980E+00
  0.127907073498E+01  0.335006117821E+00 -0.604293525219E+00
  0.127907073498E+01  0.335006117821E+00  0.604293525219E+00
  0.132420504093E+01  0.117653930187E+01 -0.234920725226E+00
  0.132420504093E+01  0.117653930187E+01  0.234920725226E+00
  0.139947092533E+01  0.161138445139E+00 -0.683996498585E+00
  0.139947092533E+01  0.161138445139E+00  0.683996498585E+00
  0.141392552853E+01  0.724590361118E+00 -0.522850155830E+00
  0.141392552853E+01  0.724590361118E+00  0.522850155830E+00
  0.141572022438E+01  0.942254066467E+00 -0.436294019222E+00
  0.141572022438E+01  0.942254066467E+00  0.436294019222E+00
  0.142853081226E+01  0.142853081226E+01  0.000000000000E+00
  0.146657133102E+01  0.522506594658E+00 -0.604293584824E+00
  0.146657133102E+01  0.522506594658E+00  0.604293584824E+00
  0.146680521965E+01  0.117653930187E+01 -0.347333341837E+00
  0.146680521965E+01  0.117653930187E+01  0.347333341837E+00
  0.146752965450E+01  0.142853081226E+01 -0.109218314290E+00
  0.146752965450E+01  0.142853081226E+01  0.109218314290E+00
  0.157333862782E+01  0.335006117821E+00 -0.683996558189E+00
  0.157333862782E+01  0.335006117821E+00  0.683996558189E+00
  0.157619655132E+01  0.142853081226E+01 -0.234920740128E+00
  0.157619655132E+01  0.142853081226E+01  0.234920740128E+00
  0.157641971111E+01  0.000000000000E+00 -0.760520398617E+00
  0.157641971111E+01  0.000000000000E+00  0.760520398617E+00
  0.163158929348E+01  0.942254066467E+00 -0.522850155830E+00
  0.163158929348E+01  0.942254066467E+00  0.522850155830E+00
  0.165000545979E+01  0.117653930187E+01 -0.436294049025E+00
  0.165000545979E+01  0.117653930187E+01  0.436294049025E+00
  0.166865515709E+01  0.724590361118E+00 -0.604293584824E+00
  0.166865515709E+01  0.724590361118E+00  0.604293584824E+00
  0.169935321808E+01  0.169935321808E+01  0.000000000000E+00
  0.171879673004E+01  0.142853081226E+01 -0.347333371639E+00
  0.171879673004E+01  0.142853081226E+01  0.347333371639E+00
  0.173755824566E+01  0.161138445139E+00 -0.760520458221E+00
  0.173755824566E+01  0.161138445139E+00  0.760520458221E+00
  0.173835194111E+01  0.169935321808E+01 -0.109218329191E+00
  0.173835194111E+01  0.169935321808E+01  0.109218329191E+00
  0.176083922386E+01  0.522506594658E+00 -0.683996558189E+00
  0.176083922386E+01  0.522506594658E+00  0.683996558189E+00
  0.184701895714E+01  0.169935321808E+01 -0.234920755029E+00
  0.184701895714E+01  0.169935321808E+01  0.234920755029E+00
  0.186587452888E+01  0.117653930187E+01 -0.522850215435E+00
  0.186587452888E+01  0.117653930187E+01  0.522850215435E+00
  0.188631892204E+01  0.942254066467E+00 -0.604293644428E+00
  0.188631892204E+01  0.942254066467E+00  0.604293644428E+00
  0.190199697018E+01  0.142853081226E+01 -0.436294078827E+00
  0.190199697018E+01  0.142853081226E+01  0.436294078827E+00
  0.191142594814E+01  0.335006117821E+00 -0.760520458221E+00
  0.191142594814E+01  0.335006117821E+00  0.760520458221E+00
  0.196138751507E+01  0.000000000000E+00 -0.833668828011E+00
  0.196138751507E+01  0.000000000000E+00  0.833668828011E+00
  0.196292304993E+01  0.724590361118E+00 -0.683996617794E+00
  0.196292304993E+01  0.724590361118E+00  0.683996617794E+00
  0.198961913586E+01  0.169935321808E+01 -0.347333401442E+00
  0.198961913586E+01  0.169935321808E+01  0.347333401442E+00
  0.199016737938E+01  0.199016737938E+01  0.000000000000E+00
  0.202916622162E+01  0.199016737938E+01 -0.109218336642E+00
  0.202916622162E+01  0.199016737938E+01  0.109218336642E+00
  0.209892654419E+01  0.522506594658E+00 -0.760520517826E+00
  0.209892654419E+01  0.522506594658E+00  0.760520517826E+00
  0.211786603928E+01  0.142853081226E+01 -0.522850275040E+00
  0.211786603928E+01  0.142853081226E+01  0.522850275040E+00
  0.212060427666E+01  0.117653930187E+01 -0.604293704033E+00
  0.212060427666E+01  0.117653930187E+01  0.604293704033E+00
  0.212252616882E+01  0.161138445139E+00 -0.833668828011E+00
  0.212252616882E+01  0.161138445139E+00  0.833668828011E+00
  0.213783311844E+01  0.199016737938E+01 -0.234920784831E+00
  0.213783311844E+01  0.199016737938E+01  0.234920784831E+00
  0.217281937599E+01  0.169935321808E+01 -0.436294138432E+00
  0.217281937599E+01  0.169935321808E+01  0.436294138432E+00
  0.218058681488E+01  0.942254066467E+00 -0.683996677399E+00
  0.218058681488E+01  0.942254066467E+00  0.683996677399E+00
  0.228043341637E+01  0.199016737938E+01 -0.347333431244E+00
  0.228043341637E+01  0.199016737938E+01  0.347333431244E+00
  0.229639387131E+01  0.335006117821E+00 -0.833668887615E+00
  0.229639387131E+01  0.335006117821E+00  0.833668887615E+00
  0.230101037025E+01  0.724590361118E+00 -0.760520577431E+00
  0.230101037025E+01  0.724590361118E+00  0.760520577431E+00
  0.230216526985E+01  0.230216526985E+01  0.000000000000E+00
  0.234116411209E+01  0.230216526985E+01 -0.109218344092E+00
  0.234116411209E+01  0.230216526985E+01  0.109218344092E+00
  0.237259578705E+01  0.142853081226E+01 -0.604293763638E+00
  0.237259578705E+01  0.142853081226E+01  0.604293763638E+00
  0.238868856430E+01  0.169935321808E+01 -0.522850275040E+00
  0.238868856430E+01  0.169935321808E+01  0.522850275040E+00
  0.239635515213E+01  0.000000000000E+00 -0.902061045170E+00
  0.239635515213E+01  0.000000000000E+00  0.902061045170E+00
  0.241487216949E+01  0.117653930187E+01 -0.683996737003E+00
  0.241487216949E+01  0.117653930187E+01  0.683996737003E+00
  0.244983124733E+01  0.230216526985E+01 -0.234920799732E+00
  0.244983124733E+01  0.230216526985E+01  0.234920799732E+00
  0.246363353729E+01  0.199016737938E+01 -0.436294168234E+00
  0.246363353729E+01  0.199016737938E+01  0.436294168234E+00
[...]
CELL_DATA               13888
SCALARS C_p_inc float 1
LOOKUP_TABLE default
  0.209368811646E+00
  0.172830113643E+00
  0.144514581993E+00
  0.115545421138E+00
  0.110603942936E+00
  0.919077165506E-01
  0.875274335640E-01
  0.751387646162E-01
  0.705501331749E-01
  0.616302495205E-01
  0.567641197872E-01
  0.499449925891E-01
  0.448309515750E-01
  0.393895340752E-01
  0.340303880138E-01
  0.295230781198E-01
  0.238170677375E-01
  0.199140691590E-01
  0.136298624607E-01
  0.100749713102E-01
  0.328290009736E-02
  0.454337711924E-04
 -0.687536184232E-02
 -0.974906678342E-02
 -0.169344815813E-01
 -0.196299936253E-01
 -0.281331759575E-01
 -0.310297618870E-01
 -0.396185482838E-01
 -0.421763342937E-01
 -0.512643724846E-01
 -0.539183626187E-01
 -0.649019271492E-01
 -0.679407490088E-01
 -0.763802739695E-01
 -0.783313917973E-01
 -0.870716513771E-01
 -0.894941435052E-01
 -0.953759868694E-01
 -0.966207251940E-01
 -0.103468667393E+00
 -0.101937256004E+00
 -0.106071418446E+00
 -0.105794149857E+00
 -0.102966538893E+00
 -0.103851963455E+00
 -0.990801973684E-01
 -0.100367489980E+00
 -0.775832808962E-01
 -0.840565088766E-01
 -0.466366837695E-01
 -0.546179020873E-01
 -0.126769952563E-01
 -0.220793020239E-01
  0.233523039108E-01
  0.126303277680E-01
  0.599976965046E-01
  0.481698126949E-01
  0.954363586393E-01
  0.824601111344E-01
  0.133011300605E+00
  0.117070686430E+00
  0.177011583782E+00
  0.156809141039E+00
  0.226552977820E+00
  0.202185844716E+00
  0.284314732240E+00
  0.254584318804E+00
  0.346952553467E+00
  0.312245064777E+00
  0.428601776890E+00
  0.386259386090E+00
  0.518738121363E+00
  0.472828932874E+00
  0.655170258837E+00
  0.622041220741E+00
  0.780710668458E+00
  0.782239441944E+00
  0.825899921303E+00
  0.819001494944E+00
  0.622712393604E+00
  0.667432478973E+00
  0.339581993104E+00
  0.439317674423E+00
  0.702156150514E-01
  0.212867083623E+00
 -0.826684372924E-01
  0.282786237485E-01
 -0.127067519892E+00
 -0.474703430653E-01
 -0.175378737810E+00
 -0.121500835915E+00
 -0.208757210189E+00
 -0.168048889594E+00
 -0.241960508516E+00
 -0.212280425476E+00
 -0.269262355736E+00
 -0.246930681449E+00
 -0.291678843235E+00
 -0.275984079706E+00
 -0.309401091681E+00
 -0.297821204151E+00
 -0.328710589227E+00
 -0.318416886327E+00
 -0.350888415956E+00
 -0.341871922639E+00
 -0.372545905673E+00
 -0.365109908671E+00
 -0.391762804146E+00
 -0.386016483623E+00
 -0.407379564994E+00
 -0.403401629072E+00
 -0.406783300555E+00
 -0.409251229013E+00
 -0.391246887576E+00
 -0.393792566545E+00
 -0.375330768569E+00
 -0.379005723350E+00
 -0.353649525683E+00
 -0.358574339640E+00
 -0.334297515449E+00
 -0.330041387543E+00
 -0.311060257401E+00
 -0.305559871546E+00
 -0.284183559877E+00
 -0.279387954785E+00
 -0.259362298320E+00
 -0.253390580107E+00
 -0.231316537399E+00
 -0.225874422386E+00
 -0.206898253667E+00
 -0.201600541332E+00
 -0.183987423823E+00
 -0.178299022726E+00
 -0.161515852346E+00
 -0.156020162155E+00
 -0.141408004995E+00
 -0.135632990817E+00
 -0.121941487672E+00
 -0.115642300931E+00
 -0.102690238303E+00
 -0.958772905219E-01
 -0.840595587321E-01
 -0.766454907214E-01
 -0.660127533609E-01
 -0.576491209446E-01
 -0.479324640534E-01
 -0.381746656910E-01
 -0.292628226690E-01
 -0.175147522987E-01
 -0.942198642189E-02
  0.526263056578E-02
  0.124850788794E-01
  0.318263273558E-01
  0.382440114385E-01
  0.656440264011E-01
  0.722400213447E-01
  0.112242559032E+00
  0.144370968767E+00
  0.191663981671E+00
  0.207946540936E+00
  0.206987220732E+00
  0.150845872252E+00
  0.144051583431E+00
  0.123324385374E+00
  0.110485318818E+00
  0.997492064601E-01
  0.874857443352E-01
  0.802609886404E-01
  0.705302146212E-01
  0.643430816943E-01
  0.567528597487E-01
  0.508846507823E-01
  0.448239890346E-01
  0.390160046381E-01
  0.340258483096E-01
  0.280672549264E-01
  0.238141886936E-01
  0.173878260531E-01
  0.136288208827E-01
  0.666980224415E-02
  0.328387639849E-02
 -0.381831178548E-02
 -0.687311077721E-02
 -0.140908845814E-01
 -0.169312316428E-01
 -0.253303935674E-01
 -0.281267499385E-01
 -0.369962100534E-01
 -0.396116100515E-01
 -0.486883540296E-01
 -0.512553940688E-01
 -0.623136605700E-01
 -0.648892169540E-01
 -0.743653184446E-01
 -0.763808581041E-01
 -0.851973665462E-01
 -0.870750750880E-01
 -0.942198032469E-01
 -0.954070998256E-01
 -0.102036145666E+00
 -0.101110690454E+00
 -0.105906521645E+00
 -0.106011868134E+00
 -0.103957744243E+00
 -0.105272636475E+00
 -0.100496215893E+00
 -0.103131856384E+00
 -0.840183407201E-01
 -0.899700261495E-01
 -0.544740307477E-01
 -0.623169833269E-01
 -0.218681546744E-01
 -0.310391412282E-01
  0.128763750261E-01
  0.260069347641E-02
  0.484120857820E-01
  0.371882257663E-01
  0.826874735981E-01
  0.703992763423E-01
  0.117285139322E+00
  0.103285465561E+00
  0.156854342133E+00
  0.140744183540E+00
  0.201720480824E+00
  0.183668100378E+00
  0.252862598397E+00
  0.233349537529E+00
  0.308197486962E+00
  0.287917612934E+00
  0.376042971772E+00
  0.357006554441E+00
  0.451698336369E+00
  0.435830319372E+00
  0.562751020938E+00
  0.557769962601E+00
  0.672192282819E+00
  0.673553850860E+00
  0.682227447714E+00
  0.668776921879E+00
  0.476336620412E+00
  0.496126553886E+00
  0.234225387120E+00
  0.280271375590E+00
 -0.114022970361E-01
  0.554906886447E-01
 -0.149116734035E+00
 -0.769192599073E-01
 -0.181348462174E+00
 -0.123259953402E+00
 -0.220185713734E+00
 -0.172667096717E+00
 -0.244917724865E+00
 -0.207178548739E+00
 -0.271117441796E+00
 -0.241156503799E+00
 -0.292398115768E+00
 -0.268961632677E+00
 -0.309756736088E+00
 -0.291718885570E+00
 -0.323772996734E+00
 -0.309555835163E+00
 -0.340803583806E+00
 -0.328860247728E+00
 -0.361205352504E+00
 -0.351075998218E+00
 -0.381093696864E+00
 -0.372804872533E+00
 -0.398414961876E+00
 -0.392109990164E+00
 -0.411577963833E+00
 -0.407867168272E+00
 -0.406887743343E+00
 -0.407410101786E+00
 -0.389757001528E+00
 -0.391711312365E+00
 -0.372495221785E+00
 -0.375728900127E+00
 -0.349695146328E+00
 -0.353962800359E+00
 -0.330054024788E+00
 -0.325958457634E+00
 -0.305529451110E+00
 -0.300726205731E+00
 -0.279361963477E+00
 -0.274488592134E+00
 -0.253346672980E+00
 -0.247883269438E+00
 -0.225843308818E+00
 -0.220429528348E+00
 -0.201576449249E+00
 -0.196115262772E+00
 -0.178278377370E+00
 -0.172584691747E+00
 -0.156007511943E+00
 -0.150203543629E+00
 -0.135623704802E+00
 -0.129479027304E+00
 -0.115636603986E+00
 -0.108980100384E+00
 -0.958763262274E-01
 -0.886146709824E-01
 -0.766488342324E-01
 -0.685911029318E-01
 -0.576564010448E-01
 -0.484651484042E-01
 -0.381871977332E-01
 -0.274112588811E-01
 -0.175358240513E-01
 -0.457114349042E-02
  0.522541610810E-02
  0.211476192113E-01
  0.317507457241E-01
  0.510809330784E-01
  0.654415845206E-01
  0.857780945247E-01
  0.111507847847E+00
  0.124599837268E+00
  0.188285306891E+00
  0.190885296802E+00
  0.200893794570E+00
  0.206548014576E+00
  0.150401154276E+00
  0.150212089101E+00
  0.127302016466E+00
  0.122997913417E+00
  0.107175285856E+00
  0.996091097114E-01
  0.886373237523E-01
  0.801989154232E-01
  0.719325341236E-01
  0.643116458599E-01
  0.572906510328E-01
  0.508668183090E-01
  0.443818510563E-01
  0.390051449946E-01
  0.326349806719E-01
  0.280606140868E-01
  0.213801067951E-01
  0.173847436098E-01
  0.102414173963E-01
  0.667038136890E-02
 -0.588870490452E-03
 -0.381485025692E-02
 -0.111199310104E-01
 -0.140853863456E-01
 -0.224946045644E-01
 -0.253210200276E-01
 -0.343099785453E-01
 -0.369834001535E-01
 -0.461282281081E-01
 -0.486728286019E-01
 -0.598431154253E-01
 -0.622937915581E-01
 -0.723061258647E-01
 -0.743555742845E-01
 -0.834825883908E-01
 -0.851980459035E-01
 -0.930925716092E-01
 -0.942543027733E-01
 -0.101257369941E+00
 -0.100545426702E+00
 -0.106149603076E+00
 -0.106370910782E+00
 -0.105359415449E+00
 -0.106829543506E+00
 -0.103144446715E+00
 -0.106096046147E+00
 -0.897306439105E-01
 -0.951983238285E-01
 -0.619123291938E-01
 -0.694288530489E-01
 -0.305660375548E-01
 -0.393787713676E-01
  0.306962375805E-02
 -0.672551364931E-02
  0.375889595743E-01
  0.270006196597E-01
  0.707103185311E-01
  0.593282372572E-01
  0.103451835085E+00
  0.910848668655E-01
  0.140515340057E+00
  0.127086007339E+00
  0.182633709623E+00
  0.168398311656E+00
  0.230777075054E+00
  0.216397128907E+00
  0.282921350793E+00
  0.269137098850E+00
  0.347251471797E+00
  0.335728017168E+00
  0.419229211950E+00
  0.411104600170E+00
  0.526288607247E+00
  0.524706062430E+00
  0.627680797812E+00
  0.627199360311E+00
  0.620676544897E+00
  0.607023544501E+00
  0.403010918242E+00
  0.419483224991E+00
  0.167067213986E+00
  0.201858930169E+00
 -0.724924477871E-01
 -0.220708007381E-01
 -0.202342496090E+00
 -0.145845346019E+00
 -0.226000855670E+00
 -0.177803344702E+00
 -0.258248928097E+00
 -0.216520929593E+00
 -0.276827707838E+00
 -0.242143427704E+00
 -0.297787553911E+00
 -0.269054654356E+00
 -0.314338433672E+00
 -0.290999395094E+00
 -0.327689480690E+00
 -0.308874532045E+00
 -0.338601061507E+00
 -0.323225624885E+00
 -0.353341482055E+00
 -0.340441337880E+00
 -0.371840324285E+00
 -0.360997799254E+00
 -0.389868086530E+00
 -0.381063355490E+00
 -0.405169096813E+00
 -0.398599869857E+00
 -0.415611243854E+00
 -0.412082255254E+00
 -0.407828393479E+00
 -0.407667224083E+00
 -0.388836011392E+00
 -0.390468386702E+00
 -0.370103973667E+00
 -0.373162346691E+00
 -0.346224546641E+00
 -0.350262269323E+00
 -0.325952551967E+00
 -0.321959247818E+00
 -0.300672057408E+00
 -0.296091250177E+00
 -0.274426646110E+00
 -0.269507288665E+00
 -0.247813646108E+00
 -0.242459963216E+00
 -0.220375881884E+00
 -0.214922372637E+00
 -0.196071625439E+00
 -0.190453572870E+00
 -0.172551489849E+00
 -0.166710031373E+00
 -0.150180785804E+00
 -0.144098462476E+00
 -0.129462582493E+00
 -0.122965403276E+00
 -0.108971096816E+00
 -0.101922353995E+00
 -0.886141872853E-01
 -0.808774098108E-01
 -0.685987767072E-01
 -0.599468947907E-01
 -0.484821059154E-01
 -0.386070796135E-01
 -0.274423756236E-01
 -0.160167444328E-01
 -0.462805201385E-02
  0.853830671153E-02
  0.210357157778E-01
  0.354526571905E-01
  0.508355243890E-01
  0.644029785106E-01
  0.852243388659E-01
  0.950174859253E-01
  0.123551616229E+00
  0.129243741782E+00
  0.188994211789E+00
  0.194811635623E+00
  0.200947567476E+00
  0.200259942934E+00
  0.149607833603E+00
  0.149893610501E+00
  0.128142164710E+00
  0.126939087750E+00
  0.110406361919E+00
  0.106950209401E+00
  0.940102628116E-01
  0.885147427629E-01
  0.782611042193E-01
  0.718685752995E-01
  0.634471660704E-01
  0.572559814026E-01
  0.498838318017E-01
  0.443620480626E-01
  0.374352794414E-01
  0.326236087106E-01
  0.255909915097E-01
  0.213748278177E-01
  0.139955645787E-01
  0.102415991619E-01
  0.280194889212E-02
 -0.584336902754E-03
 -0.801923909768E-02
 -0.111122683241E-01
 -0.195917295113E-01
 -0.224823200470E-01
 -0.315687401070E-01
 -0.342929351207E-01
 -0.435568091185E-01
 -0.461083520978E-01
 -0.574256175477E-01
 -0.598195944067E-01
 -0.702247475033E-01
 -0.722913944296E-01
 -0.818365765119E-01
 -0.834857678750E-01
 -0.919856987958E-01
 -0.931322746908E-01
 -0.100715516161E+00
 -0.100103030116E+00
 -0.106520144001E+00
 -0.106795228017E+00
 -0.106903109175E+00
 -0.108419968457E+00
 -0.106048177607E+00
 -0.109076277127E+00
 -0.949066611441E-01
 -0.999841106375E-01
 -0.689468892838E-01
 -0.760243343481E-01
 -0.388295297028E-01
 -0.472043285888E-01
 -0.620599136462E-02
 -0.154730046500E-01
  0.274109000988E-01
  0.174960731729E-01
  0.595902178921E-01
  0.491197893669E-01
  0.911189412473E-01
  0.801132598569E-01
  0.126643558346E+00
  0.115228519976E+00
  0.167111709546E+00
  0.155588034836E+00
  0.213679425909E+00
  0.202636314529E+00
  0.264364259968E+00
  0.254449109313E+00
  0.327425438081E+00
  0.319840728167E+00
  0.398279204109E+00
  0.393698313812E+00
  0.503417174688E+00
  0.502981596164E+00
  0.598950464617E+00
  0.597449797110E+00
  0.578976343974E+00
  0.565486763302E+00
  0.349653395293E+00
  0.364814549577E+00
  0.115083703356E+00
  0.144525109649E+00
 -0.122430146523E+00
 -0.803397907955E-01
 -0.247467419190E+00
 -0.199875479633E+00
 -0.264725352753E+00
 -0.222872439611E+00
 -0.292040351039E+00
 -0.254688073484E+00
 -0.305874028069E+00
 -0.273846769604E+00
 -0.322680249019E+00
 -0.295355007082E+00
 -0.335423817547E+00
 -0.312506618548E+00
 -0.345469598120E+00
 -0.326370014089E+00
 -0.353630889221E+00
 -0.337677303471E+00
 -0.366152945835E+00
 -0.352695553524E+00
 -0.382717672365E+00
 -0.371429054740E+00
 -0.398816164513E+00
 -0.389711827174E+00
 -0.411959209218E+00
 -0.405323909761E+00
 -0.419659438043E+00
 -0.416187928916E+00
 -0.409249962259E+00
 -0.408691174533E+00
 -0.388290857508E+00
 -0.389705136234E+00
 -0.368023986055E+00
 -0.370951648360E+00
 -0.343050196477E+00
 -0.346968309990E+00
 -0.321959752216E+00
 -0.318048028959E+00
 -0.296033791333E+00
 -0.291556805035E+00
 -0.269426953465E+00
 -0.264480157668E+00
 -0.242373902005E+00
 -0.237049144727E+00
 -0.214851535780E+00
 -0.209325245125E+00
 -0.190393862418E+00
 -0.184628059476E+00
 -0.166664172191E+00
 -0.160636385518E+00
 -0.144065317688E+00
 -0.137702540552E+00
 -0.122941467337E+00
 -0.116105192888E+00
 -0.101909386535E+00
 -0.944752160360E-01
 -0.808770190324E-01
 -0.726958452959E-01
 -0.599600199867E-01
 -0.508411565642E-01
 -0.386379004647E-01
 -0.284248976414E-01
 -0.160767680525E-01
 -0.482700868779E-02
  0.842358948982E-02
  0.200945307452E-01
  0.352319331766E-01
  0.459084654814E-01
  0.639984215044E-01
  0.722021288209E-01
  0.943583164635E-01
  0.997361824034E-01
  0.128260096867E+00
  0.131139305050E+00
  0.192908360577E+00
  0.191630564950E+00
  0.198898472608E+00
  0.200207887051E+00
  0.149035735291E+00
  0.149197360568E+00
  0.128354356748E+00
  0.127822919910E+00
  0.111797388770E+00
  0.110167235245E+00
  0.969562979533E-01
  0.938475537577E-01
  0.826565988063E-01
  0.781614873592E-01
  0.686206335758E-01
  0.633899075879E-01
  0.550927383073E-01
  0.498513513136E-01
  0.422689372178E-01
  0.374171641064E-01
  0.299429705466E-01
  0.255824701218E-01
  0.179046089278E-01
  0.139947114220E-01
  0.633826940424E-02
  0.280702493558E-02
 -0.479294853663E-02
 -0.800986957155E-02
 -0.166054385384E-01
 -0.195770627308E-01
 -0.287744937357E-01
 -0.315486325165E-01
 -0.409587976571E-01
 -0.435337982403E-01
 -0.550288937844E-01
 -0.574000789432E-01
 -0.681391500959E-01
 -0.702077909585E-01
 -0.802099065141E-01
 -0.818426491855E-01
 -0.908966424168E-01
 -0.920314204378E-01
 -0.100291934209E+00
 -0.997093499146E-01
 -0.106954235976E+00
 -0.107250557777E+00
 -0.108489881330E+00
 -0.109984410794E+00
 -0.109000568117E+00
 -0.111973424448E+00
 -0.996805468351E-01
 -0.104426253587E+00
 -0.755269341966E-01
 -0.820749080687E-01
 -0.466354871360E-01
 -0.544723836278E-01
 -0.149473465105E-01
 -0.236128094767E-01
  0.178867179356E-01
  0.868793181638E-02
  0.493238092993E-01
  0.397492231603E-01
  0.800443941828E-01
  0.702259086412E-01
  0.114662540876E+00
  0.104837956167E+00
  0.154220560177E+00
  0.144709809426E+00
  0.200016681622E+00
  0.191316740381E+00
  0.250149100194E+00
  0.242774555067E+00
  0.312884655742E+00
  0.307694793932E+00
  0.383605681304E+00
  0.380973488312E+00
  0.487543056800E+00
  0.487621383102E+00
  0.578277693754E+00
  0.576224329475E+00
  0.547227877189E+00
  0.534071180809E+00
  0.306807610431E+00
  0.321395588574E+00
  0.717710227518E-01
  0.981638115274E-01
 -0.165472822942E+00
 -0.128420592981E+00
 -0.287240064688E+00
 -0.245394068133E+00
 -0.299337148540E+00
 -0.261935405149E+00
 -0.322733168457E+00
 -0.288718794872E+00
 -0.332721786583E+00
 -0.302921612071E+00
 -0.346138758742E+00
 -0.320129595078E+00
 -0.355731538315E+00
 -0.333373755391E+00
 -0.362956794012E+00
 -0.343890003368E+00
 -0.368624041037E+00
 -0.352466510988E+00
 -0.379014745086E+00
 -0.365318786477E+00
 -0.393650621292E+00
 -0.382178326005E+00
 -0.407775776901E+00
 -0.398600677003E+00
 -0.418674416614E+00
 -0.412138626708E+00
 -0.423796354108E+00
 -0.420308668411E+00
 -0.410983668012E+00
 -0.410186797570E+00
 -0.388025543346E+00
 -0.389287551183E+00
 -0.366203394214E+00
 -0.369016934428E+00
 -0.340080334395E+00
 -0.343942681894E+00
 -0.318068673314E+00
 -0.314229414651E+00
 -0.291505622763E+00
 -0.287070942089E+00
 -0.264392458872E+00
 -0.259434511726E+00
 -0.236953721672E+00
 -0.231617141355E+00
 -0.209242070342E+00
 -0.203623724079E+00
 -0.184556128288E+00
 -0.178643307228E+00
 -0.160579884341E+00
 -0.154346951435E+00
 -0.137660440419E+00
 -0.131023285168E+00
 -0.116075040527E+00
 -0.108922506609E+00
 -0.944595444058E-01
 -0.866847949161E-01
 -0.726974045800E-01
 -0.641910111079E-01
 -0.508633133306E-01
 -0.415684566362E-01
 -0.284764315375E-01
 -0.185359667095E-01
 -0.492702715800E-02
  0.511218724281E-02
  0.199134648904E-01
  0.290653527934E-01
  0.456057722857E-01
  0.529327078434E-01
  0.717442943646E-01
  0.769284913684E-01
  0.990955517003E-01
  0.102326737252E+00
  0.130278806613E+00
  0.131960104241E+00
  0.190452061753E+00
  0.191475648656E+00
  0.196012850127E+00
  0.198356248593E+00
  0.148150701309E+00
  0.148676521992E+00
  0.128274930419E+00
  0.128072280505E+00
  0.112475298500E+00
  0.111573765094E+00
  0.985965098317E-01
  0.967849880629E-01
  0.854500249324E-01
  0.825348406863E-01
  0.724729736113E-01
  0.685415598821E-01
  0.595595967959E-01
  0.550450023438E-01
  0.468342596394E-01
  0.422418187376E-01
  0.342816257456E-01
  0.299297607389E-01
  0.219000583250E-01
  0.179018220981E-01
  0.998736174721E-02
  0.634323160406E-02
 -0.145557086405E-02
 -0.478242378400E-02
 -0.135321700584E-01
 -0.165889145071E-01
 -0.259236368494E-01
 -0.287521673225E-01
 -0.383257196051E-01
 -0.409334896725E-01
 -0.526310289522E-01
 -0.550021619865E-01
 -0.660519245183E-01
 -0.681214282425E-01
 -0.785753452415E-01
 -0.802176163122E-01
 -0.898105513169E-01
 -0.909470694632E-01
 -0.999135740775E-01
 -0.993147868851E-01
 -0.107416922570E+00
 -0.107696099028E+00
 -0.110054970167E+00
 -0.111472035371E+00
 -0.111887857650E+00
 -0.114714151028E+00
 -0.104125460034E+00
 -0.108537396693E+00
 -0.815921151044E-01
 -0.875773781472E-01
 -0.539161753459E-01
 -0.611402130264E-01
 -0.231056960499E-01
 -0.311149206880E-01
  0.904645439129E-02
  0.585876149659E-03
  0.399005333329E-01
  0.311952467764E-01
  0.700855337986E-01
  0.613298414335E-01
  0.104211654337E+00
  0.956948330247E-01
  0.143353283139E+00
  0.135398569896E+00
  0.188888640329E+00
  0.181914764835E+00
  0.238981812186E+00
  0.233387071126E+00
  0.301867868847E+00
  0.298263987558E+00
  0.372889484509E+00
  0.371459241116E+00
  0.475961119415E+00
  0.476315179663E+00
  0.562494151651E+00
  0.560141124490E+00
  0.521447605993E+00
  0.508659801533E+00
  0.270387610852E+00
  0.284739361513E+00
  0.340239906989E-01
  0.584999314529E-01
 -0.203861655730E+00
 -0.170162044897E+00
 -0.323229416465E+00
 -0.285400993043E+00
 -0.330934986812E+00
 -0.296820638617E+00
 -0.351069802791E+00
 -0.319670293164E+00
 -0.357830421719E+00
 -0.329891811154E+00
 -0.368407125250E+00
 -0.343597171972E+00
 -0.375318387045E+00
 -0.353599807717E+00
 -0.380063071474E+00
 -0.361248152275E+00
 -0.383432395454E+00
 -0.367328301569E+00
 -0.391774186643E+00
 -0.378075631705E+00
 -0.404492354796E+00
 -0.393047561145E+00
 -0.416610781175E+00
 -0.407550293481E+00
 -0.425251879965E+00
 -0.418900834502E+00
 -0.427992337262E+00
 -0.424501800281E+00
 -0.412905689881E+00
 -0.411985706990E+00
 -0.387959988650E+00
 -0.389125349865E+00
 -0.364584884899E+00
 -0.367314031957E+00
 -0.337253868036E+00
 -0.341099798564E+00
 -0.314277587307E+00
 -0.310490860947E+00
 -0.287031344593E+00
 -0.282606208248E+00
 -0.259347623257E+00
 -0.254378171172E+00
 -0.231517860676E+00
 -0.226142159243E+00
 -0.203532478575E+00
 -0.197811360574E+00
 -0.178562588615E+00
 -0.172498549074E+00
 -0.154281980018E+00
 -0.147842133250E+00
 -0.130973996688E+00
 -0.124085053851E+00
 -0.108887787396E+00
 -0.101470222273E+00
 -0.866682955285E-01
 -0.786607229798E-01
 -0.641973182581E-01
 -0.555996447233E-01
 -0.416040748819E-01
 -0.325801375919E-01
 -0.186137807171E-01
 -0.961682004606E-02
  0.497128121537E-02
  0.132158917633E-01