# vtk DataFile Version 3.0
MachLine results file. Generated by MachLine, USU AeroLab (c) 2022.
ASCII
DATASET POLYDATA
POINTS                 482 float
  0.236813288641E+00  0.000000000000E+00  0.686565968816E-16
  0.624814081843E+00  0.000000000000E+00 -0.216428737068E+00
  0.624814081843E+00  0.000000000000E+00  0.216428737068E+00
  0.936286588147E+00  0.579506026584E+00 -0.561895002135E-17
  0.134949075789E+01  0.639768029252E+00 -0.218865761583E+00
  0.134949075789E+01  0.639768029252E+00  0.218865761583E+00
  0.166333682055E+01  0.000000000000E+00 -0.417572791145E+00
  0.166333682055E+01  0.000000000000E+00  0.417572791145E+00
  0.201092498640E+01  0.156702214196E+01 -0.279641648794E-16
  0.240530328697E+01  0.164611001899E+01 -0.173337958184E+00
  0.240530328697E+01  0.164611001899E+01  0.173337958184E+00
  0.240761478271E+01  0.684598059678E+00 -0.420944840504E+00
  0.240761478271E+01  0.684598059678E+00  0.420944840504E+00
  0.344986477255E+01  0.289573058939E+01  0.174541604789E-16
  0.345037803883E+01  0.170398970512E+01 -0.366807975171E+00
  0.345037803883E+01  0.170398970512E+01  0.366807975171E+00
  0.347800745605E+01  0.000000000000E+00 -0.567847677909E+00
  0.347800745605E+01  0.000000000000E+00  0.567847677909E+00
  0.382075010340E+01  0.299831190111E+01 -0.115133872484E+00
  0.382075010340E+01  0.299831190111E+01  0.115133872484E+00
  0.422430015314E+01  0.716137624114E+00 -0.571459768044E+00
  0.422430015314E+01  0.716137624114E+00  0.571459768044E+00
  0.484917759257E+01  0.307283909445E+01 -0.297433607780E+00
  0.484917759257E+01  0.307283909445E+01  0.297433607780E+00
  0.534018405594E+01  0.465304866619E+01 -0.173147533833E-15
  0.526047475105E+01  0.174211864828E+01 -0.516294363350E+00
  0.526047475105E+01  0.174211864828E+01  0.516294363350E+00
  0.568323099534E+01  0.478346862540E+01 -0.439725145123E-01
  0.568323099534E+01  0.478346862540E+01  0.439725145123E-01
  0.612417134702E+01  0.000000000000E+00 -0.595279552601E+00
  0.612417134702E+01  0.000000000000E+00  0.595279552601E+00
  0.669135356720E+01  0.487830145179E+01 -0.212393034855E+00
  0.669135356720E+01  0.487830145179E+01  0.212393034855E+00
  0.665084364825E+01  0.311939966149E+01 -0.445466940557E+00
  0.665084364825E+01  0.311939966149E+01  0.445466940557E+00
  0.686955818900E+01  0.759312873477E+00 -0.590921055075E+00
  0.686955818900E+01  0.759312873477E+00  0.590921055075E+00
  0.776249866534E+01  0.692475051734E+01  0.171518464496E-15
  0.807478710201E+01  0.708592944887E+01  0.380216172375E-01
  0.807478710201E+01  0.708592944887E+01 -0.380216172375E-01
  0.790049533303E+01  0.179053183560E+01 -0.535989223717E+00
  0.790049533303E+01  0.179053183560E+01  0.535989223717E+00
  0.848270467544E+01  0.493517742996E+01 -0.358426458783E+00
  0.848270467544E+01  0.493517742996E+01  0.358426458783E+00
  0.905956171061E+01  0.720411070487E+01 -0.114183193516E+00
  0.905956171061E+01  0.720411070487E+01  0.114183193516E+00
  0.928414007832E+01  0.317453791780E+01 -0.465426284732E+00
  0.928414007832E+01  0.317453791780E+01  0.465426284732E+00
  0.936918949172E+01  0.000000000000E+00 -0.545743690960E+00
  0.936918949172E+01  0.000000000000E+00  0.545743690960E+00
  0.101159225602E+02  0.794960532146E+00 -0.454736260094E+00
  0.101159225602E+02  0.794960532146E+00  0.454736260094E+00
  0.107698779598E+02  0.977579734077E+01 -0.266148844492E-15
  0.110513600465E+02  0.996778311833E+01  0.125191640434E+00
  0.110513600465E+02  0.996778311833E+01 -0.125191640434E+00
  0.108390257876E+02  0.727287612994E+01 -0.257653312483E+00
  0.108390257876E+02  0.727287612994E+01  0.257653312483E+00
  0.111077391158E+02  0.499858060283E+01 -0.378608094034E+00
  0.111077391158E+02  0.499858060283E+01  0.378608094034E+00
  0.111445459163E+02  0.182849472198E+01 -0.419868581828E+00
  0.111445459163E+02  0.182849472198E+01  0.419868581828E+00
  0.120113534448E+02  0.101107474954E+02 -0.959230672239E-02
  0.120113534448E+02  0.101107474954E+02  0.959230672239E-02
  0.125250361739E+02  0.321565675889E+01 -0.372497616769E+00
  0.125250361739E+02  0.321565675889E+01  0.372497616769E+00
  0.126243136587E+02  0.000000000000E+00 -0.233171846172E+00
  0.126243136587E+02  0.000000000000E+00  0.233171846172E+00
  0.133819915766E+02  0.800835563401E+00 -0.246449036529E+00
  0.133819915766E+02  0.800835563401E+00  0.246449036529E+00
  0.134544920274E+02  0.734584847698E+01 -0.277940113121E+00
  0.134544920274E+02  0.734584847698E+01  0.277940113121E+00
  0.137781778782E+02  0.101921535121E+02 -0.150102654710E+00
  0.137781778782E+02  0.101921535121E+02  0.150102654710E+00
  0.143607290970E+02  0.132235146632E+02  0.358200537065E-15
  0.146155825426E+02  0.134421291046E+02  0.207904533946E+00
  0.146155825426E+02  0.134421291046E+02 -0.207904533946E+00
  0.143444079225E+02  0.504392766285E+01 -0.309313034721E+00
  0.143444079225E+02  0.504392766285E+01  0.309313034721E+00
  0.144109693642E+02  0.183401626208E+01 -0.225306739425E+00
  0.144109693642E+02  0.183401626208E+01  0.225306739425E+00
  0.153052613066E+02  0.000000000000E+00 -0.328042146203E-01
  0.153052613066E+02  0.000000000000E+00  0.328042146203E-01
  0.155520869150E+02  0.136085835290E+02  0.897721388398E-01
  0.155520869150E+02  0.136085835290E+02 -0.897721388398E-01
  0.157913137049E+02  0.322132611731E+01 -0.190270033220E+00
  0.157913137049E+02  0.322132611731E+01  0.190270033220E+00
  0.160648925436E+02  0.794659927807E+00 -0.502216371963E-01
  0.160648925436E+02  0.794659927807E+00  0.502216371963E-01
  0.163834337554E+02  0.102753390791E+02 -0.170340803960E+00
  0.163834337554E+02  0.102753390791E+02  0.170340803960E+00
  0.166857394972E+02  0.739662069831E+01 -0.228636182819E+00
  0.166857394972E+02  0.739662069831E+01  0.228636182819E+00
  0.170930631623E+02  0.182864877122E+01 -0.230723664070E-01
  0.170930631623E+02  0.182864877122E+01  0.230723664070E-01
  0.171723477555E+02  0.000000000000E+00  0.680462145376E-01
  0.171723477555E+02  0.000000000000E+00 -0.680462145376E-01
  0.173069204312E+02  0.137019833079E+02 -0.477608182868E-01
  0.173069204312E+02  0.137019833079E+02  0.477608182868E-01
  0.176096460679E+02  0.505063830948E+01 -0.135052453148E+00
  0.176096460679E+02  0.505063830948E+01  0.135052453148E+00
  0.184540795969E+02  0.172099332601E+02  0.254723380449E-15
  0.179308784442E+02  0.785350094203E+00  0.626997710838E-01
  0.179308784442E+02  0.785350094203E+00 -0.626997710838E-01
  0.186912126312E+02  0.174462690303E+02  0.273695681491E+00
  0.186912126312E+02  0.174462690303E+02 -0.273695681491E+00
  0.183249181351E+02  0.000000000000E+00  0.118153062387E+00
  0.183249181351E+02  0.000000000000E+00 -0.118153062387E+00
  0.184720186926E+02  0.321734839001E+01  0.223902251239E-01
  0.184720186926E+02  0.321734839001E+01 -0.223902251239E-01
  0.189576725578E+02  0.182071733764E+01  0.102578694882E+00
  0.189576725578E+02  0.182071733764E+01 -0.102578694882E+00
  0.188391380017E+02  0.129494027695E-02 -0.282518883299E-01
  0.190812628765E+02  0.779575073234E+00  0.132909556662E+00
  0.190812628765E+02  0.779575073234E+00 -0.132909556662E+00
  0.196090470060E+02  0.176313934661E+02  0.168873366163E+00
  0.196090470060E+02  0.176313934661E+02 -0.168873366163E+00
  0.196083004081E+02  0.103324949922E+02 -0.134101768364E+00
  0.196083004081E+02  0.103324949922E+02  0.134101768364E+00
  0.196157783120E+02  0.900019067971E+00 -0.151596691548E-01
  0.199024602820E+02  0.137948877555E+02 -0.678259770345E-01
  0.199024602820E+02  0.137948877555E+02  0.678259770345E-01
  0.199489762945E+02  0.740533366320E+01 -0.577859476918E-01
  0.199489762945E+02  0.740533366320E+01  0.577859476918E-01
  0.201067723114E+02  0.181622699691E+01  0.185052878217E+00
  0.201067723114E+02  0.181622699691E+01 -0.185052878217E+00
  0.202885132768E+02  0.504850029612E+01  0.907700212596E-01
  0.202885132768E+02  0.504850029612E+01 -0.907700212596E-01
  0.203349619247E+02  0.321108312517E+01  0.163389223979E+00
  0.203349619247E+02  0.321108312517E+01 -0.163389223979E+00
  0.206041595611E+02  0.197379950391E+01 -0.197146145061E-01
  0.213543437461E+02  0.177343329519E+02  0.338022472306E-01
  0.213543437461E+02  0.177343329519E+02 -0.338022472306E-01
  0.214831075765E+02  0.320754691663E+01  0.255166254059E+00
  0.214831075765E+02  0.320754691663E+01 -0.255166254059E+00
  0.219333557261E+02  0.341226066736E+01 -0.255424664644E-01
  0.221500231178E+02  0.504367034355E+01  0.244899927977E+00
  0.221500231178E+02  0.504367034355E+01 -0.244899927977E+00
  0.228810637673E+02  0.215867975191E+02  0.611503964226E-16
  0.226259884161E+02  0.740505455059E+01  0.179783442099E+00
  0.226259884161E+02  0.740505455059E+01 -0.179783442099E+00
  0.231130862555E+02  0.218282457318E+02  0.310411856421E+00
  0.231130862555E+02  0.218282457318E+02 -0.310411856421E+00
  0.228690046211E+02  0.103437443612E+02  0.346636415255E-01
  0.228690046211E+02  0.103437443612E+02 -0.346636415255E-01
  0.231207299943E+02  0.138586444364E+02 -0.366729847416E-01
  0.231207299943E+02  0.138586444364E+02  0.366729847416E-01
  0.232975862701E+02  0.504071661379E+01  0.342632245164E+00
  0.232975862701E+02  0.504071661379E+01 -0.342632245164E+00
  0.240205100458E+02  0.220237825143E+02  0.213046333828E+00
  0.240205100458E+02  0.220237825143E+02 -0.213046333828E+00
  0.239421415810E+02  0.178349832500E+02  0.139455486876E-01
  0.239421415810E+02  0.178349832500E+02 -0.139455486876E-01
  0.236910036873E+02  0.530226143951E+01 -0.326018791185E-01
  0.244865050967E+02  0.740121775905E+01  0.342870631782E+00
  0.244865050967E+02  0.740121775905E+01 -0.342870631782E+00
  0.255444234464E+02  0.103450604481E+02  0.280423095882E+00
  0.255444234464E+02  0.103450604481E+02 -0.280423095882E+00
  0.257604847986E+02  0.221320459064E+02  0.793855525672E-01
  0.257604847986E+02  0.221320459064E+02 -0.793855525672E-01
  0.256337481291E+02  0.739858606553E+01  0.444224248897E+00
  0.256337481291E+02  0.739858606553E+01 -0.444224248897E+00
[...]
POINT_DATA                 482
SCALARS BC_type int 1
LOOKUP_TABLE default
           1
           1
           1
           1
           1
           1
           1
           1
           1
           1
           1
           1
           1
           1
           1
           1
           1
           1
           1
           1
           1
           1
           1
           1
           1
           1
           1
           1
           1
           1
           1
           1
           1
           1
           1
           1
           1
           1
           1
           1
           1
           1
           1
           1
           1
           1
           1
           1
           1
           1
           1
           1
           1
           1
           1
           1
           1
           1
           1
           1
           1
           1
           1
           1
           1
           1
           1
           1
           1
           1
           1
           1
           1
           1
           1
           1
           1
           1
           1
           1
           1
           1
           1
           1
           1
           1
           1
           1
           1
           1
           1
           1
           1
           1
           1
           1
           1
           1
           1
           1
           1
           1
           1
           1
           1
           1
           1
           1
           1
           1
           1
           1
           1
           1
           1
           1
           1
           1
           1
           1
           1
           1
           1
           1
           1
           1
           1
           1
           1
           1
           1
           1
           1
           1
           1
           1
           1
           1
           1
           1
           1
           1
           1
           1
           1
           1
           1
           1
           1
           1
           1
           1
           1
           1
           1
           1
           1
           1
           1
           1
           1
           1
           1
           1
           1
           1
           1
           1
           1
           1
           1
           1
           1
           1
           1
           1
           1
           1
           1
           1
           1
           1
           1
           1
           1
           1
           1
           1
           1
           1
           1
           1
           1
           1
           1
           1
           1
           1
           1
           1
           1
           1
           1
           1
           1
           1
           1
           1
           1
           1
           1
           1
           1
           1
           1
           1
           1
           1
           1
           1
           1
           1
           1
           1
           1
           1
           1
           1
           1
           1
           1
           1
           1
           1
           1
           1
           1
           1
           1
           1
           1
           1
           1
           1
           1
           1
           1
           1
           1
           1
           1
           1
           1
           1
           1
           1
           1
           1
           1
           1
           1
           1
           1
           1
           1
           1
           1
           1
           1
           1
           1
           1
           1
           1
           1
           1
           1
           1
           1
           1
           1
           1
           1
           1
           1
           1
           1
           1
           1
           1
           1
           1
           1
           1
           1
           1
           1
           1
           1
           1
           1
           1
           1
           1
           1
           1
           1
           1
           1
           1
           1
           1
           1
           1
           1
           1
           1
           1
           1
           1
           1
           1
           1
           1
           1
           1
           1
           1
           1
           1
           1
           1
           1
           1
           1
           1
           1
           1
           1
           1
           1
           1
           1
           1
           1
           1
           1
           1
           1
           1
           1
           1
           1
           1
           1
           1
           1
           1
           1
           1
           1
           1
           1
           1
           1
           1
           1
           1
           1
           1
           1
           1
           1
           1
           1
           1
           1
           1
           1
           1
           1
           1
           1
           1
           1
           1
           1
           1
           1
           1
           1
           1
           1
           1
           1
           1
           1
           1
           1
           1
           1
           1
           1
           1
           1
           1
           1
           1
           1
           1
           1
           1
           1
           1
           1
           1
           1
           1
           1
           1
           1
           1
           1
           1
           1
           1
           1
           1
           1
           1
           1
           1
           1
           1
           1
           1
           1
           1
           1
           1
           1
           1
           1
           1
           1
           1
           1
           1
           1
           1
           1
           1
           1
           1
           1
           1
           1
           1
           1
           1
           1
           1
           1
           1
           1
           1
           1
           1
           1
           1
           1
           1
           1
           1
           1
           1
           1
           1
           1
           1
           1
           1
SCALARS residual float 1
LOOKUP_TABLE default
 -0.220423679309E-11
 -0.518474152500E-13
 -0.153210777398E-13
  0.178812520346E-10
 -0.619104767452E-11
 -0.572675240562E-11
 -0.159072754968E-11
 -0.126221255670E-11
 -0.658785248575E-10
  0.286545231987E-10
  0.297540880823E-10
  0.466682248401E-11
  0.535682609382E-11
  0.240138464669E-09
 -0.160920166081E-10
 -0.143741685221E-10
  0.716315895488E-12
  0.105737640865E-11
 -0.129002364346E-09
 -0.126592958338E-09
 -0.303690406156E-11
 -0.109134923321E-11
  0.496148677698E-10
  0.528020960289E-10
 -0.690449253327E-09
  0.208133510426E-11
  0.486410911549E-11
  0.398244992539E-09
  0.429219548792E-09
 -0.157462931583E-11
  0.617506046297E-12
 -0.150172208002E-09
 -0.143465794800E-09
 -0.136195499323E-10
 -0.627420337906E-11
 -0.582922599079E-12
  0.258881804882E-11
  0.758778817556E-09
 -0.389133725243E-09
 -0.407797684510E-09
 -0.496358509849E-11
  0.261657362444E-11
  0.292378343758E-10
  0.340534267451E-10
  0.110974007761E-09
  0.136055944289E-09
 -0.336553007685E-11
  0.837047098301E-11
 -0.918182196941E-12
  0.939054389804E-12
 -0.543859401958E-11
  0.527941579342E-11
 -0.211333550659E-08
  0.122309495865E-08
  0.122082433052E-08
 -0.748214823432E-10
  0.199359972974E-10
 -0.247811215992E-10
  0.799779686922E-11
 -0.794220245126E-11
  0.778018621750E-11
  0.492424767629E-09
 -0.103416242236E-08
 -0.137812330991E-10
  0.137444708392E-10
 -0.529640220570E-11
  0.529301602548E-11
 -0.133079658404E-10
  0.132971411659E-10
  0.719665993465E-11
  0.120626009181E-10
  0.469512095869E-09
 -0.306007719164E-09
 -0.168354552521E-09
  0.222420193374E-09
 -0.771545050071E-10
 -0.218842513555E-10
  0.243245840137E-10
 -0.218283446873E-10
  0.219990969885E-10
 -0.828001001096E-10
  0.828365154248E-10
 -0.742474859372E-09
  0.788338394564E-09
 -0.322994964108E-10
  0.319607673660E-10
 -0.904308850025E-10
  0.904205044172E-10
 -0.566653418632E-09
  0.521448578761E-09
 -0.688814422167E-10
  0.661333626750E-10
 -0.461657490014E-09
  0.461676641361E-09
  0.113148934666E-10
 -0.113317688566E-10
 -0.153146265669E-07
  0.152924214958E-07
 -0.505203656687E-10
  0.506338859729E-10
 -0.653422760344E-09
  0.279206102682E-10
 -0.279254952495E-10
  0.423246326875E-09
  0.334096084131E-09
  0.950017842172E-12
 -0.945299394317E-12
  0.451395587575E-10
 -0.451623183295E-10
  0.126357813102E-10
 -0.126400556688E-10
  0.710259628889E-11
 -0.755229212501E-11
 -0.692403911984E-10
 -0.127857391341E-09
 -0.724180437839E-11
  0.153133061787E-10
 -0.580855974430E-09
  0.362729360437E-08
 -0.134837030430E-09
  0.134510791394E-09
 -0.112370113214E-10
  0.112347908754E-10
  0.115915610444E-10
 -0.115749632101E-10
 -0.954530898767E-11
  0.952665724085E-11
  0.415968648415E-09
 -0.408015787823E-09
  0.513122044854E-09
  0.315231174497E-11
 -0.352079476684E-11
  0.904110120103E-12
 -0.869693206340E-12
 -0.490002260989E-09
  0.371463970694E-11
  0.298768787488E-09
  0.297330715604E-09
 -0.233177810394E-09
  0.232398267297E-09
  0.919129780619E-08
 -0.919362208585E-08
 -0.292921242817E-11
  0.286676238304E-11
 -0.670066224728E-10
 -0.622327744892E-10
 -0.103081709835E-09
  0.723216070364E-10
  0.178885239954E-10
  0.359956509044E-11
 -0.351679796395E-11
 -0.231090702130E-10
  0.231633601189E-10
  0.381717435438E-10
 -0.288680190863E-11
  0.269023692212E-11
  0.101600394764E-10
 -0.125717103394E-09
  0.125676302698E-09
 -0.153666146474E-08
 -0.282643630722E-10
  0.341079942068E-10
  0.101690300625E-08
  0.698341384719E-11
 -0.687144785516E-11
 -0.370100561309E-09
 -0.372705588614E-09
 -0.205645916962E-10
  0.486596873905E-11
 -0.374505981782E-11
  0.335370620164E-11
 -0.997835147842E-11
  0.998356952664E-11
  0.171309078034E-10
  0.207275863140E-09
  0.170198466432E-09
 -0.162268531945E-10
  0.152949874987E-10
  0.565697488852E-11
 -0.561284352329E-11
 -0.247524223340E-11
  0.606728556285E-11
  0.221885321228E-08
  0.220825968622E-08
 -0.758865192907E-11
  0.725913773536E-11
 -0.870403138453E-09
 -0.883928763518E-09
  0.377993192302E-10
 -0.531963362249E-11
 -0.955908130429E-10
  0.148181467097E-11
 -0.171290759354E-11
  0.477665462739E-09
  0.299395952474E-09
  0.348443496279E-11
  0.232641683695E-11
 -0.257599497289E-11
 -0.564397173441E-08
  0.393721077963E-08
  0.390732679545E-08
  0.441176262189E-10
 -0.224483487354E-10
 -0.108358322315E-10
  0.113815623592E-10
 -0.147859130495E-08
 -0.155438945049E-08
  0.695734581058E-10
  0.408579836630E-10
 -0.245178530256E-09
  0.166006097757E-11
 -0.228994601059E-11
  0.225949814414E-09
  0.882878770092E-09
 -0.758128382294E-08
  0.535224908838E-08
  0.154120605167E-10
 -0.192516558251E-10
 -0.644650999249E-12
 -0.312527781432E-13
 -0.198953042929E-08
 -0.211138989625E-08
  0.183092679906E-09
 -0.140887607136E-09
 -0.137180267146E-10
  0.163221103300E-10
  0.110533693309E-09
 -0.215593663061E-08
  0.188728827705E-08
 -0.585659776231E-08
  0.455191440096E-12
 -0.212646567022E-11
  0.396749444409E-08
  0.403100264279E-08
  0.331670468867E-09
  0.982155079488E-09
 -0.107057263055E-08
  0.563707969192E-10
 -0.635785868397E-10
  0.916045017618E-12
 -0.245670150889E-11
  0.651034115506E-09
 -0.144673262259E-08
  0.385271703429E-09
  0.608530698054E-09
 -0.551301254648E-09
 -0.356137501434E-09
 -0.182993863118E-10
  0.287338375315E-09
  0.207673267472E-09
 -0.275880429612E-10
  0.332488481192E-10
  0.454287607532E-09
 -0.107557907025E-09
  0.185208015591E-09
  0.166816671587E-09
  0.296946911504E-10
 -0.416262524450E-09
 -0.459177140755E-11
  0.200073291268E-11
 -0.147510892390E-09
 -0.273594369382E-09
  0.962768420543E-09
 -0.375932951435E-09
  0.862280497005E-09
  0.576284076015E-09
 -0.448328756064E-09
  0.647767410458E-09
  0.208001171842E-09
 -0.217947548897E-09
 -0.155334686780E-08
  0.161363483686E-08
  0.554341017533E-10
 -0.504962738290E-11
  0.378469477980E-11
  0.336711547533E-09
 -0.470794014884E-09
  0.631216134916E-09
 -0.168670905021E-08
  0.318978732317E-10
  0.488950019362E-09
 -0.243387054955E-08
 -0.646006026450E-09
  0.235007568961E-10
 -0.263906119180E-10
  0.271547229147E-10
  0.684910628213E-09
  0.273917888371E-09
 -0.908125519228E-09
 -0.358038210191E-09
 -0.189973348164E-08
  0.265625504925E-08
  0.704446279087E-09
  0.529480514988E-09
 -0.454390858273E-09
  0.205410974688E-10
 -0.142209509446E-08
  0.138871192323E-09
  0.528046495418E-10
 -0.524189025519E-10
  0.459672411246E-08
 -0.279011047599E-08
 -0.244265238591E-08
  0.690107034018E-08
 -0.554343737580E-08
  0.147910667048E-08
 -0.772873126609E-09
  0.729901972196E-09
  0.525012605612E-08
 -0.384684342714E-08
 -0.168275526846E-08
  0.230189500794E-08
  0.110251874297E-08
 -0.110109898976E-08
  0.835596472570E-08
 -0.158571603209E-07
 -0.127981048675E-08
  0.710043208951E-08
  0.939227584595E-10
 -0.929745724854E-10
 -0.284165761616E-07
  0.315818718018E-07
  0.456074038396E-07
 -0.338654389427E-07
 -0.451577411228E-07
  0.205588312012E-07
  0.401303624359E-08
 -0.246990990577E-07
  0.315249148349E-07
 -0.330671749531E-09
 -0.553883439114E-09
  0.131959887462E-08
 -0.138890275535E-07
 -0.252082299479E-09
  0.256175358704E-09
  0.339498429369E-10
 -0.270641842270E-10
  0.864398996825E-09
 -0.676748357353E-08
  0.668508443047E-08
 -0.190082431600E-07
  0.808605278568E-07
  0.940591601550E-07
 -0.231624504798E-06
 -0.374642605827E-08
 -0.289732265957E-08
 -0.224486105871E-06
  0.358947855578E-06
  0.284850320997E-06
 -0.333926088725E-06
  0.463708182963E-09
 -0.198030104592E-06
  0.163161029215E-06
  0.264652393611E-07
  0.206744297793E-07
  0.224009009120E-07
 -0.245524778286E-08
  0.296135277411E-08
  0.103291164510E-08
 -0.107535919058E-08
  0.823381918202E-09
 -0.844249059551E-09
 -0.115836823800E-06
 -0.105497527270E-06
 -0.231418600949E-08
  0.560472448452E-06
  0.493054819972E-06
 -0.454158410879E-08
  0.223960938683E-08
 -0.950211867357E-06
 -0.804886569339E-06
  0.174351338922E-08
 -0.171597330789E-08
  0.617194149566E-06
  0.468646053797E-06
  0.388701137832E-06
  0.470410272513E-06
  0.576433900612E-09
 -0.106634553670E-05
 -0.337012362461E-09
  0.842139191715E-08
 -0.560909946268E-08
  0.562829044481E-08
  0.187359606163E-07
 -0.975821845550E-08
  0.517430742697E-08
  0.125877190338E-07
 -0.132725153645E-07
 -0.550486950468E-08
  0.542743222587E-08
  0.169061635247E-07
 -0.401211207590E-07
  0.652949307955E-07
  0.160448871966E-06
 -0.130417431521E-06
 -0.115077471607E-06
 -0.295830060448E-07
 -0.145146773933E-06
  0.266578621955E-07
 -0.266893899759E-07
 -0.832335510514E-06
  0.832589574951E-06
 -0.180735197031E-06
 -0.237664714020E-07
  0.237938805325E-07
 -0.113420123127E-06
  0.110133798970E-06
 -0.808472534475E-07
  0.808927837492E-07
 -0.423014092088E-07
  0.924355703091E-07
 -0.850859549484E-09
  0.997946170145E-09
 -0.352996723518E-07
 -0.221460904060E-07
  0.161392597620E-07
 -0.375609087166E-07
  0.336887762131E-07
  0.618146939191E-08
  0.152515312707E-05
  0.226424164806E-06
 -0.226789488134E-06
  0.112497127724E-06
 -0.112518672990E-06
 -0.232869199757E-06
  0.231916676641E-06
 -0.593010465116E-05
 -0.623346048223E-06
  0.625840712809E-06
  0.124018378939E-05
 -0.123809505082E-05
 -0.507961260721E-06
  0.507815326511E-06
 -0.385556231386E-08
 -0.248770478106E-07
  0.246381988145E-07
 -0.877977121005E-07
  0.876118229076E-07
 -0.970428786218E-07
  0.967195298018E-07
 -0.193001933824E-06
  0.192549158534E-06
  0.366315968725E-06
  0.682944506503E-09
 -0.511388431601E-10
 -0.711036785006E-11
  0.580877901335E-09
 -0.415983525404E-09
  0.347827322500E-11
 -0.179364301189E-10
 -0.102020059067E-10
 -0.172173941770E-10
 -0.378811981783E-10
 -0.110289000155E-09
 -0.184647963586E-09
 -0.138763778246E-09
 -0.864207871931E-09
  0.231234814629E-08
 -0.187346246294E-07
  0.180737669719E-06
 -0.152515725804E-05
  0.593011345607E-05
 -0.728049722210E-05
  0.756050777539E-11
 -0.361571017571E-08
 -0.315397707951E-11
 -0.370325992094E-11
  0.327179949799E-10
  0.102075670139E-08
 -0.321135462666E-08
 -0.459493554317E-11
  0.526543986190E-08
 -0.175222664156E-08
 -0.153041634920E-09
 -0.765093821631E-10
 -0.467222927014E-09
 -0.383412634974E-09
  0.234549223987E-06
 -0.668257155167E-08
  0.728049208498E-05
 -0.366014619557E-06
 -0.695637436543E-10
