# vtk DataFile Version 3.0
MachLine results file. Generated by MachLine, USU AeroLab (c) 2022.
ASCII
DATASET POLYDATA
POINTS                  76 float
  0.207889842987E+02  0.178897356987E+01  0.000000000000E+00
  0.197579002380E+02  0.757896304131E+00  0.000000000000E+00
  0.149475578183E+05  0.178897356987E+01  0.112234938646E+04
  0.149480646655E+05  0.757896304131E+00  0.112246502410E+04
  0.221728172302E+02  0.317279767990E+01  0.000000000000E+00
  0.207889842987E+02  0.178897356987E+01  0.000000000000E+00
  0.149468775713E+05  0.317279767990E+01  0.112219418752E+04
  0.149475578183E+05  0.178897356987E+01  0.112234938646E+04
  0.239966468811E+02  0.499661636353E+01  0.000000000000E+00
  0.221728172302E+02  0.317279767990E+01  0.000000000000E+00
  0.149459810363E+05  0.499661636353E+01  0.112198964227E+04
  0.149468775713E+05  0.317279767990E+01  0.112219418752E+04
  0.263436698914E+02  0.734362459183E+01  0.000000000000E+00
  0.239966468811E+02  0.499661636353E+01  0.000000000000E+00
  0.149448273166E+05  0.734362459183E+01  0.112172642010E+04
  0.149459810363E+05  0.499661636353E+01  0.112198964227E+04
  0.292729015350E+02  0.102728376389E+02  0.000000000000E+00
  0.263436698914E+02  0.734362459183E+01  0.000000000000E+00
  0.149433874021E+05  0.102728376389E+02  0.112139790236E+04
  0.149448273166E+05  0.734362459183E+01  0.112172642010E+04
  0.327922058105E+02  0.137921218872E+02  0.000000000000E+00
  0.292729015350E+02  0.102728376389E+02  0.000000000000E+00
  0.149416574273E+05  0.137921218872E+02  0.112100320708E+04
  0.149433874021E+05  0.102728376389E+02  0.112139790236E+04
  0.368321151733E+02  0.178320064545E+02  0.000000000000E+00
  0.327922058105E+02  0.137921218872E+02  0.000000000000E+00
  0.149396715400E+05  0.178320064545E+02  0.112055012515E+04
  0.149416574273E+05  0.137921218872E+02  0.112100320708E+04
  0.197579002380E+02  0.757896304131E+00  0.000000000000E+00
  0.190000000000E+02  0.000000000000E+00  0.000000000000E+00
  0.149480646655E+05  0.757896304131E+00  0.112246502410E+04
  0.149484372244E+05  0.000000000000E+00  0.112255002375E+04
  0.412340698242E+02  0.222339305878E+02  0.000000000000E+00
  0.368321151733E+02  0.178320064545E+02  0.000000000000E+00
  0.149375076831E+05  0.222339305878E+02  0.112005643930E+04
  0.149396715400E+05  0.178320064545E+02  0.112055012515E+04
  0.457662315369E+02  0.267660694122E+02  0.000000000000E+00
  0.412340698242E+02  0.222339305878E+02  0.000000000000E+00
  0.149352798207E+05  0.267660694122E+02  0.111954815053E+04
  0.149375076831E+05  0.222339305878E+02  0.112005643930E+04
  0.501681861877E+02  0.311679935455E+02  0.000000000000E+00
  0.457662315369E+02  0.267660694122E+02  0.000000000000E+00
  0.149331159638E+05  0.311679935455E+02  0.111905446468E+04
  0.149352798207E+05  0.267660694122E+02  0.111954815053E+04
  0.542080955505E+02  0.352078781128E+02  0.000000000000E+00
  0.501681861877E+02  0.311679935455E+02  0.000000000000E+00
  0.149311300765E+05  0.352078781128E+02  0.111860138276E+04
  0.149331159638E+05  0.311679935455E+02  0.111905446468E+04
  0.577274017334E+02  0.387271614075E+02  0.000000000000E+00
  0.542080955505E+02  0.352078781128E+02  0.000000000000E+00
  0.149294001007E+05  0.387271614075E+02  0.111820668726E+04
  0.149311300765E+05  0.352078781128E+02  0.111860138276E+04
  0.606566314697E+02  0.416563758850E+02  0.000000000000E+00
  0.577274017334E+02  0.387271614075E+02  0.000000000000E+00
  0.149279601872E+05  0.416563758850E+02  0.111787816973E+04
  0.149294001007E+05  0.387271614075E+02  0.111820668726E+04
  0.630036544800E+02  0.440033836365E+02  0.000000000000E+00
  0.606566314697E+02  0.416563758850E+02  0.000000000000E+00
  0.149268064674E+05  0.440033836365E+02  0.111761494756E+04
  0.149279601872E+05  0.416563758850E+02  0.111787816973E+04
  0.648274841309E+02  0.458272018433E+02  0.000000000000E+00
  0.630036544800E+02  0.440033836365E+02  0.000000000000E+00
  0.149259099325E+05  0.458272018433E+02  0.111741040232E+04
  0.149268064674E+05  0.440033836365E+02  0.111761494756E+04
  0.662113189697E+02  0.472110252380E+02  0.000000000000E+00
  0.648274841309E+02  0.458272018433E+02  0.000000000000E+00
  0.149252296845E+05  0.472110252380E+02  0.111725520315E+04
  0.149259099325E+05  0.458272018433E+02  0.111741040232E+04
  0.672424011230E+02  0.482421035767E+02  0.000000000000E+00
  0.662113189697E+02  0.472110252380E+02  0.000000000000E+00
  0.149247228383E+05  0.482421035767E+02  0.111713956574E+04
  0.149252296845E+05  0.472110252380E+02  0.111725520315E+04
  0.680002975464E+02  0.490000000000E+02  0.000000000000E+00
  0.672424011230E+02  0.482421035767E+02  0.000000000000E+00
  0.149243502812E+05  0.490000000000E+02  0.111705456651E+04
  0.149247228383E+05  0.482421035767E+02  0.111713956574E+04
POLYGONS                  38                 152
3                   0                   3                   1
3                   0                   2                   3
3                   4                   7                   5
3                   4                   6                   7
3                   8                  11                   9
3                   8                  10                  11
3                  12                  15                  13
3                  12                  14                  15
3                  16                  19                  17
3                  16                  18                  19
3                  20                  23                  21
3                  20                  22                  23
3                  24                  27                  25
3                  24                  26                  27
3                  28                  31                  29
3                  28                  30                  31
3                  32                  35                  33
3                  32                  34                  35
3                  36                  39                  37
3                  36                  38                  39
3                  40                  43                  41
3                  40                  42                  43
3                  44                  47                  45
3                  44                  46                  47
3                  48                  51                  49
3                  48                  50                  51
3                  52                  55                  53
3                  52                  54                  55
3                  56                  59                  57
3                  56                  58                  59
3                  60                  63                  61
3                  60                  62                  63
3                  64                  67                  65
3                  64                  66                  67
3                  68                  71                  69
3                  68                  70                  71
3                  72                  75                  73
3                  72                  74                  75
POINT_DATA                  76
SCALARS mu float 1
LOOKUP_TABLE default
  0.153874026638E+02
  0.398447847948E+01
  0.153874026638E+02
  0.398447847948E+01
 -0.973133240293E+01
  0.153874026638E+02
 -0.973133240293E+01
  0.153874026638E+02
  0.240218102404E+01
 -0.973133240293E+01
  0.240218102404E+01
 -0.973133240293E+01
 -0.395453264166E+00
  0.240218102404E+01
 -0.395453264166E+00
  0.240218102404E+01
  0.347177218626E+00
 -0.395453264166E+00
  0.347177218626E+00
 -0.395453264166E+00
  0.240295391400E+00
  0.347177218626E+00
  0.240295391400E+00
  0.347177218626E+00
  0.331121362050E+00
  0.240295391400E+00
  0.331121362050E+00
  0.240295391400E+00
  0.398447847948E+01
 -0.159228688101E-01
  0.398447847948E+01
 -0.159228688101E-01
  0.348805265174E+00
  0.331121362050E+00
  0.348805265174E+00
  0.331121362050E+00
  0.348023806728E+00
  0.348805265174E+00
  0.348023806728E+00
  0.348805265174E+00
  0.380672702324E+00
  0.348023806728E+00
  0.380672702324E+00
  0.348023806728E+00
  0.260881261770E+00
  0.380672702324E+00
  0.260881261770E+00
  0.380672702324E+00
  0.191722252358E+00
  0.260881261770E+00
  0.191722252358E+00
  0.260881261770E+00
  0.144958692425E+00
  0.191722252358E+00
  0.144958692425E+00
  0.191722252358E+00
  0.240649341530E+00
  0.144958692425E+00
  0.240649341530E+00
  0.144958692425E+00
  0.490266569731E+00
  0.240649341530E+00
  0.490266569731E+00
  0.240649341530E+00
  0.319211918959E+00
  0.490266569731E+00
  0.319211918959E+00
  0.490266569731E+00
  0.200381945150E+00
  0.319211918959E+00
  0.200381945150E+00
  0.319211918959E+00
  0.000000000000E+00
  0.200381945150E+00
  0.000000000000E+00
  0.200381945150E+00
