# vtk DataFile Version 3.0
MachLine results file. Generated by MachLine, USU AeroLab (c) 2022.
ASCII
DATASET POLYDATA
POINTS                7064 float
  0.000000000000E+00  0.000000000000E+00  0.000000000000E+00
  0.389988087118E-01  0.000000000000E+00 -0.109218262136E+00
  0.389988087118E-01  0.000000000000E+00  0.109218262136E+00
  0.147665724158E+00  0.000000000000E+00 -0.234920635819E+00
  0.147665724158E+00  0.000000000000E+00  0.234920635819E+00
  0.161138445139E+00  0.161138445139E+00  0.000000000000E+00
  0.200137257576E+00  0.161138445139E+00 -0.109218269587E+00
  0.200137257576E+00  0.161138445139E+00  0.109218269587E+00
  0.290265858173E+00  0.000000000000E+00 -0.347333192825E+00
  0.290265858173E+00  0.000000000000E+00  0.347333192825E+00
  0.308804154396E+00  0.161138445139E+00 -0.234920650721E+00
  0.308804154396E+00  0.161138445139E+00  0.234920650721E+00
  0.335006117821E+00  0.335006117821E+00  0.000000000000E+00
  0.374004930258E+00  0.335006117821E+00 -0.109218277037E+00
  0.374004930258E+00  0.335006117821E+00  0.109218277037E+00
  0.451404303312E+00  0.161138445139E+00 -0.347333222628E+00
  0.451404303312E+00  0.161138445139E+00  0.347333222628E+00
  0.473465979099E+00  0.000000000000E+00 -0.436293870211E+00
  0.473465979099E+00  0.000000000000E+00  0.436293870211E+00
  0.482671856880E+00  0.335006117821E+00 -0.234920650721E+00
  0.482671856880E+00  0.335006117821E+00  0.234920650721E+00
  0.522506594658E+00  0.522506594658E+00  0.000000000000E+00
  0.561505436897E+00  0.522506594658E+00 -0.109218284488E+00
  0.561505436897E+00  0.522506594658E+00  0.109218284488E+00
  0.625271975994E+00  0.335006117821E+00 -0.347333222628E+00
  0.625271975994E+00  0.335006117821E+00  0.347333222628E+00
  0.634604454041E+00  0.161138445139E+00 -0.436293900013E+00
  0.634604454041E+00  0.161138445139E+00  0.436293900013E+00
  0.670172333717E+00  0.522506594658E+00 -0.234920665622E+00
  0.670172333717E+00  0.522506594658E+00  0.234920665622E+00
  0.689334988594E+00  0.000000000000E+00 -0.522850036621E+00
  0.689334988594E+00  0.000000000000E+00  0.522850036621E+00
  0.724590361118E+00  0.724590361118E+00  0.000000000000E+00
  0.763589203358E+00  0.724590361118E+00 -0.109218291938E+00
  0.763589203358E+00  0.724590361118E+00  0.109218291938E+00
  0.808472156525E+00  0.335006117821E+00 -0.436293929815E+00
  0.808472156525E+00  0.335006117821E+00  0.436293929815E+00
  0.812772512436E+00  0.522506594658E+00 -0.347333252430E+00
  0.812772512436E+00  0.522506594658E+00  0.347333252430E+00
  0.850473463535E+00  0.161138445139E+00 -0.522850036621E+00
  0.850473463535E+00  0.161138445139E+00  0.522850036621E+00
  0.872256100178E+00  0.724590361118E+00 -0.234920680523E+00
  0.872256100178E+00  0.724590361118E+00  0.234920680523E+00
  0.942254066467E+00  0.942254066467E+00  0.000000000000E+00
  0.944064557552E+00  0.000000000000E+00 -0.604293465614E+00
  0.944064557552E+00  0.000000000000E+00  0.604293465614E+00
  0.981252849102E+00  0.942254066467E+00 -0.109218299389E+00
  0.981252849102E+00  0.942254066467E+00  0.109218299389E+00
  0.995972692966E+00  0.522506594658E+00 -0.436293959618E+00
  0.995972692966E+00  0.522506594658E+00  0.436293959618E+00
  0.101485633850E+01  0.724590361118E+00 -0.347333282232E+00
  0.101485633850E+01  0.724590361118E+00  0.347333282232E+00
  0.102434122562E+01  0.335006117821E+00 -0.522850096226E+00
  0.102434122562E+01  0.335006117821E+00  0.522850096226E+00
  0.108991980553E+01  0.942254066467E+00 -0.234920710325E+00
  0.108991980553E+01  0.942254066467E+00  0.234920710325E+00
  0.110520303249E+01  0.161138445139E+00 -0.604293525219E+00
  0.110520303249E+01  0.161138445139E+00  0.604293525219E+00
  0.117653930187E+01  0.117653930187E+01  0.000000000000E+00
  0.119805645943E+01  0.724590361118E+00 -0.436293989420E+00
  0.119805645943E+01  0.724590361118E+00  0.436293989420E+00
  0.121184170246E+01  0.522506594658E+00 -0.522850096226E+00
  0.121184170246E+01  0.522506594658E+00  0.522850096226E+00
  0.121553814411E+01  0.117653930187E+01 -0.109218306839E+00
  0.121553814411E+01  0.117653930187E+01  0.109218306839E+00
  0.123251998425E+01  0.942254066467E+00 -0.347333312035E+00
  0.123251998425E+01  0.942254066467E+00  0.347333312035E+00
  0.123833239079E+01  0.000000000000E+00 -0.683996438980E+00
  0.123833239079E+01  0.000000000000E+00  0.683996438980E+00
  0.127907073498E+01  0.335006117821E+00 -0.604293525219E+00
  0.127907073498E+01  0.335006117821E+00  0.604293525219E+00
  0.132420504093E+01  0.117653930187E+01 -0.234920725226E+00
  0.132420504093E+01  0.117653930187E+01  0.234920725226E+00
  0.139947092533E+01  0.161138445139E+00 -0.683996498585E+00
  0.139947092533E+01  0.161138445139E+00  0.683996498585E+00
  0.141392552853E+01  0.724590361118E+00 -0.522850155830E+00
  0.141392552853E+01  0.724590361118E+00  0.522850155830E+00
  0.141572022438E+01  0.942254066467E+00 -0.436294019222E+00
  0.141572022438E+01  0.942254066467E+00  0.436294019222E+00
  0.142853081226E+01  0.142853081226E+01  0.000000000000E+00
  0.146657133102E+01  0.522506594658E+00 -0.604293584824E+00
  0.146657133102E+01  0.522506594658E+00  0.604293584824E+00
  0.146680521965E+01  0.117653930187E+01 -0.347333341837E+00
  0.146680521965E+01  0.117653930187E+01  0.347333341837E+00
  0.146752965450E+01  0.142853081226E+01 -0.109218314290E+00
  0.146752965450E+01  0.142853081226E+01  0.109218314290E+00
  0.157333862782E+01  0.335006117821E+00 -0.683996558189E+00
  0.157333862782E+01  0.335006117821E+00  0.683996558189E+00
  0.157619655132E+01  0.142853081226E+01 -0.234920740128E+00
  0.157619655132E+01  0.142853081226E+01  0.234920740128E+00
  0.157641971111E+01  0.000000000000E+00 -0.760520398617E+00
  0.157641971111E+01  0.000000000000E+00  0.760520398617E+00
  0.163158929348E+01  0.942254066467E+00 -0.522850155830E+00
  0.163158929348E+01  0.942254066467E+00  0.522850155830E+00
  0.165000545979E+01  0.117653930187E+01 -0.436294049025E+00
  0.165000545979E+01  0.117653930187E+01  0.436294049025E+00
  0.166865515709E+01  0.724590361118E+00 -0.604293584824E+00
  0.166865515709E+01  0.724590361118E+00  0.604293584824E+00
  0.169935321808E+01  0.169935321808E+01  0.000000000000E+00
  0.171879673004E+01  0.142853081226E+01 -0.347333371639E+00
  0.171879673004E+01  0.142853081226E+01  0.347333371639E+00
  0.173755824566E+01  0.161138445139E+00 -0.760520458221E+00
  0.173755824566E+01  0.161138445139E+00  0.760520458221E+00
  0.173835194111E+01  0.169935321808E+01 -0.109218329191E+00
  0.173835194111E+01  0.169935321808E+01  0.109218329191E+00
  0.176083922386E+01  0.522506594658E+00 -0.683996558189E+00
  0.176083922386E+01  0.522506594658E+00  0.683996558189E+00
  0.184701895714E+01  0.169935321808E+01 -0.234920755029E+00
  0.184701895714E+01  0.169935321808E+01  0.234920755029E+00
  0.186587452888E+01  0.117653930187E+01 -0.522850215435E+00
  0.186587452888E+01  0.117653930187E+01  0.522850215435E+00
  0.188631892204E+01  0.942254066467E+00 -0.604293644428E+00
  0.188631892204E+01  0.942254066467E+00  0.604293644428E+00
  0.190199697018E+01  0.142853081226E+01 -0.436294078827E+00
  0.190199697018E+01  0.142853081226E+01  0.436294078827E+00
  0.191142594814E+01  0.335006117821E+00 -0.760520458221E+00
  0.191142594814E+01  0.335006117821E+00  0.760520458221E+00
  0.196138751507E+01  0.000000000000E+00 -0.833668828011E+00
  0.196138751507E+01  0.000000000000E+00  0.833668828011E+00
  0.196292304993E+01  0.724590361118E+00 -0.683996617794E+00
  0.196292304993E+01  0.724590361118E+00  0.683996617794E+00
  0.198961913586E+01  0.169935321808E+01 -0.347333401442E+00
  0.198961913586E+01  0.169935321808E+01  0.347333401442E+00
  0.199016737938E+01  0.199016737938E+01  0.000000000000E+00
  0.202916622162E+01  0.199016737938E+01 -0.109218336642E+00
  0.202916622162E+01  0.199016737938E+01  0.109218336642E+00
  0.209892654419E+01  0.522506594658E+00 -0.760520517826E+00
  0.209892654419E+01  0.522506594658E+00  0.760520517826E+00
  0.211786603928E+01  0.142853081226E+01 -0.522850275040E+00
  0.211786603928E+01  0.142853081226E+01  0.522850275040E+00
  0.212060427666E+01  0.117653930187E+01 -0.604293704033E+00
  0.212060427666E+01  0.117653930187E+01  0.604293704033E+00
  0.212252616882E+01  0.161138445139E+00 -0.833668828011E+00
  0.212252616882E+01  0.161138445139E+00  0.833668828011E+00
  0.213783311844E+01  0.199016737938E+01 -0.234920784831E+00
  0.213783311844E+01  0.199016737938E+01  0.234920784831E+00
  0.217281937599E+01  0.169935321808E+01 -0.436294138432E+00
  0.217281937599E+01  0.169935321808E+01  0.436294138432E+00
  0.218058681488E+01  0.942254066467E+00 -0.683996677399E+00
  0.218058681488E+01  0.942254066467E+00  0.683996677399E+00
  0.228043341637E+01  0.199016737938E+01 -0.347333431244E+00
  0.228043341637E+01  0.199016737938E+01  0.347333431244E+00
  0.229639387131E+01  0.335006117821E+00 -0.833668887615E+00
  0.229639387131E+01  0.335006117821E+00  0.833668887615E+00
  0.230101037025E+01  0.724590361118E+00 -0.760520577431E+00
  0.230101037025E+01  0.724590361118E+00  0.760520577431E+00
  0.230216526985E+01  0.230216526985E+01  0.000000000000E+00
  0.234116411209E+01  0.230216526985E+01 -0.109218344092E+00
  0.234116411209E+01  0.230216526985E+01  0.109218344092E+00
  0.237259578705E+01  0.142853081226E+01 -0.604293763638E+00
  0.237259578705E+01  0.142853081226E+01  0.604293763638E+00
  0.238868856430E+01  0.169935321808E+01 -0.522850275040E+00
  0.238868856430E+01  0.169935321808E+01  0.522850275040E+00
  0.239635515213E+01  0.000000000000E+00 -0.902061045170E+00
  0.239635515213E+01  0.000000000000E+00  0.902061045170E+00
  0.241487216949E+01  0.117653930187E+01 -0.683996737003E+00
  0.241487216949E+01  0.117653930187E+01  0.683996737003E+00
  0.244983124733E+01  0.230216526985E+01 -0.234920799732E+00
  0.244983124733E+01  0.230216526985E+01  0.234920799732E+00
  0.246363353729E+01  0.199016737938E+01 -0.436294168234E+00
  0.246363353729E+01  0.199016737938E+01  0.436294168234E+00
[...]
CELL_DATA               13888
SCALARS C_p_inc float 1
LOOKUP_TABLE default
  0.209395166633E+00
  0.172935252919E+00
  0.144543372829E+00
  0.115570882208E+00
  0.110621269017E+00
  0.919201853897E-01
  0.875378035484E-01
  0.751465904801E-01
  0.705568648746E-01
  0.616356559368E-01
  0.567687951729E-01
  0.499489263919E-01
  0.448343549384E-01
  0.393924964716E-01
  0.340329472114E-01
  0.295253631064E-01
  0.238190425124E-01
  0.199158660865E-01
  0.136314155785E-01
  0.100764065073E-01
  0.328414189936E-02
  0.465964766931E-04
 -0.687435451630E-02
 -0.974811561172E-02
 -0.169336548653E-01
 -0.196292061367E-01
 -0.281324884149E-01
 -0.310291036528E-01
 -0.396179709830E-01
 -0.421757783232E-01
 -0.512638821277E-01
 -0.539178879463E-01
 -0.649015059016E-01
 -0.679403397059E-01
 -0.763799089642E-01
 -0.783310366887E-01
 -0.870713322021E-01
 -0.894938318591E-01
 -0.953757055983E-01
 -0.966204501573E-01
 -0.103468422403E+00
 -0.101937005792E+00
 -0.106071198704E+00
 -0.105793925530E+00
 -0.102966340832E+00
 -0.103851761319E+00
 -0.990800171170E-01
 -0.100367306217E+00
 -0.775831177214E-01
 -0.840563417914E-01
 -0.466365358986E-01
 -0.546177507521E-01
 -0.126768604525E-01
 -0.220791638745E-01
  0.233524278242E-01
  0.126304548102E-01
  0.599978113796E-01
  0.481699305415E-01
  0.954364663283E-01
  0.824602216385E-01
  0.133011402263E+00
  0.117070791151E+00
  0.177011680204E+00
  0.156809240791E+00
  0.226553069463E+00
  0.202185940225E+00
  0.284314819457E+00
  0.254584410672E+00
  0.346952636992E+00
  0.312245154119E+00
  0.428601855347E+00
  0.386259472646E+00
  0.518738195156E+00
  0.472829017947E+00
  0.655170317775E+00
  0.622041294046E+00
  0.780710703658E+00
  0.782239484500E+00
  0.825899918020E+00
  0.819001477568E+00
  0.622712308467E+00
  0.667432420649E+00
  0.339581879043E+00
  0.439317589359E+00
  0.702154855499E-01
  0.212866981713E+00
 -0.826685665158E-01
  0.282785117781E-01
 -0.127067642206E+00
 -0.474704543148E-01
 -0.175378858906E+00
 -0.121500949662E+00
 -0.208757331284E+00
 -0.168049005043E+00
 -0.241960631839E+00
 -0.212280544290E+00
 -0.269262482398E+00
 -0.246930804247E+00
 -0.291678974419E+00
 -0.275984207498E+00
 -0.309401228469E+00
 -0.297821337800E+00
 -0.328710733682E+00
 -0.318417027381E+00
 -0.350888570119E+00
 -0.341872073311E+00
 -0.372546071874E+00
 -0.365110071204E+00
 -0.391762984808E+00
 -0.386016660269E+00
 -0.407379762756E+00
 -0.403401822475E+00
 -0.406783516533E+00
 -0.409251441149E+00
 -0.391247123536E+00
 -0.393792798057E+00
 -0.375331028761E+00
 -0.379005978568E+00
 -0.353649814017E+00
 -0.358574622267E+00
 -0.334297830896E+00
 -0.330041709964E+00
 -0.311060612938E+00
 -0.305560235069E+00
 -0.284183962805E+00
 -0.279388368351E+00
 -0.259362759990E+00
 -0.253391055104E+00
 -0.231317070087E+00
 -0.225874972133E+00
 -0.206898874850E+00
 -0.201601185550E+00
 -0.183988155847E+00
 -0.178299785589E+00
 -0.161516722996E+00
 -0.156021075577E+00
 -0.141409052364E+00
 -0.135634098566E+00
 -0.121942761669E+00
 -0.115643660190E+00
 -0.102691804979E+00
 -0.958789827852E-01
 -0.840615110495E-01
 -0.766476317051E-01
 -0.660152246026E-01
 -0.576518835475E-01
 -0.479356530960E-01
 -0.381783208262E-01
 -0.292670371537E-01
 -0.175197478125E-01
 -0.942774744027E-02
  0.525548050645E-02
  0.124767803314E-01
  0.318153867819E-01
  0.382308848586E-01
  0.656258935900E-01
  0.722134912569E-01
  0.112212809438E+00
  0.144263244025E+00
  0.191638928097E+00
  0.207958708609E+00
  0.207013249324E+00
  0.150859480357E+00
  0.144079811703E+00
  0.123337814272E+00
  0.110502522368E+00
  0.997599481014E-01
  0.874960848129E-01
  0.802686646691E-01
  0.705369367890E-01
  0.643484717124E-01
  0.567575312684E-01
  0.508885222315E-01
  0.448273905794E-01
  0.390188667939E-01
  0.340284065627E-01
  0.280694264821E-01
  0.238161629508E-01
  0.173895107629E-01
  0.136303737330E-01
  0.667113411473E-02
  0.328511808947E-02
 -0.381724210408E-02
 -0.687210347692E-02
 -0.140900134393E-01
 -0.169304049182E-01
 -0.253296743355E-01
 -0.281260623346E-01
 -0.369956090007E-01
 -0.396110326716E-01
 -0.486878461356E-01
 -0.512549036204E-01
 -0.623132256596E-01
 -0.648887955710E-01
 -0.743649427315E-01
 -0.763804929587E-01
 -0.851970390523E-01
 -0.870747557600E-01
 -0.942195149744E-01
 -0.954068183975E-01
 -0.102035895533E+00
 -0.101110434277E+00
 -0.105906297410E+00
 -0.106011638582E+00
 -0.103957542201E+00
 -0.105272429648E+00
 -0.100496032217E+00
 -0.103131668202E+00
 -0.840181737691E-01
 -0.899698549469E-01
 -0.544738795437E-01
 -0.623168279142E-01
 -0.218680166579E-01
 -0.310389992723E-01
  0.128765019261E-01
  0.260082411019E-02
  0.484122034644E-01
  0.371883470320E-01
  0.826875838989E-01
  0.703993902627E-01
  0.117285243742E+00
  0.103285573769E+00
  0.156854441408E+00
  0.140744287036E+00
  0.201720575558E+00
  0.183668199804E+00
  0.252862688989E+00
  0.233349633475E+00
  0.308197574200E+00
  0.287917706374E+00
  0.376043054831E+00
  0.357006644609E+00
  0.451698415553E+00
  0.435830406543E+00
  0.562751086479E+00
  0.557770033559E+00
  0.672192317991E+00
  0.673553884590E+00
  0.682227430686E+00
  0.668776891065E+00
  0.476336521747E+00
  0.496126470480E+00
  0.234225261399E+00
  0.280271269252E+00
 -0.114024403376E-01
  0.554905653505E-01
 -0.149116877455E+00
 -0.769193859190E-01
 -0.181348595830E+00
 -0.123260074349E+00
 -0.220185844175E+00
 -0.172667217346E+00
 -0.244917853651E+00
 -0.207178669691E+00
 -0.271117571580E+00
 -0.241156627132E+00
 -0.292398247951E+00
 -0.268961759391E+00
 -0.309756872124E+00
 -0.291719016806E+00
 -0.323773138019E+00
 -0.309555971963E+00
 -0.340803732488E+00
 -0.328860392147E+00
 -0.361205511109E+00
 -0.351076152305E+00
 -0.381093867558E+00
 -0.372805038627E+00
 -0.398415147157E+00
 -0.392110170697E+00
 -0.411578166521E+00
 -0.407867365891E+00
 -0.406887964220E+00
 -0.407410317668E+00
 -0.389757242734E+00
 -0.391711548212E+00
 -0.372495487766E+00
 -0.375729160206E+00
 -0.349695441396E+00
 -0.353963088579E+00
 -0.330054347438E+00
 -0.325958787467E+00
 -0.305529814852E+00
 -0.300726578661E+00
 -0.279362377239E+00
 -0.274489017261E+00
 -0.253347148173E+00
 -0.247883759128E+00
 -0.225843858710E+00
 -0.220430097397E+00
 -0.201577093594E+00
 -0.196115932475E+00
 -0.178279140326E+00
 -0.172585489066E+00
 -0.156008425396E+00
 -0.150204505076E+00
 -0.135624812533E+00
 -0.129480201333E+00
 -0.115637963103E+00
 -0.108981556012E+00
 -0.958780181308E-01
 -0.886165033435E-01
 -0.766509745010E-01
 -0.685934531325E-01
 -0.576591623137E-01
 -0.484682301414E-01
 -0.381908502706E-01
 -0.274154049634E-01
 -0.175408140523E-01
 -0.457688221319E-02
  0.521827948116E-02
  0.211395027519E-01
  0.317398458845E-01
  0.510696779085E-01
  0.654236153972E-01
  0.857642643743E-01
  0.111478819816E+00
  0.124586385699E+00
  0.188260593430E+00
  0.190874681267E+00
  0.200903791292E+00
  0.206560606924E+00
  0.150409292676E+00
  0.150225609016E+00
  0.127310222687E+00
  0.123011170028E+00
  0.107183403923E+00
  0.996197691069E-01
  0.886444564621E-01
  0.802065606954E-01
  0.719381567256E-01
  0.643170238982E-01
  0.572948659562E-01
  0.508706845290E-01
  0.443849915534E-01
  0.390080046223E-01
  0.326373536471E-01
  0.280627843250E-01
  0.213819313813E-01
  0.173864276393E-01
  0.102428464044E-01
  0.667171293374E-02
 -0.587732683027E-03
 -0.381378068039E-02
 -0.111190111870E-01
 -0.140845152109E-01
 -0.224938502065E-01
 -0.253203007186E-01
 -0.343093513517E-01
 -0.369827989532E-01
 -0.461277006503E-01
 -0.486723205312E-01
 -0.598426655461E-01
 -0.622933564063E-01
 -0.723057384180E-01
 -0.743551982966E-01
 -0.834822513411E-01
 -0.851977181150E-01
 -0.930922756850E-01
 -0.942540141801E-01
 -0.101257114005E+00
 -0.100545163806E+00
 -0.106149373781E+00
 -0.106370675470E+00
 -0.105359208886E+00
 -0.106829331473E+00
 -0.103144258826E+00
 -0.106095853248E+00
 -0.897304730405E-01
 -0.951981479852E-01
 -0.619121741049E-01
 -0.694286933142E-01
 -0.305658959172E-01
 -0.393786253291E-01
  0.306975406928E-02
 -0.672537911364E-02
  0.375890804947E-01
  0.270007447604E-01
  0.707104320423E-01
  0.593283548885E-01
  0.103451942766E+00
  0.910849789209E-01
  0.140515442833E+00
  0.127086114668E+00
  0.182633808057E+00
  0.168398415156E+00
  0.230777169621E+00
  0.216397228945E+00
  0.282921442317E+00
  0.269137196468E+00
  0.347251559442E+00
  0.335728111089E+00
  0.419229295872E+00
  0.411104690454E+00
  0.526288675925E+00
  0.524706134329E+00
  0.627680831720E+00
  0.627199391004E+00
  0.620676517919E+00
  0.607023504116E+00
  0.403010804291E+00
  0.419483124571E+00
  0.167067073792E+00
  0.201858806911E+00
 -0.724926058420E-01
 -0.220709405550E-01
 -0.202342653035E+00
 -0.145845486147E+00
 -0.226001000368E+00
 -0.177803476324E+00
 -0.258249068013E+00
 -0.216521058717E+00
 -0.276827844585E+00
 -0.242143555660E+00
 -0.297787690744E+00
 -0.269054783589E+00
 -0.314338571983E+00
 -0.290999526896E+00
 -0.327689622301E+00
 -0.308874667781E+00
 -0.338601207877E+00
 -0.323225765900E+00
 -0.353341635668E+00
 -0.340441486287E+00
 -0.371840487855E+00
 -0.360997957542E+00
 -0.389868262254E+00
 -0.381063525841E+00
 -0.405169287252E+00
 -0.398600054766E+00
 -0.415611451858E+00
 -0.412082457547E+00
 -0.407828619974E+00
 -0.407667444601E+00
 -0.388836258380E+00
 -0.390468627581E+00
 -0.370104246291E+00
 -0.373162612333E+00
 -0.346224848959E+00
 -0.350262564090E+00
 -0.325952882269E+00
 -0.321959586228E+00
 -0.300672430775E+00
 -0.296091633514E+00
 -0.274427071643E+00
 -0.269507726736E+00
 -0.247814136152E+00
 -0.242460469127E+00
 -0.220376451220E+00
 -0.214922962895E+00
 -0.196072295388E+00
 -0.190454270730E+00
 -0.172552287331E+00
 -0.166710866846E+00
 -0.150181747307E+00
 -0.144099475904E+00
 -0.129463756436E+00
 -0.122966651021E+00
 -0.108972552086E+00
 -0.101923913080E+00
 -0.886160187781E-01
 -0.808793898949E-01
 -0.686011251451E-01
 -0.599494565806E-01
 -0.484851841655E-01
 -0.386104526925E-01
 -0.274465144060E-01
 -0.160212417763E-01
 -0.463377398290E-02
  0.853234936414E-02
  0.210276419181E-01
  0.354451777774E-01
  0.508243810958E-01
  0.643946195897E-01
  0.852107376191E-01
  0.950093243529E-01
  0.123538275290E+00
  0.129236073688E+00
  0.188983046576E+00
  0.194802827615E+00
  0.200951389381E+00
  0.200270033786E+00
  0.149612584618E+00
  0.149901768309E+00
  0.128147297619E+00
  0.126947242771E+00
  0.110411820835E+00
  0.106958258030E+00
  0.940157648781E-01
  0.885218292730E-01
  0.782661444550E-01
  0.718741750294E-01
  0.634513607236E-01
  0.572601858168E-01
  0.498871255739E-01
  0.443651835813E-01
  0.374378158006E-01
  0.326259792042E-01
  0.255929480391E-01
  0.213766511660E-01
  0.139970923472E-01
  0.102430276063E-01
  0.280315931992E-02
 -0.583199300499E-03
 -0.801826725774E-02
 -0.111113485236E-01
 -0.195909366504E-01
 -0.224815655748E-01
 -0.315680847450E-01
 -0.342923077120E-01
 -0.435562598896E-01
 -0.461078243701E-01
 -0.574251512708E-01
 -0.598191441777E-01
 -0.702243469674E-01
 -0.722910065751E-01
 -0.818362291798E-01
 -0.834854303946E-01
 -0.919853940780E-01
 -0.931319783004E-01
 -0.100715253604E+00
 -0.100102760091E+00
 -0.106519909067E+00
 -0.106794986268E+00
 -0.106902897530E+00
 -0.108419750786E+00
 -0.106047985132E+00
 -0.109076078995E+00
 -0.949064857710E-01
 -0.999839297160E-01
 -0.689467299945E-01
 -0.760241698800E-01
 -0.388293840927E-01
 -0.472041780358E-01
 -0.620585725426E-02
 -0.154728658191E-01
  0.274110247473E-01
  0.174962023738E-01
  0.595903350113E-01
  0.491199110616E-01
  0.911190526796E-01
  0.801133760772E-01
  0.126643664898E+00
  0.115228631437E+00
  0.167111812059E+00
  0.155588142638E+00
  0.213679524699E+00
  0.202636418892E+00
  0.264364356015E+00
  0.254449211123E+00
  0.327425530209E+00
  0.319840826091E+00
  0.398279292425E+00
  0.393698407512E+00
  0.503417245995E+00
  0.502981669590E+00
  0.598950497076E+00
  0.597449825490E+00
  0.578976307791E+00
  0.565486713778E+00
  0.349653266139E+00
  0.364814433433E+00
  0.115083548323E+00
  0.144524970669E+00
 -0.122430319553E+00
 -0.803399462866E-01
 -0.247467589728E+00
 -0.199875633611E+00
 -0.264725508714E+00
 -0.222872582204E+00
 -0.292040500700E+00
 -0.254688211817E+00
 -0.305874173348E+00
 -0.273846905211E+00
 -0.322680393288E+00
 -0.295355143052E+00
 -0.335423962683E+00
 -0.312506756188E+00
 -0.345469745815E+00
 -0.326370155146E+00
 -0.353631041386E+00
 -0.337677449347E+00
 -0.366153105041E+00
 -0.352695706647E+00
 -0.382717841342E+00
 -0.371429217812E+00
 -0.398816345858E+00
 -0.389712002371E+00
 -0.411959405468E+00
 -0.405324099632E+00
 -0.419659651945E+00
 -0.416188136329E+00
 -0.409250194866E+00
 -0.408691400478E+00
 -0.388291111109E+00
 -0.389705382713E+00
 -0.368024265753E+00
 -0.370951920503E+00
 -0.343050507073E+00
 -0.346968611859E+00
 -0.321960091340E+00
 -0.318048376933E+00
 -0.296034175337E+00
 -0.291557199765E+00
 -0.269427392175E+00
 -0.264480610066E+00
 -0.242374408477E+00
 -0.237049668465E+00
 -0.214852126507E+00
 -0.209325858825E+00
 -0.190394560678E+00
 -0.184628788292E+00
 -0.166665007943E+00
 -0.160637262307E+00
 -0.144066331215E+00
 -0.137703609948E+00
 -0.122942714944E+00
 -0.116106517283E+00
 -0.101910944994E+00
 -0.944768795089E-01
 -0.808789975626E-01
 -0.726979651826E-01
 -0.599625784928E-01
 -0.508438868718E-01
 -0.386412667166E-01
 -0.284284225365E-01
 -0.160812507637E-01
 -0.483146213965E-02
  0.841766409865E-02
  0.200892375079E-01
  0.352245180403E-01
  0.459027905379E-01
  0.639901585411E-01
  0.721966704229E-01
  0.943502262260E-01
  0.997313028289E-01
  0.128252414518E+00
  0.131135150648E+00
  0.192899565207E+00
  0.191628142378E+00
  0.198897800832E+00
  0.200211988867E+00
  0.149037649869E+00
  0.149202159635E+00
  0.128357257214E+00
  0.127828050858E+00
  0.111800876515E+00
  0.110172666465E+00
  0.969601603217E-01
  0.938530213139E-01
  0.826605676858E-01
  0.781665010849E-01
  0.686243570412E-01
  0.633940867325E-01
  0.550959397877E-01
  0.498546370253E-01
  0.422715343541E-01
  0.374196963932E-01
  0.299450245817E-01
  0.255844246207E-01
  0.179062245095E-01
  0.139962382576E-01
  0.633955011138E-02
  0.280823500784E-02
 -0.479192269891E-02
 -0.800889779390E-02
 -0.166046053216E-01
 -0.195762697294E-01
 -0.287738075703E-01
 -0.315479768751E-01
 -0.409582253625E-01
 -0.435332486523E-01
 -0.550284093777E-01
 -0.573996122133E-01
 -0.681387353496E-01
 -0.702073899007E-01
 -0.802095477081E-01
 -0.818423013019E-01
 -0.908963283875E-01
 -0.920311151346E-01
 -0.100291664639E+00
 -0.997090717300E-01
 -0.106953994708E+00
 -0.107250309011E+00
 -0.108489664150E+00
 -0.109984186833E+00
 -0.109000370512E+00
 -0.111973220434E+00
 -0.996803664685E-01
 -0.104426067354E+00
 -0.755267702722E-01
 -0.820747384360E-01
 -0.466353371054E-01
 -0.544722282000E-01
 -0.149472081911E-01
 -0.236126659628E-01
  0.178868466154E-01
  0.868806552213E-02
  0.493239304229E-01
  0.397493493186E-01
  0.800445097399E-01
  0.702260292160E-01
  0.114662651568E+00
  0.104838072206E+00
  0.154220667059E+00
  0.144709921637E+00
  0.200016784928E+00
  0.191316849284E+00
  0.250149200777E+00
  0.242774661366E+00
  0.312884752410E+00
  0.307694896073E+00
  0.383605773837E+00
  0.380973585617E+00
  0.487543130540E+00
  0.487621458307E+00
  0.578277724648E+00
  0.576224355765E+00
  0.547227831962E+00
  0.534071122090E+00
  0.306807465824E+00
  0.321395457051E+00
  0.717708525610E-01
  0.981636570852E-01
 -0.165473011272E+00
 -0.128420763972E+00
 -0.287240249048E+00
 -0.245394235990E+00
 -0.299337316164E+00
 -0.261935559050E+00
 -0.322733328351E+00
 -0.288718942851E+00
 -0.332721940817E+00
 -0.302921756036E+00
 -0.346138911139E+00
 -0.320129738281E+00
 -0.355731690684E+00
 -0.333373899641E+00
 -0.362956948555E+00
 -0.343890150296E+00
 -0.368624199511E+00
 -0.352466662458E+00
 -0.379014910364E+00
 -0.365318945029E+00
 -0.393650796410E+00
 -0.382178494320E+00
 -0.407775964384E+00
 -0.398600857647E+00
 -0.418674619254E+00
 -0.412138822219E+00
 -0.423796574504E+00
 -0.420308881571E+00
 -0.410983907405E+00
 -0.410187029469E+00
 -0.388025804276E+00
 -0.389287804115E+00
 -0.366203681971E+00
 -0.369017213478E+00
 -0.340080654086E+00
 -0.343942991868E+00
 -0.318069022231E+00
 -0.314229773199E+00
 -0.291506018372E+00
 -0.287071349401E+00
 -0.264392912114E+00
 -0.259434979693E+00
 -0.236954246170E+00
 -0.231617684909E+00
 -0.209242684689E+00
 -0.203624362963E+00
 -0.184556857671E+00
 -0.178644069093E+00
 -0.160580761530E+00
 -0.154347871488E+00
 -0.137661509964E+00
 -0.131024412360E+00
 -0.116076364671E+00
 -0.108923905805E+00
 -0.944612068432E-01
 -0.866865508973E-01
 -0.726995219244E-01
 -0.641932290586E-01
 -0.508660382037E-01
 -0.415712438853E-01
 -0.284799453057E-01
 -0.185393749767E-01
 -0.493145879665E-02
  0.510826777735E-02
  0.199082092597E-01
  0.290612504487E-01
  0.456001467168E-01
  0.529288308670E-01
  0.717388768459E-01
  0.769251688863E-01
  0.990906804901E-01
  0.102324233791E+00
  0.130274596779E+00
  0.131958892661E+00
  0.190449262001E+00
  0.191477645272E+00
  0.196015484983E+00
  0.198355990603E+00
  0.148152104399E+00
  0.148678539946E+00
  0.128276571363E+00
  0.128075210835E+00
  0.112477410160E+00
  0.111577252261E+00
  0.985990667379E-01
  0.967888353925E-01
  0.854529009959E-01
  0.825387903814E-01
  0.724759615660E-01
  0.685452673868E-01
  0.595624398313E-01
  0.550481935035E-01
  0.468367566119E-01
  0.422444100560E-01
  0.342836991869E-01
  0.299318117439E-01
  0.219017323200E-01
  0.179034362342E-01
  0.998870226367E-02
  0.634451172215E-02
 -0.145449361007E-02
 -0.478139808321E-02
 -0.135312958759E-01
 -0.165880811411E-01
 -0.259229187880E-01
 -0.287514808164E-01
 -0.383251224913E-01
 -0.409329169351E-01
 -0.526305253423E-01
 -0.550016770159E-01
 -0.660514944072E-01
 -0.681210128634E-01
 -0.785749737676E-01
 -0.802172568240E-01
 -0.898102269996E-01
 -0.909467547200E-01
 -0.999132964228E-01
 -0.993144999041E-01
 -0.107416674371E+00
 -0.107695842583E+00
 -0.110054746791E+00
 -0.111471804587E+00
 -0.111887654281E+00
 -0.114713940742E+00
 -0.104125274450E+00
 -0.108537204488E+00
 -0.815919460850E-01
 -0.875772028897E-01
 -0.539160204988E-01
 -0.611400523229E-01
 -0.231055530996E-01
 -0.311147722387E-01
  0.904658753106E-02
  0.586014773322E-03
  0.399006588906E-01
  0.311953776969E-01
  0.700856537119E-01
  0.613299668073E-01
  0.104211769642E+00
  0.956949538126E-01
  0.143353394536E+00
  0.135398686976E+00
  0.188888748343E+00
  0.181914878457E+00
  0.238981917548E+00
  0.233387182116E+00
  0.301867970161E+00
  0.298264094093E+00
  0.372889581246E+00
  0.371459342337E+00
  0.475961195497E+00
  0.476315256781E+00
  0.562494180896E+00
  0.560141148757E+00
  0.521447551632E+00
  0.508659733453E+00
  0.270387450371E+00
  0.284739214518E+00
  0.340238047939E-01
  0.584997615009E-01
 -0.203861859822E+00
 -0.170162231535E+00
 -0.323229615294E+00
 -0.285401174946E+00
 -0.330935166499E+00
 -0.296820804241E+00
 -0.351069973521E+00
 -0.319670451318E+00
 -0.357830585355E+00
 -0.329891963959E+00
 -0.368407286149E+00
 -0.343597323152E+00
 -0.375318547416E+00
 -0.353599959030E+00
 -0.380063233329E+00
 -0.361248305868E+00
 -0.383432560791E+00
 -0.367328459196E+00
 -0.391774358652E+00
 -0.378075796168E+00
 -0.404492536624E+00
 -0.393047735426E+00
 -0.416610975432E+00
 -0.407550480102E+00
 -0.425252089453E+00
 -0.418901036255E+00
 -0.427992564967E+00
 -0.424502019751E+00
 -0.412905936860E+00
 -0.411985945463E+00
 -0.387960257438E+00
 -0.389125609957E+00
 -0.364585181498E+00
 -0.367314318912E+00
 -0.337254197707E+00
 -0.341100117512E+00
 -0.314277947056E+00
 -0.310491231091E+00
 -0.287031753042E+00
 -0.282606629382E+00
 -0.259348092307E+00
 -0.254378656074E+00
 -0.231518405235E+00
 -0.226142723889E+00
 -0.203533118329E+00
 -0.197812026348E+00
 -0.178563351228E+00
 -0.172499345087E+00
 -0.154282900589E+00
 -0.147843097441E+00
 -0.130975124034E+00
 -0.124086235247E+00
 -0.108889186140E+00
 -0.101471684093E+00
 -0.866700498745E-01
 -0.786625375116E-01
 -0.641995323317E-01
 -0.556018774913E-01
 -0.416068542263E-01
 -0.325828034423E-01
 -0.186171744367E-01
 -0.961982174921E-02
  0.496738474871E-02
  0.132127930406E-01