# vtk DataFile Version 3.0
MachLine results file. Generated by MachLine, USU AeroLab (c) 2022.
ASCII
DATASET POLYDATA
POINTS                  36 float
  0.209237651825E+02  0.192375373840E+01  0.000000000000E+00
  0.190000000000E+02  0.000000000000E+00  0.000000000000E+00
  0.149474915644E+05  0.192375373840E+01  0.112233427059E+04
  0.149484372244E+05  0.000000000000E+00  0.112255002375E+04
  0.244703655243E+02  0.547033166885E+01  0.000000000000E+00
  0.209237651825E+02  0.192375373840E+01  0.000000000000E+00
  0.149457481717E+05  0.547033166885E+01  0.112193651401E+04
  0.149474915644E+05  0.192375373840E+01  0.112233427059E+04
  0.303820724487E+02  0.113820018768E+02  0.000000000000E+00
  0.244703655243E+02  0.547033166885E+01  0.000000000000E+00
  0.149428421700E+05  0.113820018768E+02  0.112127350717E+04
  0.149457481717E+05  0.547033166885E+01  0.112193651401E+04
  0.387563171387E+02  0.197561950684E+02  0.000000000000E+00
  0.303820724487E+02  0.113820018768E+02  0.000000000000E+00
  0.149387256653E+05  0.197561950684E+02  0.112033432300E+04
  0.149428421700E+05  0.113820018768E+02  0.112127350717E+04
  0.482439842224E+02  0.292438049316E+02  0.000000000000E+00
  0.387563171387E+02  0.197561950684E+02  0.000000000000E+00
  0.149340618385E+05  0.292438049316E+02  0.111927026683E+04
  0.149387256653E+05  0.197561950684E+02  0.112033432300E+04
  0.566182289124E+02  0.376179962158E+02  0.000000000000E+00
  0.482439842224E+02  0.292438049316E+02  0.000000000000E+00
  0.149299453338E+05  0.376179962158E+02  0.111833108267E+04
  0.149340618385E+05  0.292438049316E+02  0.111927026683E+04
  0.625299339294E+02  0.435296669006E+02  0.000000000000E+00
  0.566182289124E+02  0.376179962158E+02  0.000000000000E+00
  0.149270393330E+05  0.435296669006E+02  0.111766807604E+04
  0.149299453338E+05  0.376179962158E+02  0.111833108267E+04
  0.660765380859E+02  0.470762481689E+02  0.000000000000E+00
  0.625299339294E+02  0.435296669006E+02  0.000000000000E+00
  0.149252959384E+05  0.470762481689E+02  0.111727031903E+04
  0.149270393330E+05  0.435296669006E+02  0.111766807604E+04
  0.680002975464E+02  0.490000000000E+02  0.000000000000E+00
  0.660765380859E+02  0.470762481689E+02  0.000000000000E+00
  0.149243502812E+05  0.490000000000E+02  0.111705456651E+04
  0.149252959384E+05  0.470762481689E+02  0.111727031903E+04
POLYGONS                  18                  72
3                   0                   3                   1
3                   0                   2                   3
3                   4                   7                   5
3                   4                   6                   7
3                   8                  11                   9
3                   8                  10                  11
3                  12                  15                  13
3                  12                  14                  15
3                  16                  19                  17
3                  16                  18                  19
3                  20                  23                  21
3                  20                  22                  23
3                  24                  27                  25
3                  24                  26                  27
3                  28                  31                  29
3                  28                  30                  31
3                  32                  35                  33
3                  32                  34                  35
POINT_DATA                  36
SCALARS mu float 1
LOOKUP_TABLE default
 -0.713528286958E+00
  0.644359097919E-04
 -0.713528286958E+00
  0.644359097919E-04
 -0.122387368820E+01
 -0.713528286958E+00
 -0.122387368820E+01
 -0.713528286958E+00
 -0.163602384421E+01
 -0.122387368820E+01
 -0.163602384421E+01
 -0.122387368820E+01
 -0.192664091354E+01
 -0.163602384421E+01
 -0.192664091354E+01
 -0.163602384421E+01
 -0.202490146937E+01
 -0.192664091354E+01
 -0.202490146937E+01
 -0.192664091354E+01
 -0.186251749892E+01
 -0.202490146937E+01
 -0.186251749892E+01
 -0.202490146937E+01
 -0.142853034485E+01
 -0.186251749892E+01
 -0.142853034485E+01
 -0.186251749892E+01
 -0.789360184728E+00
 -0.142853034485E+01
 -0.789360184728E+00
 -0.142853034485E+01
  0.000000000000E+00
 -0.789360184728E+00
  0.000000000000E+00
 -0.789360184728E+00
