# vtk DataFile Version 3.0
MachLine results file. Generated by MachLine, USU AeroLab (c) 2023.
ASCII
DATASET POLYDATA
POINTS                  49 float
  0.400000000000E+01  0.000000000000E+00  0.000000000000E+00
  0.250211317690E+01  0.250000000000E+01 -0.146084166400E+00
  0.469337567300E+01  0.250000000000E+01  0.000000000000E+00
  0.130306154330E+01  0.000000000000E+00 -0.179795897110E+00
  0.000000000000E+00  0.000000000000E+00  0.000000000000E+00
  0.144337567300E+01  0.250000000000E+01  0.000000000000E+00
  0.250211317690E+01  0.250000000000E+01  0.146084166400E+00
  0.130306154330E+01  0.000000000000E+00  0.179795897110E+00
  0.370116481050E+01  0.500000000000E+01 -0.112372435700E+00
  0.538675134590E+01  0.500000000000E+01  0.000000000000E+00
  0.288675134590E+01  0.500000000000E+01  0.000000000000E+00
  0.370116481050E+01  0.500000000000E+01  0.112372435700E+00
  0.490021644410E+01  0.750000000000E+01 -0.786607049870E-01
  0.608012701890E+01  0.750000000000E+01  0.000000000000E+00
  0.433012701890E+01  0.750000000000E+01  0.000000000000E+00
  0.490021644410E+01  0.750000000000E+01  0.786607049870E-01
  0.609926807770E+01  0.100000000000E+02 -0.449489742780E-01
  0.677350269190E+01  0.100000000000E+02  0.000000000000E+00
  0.577350269190E+01  0.100000000000E+02  0.000000000000E+00
  0.609926807770E+01  0.100000000000E+02  0.449489742780E-01
  0.611288284710E+01  0.100283188470E+02 -0.315851814260E-01
  0.611288284710E+01  0.100283188470E+02  0.315851814260E-01
  0.611850596200E+01  0.100400150760E+02 -0.124167351750E-17
  0.469337567300E+01 -0.250000000000E+01  0.000000000000E+00
  0.250211317690E+01 -0.250000000000E+01 -0.146084166400E+00
  0.144337567300E+01 -0.250000000000E+01  0.000000000000E+00
  0.250211317690E+01 -0.250000000000E+01  0.146084166400E+00
  0.538675134590E+01 -0.500000000000E+01  0.000000000000E+00
  0.370116481050E+01 -0.500000000000E+01 -0.112372435700E+00
  0.288675134590E+01 -0.500000000000E+01  0.000000000000E+00
  0.370116481050E+01 -0.500000000000E+01  0.112372435700E+00
  0.608012701890E+01 -0.750000000000E+01  0.000000000000E+00
  0.490021644410E+01 -0.750000000000E+01 -0.786607049870E-01
  0.433012701890E+01 -0.750000000000E+01  0.000000000000E+00
  0.490021644410E+01 -0.750000000000E+01  0.786607049870E-01
  0.677350269190E+01 -0.100000000000E+02  0.000000000000E+00
  0.609926807770E+01 -0.100000000000E+02 -0.449489742780E-01
  0.577350269190E+01 -0.100000000000E+02  0.000000000000E+00
  0.609926807770E+01 -0.100000000000E+02  0.449489742780E-01
  0.611288284710E+01 -0.100283188470E+02 -0.315851814260E-01
  0.611288284710E+01 -0.100283188470E+02  0.315851814260E-01
  0.611850596200E+01 -0.100400150760E+02 -0.124167351750E-17
  0.400000000000E+01  0.000000000000E+00  0.000000000000E+00
  0.469337567300E+01  0.250000000000E+01  0.000000000000E+00
  0.538675134590E+01  0.500000000000E+01  0.000000000000E+00
  0.608012701890E+01  0.750000000000E+01  0.000000000000E+00
  0.469337567300E+01 -0.250000000000E+01  0.000000000000E+00
  0.538675134590E+01 -0.500000000000E+01  0.000000000000E+00
  0.608012701890E+01 -0.750000000000E+01  0.000000000000E+00
POLYGONS                  80                 320
3                   0                   1                   2
3                   0                   3                   1
3                   3                   4                   1
3                   1                   4                   5
3                   4                   6                   5
3                   4                   7                   6
3                   7                  42                   6
3                   6                  42                  43
3                   2                   8                   9
3                   2                   1                   8
3                   1                   5                   8
3                   8                   5                  10
3                   5                  11                  10
3                   5                   6                  11
3                   6                  43                  11
3                  11                  43                  44
3                   9                  12                  13
3                   9                   8                  12
3                   8                  10                  12
3                  12                  10                  14
3                  10                  15                  14
3                  10                  11                  15
3                  11                  44                  15
3                  15                  44                  45
3                  13                  16                  17
3                  13                  12                  16
3                  12                  14                  16
3                  16                  14                  18
3                  14                  19                  18
3                  14                  15                  19
3                  15                  45                  19
3                  19                  45                  17
3                  17                  16                  20
3                  16                  18                  20
3                  18                  19                  21
3                  19                  17                  21
3                  17                  20                  22
3                  20                  18                  22
3                  18                  21                  22
3                  21                  17                  22
3                   0                  23                  24
3                   0                  24                   3
3                   3                  24                   4
3                  24                  25                   4
3                   4                  25                  26
3                   4                  26                   7
3                   7                  26                  42
3                  26                  46                  42
3                  23                  27                  28
3                  23                  28                  24
3                  24                  28                  25
3                  28                  29                  25
3                  25                  29                  30
3                  25                  30                  26
3                  26                  30                  46
3                  30                  47                  46
3                  27                  31                  32
3                  27                  32                  28
3                  28                  32                  29
3                  32                  33                  29
3                  29                  33                  34
3                  29                  34                  30
3                  30                  34                  47
3                  34                  48                  47
3                  31                  35                  36
3                  31                  36                  32
3                  32                  36                  33
3                  36                  37                  33
3                  33                  37                  38
3                  33                  38                  34
3                  34                  38                  48
3                  38                  35                  48
3                  35                  39                  36
3                  36                  39                  37
3                  37                  40                  38
3                  38                  40                  35
3                  35                  41                  39
3                  39                  41                  37
3                  37                  41                  40
3                  40                  41                  35
CELL_DATA                  80
NORMALS normals float
  0.665076929379E-01 -0.184459265402E-01 -0.997615394114E+00
  0.665076929397E-01 -0.184459265391E-01 -0.997615394114E+00
 -0.136260970338E+00  0.786703079052E-01 -0.987544394251E+00
 -0.136260970340E+00  0.786703079074E-01 -0.987544394251E+00
 -0.136260970340E+00  0.786703079074E-01  0.987544394251E+00
 -0.136260970338E+00  0.786703079052E-01  0.987544394251E+00
  0.665076929397E-01 -0.184459265391E-01  0.997615394114E+00
  0.665076929379E-01 -0.184459265402E-01  0.997615394114E+00
  0.665076929449E-01 -0.184459265395E-01 -0.997615394114E+00
  0.665076929379E-01 -0.184459265423E-01 -0.997615394114E+00
 -0.136260970340E+00  0.786703079023E-01 -0.987544394251E+00
 -0.136260970339E+00  0.786703079015E-01 -0.987544394251E+00
 -0.136260970339E+00  0.786703079015E-01  0.987544394251E+00
 -0.136260970340E+00  0.786703079023E-01  0.987544394251E+00
  0.665076929379E-01 -0.184459265423E-01  0.997615394114E+00
  0.665076929449E-01 -0.184459265395E-01  0.997615394114E+00
  0.665076929412E-01 -0.184459265411E-01 -0.997615394114E+00
  0.665076929449E-01 -0.184459265404E-01 -0.997615394114E+00
 -0.136260970339E+00  0.786703079070E-01 -0.987544394251E+00
 -0.136260970339E+00  0.786703079066E-01 -0.987544394251E+00
 -0.136260970339E+00  0.786703079066E-01  0.987544394251E+00
 -0.136260970339E+00  0.786703079070E-01  0.987544394251E+00
  0.665076929449E-01 -0.184459265404E-01  0.997615394114E+00
  0.665076929412E-01 -0.184459265411E-01  0.997615394114E+00
  0.665076929380E-01 -0.184459265402E-01 -0.997615394114E+00
  0.665076929412E-01 -0.184459265402E-01 -0.997615394114E+00
 -0.136260970339E+00  0.786703079052E-01 -0.987544394251E+00
 -0.136260970350E+00  0.786703079129E-01 -0.987544394249E+00
 -0.136260970350E+00  0.786703079129E-01  0.987544394249E+00
 -0.136260970339E+00  0.786703079052E-01  0.987544394251E+00
  0.665076929412E-01 -0.184459265402E-01  0.997615394114E+00
  0.665076929380E-01 -0.184459265402E-01  0.997615394114E+00
  0.609109894049E-01  0.401878600429E+00 -0.913664841113E+00
 -0.120611284857E+00  0.470489079112E+00 -0.874124101259E+00
 -0.120611284857E+00  0.470489079112E+00  0.874124101259E+00
  0.609109894049E-01  0.401878600429E+00  0.913664841113E+00
  0.569925666518E-01  0.932897010755E+00 -0.355605138702E+00
 -0.108834355784E+00  0.938351551422E+00 -0.328102802403E+00
 -0.108834355784E+00  0.938351551422E+00  0.328102802403E+00
  0.569925666518E-01  0.932897010755E+00  0.355605138702E+00
  0.665076929379E-01  0.184459265402E-01 -0.997615394114E+00
  0.665076929397E-01  0.184459265391E-01 -0.997615394114E+00
 -0.136260970338E+00 -0.786703079052E-01 -0.987544394251E+00
 -0.136260970340E+00 -0.786703079074E-01 -0.987544394251E+00
 -0.136260970340E+00 -0.786703079074E-01  0.987544394251E+00
 -0.136260970338E+00 -0.786703079052E-01  0.987544394251E+00
  0.665076929397E-01  0.184459265391E-01  0.997615394114E+00
  0.665076929379E-01  0.184459265402E-01  0.997615394114E+00
  0.665076929449E-01  0.184459265395E-01 -0.997615394114E+00
  0.665076929379E-01  0.184459265423E-01 -0.997615394114E+00
 -0.136260970340E+00 -0.786703079023E-01 -0.987544394251E+00
 -0.136260970339E+00 -0.786703079015E-01 -0.987544394251E+00
 -0.136260970339E+00 -0.786703079015E-01  0.987544394251E+00
 -0.136260970340E+00 -0.786703079023E-01  0.987544394251E+00
  0.665076929379E-01  0.184459265423E-01  0.997615394114E+00
  0.665076929449E-01  0.184459265395E-01  0.997615394114E+00
  0.665076929412E-01  0.184459265411E-01 -0.997615394114E+00
  0.665076929449E-01  0.184459265404E-01 -0.997615394114E+00
 -0.136260970339E+00 -0.786703079070E-01 -0.987544394251E+00
 -0.136260970339E+00 -0.786703079066E-01 -0.987544394251E+00
 -0.136260970339E+00 -0.786703079066E-01  0.987544394251E+00
 -0.136260970339E+00 -0.786703079070E-01  0.987544394251E+00
  0.665076929449E-01  0.184459265404E-01  0.997615394114E+00
  0.665076929412E-01  0.184459265411E-01  0.997615394114E+00
  0.665076929380E-01  0.184459265402E-01 -0.997615394114E+00
  0.665076929412E-01  0.184459265402E-01 -0.997615394114E+00
 -0.136260970339E+00 -0.786703079052E-01 -0.987544394251E+00
 -0.136260970350E+00 -0.786703079129E-01 -0.987544394249E+00
 -0.136260970350E+00 -0.786703079129E-01  0.987544394249E+00
 -0.136260970339E+00 -0.786703079052E-01  0.987544394251E+00
  0.665076929412E-01  0.184459265402E-01  0.997615394114E+00
  0.665076929380E-01  0.184459265402E-01  0.997615394114E+00
  0.609109894049E-01 -0.401878600429E+00 -0.913664841113E+00
 -0.120611284857E+00 -0.470489079112E+00 -0.874124101259E+00
 -0.120611284857E+00 -0.470489079112E+00  0.874124101259E+00
  0.609109894049E-01 -0.401878600429E+00  0.913664841113E+00
  0.569925666518E-01 -0.932897010755E+00 -0.355605138702E+00
 -0.108834355784E+00 -0.938351551422E+00 -0.328102802403E+00
 -0.108834355784E+00 -0.938351551422E+00  0.328102802403E+00
  0.569925666518E-01 -0.932897010755E+00  0.355605138702E+00
SCALARS inclination float 1
LOOKUP_TABLE default
  0.100000000000E+01
  0.100000000000E+01
  0.100000000000E+01
  0.100000000000E+01
  0.100000000000E+01
  0.100000000000E+01
  0.100000000000E+01
  0.100000000000E+01
  0.100000000000E+01
  0.100000000000E+01
  0.100000000000E+01
  0.100000000000E+01
  0.100000000000E+01
  0.100000000000E+01
  0.100000000000E+01
  0.100000000000E+01
  0.100000000000E+01
  0.100000000000E+01
  0.100000000000E+01
  0.100000000000E+01
  0.100000000000E+01
  0.100000000000E+01
  0.100000000000E+01
  0.100000000000E+01
  0.100000000000E+01
  0.100000000000E+01
  0.100000000000E+01
  0.100000000000E+01
  0.100000000000E+01
  0.100000000000E+01
  0.100000000000E+01
  0.100000000000E+01
  0.100000000000E+01
  0.100000000000E+01
  0.100000000000E+01
  0.100000000000E+01
  0.100000000000E+01
  0.100000000000E+01
  0.100000000000E+01
  0.100000000000E+01
  0.100000000000E+01
  0.100000000000E+01
  0.100000000000E+01
  0.100000000000E+01
  0.100000000000E+01
  0.100000000000E+01
  0.100000000000E+01
  0.100000000000E+01
  0.100000000000E+01
  0.100000000000E+01
  0.100000000000E+01
  0.100000000000E+01
  0.100000000000E+01
  0.100000000000E+01
  0.100000000000E+01
  0.100000000000E+01
  0.100000000000E+01
  0.100000000000E+01
  0.100000000000E+01
  0.100000000000E+01
  0.100000000000E+01
  0.100000000000E+01
  0.100000000000E+01
  0.100000000000E+01
  0.100000000000E+01
  0.100000000000E+01
  0.100000000000E+01
  0.100000000000E+01
  0.100000000000E+01
  0.100000000000E+01
  0.100000000000E+01
  0.100000000000E+01
  0.100000000000E+01
  0.100000000000E+01
  0.100000000000E+01
  0.100000000000E+01
  0.100000000000E+01
  0.100000000000E+01
  0.100000000000E+01
  0.100000000000E+01
SCALARS distribution_order float 1
LOOKUP_TABLE default
  0.100000000000E+01
  0.100000000000E+01
  0.100000000000E+01
  0.100000000000E+01
  0.100000000000E+01
  0.100000000000E+01
  0.100000000000E+01
  0.100000000000E+01
  0.100000000000E+01
  0.100000000000E+01
  0.100000000000E+01
  0.100000000000E+01
  0.100000000000E+01
  0.100000000000E+01
  0.100000000000E+01
  0.100000000000E+01
  0.100000000000E+01
  0.100000000000E+01
  0.100000000000E+01
  0.100000000000E+01
  0.100000000000E+01
  0.100000000000E+01
  0.100000000000E+01
  0.100000000000E+01
  0.100000000000E+01
  0.100000000000E+01
  0.100000000000E+01
  0.100000000000E+01
  0.100000000000E+01
  0.100000000000E+01
  0.100000000000E+01
  0.100000000000E+01
  0.100000000000E+01
  0.100000000000E+01
  0.100000000000E+01
  0.100000000000E+01
  0.100000000000E+01
  0.100000000000E+01
  0.100000000000E+01
  0.100000000000E+01
  0.100000000000E+01
  0.100000000000E+01
  0.100000000000E+01
  0.100000000000E+01
  0.100000000000E+01
  0.100000000000E+01
  0.100000000000E+01
  0.100000000000E+01
  0.100000000000E+01
  0.100000000000E+01
  0.100000000000E+01
  0.100000000000E+01
  0.100000000000E+01
  0.100000000000E+01
  0.100000000000E+01
  0.100000000000E+01
  0.100000000000E+01
  0.100000000000E+01
  0.100000000000E+01
  0.100000000000E+01
  0.100000000000E+01
  0.100000000000E+01
  0.100000000000E+01
  0.100000000000E+01
  0.100000000000E+01
  0.100000000000E+01
  0.100000000000E+01
  0.100000000000E+01
  0.100000000000E+01
  0.100000000000E+01
  0.100000000000E+01
  0.100000000000E+01
  0.100000000000E+01
  0.100000000000E+01
  0.100000000000E+01
  0.100000000000E+01
  0.100000000000E+01
  0.100000000000E+01
  0.100000000000E+01
  0.100000000000E+01
SCALARS N_discontinuous_edges float 1
LOOKUP_TABLE default
  0.100000000000E+01
  0.100000000000E+01
  0.200000000000E+01
  0.100000000000E+01
  0.100000000000E+01
  0.200000000000E+01
  0.100000000000E+01
  0.100000000000E+01
  0.100000000000E+01
  0.100000000000E+01
  0.100000000000E+01
  0.100000000000E+01
  0.100000000000E+01
  0.100000000000E+01
  0.100000000000E+01
  0.100000000000E+01
  0.100000000000E+01
  0.100000000000E+01
  0.100000000000E+01
  0.100000000000E+01
  0.100000000000E+01
  0.100000000000E+01
  0.100000000000E+01
  0.100000000000E+01
  0.200000000000E+01
  0.100000000000E+01
  0.100000000000E+01
  0.200000000000E+01
  0.200000000000E+01
  0.100000000000E+01
  0.100000000000E+01
  0.200000000000E+01
  0.300000000000E+01
  0.300000000000E+01
  0.300000000000E+01
  0.300000000000E+01
  0.300000000000E+01
  0.300000000000E+01
  0.300000000000E+01
  0.300000000000E+01
  0.100000000000E+01
  0.100000000000E+01
  0.200000000000E+01
  0.100000000000E+01
  0.100000000000E+01
  0.200000000000E+01
  0.100000000000E+01
  0.100000000000E+01
  0.100000000000E+01
  0.100000000000E+01
  0.100000000000E+01
  0.100000000000E+01
  0.100000000000E+01
  0.100000000000E+01
  0.100000000000E+01
  0.100000000000E+01
  0.100000000000E+01
  0.100000000000E+01
  0.100000000000E+01
  0.100000000000E+01
  0.100000000000E+01
  0.100000000000E+01
  0.100000000000E+01
  0.100000000000E+01
  0.200000000000E+01
  0.100000000000E+01
  0.100000000000E+01
  0.200000000000E+01
  0.200000000000E+01
  0.100000000000E+01
  0.100000000000E+01
  0.200000000000E+01
  0.300000000000E+01
  0.300000000000E+01
  0.300000000000E+01
  0.300000000000E+01
  0.300000000000E+01
  0.300000000000E+01
  0.300000000000E+01
  0.300000000000E+01
VECTORS centroid float
  0.373182961663E+01  0.166666666667E+01 -0.486947221333E-01
  0.260172490673E+01  0.833333333333E+00 -0.108626687837E+00
  0.126839157340E+01  0.833333333333E+00 -0.108626687837E+00
  0.131516294997E+01  0.166666666667E+01 -0.486947221333E-01
  0.131516294997E+01  0.166666666667E+01  0.486947221333E-01
  0.126839157340E+01  0.833333333333E+00  0.108626687837E+00
  0.260172490673E+01  0.833333333333E+00  0.108626687837E+00
  0.373182961663E+01  0.166666666667E+01  0.486947221333E-01
  0.459376394313E+01  0.416666666667E+01 -0.374574785667E-01
  0.363221788680E+01  0.333333333333E+01 -0.861522007000E-01
  0.254888455347E+01  0.333333333333E+01 -0.861522007000E-01
  0.267709727647E+01  0.416666666667E+01 -0.374574785667E-01
  0.267709727647E+01  0.416666666667E+01  0.374574785667E-01
  0.254888455347E+01  0.333333333333E+01  0.861522007000E-01
  0.363221788680E+01  0.333333333333E+01  0.861522007000E-01
  0.459376394313E+01  0.416666666667E+01  0.374574785667E-01
  0.545569826963E+01  0.666666666667E+01 -0.262202349957E-01
  0.466271086683E+01  0.583333333333E+01 -0.636777135623E-01
  0.382937753350E+01  0.583333333333E+01 -0.636777135623E-01
  0.403903160297E+01  0.666666666667E+01 -0.262202349957E-01
  0.403903160297E+01  0.666666666667E+01  0.262202349957E-01
  0.382937753350E+01  0.583333333333E+01  0.636777135623E-01
  0.466271086683E+01  0.583333333333E+01  0.636777135623E-01
  0.545569826963E+01  0.666666666667E+01  0.262202349957E-01
  0.631763259617E+01  0.916666666667E+01 -0.149829914260E-01
  0.569320384690E+01  0.833333333333E+01 -0.412032264217E-01
  0.510987051357E+01  0.833333333333E+01 -0.412032264217E-01
  0.540096592950E+01  0.916666666667E+01 -0.149829914260E-01
  0.540096592950E+01  0.916666666667E+01  0.149829914260E-01
  0.510987051357E+01  0.833333333333E+01  0.412032264217E-01
  0.569320384690E+01  0.833333333333E+01  0.412032264217E-01
  0.631763259617E+01  0.916666666667E+01  0.149829914260E-01
  0.632855120557E+01  0.100094396157E+02 -0.255113852347E-01
  0.599521787223E+01  0.100094396157E+02 -0.255113852347E-01
  0.599521787223E+01  0.100094396157E+02  0.255113852347E-01
  0.632855120557E+01  0.100094396157E+02  0.255113852347E-01
  0.633496383367E+01  0.100227779743E+02 -0.105283938087E-01
  0.600163050033E+01  0.100227779743E+02 -0.105283938087E-01
  0.600163050033E+01  0.100227779743E+02  0.105283938087E-01
  0.633496383367E+01  0.100227779743E+02  0.105283938087E-01
  0.373182961663E+01 -0.166666666667E+01 -0.486947221333E-01
  0.260172490673E+01 -0.833333333333E+00 -0.108626687837E+00
  0.126839157340E+01 -0.833333333333E+00 -0.108626687837E+00
  0.131516294997E+01 -0.166666666667E+01 -0.486947221333E-01
  0.131516294997E+01 -0.166666666667E+01  0.486947221333E-01
  0.126839157340E+01 -0.833333333333E+00  0.108626687837E+00
  0.260172490673E+01 -0.833333333333E+00  0.108626687837E+00
  0.373182961663E+01 -0.166666666667E+01  0.486947221333E-01
  0.459376394313E+01 -0.416666666667E+01 -0.374574785667E-01
  0.363221788680E+01 -0.333333333333E+01 -0.861522007000E-01
  0.254888455347E+01 -0.333333333333E+01 -0.861522007000E-01
  0.267709727647E+01 -0.416666666667E+01 -0.374574785667E-01
  0.267709727647E+01 -0.416666666667E+01  0.374574785667E-01
  0.254888455347E+01 -0.333333333333E+01  0.861522007000E-01
  0.363221788680E+01 -0.333333333333E+01  0.861522007000E-01
  0.459376394313E+01 -0.416666666667E+01  0.374574785667E-01
  0.545569826963E+01 -0.666666666667E+01 -0.262202349957E-01
  0.466271086683E+01 -0.583333333333E+01 -0.636777135623E-01
  0.382937753350E+01 -0.583333333333E+01 -0.636777135623E-01
  0.403903160297E+01 -0.666666666667E+01 -0.262202349957E-01
  0.403903160297E+01 -0.666666666667E+01  0.262202349957E-01
  0.382937753350E+01 -0.583333333333E+01  0.636777135623E-01
  0.466271086683E+01 -0.583333333333E+01  0.636777135623E-01
  0.545569826963E+01 -0.666666666667E+01  0.262202349957E-01
  0.631763259617E+01 -0.916666666667E+01 -0.149829914260E-01
  0.569320384690E+01 -0.833333333333E+01 -0.412032264217E-01
  0.510987051357E+01 -0.833333333333E+01 -0.412032264217E-01
  0.540096592950E+01 -0.916666666667E+01 -0.149829914260E-01
  0.540096592950E+01 -0.916666666667E+01  0.149829914260E-01
  0.510987051357E+01 -0.833333333333E+01  0.412032264217E-01
  0.569320384690E+01 -0.833333333333E+01  0.412032264217E-01
  0.631763259617E+01 -0.916666666667E+01  0.149829914260E-01
  0.632855120557E+01 -0.100094396157E+02 -0.255113852347E-01
  0.599521787223E+01 -0.100094396157E+02 -0.255113852347E-01
  0.599521787223E+01 -0.100094396157E+02  0.255113852347E-01
  0.632855120557E+01 -0.100094396157E+02  0.255113852347E-01
  0.633496383367E+01 -0.100227779743E+02 -0.105283938087E-01
  0.600163050033E+01 -0.100227779743E+02 -0.105283938087E-01
  0.600163050033E+01 -0.100227779743E+02  0.105283938087E-01
  0.633496383367E+01 -0.100227779743E+02  0.105283938087E-01
SCALARS C_p_ise float 1
LOOKUP_TABLE default
 -0.124828542463E-01
 -0.356908042736E-01
  0.378332157936E+00
  0.404625372278E+00
  0.842388706303E-01
  0.438722188168E-01
 -0.207714286069E+00
 -0.222791382345E+00
  0.406189506460E-01
  0.358375217858E-01
  0.406191370489E+00
  0.405722784233E+00
  0.833879586512E-01
  0.875715671358E-01
 -0.188918511142E+00
 -0.194280169726E+00
  0.397752324664E-01
  0.420218155596E-01
  0.406727077223E+00
  0.398359003582E+00
  0.991691080135E-01
  0.850052213573E-01
 -0.193095392308E+00
 -0.181713098244E+00
 -0.109399547464E+00
  0.395132381505E-01
  0.398744717664E+00
  0.347526599278E+00
  0.176203811729E+00
  0.994111748819E-01
 -0.181470018433E+00
 -0.395875707725E-01
 -0.287051572616E+00
 -0.233402259819E+00
 -0.154645188696E+00
 -0.126959434135E+00
 -0.202290743153E-01
  0.172312701725E+00
 -0.117490540872E+00
 -0.262634142998E+00
 -0.124828539539E-01
 -0.356908043276E-01
  0.378332157958E+00
  0.404625372290E+00
  0.842388706585E-01
  0.438722188576E-01
 -0.207714286102E+00
 -0.222791382143E+00
  0.406189508467E-01
  0.358375222705E-01
  0.406191370437E+00
  0.405722784214E+00
  0.833879586143E-01
  0.875715670336E-01
 -0.188918510741E+00
 -0.194280169562E+00
  0.397752324297E-01
  0.420218155751E-01
  0.406727077237E+00
  0.398359003582E+00
  0.991691080127E-01
  0.850052213862E-01
 -0.193095392304E+00
 -0.181713098275E+00
 -0.109399547468E+00
  0.395132381527E-01
  0.398744717666E+00
  0.347526599278E+00
  0.176203811730E+00
  0.994111748851E-01
 -0.181470018431E+00
 -0.395875707749E-01
 -0.287051572637E+00
 -0.233402259842E+00
 -0.154645188716E+00
 -0.126959434154E+00
 -0.202290743170E-01
  0.172312701723E+00
 -0.117490540887E+00
 -0.262634143011E+00
SCALARS sigma float 1
LOOKUP_TABLE default
  0.000000000000E+00
  0.000000000000E+00
  0.000000000000E+00
  0.000000000000E+00
  0.000000000000E+00
  0.000000000000E+00
  0.000000000000E+00
  0.000000000000E+00
  0.000000000000E+00
  0.000000000000E+00
  0.000000000000E+00
  0.000000000000E+00
  0.000000000000E+00
  0.000000000000E+00
  0.000000000000E+00
  0.000000000000E+00
  0.000000000000E+00
  0.000000000000E+00
  0.000000000000E+00
  0.000000000000E+00
  0.000000000000E+00
  0.000000000000E+00
  0.000000000000E+00
  0.000000000000E+00
  0.000000000000E+00
  0.000000000000E+00
  0.000000000000E+00
  0.000000000000E+00
  0.000000000000E+00
  0.000000000000E+00
  0.000000000000E+00
  0.000000000000E+00
  0.000000000000E+00
  0.000000000000E+00
  0.000000000000E+00
  0.000000000000E+00
  0.000000000000E+00
  0.000000000000E+00
  0.000000000000E+00
  0.000000000000E+00
  0.000000000000E+00
  0.000000000000E+00
  0.000000000000E+00
  0.000000000000E+00
  0.000000000000E+00
  0.000000000000E+00
  0.000000000000E+00
  0.000000000000E+00
  0.000000000000E+00
  0.000000000000E+00
  0.000000000000E+00
  0.000000000000E+00
  0.000000000000E+00
  0.000000000000E+00
  0.000000000000E+00
  0.000000000000E+00
  0.000000000000E+00
  0.000000000000E+00
  0.000000000000E+00
  0.000000000000E+00
  0.000000000000E+00
  0.000000000000E+00
  0.000000000000E+00
  0.000000000000E+00
  0.000000000000E+00
  0.000000000000E+00
  0.000000000000E+00
  0.000000000000E+00
  0.000000000000E+00
  0.000000000000E+00
  0.000000000000E+00
  0.000000000000E+00
  0.000000000000E+00
  0.000000000000E+00
  0.000000000000E+00
  0.000000000000E+00
  0.000000000000E+00
  0.000000000000E+00
  0.000000000000E+00
  0.000000000000E+00
VECTORS v float
  0.100387835690E+01 -0.239520850524E-01  0.652045282439E-01
  0.101494449442E+01 -0.412281383103E-01  0.695629296723E-01
  0.786375183769E+00  0.106188652589E+00 -0.255523144348E+00
  0.770019518708E+00  0.130582300704E+00 -0.260072350713E+00
  0.949480972641E+00  0.269701819643E-01  0.134902314487E+00
  0.968920532179E+00 -0.139271291944E-02  0.136539183503E+00
  0.111372254898E+01 -0.912381094884E-01 -0.284107776431E-01
  0.112478410921E+01 -0.787140074093E-01 -0.293160329752E-01
  0.977757797195E+00  0.235414514644E-01  0.628932447698E-01
  0.979878950745E+00  0.227246800218E-01  0.661406719555E-01
  0.768102682408E+00  0.131307628018E+00 -0.263391450085E+00
  0.768798833421E+00  0.131287063673E+00 -0.261946368131E+00
  0.949958537538E+00  0.266944597406E-01  0.134414190571E+00
  0.947623837255E+00  0.284237582088E-01  0.136634597820E+00
  0.110410413136E+01 -0.516983730978E-01 -0.259709824861E-01
  0.110759114433E+01 -0.483623175831E-01 -0.301135331761E-01
  0.977734125761E+00  0.312483096941E-01  0.661625716641E-01
  0.976875340582E+00  0.285682115277E-01  0.639829112407E-01
  0.767783308111E+00  0.133704344786E+00 -0.262452776371E+00
  0.776679838457E+00  0.126736963304E+00 -0.249847311278E+00
  0.941070435139E+00  0.318260080554E-01  0.143498810021E+00
  0.948927151414E+00  0.254589635062E-01  0.136545562584E+00
  0.110662900592E+01 -0.530481174328E-01 -0.295288043478E-01
  0.109958877974E+01 -0.524238468847E-01 -0.216883360970E-01
  0.104263972234E+01  0.341073481853E-01  0.176284543167E+00
  0.977750235312E+00  0.314350088245E-01  0.676921618911E-01
  0.776323390923E+00  0.132486861449E+00 -0.247454825219E+00
  0.819354980839E+00  0.102098458361E+00 -0.184331685878E+00
  0.896326970372E+00  0.576586594836E-01  0.189231558367E+00
  0.940595720668E+00  0.265559815141E-01  0.146902816464E+00
  0.109946827456E+01 -0.519238363245E-01 -0.212235797180E-01
  0.101629334898E+01 -0.488847002570E-01  0.743826719619E-01
  0.101575743269E+01  0.489948628179E+00  0.329610217684E+00
  0.879519566614E+00  0.694085354521E+00  0.182745834638E+00
  0.940708566110E+00  0.517068486657E+00 -0.153554412435E+00
  0.993021973365E+00  0.354342895098E+00 -0.170388132650E+00
  0.100674528615E+01 -0.787171350541E-01 -0.282734130416E-01
  0.899944497317E+00  0.152556524884E+00 -0.111793188047E+00
  0.929109801278E+00 -0.810246278139E-01  0.509190059733E+00
  0.996300018130E+00 -0.266322625615E+00  0.522759847822E+00
  0.100387835676E+01  0.239520850870E-01  0.652045280086E-01
  0.101494449444E+01  0.412281383443E-01  0.695629296926E-01
  0.786375183740E+00 -0.106188652598E+00 -0.255523144404E+00
  0.770019518695E+00 -0.130582300711E+00 -0.260072350733E+00
  0.949480972625E+00 -0.269701819734E-01  0.134902314503E+00
  0.968920532154E+00  0.139271291153E-02  0.136539183540E+00
  0.111372254900E+01  0.912381095122E-01 -0.284107776505E-01
  0.112478410907E+01  0.787140074729E-01 -0.293160328037E-01
  0.977757797099E+00 -0.235414515832E-01  0.628932446985E-01
  0.979878950522E+00 -0.227246802135E-01  0.661406717053E-01
  0.768102682471E+00 -0.131307627984E+00 -0.263391449984E+00
  0.768798833443E+00 -0.131287063661E+00 -0.261946368098E+00
  0.949958537559E+00 -0.266944597287E-01  0.134414190550E+00
  0.947623837313E+00 -0.284237581731E-01  0.136634597761E+00