# vtk DataFile Version 3.0
MachLine results file. Generated by MachLine, USU AeroLab (c) 2023.
ASCII
DATASET POLYDATA
POINTS                 688 float
  0.406450006260E+01  0.232558139530E+00  0.000000000000E+00
  0.400000000000E+01  0.000000000000E+00  0.000000000000E+00
  0.598028466709E+02  0.370370370370E+00  0.487312943752E+01
  0.598020663795E+02  0.000000000000E+00  0.488204820953E+01
  0.420544464380E+01  0.740740740740E+00  0.000000000000E+00
  0.410272232190E+01  0.370370370370E+00  0.000000000000E+00
  0.598036269624E+02  0.740740740740E+00  0.486421066552E+01
  0.598028466709E+02  0.370370370370E+00  0.487312943752E+01
  0.430816696580E+01  0.111111111110E+01  0.000000000000E+00
  0.420544464380E+01  0.740740740740E+00  0.000000000000E+00
  0.598044072538E+02  0.111111111110E+01  0.485529189351E+01
  0.598036269624E+02  0.740740740740E+00  0.486421066552E+01
  0.441088928770E+01  0.148148148150E+01  0.000000000000E+00
  0.430816696580E+01  0.111111111110E+01  0.000000000000E+00
  0.598051875453E+02  0.148148148150E+01  0.484637312151E+01
  0.598044072538E+02  0.111111111110E+01  0.485529189351E+01
  0.451361160960E+01  0.185185185190E+01  0.000000000000E+00
  0.441088928770E+01  0.148148148150E+01  0.000000000000E+00
  0.598059678367E+02  0.185185185190E+01  0.483745434951E+01
  0.598051875453E+02  0.148148148150E+01  0.484637312151E+01
  0.461633393150E+01  0.222222222220E+01  0.000000000000E+00
  0.451361160960E+01  0.185185185190E+01  0.000000000000E+00
  0.598067481281E+02  0.222222222220E+01  0.482853557751E+01
  0.598059678367E+02  0.185185185190E+01  0.483745434951E+01
  0.471905625350E+01  0.259259259260E+01  0.000000000000E+00
  0.461633393150E+01  0.222222222220E+01  0.000000000000E+00
  0.598075284196E+02  0.259259259260E+01  0.481961680550E+01
  0.598067481281E+02  0.222222222220E+01  0.482853557751E+01
  0.482177857540E+01  0.296296296300E+01  0.000000000000E+00
  0.471905625350E+01  0.259259259260E+01  0.000000000000E+00
  0.598083087110E+02  0.296296296300E+01  0.481069803349E+01
  0.598075284196E+02  0.259259259260E+01  0.481961680550E+01
  0.492450089730E+01  0.333333333330E+01  0.000000000000E+00
  0.482177857540E+01  0.296296296300E+01  0.000000000000E+00
  0.598090890025E+02  0.333333333330E+01  0.480177926149E+01
  0.598083087110E+02  0.296296296300E+01  0.481069803349E+01
  0.502722321920E+01  0.370370370370E+01  0.000000000000E+00
  0.492450089730E+01  0.333333333330E+01  0.000000000000E+00
  0.598098692939E+02  0.370370370370E+01  0.479286048949E+01
  0.598090890025E+02  0.333333333330E+01  0.480177926149E+01
  0.512994554110E+01  0.407407407410E+01  0.000000000000E+00
  0.502722321920E+01  0.370370370370E+01  0.000000000000E+00
  0.598106495854E+02  0.407407407410E+01  0.478394171749E+01
  0.598098692939E+02  0.370370370370E+01  0.479286048949E+01
  0.523266786310E+01  0.444444444440E+01  0.000000000000E+00
  0.512994554110E+01  0.407407407410E+01  0.000000000000E+00
  0.598114298768E+02  0.444444444440E+01  0.477502294548E+01
  0.598106495854E+02  0.407407407410E+01  0.478394171749E+01
  0.533539018500E+01  0.481481481480E+01  0.000000000000E+00
  0.523266786310E+01  0.444444444440E+01  0.000000000000E+00
  0.598122101682E+02  0.481481481480E+01  0.476610417348E+01
  0.598114298768E+02  0.444444444440E+01  0.477502294548E+01
  0.543811250690E+01  0.518518518520E+01  0.000000000000E+00
  0.533539018500E+01  0.481481481480E+01  0.000000000000E+00
  0.598129904597E+02  0.518518518520E+01  0.475718540147E+01
  0.598122101682E+02  0.481481481480E+01  0.476610417348E+01
  0.554083482880E+01  0.555555555560E+01  0.000000000000E+00
  0.543811250690E+01  0.518518518520E+01  0.000000000000E+00
  0.598137707511E+02  0.555555555560E+01  0.474826662947E+01
  0.598129904597E+02  0.518518518520E+01  0.475718540147E+01
  0.564355715080E+01  0.592592592590E+01  0.000000000000E+00
  0.554083482880E+01  0.555555555560E+01  0.000000000000E+00
  0.598145510426E+02  0.592592592590E+01  0.473934785746E+01
  0.598137707511E+02  0.555555555560E+01  0.474826662947E+01
  0.574627947270E+01  0.629629629630E+01  0.000000000000E+00
  0.564355715080E+01  0.592592592590E+01  0.000000000000E+00
  0.598153313340E+02  0.629629629630E+01  0.473042908546E+01
  0.598145510426E+02  0.592592592590E+01  0.473934785746E+01
  0.584900179460E+01  0.666666666670E+01  0.000000000000E+00
  0.574627947270E+01  0.629629629630E+01  0.000000000000E+00
  0.598161116255E+02  0.666666666670E+01  0.472151031346E+01
  0.598153313340E+02  0.629629629630E+01  0.473042908546E+01
  0.595172411650E+01  0.703703703700E+01  0.000000000000E+00
  0.584900179460E+01  0.666666666670E+01  0.000000000000E+00
  0.598168919169E+02  0.703703703700E+01  0.471259154146E+01
  0.598161116255E+02  0.666666666670E+01  0.472151031346E+01
  0.605444643840E+01  0.740740740740E+01  0.000000000000E+00
  0.595172411650E+01  0.703703703700E+01  0.000000000000E+00
  0.598176722083E+02  0.740740740740E+01  0.470367276945E+01
  0.598168919169E+02  0.703703703700E+01  0.471259154146E+01
  0.615716876040E+01  0.777777777780E+01  0.000000000000E+00
  0.605444643840E+01  0.740740740740E+01  0.000000000000E+00
  0.598184524998E+02  0.777777777780E+01  0.469475399744E+01
  0.598176722083E+02  0.740740740740E+01  0.470367276945E+01
  0.625989108230E+01  0.814814814810E+01  0.000000000000E+00
  0.615716876040E+01  0.777777777780E+01  0.000000000000E+00
  0.598192327912E+02  0.814814814810E+01  0.468583522544E+01
  0.598184524998E+02  0.777777777780E+01  0.469475399744E+01
  0.636261340420E+01  0.851851851850E+01  0.000000000000E+00
  0.625989108230E+01  0.814814814810E+01  0.000000000000E+00
  0.598200130827E+02  0.851851851850E+01  0.467691645344E+01
  0.598192327912E+02  0.814814814810E+01  0.468583522544E+01
  0.646533572610E+01  0.888888888890E+01  0.000000000000E+00
  0.636261340420E+01  0.851851851850E+01  0.000000000000E+00
  0.598207933741E+02  0.888888888890E+01  0.466799768144E+01
  0.598200130827E+02  0.851851851850E+01  0.467691645344E+01
  0.656805804810E+01  0.925925925930E+01  0.000000000000E+00
  0.646533572610E+01  0.888888888890E+01  0.000000000000E+00
  0.598215736656E+02  0.925925925930E+01  0.465907890943E+01
  0.598207933741E+02  0.888888888890E+01  0.466799768144E+01
  0.667078037000E+01  0.962962962960E+01  0.000000000000E+00
  0.656805804810E+01  0.925925925930E+01  0.000000000000E+00
  0.598223539570E+02  0.962962962960E+01  0.465016013743E+01
  0.598215736656E+02  0.925925925930E+01  0.465907890943E+01
  0.677350269190E+01  0.100000000000E+02  0.000000000000E+00
  0.667078037000E+01  0.962962962960E+01  0.000000000000E+00
  0.598231342484E+02  0.100000000000E+02  0.464124136542E+01
  0.598223539570E+02  0.962962962960E+01  0.465016013743E+01
  0.400000000000E+01  0.000000000000E+00  0.000000000000E+00
  0.410272232190E+01 -0.370370370370E+00  0.000000000000E+00
  0.598020663795E+02  0.000000000000E+00  0.488204820953E+01
  0.598028466709E+02 -0.370370370370E+00  0.487312943752E+01
  0.410272232190E+01 -0.370370370370E+00  0.000000000000E+00
  0.420544464380E+01 -0.740740740740E+00  0.000000000000E+00
  0.598028466709E+02 -0.370370370370E+00  0.487312943752E+01
  0.598036269624E+02 -0.740740740740E+00  0.486421066552E+01
  0.420544464380E+01 -0.740740740740E+00  0.000000000000E+00
  0.430816696580E+01 -0.111111111110E+01  0.000000000000E+00
  0.598036269624E+02 -0.740740740740E+00  0.486421066552E+01
  0.598044072538E+02 -0.111111111110E+01  0.485529189351E+01
  0.430816696580E+01 -0.111111111110E+01  0.000000000000E+00
  0.441088928770E+01 -0.148148148150E+01  0.000000000000E+00
  0.598044072538E+02 -0.111111111110E+01  0.485529189351E+01
  0.598051875453E+02 -0.148148148150E+01  0.484637312151E+01
  0.441088928770E+01 -0.148148148150E+01  0.000000000000E+00
  0.451361160960E+01 -0.185185185190E+01  0.000000000000E+00
  0.598051875453E+02 -0.148148148150E+01  0.484637312151E+01
  0.598059678367E+02 -0.185185185190E+01  0.483745434951E+01
  0.451361160960E+01 -0.185185185190E+01  0.000000000000E+00
  0.461633393150E+01 -0.222222222220E+01  0.000000000000E+00
  0.598059678367E+02 -0.185185185190E+01  0.483745434951E+01
  0.598067481281E+02 -0.222222222220E+01  0.482853557751E+01
  0.461633393150E+01 -0.222222222220E+01  0.000000000000E+00
  0.471905625350E+01 -0.259259259260E+01  0.000000000000E+00
  0.598067481281E+02 -0.222222222220E+01  0.482853557751E+01
  0.598075284196E+02 -0.259259259260E+01  0.481961680550E+01
  0.471905625350E+01 -0.259259259260E+01  0.000000000000E+00
  0.482177857540E+01 -0.296296296300E+01  0.000000000000E+00
  0.598075284196E+02 -0.259259259260E+01  0.481961680550E+01
  0.598083087110E+02 -0.296296296300E+01  0.481069803349E+01
  0.482177857540E+01 -0.296296296300E+01  0.000000000000E+00
  0.492450089730E+01 -0.333333333330E+01  0.000000000000E+00
  0.598083087110E+02 -0.296296296300E+01  0.481069803349E+01
  0.598090890025E+02 -0.333333333330E+01  0.480177926149E+01
  0.492450089730E+01 -0.333333333330E+01  0.000000000000E+00
  0.502722321920E+01 -0.370370370370E+01  0.000000000000E+00
  0.598090890025E+02 -0.333333333330E+01  0.480177926149E+01
  0.598098692939E+02 -0.370370370370E+01  0.479286048949E+01
  0.502722321920E+01 -0.370370370370E+01  0.000000000000E+00
  0.512994554110E+01 -0.407407407410E+01  0.000000000000E+00
  0.598098692939E+02 -0.370370370370E+01  0.479286048949E+01
  0.598106495854E+02 -0.407407407410E+01  0.478394171749E+01
  0.512994554110E+01 -0.407407407410E+01  0.000000000000E+00
  0.523266786310E+01 -0.444444444440E+01  0.000000000000E+00
  0.598106495854E+02 -0.407407407410E+01  0.478394171749E+01
  0.598114298768E+02 -0.444444444440E+01  0.477502294548E+01
  0.523266786310E+01 -0.444444444440E+01  0.000000000000E+00
  0.533539018500E+01 -0.481481481480E+01  0.000000000000E+00
  0.598114298768E+02 -0.444444444440E+01  0.477502294548E+01
  0.598122101682E+02 -0.481481481480E+01  0.476610417348E+01
  0.533539018500E+01 -0.481481481480E+01  0.000000000000E+00
[...]
POINT_DATA                 688
SCALARS mu float 1
LOOKUP_TABLE default
 -0.991194153753E-01
 -0.190682435250E+00
 -0.991194153753E-01
 -0.190682435250E+00
 -0.256985037043E+00
 -0.991194153753E-01
 -0.256985037043E+00
 -0.991194153753E-01
 -0.231465301409E+00
 -0.256985037043E+00
 -0.231465301409E+00
 -0.256985037043E+00
 -0.154917980673E+00
 -0.231465301409E+00
 -0.154917980673E+00
 -0.231465301409E+00
 -0.242859195458E+00
 -0.154917980673E+00
 -0.242859195458E+00
 -0.154917980673E+00
 -0.243895523647E+00
 -0.242859195458E+00
 -0.243895523647E+00
 -0.242859195458E+00
 -0.189362021980E+00
 -0.243895523647E+00
 -0.189362021980E+00
 -0.243895523647E+00
 -0.240451585303E+00
 -0.189362021980E+00
 -0.240451585303E+00
 -0.189362021980E+00
 -0.246737870596E+00
 -0.240451585303E+00
 -0.246737870596E+00
 -0.240451585303E+00
 -0.210140628423E+00
 -0.246737870596E+00
 -0.210140628423E+00
 -0.246737870596E+00
 -0.240548049418E+00
 -0.210140628423E+00
 -0.240548049418E+00
 -0.210140628423E+00
 -0.244861856458E+00
 -0.240548049418E+00
 -0.244861856458E+00
 -0.240548049418E+00
 -0.220707784712E+00
 -0.244861856458E+00
 -0.220707784712E+00
 -0.244861856458E+00
 -0.239013866273E+00
 -0.220707784712E+00
 -0.239013866273E+00
 -0.220707784712E+00
 -0.239610564794E+00
 -0.239013866273E+00
 -0.239610564794E+00
 -0.239013866273E+00
 -0.223515110821E+00
 -0.239610564794E+00
 -0.223515110821E+00
 -0.239610564794E+00
 -0.234183407615E+00
 -0.223515110821E+00
 -0.234183407615E+00
 -0.223515110821E+00
 -0.231346083057E+00
 -0.234183407615E+00
 -0.231346083057E+00
 -0.234183407615E+00
 -0.220296945784E+00
 -0.231346083057E+00
 -0.220296945784E+00
 -0.231346083057E+00
 -0.225785001610E+00
 -0.220296945784E+00
 -0.225785001610E+00
 -0.220296945784E+00
 -0.220401304009E+00
 -0.225785001610E+00
 -0.220401304009E+00
 -0.225785001610E+00
 -0.212436977579E+00
 -0.220401304009E+00
 -0.212436977579E+00
 -0.220401304009E+00
 -0.214142831409E+00
 -0.212436977579E+00
 -0.214142831409E+00
 -0.212436977579E+00
 -0.207186042213E+00
 -0.214142831409E+00
 -0.207186042213E+00
 -0.214142831409E+00
 -0.201074774771E+00
 -0.207186042213E+00
 -0.201074774771E+00
 -0.207186042213E+00
 -0.199931589300E+00
 -0.201074774771E+00
 -0.199931589300E+00
 -0.201074774771E+00
 -0.192198148010E+00
 -0.199931589300E+00
 -0.192198148010E+00
 -0.199931589300E+00
 -0.187158181778E+00
 -0.192198148010E+00
 -0.187158181778E+00
 -0.192198148010E+00
 -0.183910524392E+00
 -0.187158181778E+00
 -0.183910524392E+00
 -0.187158181778E+00
 -0.175862118127E+00
 -0.183910524392E+00
 -0.175862118127E+00
 -0.183910524392E+00
 -0.171520947182E+00
 -0.175862118127E+00
 -0.171520947182E+00
 -0.175862118127E+00
 -0.166648025882E+00
 -0.171520947182E+00
 -0.166648025882E+00
 -0.171520947182E+00
 -0.158350236125E+00
 -0.166648025882E+00
 -0.158350236125E+00
 -0.166648025882E+00
 -0.154836467287E+00
 -0.158350236125E+00
 -0.154836467287E+00
 -0.158350236125E+00
 -0.147880703638E+00
 -0.154836467287E+00
 -0.147880703638E+00
 -0.154836467287E+00
 -0.139409410232E+00
 -0.147880703638E+00
 -0.139409410232E+00
 -0.147880703638E+00
 -0.136673861847E+00
 -0.139409410232E+00
 -0.136673861847E+00
 -0.139409410232E+00
 -0.125248771326E+00
 -0.136673861847E+00
 -0.125248771326E+00
 -0.136673861847E+00
 -0.115309933449E+00
 -0.125248771326E+00
 -0.115309933449E+00
 -0.125248771326E+00
 -0.114962168088E+00
 -0.115309933449E+00
 -0.114962168088E+00
 -0.115309933449E+00
 -0.753059770053E-01
 -0.114962168088E+00
 -0.753059770053E-01
 -0.114962168088E+00
 -0.933997065360E-01
 -0.753059770053E-01
 -0.933997065360E-01
 -0.753059770053E-01
  0.000000000000E+00
 -0.933997065360E-01
  0.000000000000E+00
 -0.933997065360E-01
 -0.190682435250E+00
 -0.991194153735E-01
 -0.190682435250E+00
 -0.991194153735E-01
 -0.991194153735E-01
 -0.256985037040E+00
 -0.991194153735E-01
 -0.256985037040E+00
 -0.256985037040E+00
 -0.231465301406E+00
 -0.256985037040E+00
 -0.231465301406E+00
 -0.231465301406E+00
 -0.154917980669E+00
 -0.231465301406E+00
 -0.154917980669E+00
 -0.154917980669E+00
 -0.242859195454E+00
 -0.154917980669E+00
 -0.242859195454E+00
 -0.242859195454E+00
 -0.243895523643E+00
 -0.242859195454E+00
 -0.243895523643E+00
 -0.243895523643E+00
 -0.189362021976E+00
 -0.243895523643E+00
 -0.189362021976E+00
 -0.189362021976E+00
 -0.240451585299E+00
 -0.189362021976E+00
 -0.240451585299E+00
 -0.240451585299E+00
 -0.246737870592E+00
 -0.240451585299E+00
 -0.246737870592E+00
 -0.246737870592E+00
 -0.210140628419E+00
 -0.246737870592E+00
 -0.210140628419E+00
 -0.210140628419E+00
 -0.240548049415E+00
 -0.210140628419E+00
 -0.240548049415E+00
 -0.240548049415E+00
 -0.244861856457E+00
 -0.240548049415E+00
 -0.244861856457E+00
 -0.244861856457E+00
 -0.220707784714E+00
 -0.244861856457E+00
 -0.220707784714E+00
 -0.220707784714E+00
 -0.239013866277E+00
 -0.220707784714E+00
 -0.239013866277E+00
 -0.239013866277E+00
 -0.239610564803E+00
 -0.239013866277E+00
 -0.239610564803E+00
 -0.239610564803E+00
 -0.223515110835E+00
 -0.239610564803E+00
 -0.223515110835E+00
 -0.223515110835E+00
 -0.234183407636E+00
 -0.223515110835E+00
 -0.234183407636E+00
 -0.234183407636E+00
 -0.231346083089E+00
 -0.234183407636E+00
 -0.231346083089E+00
 -0.231346083089E+00
 -0.220296945828E+00
 -0.231346083089E+00
 -0.220296945828E+00
 -0.220296945828E+00
 -0.225785001670E+00
 -0.220296945828E+00
 -0.225785001670E+00
 -0.225785001670E+00
 -0.220401304088E+00
 -0.225785001670E+00
 -0.220401304088E+00
 -0.220401304088E+00
 -0.212436977684E+00
 -0.220401304088E+00
 -0.212436977684E+00
 -0.212436977684E+00
 -0.214142831545E+00
 -0.212436977684E+00
 -0.214142831545E+00
 -0.214142831545E+00
 -0.207186042386E+00
 -0.214142831545E+00
 -0.207186042386E+00
 -0.207186042386E+00
 -0.201074774988E+00
 -0.207186042386E+00
 -0.201074774988E+00
 -0.201074774988E+00
 -0.199931589567E+00
 -0.201074774988E+00
 -0.199931589567E+00
 -0.199931589567E+00
 -0.192198148334E+00
 -0.199931589567E+00
 -0.192198148334E+00
 -0.192198148334E+00
 -0.187158182164E+00
 -0.192198148334E+00
 -0.187158182164E+00
 -0.187158182164E+00
 -0.183910524846E+00
 -0.187158182164E+00
 -0.183910524846E+00
 -0.183910524846E+00
 -0.175862118655E+00
 -0.183910524846E+00
 -0.175862118655E+00
 -0.175862118655E+00
 -0.171520947792E+00
 -0.175862118655E+00
 -0.171520947792E+00
 -0.171520947792E+00
 -0.166648026582E+00
 -0.171520947792E+00
 -0.166648026582E+00
 -0.166648026582E+00
 -0.158350236922E+00
 -0.166648026582E+00
 -0.158350236922E+00
 -0.158350236922E+00
 -0.154836468185E+00
 -0.158350236922E+00
 -0.154836468185E+00
 -0.154836468185E+00
 -0.147880704639E+00
 -0.154836468185E+00
 -0.147880704639E+00
 -0.147880704639E+00
 -0.139409411329E+00
 -0.147880704639E+00
 -0.139409411329E+00
 -0.139409411329E+00
 -0.136673862997E+00
 -0.139409411329E+00
 -0.136673862997E+00
 -0.136673862997E+00
 -0.125248772567E+00
 -0.136673862997E+00
 -0.125248772567E+00
 -0.125248772567E+00
 -0.115309935853E+00
 -0.125248772567E+00
 -0.115309935853E+00
 -0.115309935853E+00
 -0.114962174569E+00
 -0.115309935853E+00
 -0.114962174569E+00
 -0.114962174569E+00
 -0.753059866055E-01
 -0.114962174569E+00
 -0.753059866055E-01
 -0.753059866055E-01
 -0.933997055289E-01
 -0.753059866055E-01
 -0.933997055289E-01
 -0.933997055289E-01
  0.000000000000E+00
 -0.933997055289E-01
  0.000000000000E+00
  0.410864283400E+00
  0.230160790560E+00
  0.410864283400E+00
  0.230160790560E+00
  0.982808434653E-01
  0.410864283400E+00
  0.982808434653E-01
  0.410864283400E+00
  0.151351887234E+00
  0.982808434653E-01
  0.151351887234E+00
  0.982808434653E-01
  0.301796739870E+00
  0.151351887234E+00
  0.301796739870E+00
  0.151351887234E+00
  0.124908322151E+00
  0.301796739870E+00
  0.124908322151E+00
  0.301796739870E+00
  0.123209590876E+00
  0.124908322151E+00
  0.123209590876E+00
  0.124908322151E+00
  0.228424829976E+00
  0.123209590876E+00
  0.228424829976E+00
  0.123209590876E+00
  0.122309062721E+00
  0.228424829976E+00
  0.122309062721E+00
  0.228424829976E+00
  0.107570740939E+00
  0.122309062721E+00
  0.107570740939E+00
  0.122309062721E+00
  0.175034450998E+00
  0.107570740939E+00
  0.175034450998E+00
  0.107570740939E+00
  0.107746813489E+00
  0.175034450998E+00
  0.107746813489E+00
  0.175034450998E+00
  0.940269266046E-01
  0.107746813489E+00
  0.940269266046E-01
  0.107746813489E+00
  0.134303539290E+00
  0.940269266046E-01
  0.134303539290E+00
  0.940269266046E-01
  0.888667548748E-01
  0.134303539290E+00
  0.888667548748E-01
  0.134303539290E+00
  0.796652792316E-01
  0.888667548748E-01
  0.796652792316E-01
  0.888667548748E-01
  0.101381485503E+00
  0.796652792316E-01
  0.101381485503E+00
  0.796652792316E-01
  0.690528643575E-01
  0.101381485503E+00
  0.690528643575E-01
  0.101381485503E+00
  0.640693563800E-01
  0.690528643575E-01
  0.640693563800E-01
  0.690528643575E-01
  0.734450648023E-01
  0.640693563800E-01
  0.734450648023E-01
  0.640693563800E-01
  0.496991707339E-01
  0.734450648023E-01
  0.496991707339E-01
  0.734450648023E-01
  0.474881226697E-01
  0.496991707339E-01
  0.474881226697E-01
  0.496991707339E-01
  0.488651672867E-01
  0.474881226697E-01
  0.488651672867E-01
  0.474881226697E-01
  0.313294023129E-01
  0.488651672867E-01
  0.313294023129E-01
  0.488651672867E-01
  0.303515505970E-01
  0.313294023129E-01
  0.303515505970E-01
  0.313294023129E-01
  0.267687744015E-01
  0.303515505970E-01
  0.267687744015E-01
  0.303515505970E-01
  0.140012155469E-01
  0.267687744015E-01
  0.140012155469E-01
  0.267687744015E-01
  0.130222914844E-01
  0.140012155469E-01
  0.130222914844E-01
  0.140012155469E-01
  0.667342663873E-02
  0.130222914844E-01
  0.667342663873E-02
  0.130222914844E-01
 -0.248591826509E-02
  0.667342663873E-02
 -0.248591826509E-02
  0.667342663873E-02
 -0.418186291407E-02
 -0.248591826509E-02
 -0.418186291407E-02
 -0.248591826509E-02
 -0.118318839180E-01
 -0.418186291407E-02
 -0.118318839180E-01
 -0.418186291407E-02
 -0.184110713727E-01
 -0.118318839180E-01
 -0.184110713727E-01
 -0.118318839180E-01
 -0.209100190073E-01
 -0.184110713727E-01
 -0.209100190073E-01
 -0.184110713727E-01
 -0.292261430788E-01
 -0.209100190073E-01
 -0.292261430788E-01
 -0.209100190073E-01
 -0.334705479707E-01
 -0.292261430788E-01
 -0.334705479707E-01
 -0.292261430788E-01
 -0.365937468769E-01
 -0.334705479707E-01
 -0.365937468769E-01
 -0.334705479707E-01
 -0.451623391051E-01
 -0.365937468769E-01
 -0.451623391051E-01
 -0.365937468769E-01
 -0.454623701200E-01
 -0.451623391051E-01
 -0.454623701200E-01
 -0.451623391051E-01
 -0.478274161309E-01
 -0.454623701200E-01
 -0.478274161309E-01
 -0.454623701200E-01
 -0.575748193041E-01
 -0.478274161309E-01
 -0.575748193041E-01
 -0.478274161309E-01
 -0.352422677601E-01
 -0.575748193041E-01
 -0.352422677601E-01
 -0.575748193041E-01
 -0.589837533262E-01
 -0.352422677601E-01
 -0.589837533262E-01
 -0.352422677601E-01
  0.000000000000E+00
 -0.589837533262E-01
  0.000000000000E+00
 -0.589837533262E-01
  0.230160790560E+00
  0.410864283403E+00
  0.230160790560E+00
  0.410864283403E+00
  0.410864283403E+00
  0.982808434721E-01
  0.410864283403E+00
  0.982808434721E-01
  0.982808434721E-01
  0.151351887243E+00
  0.982808434721E-01
  0.151351887243E+00
  0.151351887243E+00
  0.301796739883E+00
  0.151351887243E+00
  0.301796739883E+00
  0.301796739883E+00
  0.124908322167E+00
  0.301796739883E+00
  0.124908322167E+00
  0.124908322167E+00
  0.123209590895E+00
  0.124908322167E+00
  0.123209590895E+00
  0.123209590895E+00
  0.228424830000E+00
  0.123209590895E+00
  0.228424830000E+00
  0.228424830000E+00
  0.122309062748E+00
  0.228424830000E+00
  0.122309062748E+00
  0.122309062748E+00
  0.107570740970E+00
  0.122309062748E+00
  0.107570740970E+00
  0.107570740970E+00
  0.175034451033E+00
  0.107570740970E+00
  0.175034451033E+00
  0.175034451033E+00
  0.107746813529E+00
  0.175034451033E+00
  0.107746813529E+00
  0.107746813529E+00
  0.940269266493E-01
  0.107746813529E+00
  0.940269266493E-01
  0.940269266493E-01
  0.134303539340E+00
  0.940269266493E-01
  0.134303539340E+00
  0.134303539340E+00
  0.888667549311E-01
  0.134303539340E+00
  0.888667549311E-01
  0.888667549311E-01
  0.796652792947E-01
  0.888667549311E-01
  0.796652792947E-01
  0.796652792947E-01
  0.101381485573E+00
  0.796652792947E-01
  0.101381485573E+00
  0.101381485573E+00
  0.690528644362E-01
  0.101381485573E+00
  0.690528644362E-01
  0.690528644362E-01
  0.640693564680E-01
  0.690528644362E-01
  0.640693564680E-01
  0.640693564680E-01
  0.734450649004E-01
  0.640693564680E-01
  0.734450649004E-01
  0.734450649004E-01
  0.496991708434E-01
  0.734450649004E-01
  0.496991708434E-01
  0.496991708434E-01
  0.474881227914E-01
  0.496991708434E-01
  0.474881227914E-01
  0.474881227914E-01
  0.488651674215E-01
  0.474881227914E-01
  0.488651674215E-01
  0.488651674215E-01
  0.313294024616E-01
  0.488651674215E-01
  0.313294024616E-01
  0.313294024616E-01
  0.303515507596E-01
  0.313294024616E-01
  0.303515507596E-01
  0.303515507596E-01
  0.267687745782E-01
  0.303515507596E-01
  0.267687745782E-01
  0.267687745782E-01
  0.140012157378E-01
  0.267687745782E-01
  0.140012157378E-01
  0.140012157378E-01
  0.130222916899E-01
  0.140012157378E-01
  0.130222916899E-01
  0.130222916899E-01
  0.667342686061E-02
  0.130222916899E-01
  0.667342686061E-02
  0.667342686061E-02
 -0.248591802409E-02
  0.667342686061E-02
 -0.248591802409E-02
 -0.248591802409E-02
 -0.418186265112E-02
 -0.248591802409E-02
 -0.418186265112E-02
 -0.418186265112E-02
 -0.118318836319E-01
 -0.418186265112E-02
 -0.118318836319E-01
 -0.118318836319E-01
 -0.184110710661E-01
 -0.118318836319E-01
 -0.184110710661E-01
 -0.184110710661E-01
 -0.209100186899E-01
 -0.184110710661E-01
 -0.209100186899E-01
 -0.209100186899E-01
 -0.292261427714E-01
 -0.209100186899E-01
 -0.292261427714E-01
 -0.292261427714E-01
 -0.334705477048E-01
 -0.292261427714E-01
 -0.334705477048E-01
 -0.334705477048E-01
 -0.365937466834E-01
 -0.334705477048E-01
 -0.365937466834E-01
 -0.365937466834E-01
 -0.451623389735E-01
 -0.365937466834E-01
 -0.451623389735E-01
 -0.451623389735E-01
 -0.454623701086E-01
 -0.451623389735E-01
 -0.454623701086E-01
 -0.454623701086E-01
 -0.478274173569E-01
 -0.454623701086E-01
 -0.478274173569E-01
 -0.478274173569E-01
 -0.575748247933E-01
 -0.478274173569E-01
 -0.575748247933E-01
 -0.575748247933E-01
 -0.352422757501E-01
 -0.575748247933E-01
 -0.352422757501E-01
 -0.352422757501E-01
 -0.589837507802E-01
 -0.352422757501E-01
 -0.589837507802E-01
 -0.589837507802E-01
  0.000000000000E+00
 -0.589837507802E-01
  0.000000000000E+00
