# vtk DataFile Version 3.0
MachLine results file. Generated by MachLine, USU AeroLab (c) 2023.
ASCII
DATASET POLYDATA
POINTS                 752 float
  0.405901069560E+01  0.212765957450E+00  0.000000000000E+00
  0.400000000000E+01  0.000000000000E+00  0.000000000000E+00
  0.598027686418E+02  0.333333333330E+00  0.487402131472E+01
  0.598020663795E+02  0.000000000000E+00  0.488204820953E+01
  0.418490017950E+01  0.666666666670E+00  0.000000000000E+00
  0.409245008970E+01  0.333333333330E+00  0.000000000000E+00
  0.598034709041E+02  0.666666666670E+00  0.486599441992E+01
  0.598027686418E+02  0.333333333330E+00  0.487402131472E+01
  0.427735026920E+01  0.100000000000E+01  0.000000000000E+00
  0.418490017950E+01  0.666666666670E+00  0.000000000000E+00
  0.598041731664E+02  0.100000000000E+01  0.485796752511E+01
  0.598034709041E+02  0.666666666670E+00  0.486599441992E+01
  0.436980035890E+01  0.133333333330E+01  0.000000000000E+00
  0.427735026920E+01  0.100000000000E+01  0.000000000000E+00
  0.598048754287E+02  0.133333333330E+01  0.484994063031E+01
  0.598041731664E+02  0.100000000000E+01  0.485796752511E+01
  0.446225044860E+01  0.166666666670E+01  0.000000000000E+00
  0.436980035890E+01  0.133333333330E+01  0.000000000000E+00
  0.598055776910E+02  0.166666666670E+01  0.484191373551E+01
  0.598048754287E+02  0.133333333330E+01  0.484994063031E+01
  0.455470053840E+01  0.200000000000E+01  0.000000000000E+00
  0.446225044860E+01  0.166666666670E+01  0.000000000000E+00
  0.598062799533E+02  0.200000000000E+01  0.483388684070E+01
  0.598055776910E+02  0.166666666670E+01  0.484191373551E+01
  0.464715062810E+01  0.233333333330E+01  0.000000000000E+00
  0.455470053840E+01  0.200000000000E+01  0.000000000000E+00
  0.598069822156E+02  0.233333333330E+01  0.482585994590E+01
  0.598062799533E+02  0.200000000000E+01  0.483388684070E+01
  0.473960071780E+01  0.266666666670E+01  0.000000000000E+00
  0.464715062810E+01  0.233333333330E+01  0.000000000000E+00
  0.598076844779E+02  0.266666666670E+01  0.481783305110E+01
  0.598069822156E+02  0.233333333330E+01  0.482585994590E+01
  0.483205080760E+01  0.300000000000E+01  0.000000000000E+00
  0.473960071780E+01  0.266666666670E+01  0.000000000000E+00
  0.598083867402E+02  0.300000000000E+01  0.480980615629E+01
  0.598076844779E+02  0.266666666670E+01  0.481783305110E+01
  0.492450089730E+01  0.333333333330E+01  0.000000000000E+00
  0.483205080760E+01  0.300000000000E+01  0.000000000000E+00
  0.598090890025E+02  0.333333333330E+01  0.480177926149E+01
  0.598083867402E+02  0.300000000000E+01  0.480980615629E+01
  0.501695098700E+01  0.366666666670E+01  0.000000000000E+00
  0.492450089730E+01  0.333333333330E+01  0.000000000000E+00
  0.598097912648E+02  0.366666666670E+01  0.479375236669E+01
  0.598090890025E+02  0.333333333330E+01  0.480177926149E+01
  0.510940107680E+01  0.400000000000E+01  0.000000000000E+00
  0.501695098700E+01  0.366666666670E+01  0.000000000000E+00
  0.598104935271E+02  0.400000000000E+01  0.478572547188E+01
  0.598097912648E+02  0.366666666670E+01  0.479375236669E+01
  0.520185116650E+01  0.433333333330E+01  0.000000000000E+00
  0.510940107680E+01  0.400000000000E+01  0.000000000000E+00
  0.598111957894E+02  0.433333333330E+01  0.477769857708E+01
  0.598104935271E+02  0.400000000000E+01  0.478572547188E+01
  0.529430125620E+01  0.466666666670E+01  0.000000000000E+00
  0.520185116650E+01  0.433333333330E+01  0.000000000000E+00
  0.598118980517E+02  0.466666666670E+01  0.476967168228E+01
  0.598111957894E+02  0.433333333330E+01  0.477769857708E+01
  0.538675134590E+01  0.500000000000E+01  0.000000000000E+00
  0.529430125620E+01  0.466666666670E+01  0.000000000000E+00
  0.598126003140E+02  0.500000000000E+01  0.476164478748E+01
  0.598118980517E+02  0.466666666670E+01  0.476967168228E+01
  0.547920143570E+01  0.533333333330E+01  0.000000000000E+00
  0.538675134590E+01  0.500000000000E+01  0.000000000000E+00
  0.598133025763E+02  0.533333333330E+01  0.475361789267E+01
  0.598126003140E+02  0.500000000000E+01  0.476164478748E+01
  0.557165152540E+01  0.566666666670E+01  0.000000000000E+00
  0.547920143570E+01  0.533333333330E+01  0.000000000000E+00
  0.598140048386E+02  0.566666666670E+01  0.474559099787E+01
  0.598133025763E+02  0.533333333330E+01  0.475361789267E+01
  0.566410161510E+01  0.600000000000E+01  0.000000000000E+00
  0.557165152540E+01  0.566666666670E+01  0.000000000000E+00
  0.598147071009E+02  0.600000000000E+01  0.473756410307E+01
  0.598140048386E+02  0.566666666670E+01  0.474559099787E+01
  0.575655170490E+01  0.633333333330E+01  0.000000000000E+00
  0.566410161510E+01  0.600000000000E+01  0.000000000000E+00
  0.598154093632E+02  0.633333333330E+01  0.472953720826E+01
  0.598147071009E+02  0.600000000000E+01  0.473756410307E+01
  0.584900179460E+01  0.666666666670E+01  0.000000000000E+00
  0.575655170490E+01  0.633333333330E+01  0.000000000000E+00
  0.598161116255E+02  0.666666666670E+01  0.472151031346E+01
  0.598154093632E+02  0.633333333330E+01  0.472953720826E+01
  0.594145188430E+01  0.700000000000E+01  0.000000000000E+00
  0.584900179460E+01  0.666666666670E+01  0.000000000000E+00
  0.598168138878E+02  0.700000000000E+01  0.471348341866E+01
  0.598161116255E+02  0.666666666670E+01  0.472151031346E+01
  0.603390197410E+01  0.733333333330E+01  0.000000000000E+00
  0.594145188430E+01  0.700000000000E+01  0.000000000000E+00
  0.598175161501E+02  0.733333333330E+01  0.470545652385E+01
  0.598168138878E+02  0.700000000000E+01  0.471348341866E+01
  0.612635206380E+01  0.766666666670E+01  0.000000000000E+00
  0.603390197410E+01  0.733333333330E+01  0.000000000000E+00
  0.598182184123E+02  0.766666666670E+01  0.469742962905E+01
  0.598175161501E+02  0.733333333330E+01  0.470545652385E+01
  0.621880215350E+01  0.800000000000E+01  0.000000000000E+00
  0.612635206380E+01  0.766666666670E+01  0.000000000000E+00
  0.598189206746E+02  0.800000000000E+01  0.468940273425E+01
  0.598182184123E+02  0.766666666670E+01  0.469742962905E+01
  0.631125224320E+01  0.833333333330E+01  0.000000000000E+00
  0.621880215350E+01  0.800000000000E+01  0.000000000000E+00
  0.598196229369E+02  0.833333333330E+01  0.468137583945E+01
  0.598189206746E+02  0.800000000000E+01  0.468940273425E+01
  0.640370233300E+01  0.866666666670E+01  0.000000000000E+00
  0.631125224320E+01  0.833333333330E+01  0.000000000000E+00
  0.598203251992E+02  0.866666666670E+01  0.467334894464E+01
  0.598196229369E+02  0.833333333330E+01  0.468137583945E+01
  0.649615242270E+01  0.900000000000E+01  0.000000000000E+00
  0.640370233300E+01  0.866666666670E+01  0.000000000000E+00
  0.598210274615E+02  0.900000000000E+01  0.466532204984E+01
  0.598203251992E+02  0.866666666670E+01  0.467334894464E+01
  0.658860251240E+01  0.933333333330E+01  0.000000000000E+00
  0.649615242270E+01  0.900000000000E+01  0.000000000000E+00
  0.598217297238E+02  0.933333333330E+01  0.465729515503E+01
  0.598210274615E+02  0.900000000000E+01  0.466532204984E+01
  0.668105260220E+01  0.966666666670E+01  0.000000000000E+00
  0.658860251240E+01  0.933333333330E+01  0.000000000000E+00
  0.598224319861E+02  0.966666666670E+01  0.464926826023E+01
  0.598217297238E+02  0.933333333330E+01  0.465729515503E+01
  0.677350269190E+01  0.100000000000E+02  0.000000000000E+00
  0.668105260220E+01  0.966666666670E+01  0.000000000000E+00
  0.598231342484E+02  0.100000000000E+02  0.464124136542E+01
  0.598224319861E+02  0.966666666670E+01  0.464926826023E+01
  0.400000000000E+01  0.000000000000E+00  0.000000000000E+00
  0.409245008970E+01 -0.333333333330E+00  0.000000000000E+00
  0.598020663795E+02  0.000000000000E+00  0.488204820953E+01
  0.598027686418E+02 -0.333333333330E+00  0.487402131472E+01
  0.409245008970E+01 -0.333333333330E+00  0.000000000000E+00
  0.418490017950E+01 -0.666666666670E+00  0.000000000000E+00
  0.598027686418E+02 -0.333333333330E+00  0.487402131472E+01
  0.598034709041E+02 -0.666666666670E+00  0.486599441992E+01
  0.418490017950E+01 -0.666666666670E+00  0.000000000000E+00
  0.427735026920E+01 -0.100000000000E+01  0.000000000000E+00
  0.598034709041E+02 -0.666666666670E+00  0.486599441992E+01
  0.598041731664E+02 -0.100000000000E+01  0.485796752511E+01
  0.427735026920E+01 -0.100000000000E+01  0.000000000000E+00
  0.436980035890E+01 -0.133333333330E+01  0.000000000000E+00
  0.598041731664E+02 -0.100000000000E+01  0.485796752511E+01
  0.598048754287E+02 -0.133333333330E+01  0.484994063031E+01
  0.436980035890E+01 -0.133333333330E+01  0.000000000000E+00
  0.446225044860E+01 -0.166666666670E+01  0.000000000000E+00
  0.598048754287E+02 -0.133333333330E+01  0.484994063031E+01
  0.598055776910E+02 -0.166666666670E+01  0.484191373551E+01
  0.446225044860E+01 -0.166666666670E+01  0.000000000000E+00
  0.455470053840E+01 -0.200000000000E+01  0.000000000000E+00
  0.598055776910E+02 -0.166666666670E+01  0.484191373551E+01
  0.598062799533E+02 -0.200000000000E+01  0.483388684070E+01
  0.455470053840E+01 -0.200000000000E+01  0.000000000000E+00
  0.464715062810E+01 -0.233333333330E+01  0.000000000000E+00
  0.598062799533E+02 -0.200000000000E+01  0.483388684070E+01
  0.598069822156E+02 -0.233333333330E+01  0.482585994590E+01
  0.464715062810E+01 -0.233333333330E+01  0.000000000000E+00
  0.473960071780E+01 -0.266666666670E+01  0.000000000000E+00
  0.598069822156E+02 -0.233333333330E+01  0.482585994590E+01
  0.598076844779E+02 -0.266666666670E+01  0.481783305110E+01
  0.473960071780E+01 -0.266666666670E+01  0.000000000000E+00
  0.483205080760E+01 -0.300000000000E+01  0.000000000000E+00
  0.598076844779E+02 -0.266666666670E+01  0.481783305110E+01
  0.598083867402E+02 -0.300000000000E+01  0.480980615629E+01
  0.483205080760E+01 -0.300000000000E+01  0.000000000000E+00
  0.492450089730E+01 -0.333333333330E+01  0.000000000000E+00
  0.598083867402E+02 -0.300000000000E+01  0.480980615629E+01
  0.598090890025E+02 -0.333333333330E+01  0.480177926149E+01
  0.492450089730E+01 -0.333333333330E+01  0.000000000000E+00
[...]
POINT_DATA                 752
SCALARS mu float 1
LOOKUP_TABLE default
 -0.105441702150E+00
 -0.193588004909E+00
 -0.105441702150E+00
 -0.193588004909E+00
 -0.259236101558E+00
 -0.105441702150E+00
 -0.259236101558E+00
 -0.105441702150E+00
 -0.233990161384E+00
 -0.259236101558E+00
 -0.233990161384E+00
 -0.259236101558E+00
 -0.158365265976E+00
 -0.233990161384E+00
 -0.158365265976E+00
 -0.233990161384E+00
 -0.244594442939E+00
 -0.158365265976E+00
 -0.244594442939E+00
 -0.158365265976E+00
 -0.246581741833E+00
 -0.244594442939E+00
 -0.246581741833E+00
 -0.244594442939E+00
 -0.191877307236E+00
 -0.246581741833E+00
 -0.191877307236E+00
 -0.246581741833E+00
 -0.241895833548E+00
 -0.191877307236E+00
 -0.241895833548E+00
 -0.191877307236E+00
 -0.249923992061E+00
 -0.241895833548E+00
 -0.249923992061E+00
 -0.241895833548E+00
 -0.212910128885E+00
 -0.249923992061E+00
 -0.212910128885E+00
 -0.249923992061E+00
 -0.242498082861E+00
 -0.212910128885E+00
 -0.242498082861E+00
 -0.212910128885E+00
 -0.249056306547E+00
 -0.242498082861E+00
 -0.249056306547E+00
 -0.242498082861E+00
 -0.224510964009E+00
 -0.249056306547E+00
 -0.224510964009E+00
 -0.249056306547E+00
 -0.242197209501E+00
 -0.224510964009E+00
 -0.242197209501E+00
 -0.224510964009E+00
 -0.245280446956E+00
 -0.242197209501E+00
 -0.245280446956E+00
 -0.242197209501E+00
 -0.228865015112E+00
 -0.245280446956E+00
 -0.228865015112E+00
 -0.245280446956E+00
 -0.239213958566E+00
 -0.228865015112E+00
 -0.239213958566E+00
 -0.228865015112E+00
 -0.238899476041E+00
 -0.239213958566E+00
 -0.238899476041E+00
 -0.239213958566E+00
 -0.227597915778E+00
 -0.238899476041E+00
 -0.227597915778E+00
 -0.238899476041E+00
 -0.233020226012E+00
 -0.227597915778E+00
 -0.233020226012E+00
 -0.227597915778E+00
 -0.230122020246E+00
 -0.233020226012E+00
 -0.230122020246E+00
 -0.233020226012E+00
 -0.221920589627E+00
 -0.230122020246E+00
 -0.221920589627E+00
 -0.230122020246E+00
 -0.223829111907E+00
 -0.221920589627E+00
 -0.223829111907E+00
 -0.221920589627E+00
 -0.219246576510E+00
 -0.223829111907E+00
 -0.219246576510E+00
 -0.223829111907E+00
 -0.212805227055E+00
 -0.219246576510E+00
 -0.212805227055E+00
 -0.219246576510E+00
 -0.212135511966E+00
 -0.212805227055E+00
 -0.212135511966E+00
 -0.212805227055E+00
 -0.206675314126E+00
 -0.212135511966E+00
 -0.206675314126E+00
 -0.212135511966E+00
 -0.201055084461E+00
 -0.206675314126E+00
 -0.201055084461E+00
 -0.206675314126E+00
 -0.198552905561E+00
 -0.201055084461E+00
 -0.198552905561E+00
 -0.201055084461E+00
 -0.192817907268E+00
 -0.198552905561E+00
 -0.192817907268E+00
 -0.198552905561E+00
 -0.187337354743E+00
 -0.192817907268E+00
 -0.187337354743E+00
 -0.192817907268E+00
 -0.183741476204E+00
 -0.187337354743E+00
 -0.183741476204E+00
 -0.187337354743E+00
 -0.177979891217E+00
 -0.183741476204E+00
 -0.177979891217E+00
 -0.183741476204E+00
 -0.172165706411E+00
 -0.177979891217E+00
 -0.172165706411E+00
 -0.177979891217E+00
 -0.168229629219E+00
 -0.172165706411E+00
 -0.168229629219E+00
 -0.172165706411E+00
 -0.162231482699E+00
 -0.168229629219E+00
 -0.162231482699E+00
 -0.168229629219E+00
 -0.155804498147E+00
 -0.162231482699E+00
 -0.155804498147E+00
 -0.162231482699E+00
 -0.152239267560E+00
 -0.155804498147E+00
 -0.152239267560E+00
 -0.155804498147E+00
 -0.145016015386E+00
 -0.152239267560E+00
 -0.145016015386E+00
 -0.152239267560E+00
 -0.137861968355E+00
 -0.145016015386E+00
 -0.137861968355E+00
 -0.145016015386E+00
 -0.134834158334E+00
 -0.137861968355E+00
 -0.134834158334E+00
 -0.137861968355E+00
 -0.123580373198E+00
 -0.134834158334E+00
 -0.123580373198E+00
 -0.134834158334E+00
 -0.114186199258E+00
 -0.123580373198E+00
 -0.114186199258E+00
 -0.123580373198E+00
 -0.113033700270E+00
 -0.114186199258E+00
 -0.113033700270E+00
 -0.114186199258E+00
 -0.743818804799E-01
 -0.113033700270E+00
 -0.743818804799E-01
 -0.113033700270E+00
 -0.905595520088E-01
 -0.743818804799E-01
 -0.905595520088E-01
 -0.743818804799E-01
  0.000000000000E+00
 -0.905595520088E-01
  0.000000000000E+00
 -0.905595520088E-01
 -0.193588004909E+00
 -0.105441702150E+00
 -0.193588004909E+00
 -0.105441702150E+00
 -0.105441702150E+00
 -0.259236101559E+00
 -0.105441702150E+00
 -0.259236101559E+00
 -0.259236101559E+00
 -0.233990161385E+00
 -0.259236101559E+00
 -0.233990161385E+00
 -0.233990161385E+00
 -0.158365265977E+00
 -0.233990161385E+00
 -0.158365265977E+00
 -0.158365265977E+00
 -0.244594442940E+00
 -0.158365265977E+00
 -0.244594442940E+00
 -0.244594442940E+00
 -0.246581741835E+00
 -0.244594442940E+00
 -0.246581741835E+00
 -0.246581741835E+00
 -0.191877307239E+00
 -0.246581741835E+00
 -0.191877307239E+00
 -0.191877307239E+00
 -0.241895833552E+00
 -0.191877307239E+00
 -0.241895833552E+00
 -0.241895833552E+00
 -0.249923992065E+00
 -0.241895833552E+00
 -0.249923992065E+00
 -0.249923992065E+00
 -0.212910128890E+00
 -0.249923992065E+00
 -0.212910128890E+00
 -0.212910128890E+00
 -0.242498082866E+00
 -0.212910128890E+00
 -0.242498082866E+00
 -0.242498082866E+00
 -0.249056306553E+00
 -0.242498082866E+00
 -0.249056306553E+00
 -0.249056306553E+00
 -0.224510964017E+00
 -0.249056306553E+00
 -0.224510964017E+00
 -0.224510964017E+00
 -0.242197209510E+00
 -0.224510964017E+00
 -0.242197209510E+00
 -0.242197209510E+00
 -0.245280446966E+00
 -0.242197209510E+00
 -0.245280446966E+00
 -0.245280446966E+00
 -0.228865015124E+00
 -0.245280446966E+00
 -0.228865015124E+00
 -0.228865015124E+00
 -0.239213958581E+00
 -0.228865015124E+00
 -0.239213958581E+00
 -0.239213958581E+00
 -0.238899476059E+00
 -0.239213958581E+00
 -0.238899476059E+00
 -0.238899476059E+00
 -0.227597915798E+00
 -0.238899476059E+00
 -0.227597915798E+00
 -0.227597915798E+00
 -0.233020226036E+00
 -0.227597915798E+00
 -0.233020226036E+00
 -0.233020226036E+00
 -0.230122020275E+00
 -0.233020226036E+00
 -0.230122020275E+00
 -0.230122020275E+00
 -0.221920589662E+00
 -0.230122020275E+00
 -0.221920589662E+00
 -0.221920589662E+00
 -0.223829111949E+00
 -0.221920589662E+00
 -0.223829111949E+00
 -0.223829111949E+00
 -0.219246576560E+00
 -0.223829111949E+00
 -0.219246576560E+00
 -0.219246576560E+00
 -0.212805227115E+00
 -0.219246576560E+00
 -0.212805227115E+00
 -0.212805227115E+00
 -0.212135512038E+00
 -0.212805227115E+00
 -0.212135512038E+00
 -0.212135512038E+00
 -0.206675314212E+00
 -0.212135512038E+00
 -0.206675314212E+00
 -0.206675314212E+00
 -0.201055084564E+00
 -0.206675314212E+00
 -0.201055084564E+00
 -0.201055084564E+00
 -0.198552905683E+00
 -0.201055084564E+00
 -0.198552905683E+00
 -0.198552905683E+00
 -0.192817907413E+00
 -0.198552905683E+00
 -0.192817907413E+00
 -0.192817907413E+00
 -0.187337354915E+00
 -0.192817907413E+00
 -0.187337354915E+00
 -0.187337354915E+00
 -0.183741476408E+00
 -0.187337354915E+00
 -0.183741476408E+00
 -0.183741476408E+00
 -0.177979891457E+00
 -0.183741476408E+00
 -0.177979891457E+00
 -0.177979891457E+00
 -0.172165706690E+00
 -0.177979891457E+00
 -0.172165706690E+00
 -0.172165706690E+00
 -0.168229629542E+00
 -0.172165706690E+00
 -0.168229629542E+00
 -0.168229629542E+00
 -0.162231483070E+00
 -0.168229629542E+00
 -0.162231483070E+00
 -0.162231483070E+00
 -0.155804498569E+00
 -0.162231483070E+00
 -0.155804498569E+00
 -0.155804498569E+00
 -0.152239268031E+00
 -0.155804498569E+00
 -0.152239268031E+00
 -0.152239268031E+00
 -0.145016015901E+00
 -0.152239268031E+00
 -0.145016015901E+00
 -0.145016015901E+00
 -0.137861968902E+00
 -0.145016015901E+00
 -0.137861968902E+00
 -0.137861968902E+00
 -0.134834158899E+00
 -0.137861968902E+00
 -0.134834158899E+00
 -0.134834158899E+00
 -0.123580373767E+00
 -0.134834158899E+00
 -0.123580373767E+00
 -0.123580373767E+00
 -0.114186199826E+00
 -0.123580373767E+00
 -0.114186199826E+00
 -0.114186199826E+00
 -0.113033700842E+00
 -0.114186199826E+00
 -0.113033700842E+00
 -0.113033700842E+00
 -0.743818810801E-01
 -0.113033700842E+00
 -0.743818810801E-01
 -0.743818810801E-01
 -0.905595524761E-01
 -0.743818810801E-01
 -0.905595524761E-01
 -0.905595524761E-01
  0.000000000000E+00
 -0.905595524761E-01
  0.000000000000E+00
  0.404971673334E+00
  0.228967855427E+00
  0.404971673334E+00
  0.228967855427E+00
  0.993333524013E-01
  0.404971673334E+00
  0.993333524013E-01
  0.404971673334E+00
  0.150785317396E+00
  0.993333524013E-01
  0.150785317396E+00
  0.993333524013E-01
  0.301409625093E+00
  0.150785317396E+00
  0.301409625093E+00
  0.150785317396E+00
  0.127842113223E+00
  0.301409625093E+00
  0.127842113223E+00
  0.301409625093E+00
  0.123459859465E+00
  0.127842113223E+00
  0.123459859465E+00
  0.127842113223E+00
  0.231104424963E+00
  0.123459859465E+00
  0.231104424963E+00
  0.123459859465E+00
  0.127606692686E+00
  0.231104424963E+00
  0.127606692686E+00
  0.231104424963E+00
  0.109124274077E+00
  0.127606692686E+00
  0.109124274077E+00
  0.127606692686E+00
  0.179706822155E+00
  0.109124274077E+00
  0.179706822155E+00
  0.109124274077E+00
  0.114923859821E+00
  0.179706822155E+00
  0.114923859821E+00
  0.179706822155E+00
  0.971260825500E-01
  0.114923859821E+00
  0.971260825500E-01
  0.114923859821E+00
  0.140627852865E+00
  0.971260825500E-01
  0.140627852865E+00
  0.971260825500E-01
  0.975071083923E-01
  0.140627852865E+00
  0.975071083923E-01
  0.140627852865E+00
  0.843919764060E-01
  0.975071083923E-01
  0.843919764060E-01
  0.975071083923E-01
  0.109318109140E+00
  0.843919764060E-01
  0.109318109140E+00
  0.843919764060E-01
  0.788249664664E-01
  0.109318109140E+00
  0.788249664664E-01
  0.109318109140E+00
  0.703723750726E-01
  0.788249664664E-01
  0.703723750726E-01
  0.788249664664E-01
  0.828746617937E-01
  0.703723750726E-01
  0.828746617937E-01
  0.703723750726E-01
  0.603813241541E-01
  0.828746617937E-01
  0.603813241541E-01
  0.828746617937E-01
  0.552813260372E-01
  0.603813241541E-01
  0.552813260372E-01
  0.603813241541E-01
  0.596474219017E-01
  0.552813260372E-01
  0.596474219017E-01
  0.552813260372E-01
  0.426947308177E-01
  0.596474219017E-01
  0.426947308177E-01
  0.596474219017E-01
  0.395159456659E-01
  0.426947308177E-01
  0.395159456659E-01
  0.426947308177E-01
  0.387498366499E-01
  0.395159456659E-01
  0.387498366499E-01
  0.395159456659E-01
  0.259191911942E-01
  0.387498366499E-01
  0.259191911942E-01
  0.387498366499E-01
  0.234276551445E-01
  0.259191911942E-01
  0.234276551445E-01
  0.259191911942E-01
  0.197180045720E-01
  0.234276551445E-01
  0.197180045720E-01
  0.234276551445E-01
  0.999985715622E-02
  0.197180045720E-01
  0.999985715622E-02
  0.197180045720E-01
  0.729761411315E-02
  0.999985715622E-02
  0.729761411315E-02
  0.999985715622E-02
  0.225792226103E-02
  0.729761411315E-02
  0.225792226103E-02
  0.729761411315E-02
 -0.532453107473E-02
  0.225792226103E-02
 -0.532453107473E-02
  0.225792226103E-02
 -0.864766882466E-02
 -0.532453107473E-02
 -0.864766882466E-02
 -0.532453107473E-02
 -0.138663527871E-01
 -0.864766882466E-02
 -0.138663527871E-01
 -0.864766882466E-02
 -0.203693995146E-01
 -0.138663527871E-01
 -0.203693995146E-01
 -0.138663527871E-01
 -0.241291938231E-01
 -0.203693995146E-01
 -0.241291938231E-01
 -0.203693995146E-01
 -0.288206316347E-01
 -0.241291938231E-01
 -0.288206316347E-01
 -0.241291938231E-01
 -0.352650121244E-01
 -0.288206316347E-01
 -0.352650121244E-01
 -0.288206316347E-01
 -0.384239051511E-01
 -0.352650121244E-01
 -0.384239051511E-01
 -0.352650121244E-01
 -0.422929956760E-01
 -0.384239051511E-01
 -0.422929956760E-01
 -0.384239051511E-01
 -0.490818798261E-01
 -0.422929956760E-01
 -0.490818798261E-01
 -0.422929956760E-01
 -0.489192044864E-01
 -0.490818798261E-01
 -0.489192044864E-01
 -0.490818798261E-01
 -0.508236138791E-01
 -0.489192044864E-01
 -0.508236138791E-01
 -0.489192044864E-01
 -0.587926170277E-01
 -0.508236138791E-01
 -0.587926170277E-01
 -0.508236138791E-01
 -0.365999543066E-01
 -0.587926170277E-01
 -0.365999543066E-01
 -0.587926170277E-01
 -0.577959010902E-01
 -0.365999543066E-01
 -0.577959010902E-01
 -0.365999543066E-01
  0.000000000000E+00
 -0.577959010902E-01
  0.000000000000E+00
 -0.577959010902E-01
  0.228967855427E+00
  0.404971673336E+00
  0.228967855427E+00
  0.404971673336E+00
  0.404971673336E+00
  0.993333524034E-01
  0.404971673336E+00
  0.993333524034E-01
  0.993333524034E-01
  0.150785317399E+00
  0.993333524034E-01
  0.150785317399E+00
  0.150785317399E+00
  0.301409625097E+00
  0.150785317399E+00
  0.301409625097E+00
  0.301409625097E+00
  0.127842113228E+00
  0.301409625097E+00
  0.127842113228E+00
  0.127842113228E+00
  0.123459859471E+00
  0.127842113228E+00
  0.123459859471E+00
  0.123459859471E+00
  0.231104424970E+00
  0.123459859471E+00
  0.231104424970E+00
  0.231104424970E+00
  0.127606692695E+00
  0.231104424970E+00
  0.127606692695E+00
  0.127606692695E+00
  0.109124274087E+00
  0.127606692695E+00
  0.109124274087E+00
  0.109124274087E+00
  0.179706822167E+00
  0.109124274087E+00
  0.179706822167E+00
  0.179706822167E+00
  0.114923859834E+00
  0.179706822167E+00
  0.114923859834E+00
  0.114923859834E+00
  0.971260825643E-01
  0.114923859834E+00
  0.971260825643E-01
  0.971260825643E-01
  0.140627852881E+00
  0.971260825643E-01
  0.140627852881E+00
  0.140627852881E+00
  0.975071084105E-01
  0.140627852881E+00
  0.975071084105E-01
  0.975071084105E-01
  0.843919764262E-01
  0.975071084105E-01
  0.843919764262E-01
  0.843919764262E-01
  0.109318109163E+00
  0.843919764262E-01
  0.109318109163E+00
  0.109318109163E+00
  0.788249664916E-01
  0.109318109163E+00
  0.788249664916E-01
  0.788249664916E-01
  0.703723751006E-01
  0.788249664916E-01
  0.703723751006E-01
  0.703723751006E-01
  0.828746618250E-01
  0.703723751006E-01
  0.828746618250E-01
  0.828746618250E-01
  0.603813241891E-01
  0.828746618250E-01
  0.603813241891E-01
  0.603813241891E-01
  0.552813260761E-01
  0.603813241891E-01
  0.552813260761E-01
  0.552813260761E-01
  0.596474219451E-01
  0.552813260761E-01
  0.596474219451E-01
  0.596474219451E-01
  0.426947308662E-01
  0.596474219451E-01
  0.426947308662E-01
  0.426947308662E-01
  0.395159457199E-01
  0.426947308662E-01
  0.395159457199E-01
  0.395159457199E-01
  0.387498367103E-01
  0.395159457199E-01
  0.387498367103E-01
  0.387498367103E-01
  0.259191912616E-01
  0.387498367103E-01
  0.259191912616E-01
  0.259191912616E-01
  0.234276552194E-01
  0.259191912616E-01
  0.234276552194E-01
  0.234276552194E-01
  0.197180046557E-01
  0.234276552194E-01
  0.197180046557E-01
  0.197180046557E-01
  0.999985724948E-02
  0.197180046557E-01
  0.999985724948E-02
  0.999985724948E-02
  0.729761421736E-02
  0.999985724948E-02
  0.729761421736E-02
  0.729761421736E-02
  0.225792237849E-02
  0.729761421736E-02
  0.225792237849E-02
  0.225792237849E-02
 -0.532453094127E-02
  0.225792237849E-02
 -0.532453094127E-02
 -0.532453094127E-02
 -0.864766867099E-02
 -0.532453094127E-02
 -0.864766867099E-02
 -0.864766867099E-02
 -0.138663526077E-01
 -0.864766867099E-02
 -0.138663526077E-01
 -0.138663526077E-01
 -0.203693993034E-01
 -0.138663526077E-01
 -0.203693993034E-01
 -0.203693993034E-01
 -0.241291935739E-01
 -0.203693993034E-01
 -0.241291935739E-01
 -0.241291935739E-01
 -0.288206313417E-01
 -0.241291935739E-01
 -0.288206313417E-01
 -0.288206313417E-01
 -0.352650117827E-01
 -0.288206313417E-01
 -0.352650117827E-01
 -0.352650117827E-01
 -0.384239047546E-01
 -0.352650117827E-01
 -0.384239047546E-01
 -0.384239047546E-01
 -0.422929952171E-01
 -0.384239047546E-01
 -0.422929952171E-01
 -0.422929952171E-01
 -0.490818792919E-01
 -0.422929952171E-01
 -0.490818792919E-01
 -0.490818792919E-01
 -0.489192038572E-01
 -0.490818792919E-01
 -0.489192038572E-01
 -0.489192038572E-01
 -0.508236131289E-01
 -0.489192038572E-01
 -0.508236131289E-01
 -0.508236131289E-01
 -0.587926161374E-01
 -0.508236131289E-01
 -0.587926161374E-01
 -0.587926161374E-01
 -0.365999532640E-01
 -0.587926161374E-01
 -0.365999532640E-01
 -0.365999532640E-01
 -0.577959002912E-01
 -0.365999532640E-01
 -0.577959002912E-01
 -0.577959002912E-01
  0.000000000000E+00
 -0.577959002912E-01
  0.000000000000E+00
