# vtk DataFile Version 3.0
MachLine results file. Generated by MachLine, USU AeroLab (c) 2023.
ASCII
DATASET POLYDATA
POINTS                 480 float
  0.409245008970E+01  0.333333333330E+00  0.000000000000E+00
  0.400000000000E+01  0.000000000000E+00  0.000000000000E+00
  0.598027686418E+02  0.333333333330E+00  0.487402131472E+01
  0.598020663795E+02  0.000000000000E+00  0.488204820953E+01
  0.418490017950E+01  0.666666666670E+00  0.000000000000E+00
  0.409245008970E+01  0.333333333330E+00  0.000000000000E+00
  0.598034709041E+02  0.666666666670E+00  0.486599441992E+01
  0.598027686418E+02  0.333333333330E+00  0.487402131472E+01
  0.427735026920E+01  0.100000000000E+01  0.000000000000E+00
  0.418490017950E+01  0.666666666670E+00  0.000000000000E+00
  0.598041731664E+02  0.100000000000E+01  0.485796752511E+01
  0.598034709041E+02  0.666666666670E+00  0.486599441992E+01
  0.436980035890E+01  0.133333333330E+01  0.000000000000E+00
  0.427735026920E+01  0.100000000000E+01  0.000000000000E+00
  0.598048754287E+02  0.133333333330E+01  0.484994063031E+01
  0.598041731664E+02  0.100000000000E+01  0.485796752511E+01
  0.446225044860E+01  0.166666666670E+01  0.000000000000E+00
  0.436980035890E+01  0.133333333330E+01  0.000000000000E+00
  0.598055776910E+02  0.166666666670E+01  0.484191373551E+01
  0.598048754287E+02  0.133333333330E+01  0.484994063031E+01
  0.455470053840E+01  0.200000000000E+01  0.000000000000E+00
  0.446225044860E+01  0.166666666670E+01  0.000000000000E+00
  0.598062799533E+02  0.200000000000E+01  0.483388684070E+01
  0.598055776910E+02  0.166666666670E+01  0.484191373551E+01
  0.464715062810E+01  0.233333333330E+01  0.000000000000E+00
  0.455470053840E+01  0.200000000000E+01  0.000000000000E+00
  0.598069822156E+02  0.233333333330E+01  0.482585994590E+01
  0.598062799533E+02  0.200000000000E+01  0.483388684070E+01
  0.473960071780E+01  0.266666666670E+01  0.000000000000E+00
  0.464715062810E+01  0.233333333330E+01  0.000000000000E+00
  0.598076844779E+02  0.266666666670E+01  0.481783305110E+01
  0.598069822156E+02  0.233333333330E+01  0.482585994590E+01
  0.483205080760E+01  0.300000000000E+01  0.000000000000E+00
  0.473960071780E+01  0.266666666670E+01  0.000000000000E+00
  0.598083867402E+02  0.300000000000E+01  0.480980615629E+01
  0.598076844779E+02  0.266666666670E+01  0.481783305110E+01
  0.492450089730E+01  0.333333333330E+01  0.000000000000E+00
  0.483205080760E+01  0.300000000000E+01  0.000000000000E+00
  0.598090890025E+02  0.333333333330E+01  0.480177926149E+01
  0.598083867402E+02  0.300000000000E+01  0.480980615629E+01
  0.501695098700E+01  0.366666666670E+01  0.000000000000E+00
  0.492450089730E+01  0.333333333330E+01  0.000000000000E+00
  0.598097912648E+02  0.366666666670E+01  0.479375236669E+01
  0.598090890025E+02  0.333333333330E+01  0.480177926149E+01
  0.510940107680E+01  0.400000000000E+01  0.000000000000E+00
  0.501695098700E+01  0.366666666670E+01  0.000000000000E+00
  0.598104935271E+02  0.400000000000E+01  0.478572547188E+01
  0.598097912648E+02  0.366666666670E+01  0.479375236669E+01
  0.520185116650E+01  0.433333333330E+01  0.000000000000E+00
  0.510940107680E+01  0.400000000000E+01  0.000000000000E+00
  0.598111957894E+02  0.433333333330E+01  0.477769857708E+01
  0.598104935271E+02  0.400000000000E+01  0.478572547188E+01
  0.529430125620E+01  0.466666666670E+01  0.000000000000E+00
  0.520185116650E+01  0.433333333330E+01  0.000000000000E+00
  0.598118980517E+02  0.466666666670E+01  0.476967168228E+01
  0.598111957894E+02  0.433333333330E+01  0.477769857708E+01
  0.538675134590E+01  0.500000000000E+01  0.000000000000E+00
  0.529430125620E+01  0.466666666670E+01  0.000000000000E+00
  0.598126003140E+02  0.500000000000E+01  0.476164478748E+01
  0.598118980517E+02  0.466666666670E+01  0.476967168228E+01
  0.547920143570E+01  0.533333333330E+01  0.000000000000E+00
  0.538675134590E+01  0.500000000000E+01  0.000000000000E+00
  0.598133025763E+02  0.533333333330E+01  0.475361789267E+01
  0.598126003140E+02  0.500000000000E+01  0.476164478748E+01
  0.557165152540E+01  0.566666666670E+01  0.000000000000E+00
  0.547920143570E+01  0.533333333330E+01  0.000000000000E+00
  0.598140048386E+02  0.566666666670E+01  0.474559099787E+01
  0.598133025763E+02  0.533333333330E+01  0.475361789267E+01
  0.566410161510E+01  0.600000000000E+01  0.000000000000E+00
  0.557165152540E+01  0.566666666670E+01  0.000000000000E+00
  0.598147071009E+02  0.600000000000E+01  0.473756410307E+01
  0.598140048386E+02  0.566666666670E+01  0.474559099787E+01
  0.575655170490E+01  0.633333333330E+01  0.000000000000E+00
  0.566410161510E+01  0.600000000000E+01  0.000000000000E+00
  0.598154093632E+02  0.633333333330E+01  0.472953720826E+01
  0.598147071009E+02  0.600000000000E+01  0.473756410307E+01
  0.584900179460E+01  0.666666666670E+01  0.000000000000E+00
  0.575655170490E+01  0.633333333330E+01  0.000000000000E+00
  0.598161116255E+02  0.666666666670E+01  0.472151031346E+01
  0.598154093632E+02  0.633333333330E+01  0.472953720826E+01
  0.594145188430E+01  0.700000000000E+01  0.000000000000E+00
  0.584900179460E+01  0.666666666670E+01  0.000000000000E+00
  0.598168138878E+02  0.700000000000E+01  0.471348341866E+01
  0.598161116255E+02  0.666666666670E+01  0.472151031346E+01
  0.603390197410E+01  0.733333333330E+01  0.000000000000E+00
  0.594145188430E+01  0.700000000000E+01  0.000000000000E+00
  0.598175161501E+02  0.733333333330E+01  0.470545652385E+01
  0.598168138878E+02  0.700000000000E+01  0.471348341866E+01
  0.612635206380E+01  0.766666666670E+01  0.000000000000E+00
  0.603390197410E+01  0.733333333330E+01  0.000000000000E+00
  0.598182184123E+02  0.766666666670E+01  0.469742962905E+01
  0.598175161501E+02  0.733333333330E+01  0.470545652385E+01
  0.621880215350E+01  0.800000000000E+01  0.000000000000E+00
  0.612635206380E+01  0.766666666670E+01  0.000000000000E+00
  0.598189206746E+02  0.800000000000E+01  0.468940273425E+01
  0.598182184123E+02  0.766666666670E+01  0.469742962905E+01
  0.631125224320E+01  0.833333333330E+01  0.000000000000E+00
  0.621880215350E+01  0.800000000000E+01  0.000000000000E+00
  0.598196229369E+02  0.833333333330E+01  0.468137583945E+01
  0.598189206746E+02  0.800000000000E+01  0.468940273425E+01
  0.640370233300E+01  0.866666666670E+01  0.000000000000E+00
  0.631125224320E+01  0.833333333330E+01  0.000000000000E+00
  0.598203251992E+02  0.866666666670E+01  0.467334894464E+01
  0.598196229369E+02  0.833333333330E+01  0.468137583945E+01
  0.649615242270E+01  0.900000000000E+01  0.000000000000E+00
  0.640370233300E+01  0.866666666670E+01  0.000000000000E+00
  0.598210274615E+02  0.900000000000E+01  0.466532204984E+01
  0.598203251992E+02  0.866666666670E+01  0.467334894464E+01
  0.658860251240E+01  0.933333333330E+01  0.000000000000E+00
  0.649615242270E+01  0.900000000000E+01  0.000000000000E+00
  0.598217297238E+02  0.933333333330E+01  0.465729515503E+01
  0.598210274615E+02  0.900000000000E+01  0.466532204984E+01
  0.668105260220E+01  0.966666666670E+01  0.000000000000E+00
  0.658860251240E+01  0.933333333330E+01  0.000000000000E+00
  0.598224319861E+02  0.966666666670E+01  0.464926826023E+01
  0.598217297238E+02  0.933333333330E+01  0.465729515503E+01
  0.677350269190E+01  0.100000000000E+02  0.000000000000E+00
  0.668105260220E+01  0.966666666670E+01  0.000000000000E+00
  0.598231342484E+02  0.100000000000E+02  0.464124136542E+01
  0.598224319861E+02  0.966666666670E+01  0.464926826023E+01
  0.400000000000E+01  0.000000000000E+00  0.000000000000E+00
  0.409245008970E+01 -0.333333333330E+00  0.000000000000E+00
  0.598020663795E+02  0.000000000000E+00  0.488204820953E+01
  0.598027686418E+02 -0.333333333330E+00  0.487402131472E+01
  0.409245008970E+01 -0.333333333330E+00  0.000000000000E+00
  0.418490017950E+01 -0.666666666670E+00  0.000000000000E+00
  0.598027686418E+02 -0.333333333330E+00  0.487402131472E+01
  0.598034709041E+02 -0.666666666670E+00  0.486599441992E+01
  0.418490017950E+01 -0.666666666670E+00  0.000000000000E+00
  0.427735026920E+01 -0.100000000000E+01  0.000000000000E+00
  0.598034709041E+02 -0.666666666670E+00  0.486599441992E+01
  0.598041731664E+02 -0.100000000000E+01  0.485796752511E+01
  0.427735026920E+01 -0.100000000000E+01  0.000000000000E+00
  0.436980035890E+01 -0.133333333330E+01  0.000000000000E+00
  0.598041731664E+02 -0.100000000000E+01  0.485796752511E+01
  0.598048754287E+02 -0.133333333330E+01  0.484994063031E+01
  0.436980035890E+01 -0.133333333330E+01  0.000000000000E+00
  0.446225044860E+01 -0.166666666670E+01  0.000000000000E+00
  0.598048754287E+02 -0.133333333330E+01  0.484994063031E+01
  0.598055776910E+02 -0.166666666670E+01  0.484191373551E+01
  0.446225044860E+01 -0.166666666670E+01  0.000000000000E+00
  0.455470053840E+01 -0.200000000000E+01  0.000000000000E+00
  0.598055776910E+02 -0.166666666670E+01  0.484191373551E+01
  0.598062799533E+02 -0.200000000000E+01  0.483388684070E+01
  0.455470053840E+01 -0.200000000000E+01  0.000000000000E+00
  0.464715062810E+01 -0.233333333330E+01  0.000000000000E+00
  0.598062799533E+02 -0.200000000000E+01  0.483388684070E+01
  0.598069822156E+02 -0.233333333330E+01  0.482585994590E+01
  0.464715062810E+01 -0.233333333330E+01  0.000000000000E+00
  0.473960071780E+01 -0.266666666670E+01  0.000000000000E+00
  0.598069822156E+02 -0.233333333330E+01  0.482585994590E+01
  0.598076844779E+02 -0.266666666670E+01  0.481783305110E+01
  0.473960071780E+01 -0.266666666670E+01  0.000000000000E+00
  0.483205080760E+01 -0.300000000000E+01  0.000000000000E+00
  0.598076844779E+02 -0.266666666670E+01  0.481783305110E+01
  0.598083867402E+02 -0.300000000000E+01  0.480980615629E+01
  0.483205080760E+01 -0.300000000000E+01  0.000000000000E+00
  0.492450089730E+01 -0.333333333330E+01  0.000000000000E+00
  0.598083867402E+02 -0.300000000000E+01  0.480980615629E+01
  0.598090890025E+02 -0.333333333330E+01  0.480177926149E+01
  0.492450089730E+01 -0.333333333330E+01  0.000000000000E+00
[...]
POINT_DATA                 480
SCALARS mu float 1
LOOKUP_TABLE default
 -0.100118020032E+00
 -0.199325439687E+00
 -0.100118020032E+00
 -0.199325439687E+00
 -0.269827060369E+00
 -0.100118020032E+00
 -0.269827060369E+00
 -0.100118020032E+00
 -0.238854075382E+00
 -0.269827060369E+00
 -0.238854075382E+00
 -0.269827060369E+00
 -0.166138404975E+00
 -0.238854075382E+00
 -0.166138404975E+00
 -0.238854075382E+00
 -0.256964380789E+00
 -0.166138404975E+00
 -0.256964380789E+00
 -0.166138404975E+00
 -0.247346856590E+00
 -0.256964380789E+00
 -0.247346856590E+00
 -0.256964380789E+00
 -0.200686304957E+00
 -0.247346856590E+00
 -0.200686304957E+00
 -0.247346856590E+00
 -0.251347478801E+00
 -0.200686304957E+00
 -0.251347478801E+00
 -0.200686304957E+00
 -0.243328581716E+00
 -0.251347478801E+00
 -0.243328581716E+00
 -0.251347478801E+00
 -0.215452977827E+00
 -0.243328581716E+00
 -0.215452977827E+00
 -0.243328581716E+00
 -0.242914609557E+00
 -0.215452977827E+00
 -0.242914609557E+00
 -0.215452977827E+00
 -0.232218655485E+00
 -0.242914609557E+00
 -0.232218655485E+00
 -0.242914609557E+00
 -0.216331983856E+00
 -0.232218655485E+00
 -0.216331983856E+00
 -0.232218655485E+00
 -0.228786642384E+00
 -0.216331983856E+00
 -0.228786642384E+00
 -0.216331983856E+00
 -0.216198014328E+00
 -0.228786642384E+00
 -0.216198014328E+00
 -0.228786642384E+00
 -0.207114233883E+00
 -0.216198014328E+00
 -0.207114233883E+00
 -0.216198014328E+00
 -0.208930096544E+00
 -0.207114233883E+00
 -0.208930096544E+00
 -0.207114233883E+00
 -0.196613660046E+00
 -0.208930096544E+00
 -0.196613660046E+00
 -0.208930096544E+00
 -0.190217159658E+00
 -0.196613660046E+00
 -0.190217159658E+00
 -0.196613660046E+00
 -0.184594795693E+00
 -0.190217159658E+00
 -0.184594795693E+00
 -0.190217159658E+00
 -0.174423160791E+00
 -0.184594795693E+00
 -0.174423160791E+00
 -0.184594795693E+00
 -0.167211876488E+00
 -0.174423160791E+00
 -0.167211876488E+00
 -0.174423160791E+00
 -0.157192168076E+00
 -0.167211876488E+00
 -0.157192168076E+00
 -0.167211876488E+00
 -0.150174257576E+00
 -0.157192168076E+00
 -0.150174257576E+00
 -0.157192168076E+00
 -0.138206767959E+00
 -0.150174257576E+00
 -0.138206767959E+00
 -0.150174257576E+00
 -0.125316273181E+00
 -0.138206767959E+00
 -0.125316273181E+00
 -0.138206767959E+00
 -0.125662683723E+00
 -0.125316273181E+00
 -0.125662683723E+00
 -0.125316273181E+00
 -0.804210957882E-01
 -0.125662683723E+00
 -0.804210957882E-01
 -0.125662683723E+00
 -0.106420172403E+00
 -0.804210957882E-01
 -0.106420172403E+00
 -0.804210957882E-01
  0.000000000000E+00
 -0.106420172403E+00
  0.000000000000E+00
 -0.106420172403E+00
 -0.199325439687E+00
 -0.100118020035E+00
 -0.199325439687E+00
 -0.100118020035E+00
 -0.100118020035E+00
 -0.269827060365E+00
 -0.100118020035E+00
 -0.269827060365E+00
 -0.269827060365E+00
 -0.238854075368E+00
 -0.269827060365E+00
 -0.238854075368E+00
 -0.238854075368E+00
 -0.166138404946E+00
 -0.238854075368E+00
 -0.166138404946E+00
 -0.166138404946E+00
 -0.256964380736E+00
 -0.166138404946E+00
 -0.256964380736E+00
 -0.256964380736E+00
 -0.247346856502E+00
 -0.256964380736E+00
 -0.247346856502E+00
 -0.247346856502E+00
 -0.200686304819E+00
 -0.247346856502E+00
 -0.200686304819E+00
 -0.200686304819E+00
 -0.251347478597E+00
 -0.200686304819E+00
 -0.251347478597E+00
 -0.251347478597E+00
 -0.243328581430E+00
 -0.251347478597E+00
 -0.243328581430E+00
 -0.243328581430E+00
 -0.215452977449E+00
 -0.243328581430E+00
 -0.215452977449E+00
 -0.215452977449E+00
 -0.242914609084E+00
 -0.215452977449E+00
 -0.242914609084E+00
 -0.242914609084E+00
 -0.232218654930E+00
 -0.242914609084E+00
 -0.232218654930E+00
 -0.232218654930E+00
 -0.216331983246E+00
 -0.232218654930E+00
 -0.216331983246E+00
 -0.216331983246E+00
 -0.228786641759E+00
 -0.216331983246E+00
 -0.228786641759E+00
 -0.228786641759E+00
 -0.216198013740E+00
 -0.228786641759E+00
 -0.216198013740E+00
 -0.216198013740E+00
 -0.207114233387E+00
 -0.216198013740E+00
 -0.207114233387E+00
 -0.207114233387E+00
 -0.208930096199E+00
 -0.207114233387E+00
 -0.208930096199E+00
 -0.208930096199E+00
 -0.196613659922E+00
 -0.208930096199E+00
 -0.196613659922E+00
 -0.196613659922E+00
 -0.190217159841E+00
 -0.196613659922E+00
 -0.190217159841E+00
 -0.190217159841E+00
 -0.184594796312E+00
 -0.190217159841E+00
 -0.184594796312E+00
 -0.184594796312E+00
 -0.174423161956E+00
 -0.184594796312E+00
 -0.174423161956E+00
 -0.174423161956E+00
 -0.167211877702E+00
 -0.174423161956E+00
 -0.167211877702E+00
 -0.167211877702E+00
 -0.157192168277E+00
 -0.167211877702E+00
 -0.157192168277E+00
 -0.157192168277E+00
 -0.150174263425E+00
 -0.157192168277E+00
 -0.150174263425E+00
 -0.150174263425E+00
 -0.138206804055E+00
 -0.150174263425E+00
 -0.138206804055E+00
 -0.138206804055E+00
 -0.125316335917E+00
 -0.138206804055E+00
 -0.125316335917E+00
 -0.125316335917E+00
 -0.125662697813E+00
 -0.125316335917E+00
 -0.125662697813E+00
 -0.125662697813E+00
 -0.804210878548E-01
 -0.125662697813E+00
 -0.804210878548E-01
 -0.804210878548E-01
 -0.106420207844E+00
 -0.804210878548E-01
 -0.106420207844E+00
 -0.106420207844E+00
  0.000000000000E+00
 -0.106420207844E+00
  0.000000000000E+00
  0.452117657205E+00
  0.255210784294E+00
  0.452117657205E+00
  0.255210784294E+00
  0.111255110986E+00
  0.452117657205E+00
  0.111255110986E+00
  0.452117657205E+00
  0.175765901431E+00
  0.111255110986E+00
  0.175765901431E+00
  0.111255110986E+00
  0.313871410911E+00
  0.175765901431E+00
  0.313871410911E+00
  0.175765901431E+00
  0.126651727160E+00
  0.313871410911E+00
  0.126651727160E+00
  0.313871410911E+00
  0.141936640271E+00
  0.126651727160E+00
  0.141936640271E+00
  0.126651727160E+00
  0.223288352456E+00
  0.141936640271E+00
  0.223288352456E+00
  0.141936640271E+00
  0.111634054690E+00
  0.223288352456E+00
  0.111634054690E+00
  0.223288352456E+00
  0.117353051350E+00
  0.111634054690E+00
  0.117353051350E+00
  0.111634054690E+00
  0.157193181450E+00
  0.117353051350E+00
  0.157193181450E+00
  0.117353051350E+00
  0.872524961566E-01
  0.157193181450E+00
  0.872524961566E-01
  0.157193181450E+00
  0.927714823049E-01
  0.872524961566E-01
  0.927714823049E-01
  0.872524961566E-01
  0.105494229297E+00
  0.927714823049E-01
  0.105494229297E+00
  0.927714823049E-01
  0.612783852666E-01
  0.105494229297E+00
  0.612783852666E-01
  0.105494229297E+00
  0.664120902939E-01
  0.612783852666E-01
  0.664120902939E-01
  0.612783852666E-01
  0.630538508321E-01
  0.664120902939E-01
  0.630538508321E-01
  0.664120902939E-01
  0.363477771897E-01
  0.630538508321E-01
  0.363477771897E-01
  0.630538508321E-01
  0.384245999033E-01
  0.363477771897E-01
  0.384245999033E-01
  0.363477771897E-01
  0.275256998157E-01
  0.384245999033E-01
  0.275256998157E-01
  0.384245999033E-01
  0.126986897454E-01
  0.275256998157E-01
  0.126986897454E-01
  0.275256998157E-01
  0.958875500512E-02
  0.126986897454E-01
  0.958875500512E-02
  0.126986897454E-01
 -0.213063584910E-02
  0.958875500512E-02
 -0.213063584910E-02
  0.958875500512E-02
 -0.103063197273E-01
 -0.213063584910E-02
 -0.103063197273E-01
 -0.213063584910E-02
 -0.190050077239E-01
 -0.103063197273E-01
 -0.190050077239E-01
 -0.103063197273E-01
 -0.259676329260E-01
 -0.190050077239E-01
 -0.259676329260E-01
 -0.190050077239E-01
 -0.313294852657E-01
 -0.259676329260E-01
 -0.313294852657E-01
 -0.259676329260E-01
 -0.471399410060E-01
 -0.313294852657E-01
 -0.471399410060E-01
 -0.313294852657E-01
 -0.261763636123E-01
 -0.471399410060E-01
 -0.261763636123E-01
 -0.471399410060E-01
 -0.617760154750E-01
 -0.261763636123E-01
 -0.617760154750E-01
 -0.261763636123E-01
  0.000000000000E+00
 -0.617760154750E-01
  0.000000000000E+00
 -0.617760154750E-01
  0.255210784294E+00
  0.452117657180E+00
  0.255210784294E+00
  0.452117657180E+00
  0.452117657180E+00
  0.111255110941E+00
  0.452117657180E+00
  0.111255110941E+00
  0.111255110941E+00
  0.175765901367E+00
  0.111255110941E+00
  0.175765901367E+00
  0.175765901367E+00
  0.313871410828E+00
  0.175765901367E+00
  0.313871410828E+00
  0.313871410828E+00
  0.126651727058E+00
  0.313871410828E+00
  0.126651727058E+00
  0.126651727058E+00
  0.141936640151E+00
  0.126651727058E+00
  0.141936640151E+00
  0.141936640151E+00
  0.223288352319E+00
  0.141936640151E+00
  0.223288352319E+00
  0.223288352319E+00
  0.111634054537E+00
  0.223288352319E+00
  0.111634054537E+00
  0.111634054537E+00
  0.117353051185E+00
  0.111634054537E+00
  0.117353051185E+00
  0.117353051185E+00
  0.157193181279E+00
  0.117353051185E+00
  0.157193181279E+00
  0.157193181279E+00
  0.872524959868E-01
  0.157193181279E+00
  0.872524959868E-01
  0.872524959868E-01
  0.927714821494E-01
  0.872524959868E-01
  0.927714821494E-01
  0.927714821494E-01
  0.105494229171E+00
  0.927714821494E-01
  0.105494229171E+00
  0.105494229171E+00
  0.612783851889E-01
  0.105494229171E+00
  0.612783851889E-01
  0.612783851889E-01
  0.664120902828E-01
  0.612783851889E-01
  0.664120902828E-01
  0.664120902828E-01
  0.630538509054E-01
  0.664120902828E-01
  0.630538509054E-01
  0.630538509054E-01
  0.363477773658E-01
  0.630538509054E-01
  0.363477773658E-01
  0.363477773658E-01
  0.384246002080E-01
  0.363477773658E-01
  0.384246002080E-01
  0.384246002080E-01
  0.275257002956E-01
  0.384246002080E-01
  0.275257002956E-01
  0.275257002956E-01
  0.126986904913E-01
  0.275257002956E-01
  0.126986904913E-01
  0.126986904913E-01
  0.958875625589E-02
  0.126986904913E-01
  0.958875625589E-02
  0.958875625589E-02
 -0.213063379673E-02
  0.958875625589E-02
 -0.213063379673E-02
 -0.213063379673E-02
 -0.103063180233E-01
 -0.213063379673E-02
 -0.103063180233E-01
 -0.103063180233E-01
 -0.190050065052E-01
 -0.103063180233E-01
 -0.190050065052E-01
 -0.190050065052E-01
 -0.259676130796E-01
 -0.190050065052E-01
 -0.259676130796E-01
 -0.259676130796E-01
 -0.313294301506E-01
 -0.259676130796E-01
 -0.313294301506E-01
 -0.313294301506E-01
 -0.471399157722E-01
 -0.313294301506E-01
 -0.471399157722E-01
 -0.471399157722E-01
 -0.261763632276E-01
 -0.471399157722E-01
 -0.261763632276E-01
 -0.261763632276E-01
 -0.617759740349E-01
 -0.261763632276E-01
 -0.617759740349E-01
 -0.617759740349E-01
  0.000000000000E+00
 -0.617759740349E-01
  0.000000000000E+00
