# vtk DataFile Version 3.0
MachLine results file. Generated by MachLine, USU AeroLab (c) 2023.
ASCII
DATASET POLYDATA
POINTS                 472 float
  0.404700852020E+01  0.169491525420E+00  0.000000000000E+00
  0.400000000000E+01  0.000000000000E+00  0.000000000000E+00
  0.598024234620E+02  0.169491525420E+00  0.487796673759E+01
  0.598020663795E+02  0.000000000000E+00  0.488204820953E+01
  0.409401704040E+01  0.338983050850E+00  0.000000000000E+00
  0.404700852020E+01  0.169491525420E+00  0.000000000000E+00
  0.598027805445E+02  0.338983050850E+00  0.487388526566E+01
  0.598024234620E+02  0.169491525420E+00  0.487796673759E+01
  0.414102556060E+01  0.508474576270E+00  0.000000000000E+00
  0.409401704040E+01  0.338983050850E+00  0.000000000000E+00
  0.598031376271E+02  0.508474576270E+00  0.486980379372E+01
  0.598027805445E+02  0.338983050850E+00  0.487388526566E+01
  0.418803408080E+01  0.677966101690E+00  0.000000000000E+00
  0.414102556060E+01  0.508474576270E+00  0.000000000000E+00
  0.598034947096E+02  0.677966101690E+00  0.486572232179E+01
  0.598031376271E+02  0.508474576270E+00  0.486980379372E+01
  0.423504260100E+01  0.847457627120E+00  0.000000000000E+00
  0.418803408080E+01  0.677966101690E+00  0.000000000000E+00
  0.598038517921E+02  0.847457627120E+00  0.486164084986E+01
  0.598034947096E+02  0.677966101690E+00  0.486572232179E+01
  0.428205112120E+01  0.101694915250E+01  0.000000000000E+00
  0.423504260100E+01  0.847457627120E+00  0.000000000000E+00
  0.598042088746E+02  0.101694915250E+01  0.485755937792E+01
  0.598038517921E+02  0.847457627120E+00  0.486164084986E+01
  0.432905964140E+01  0.118644067800E+01  0.000000000000E+00
  0.428205112120E+01  0.101694915250E+01  0.000000000000E+00
  0.598045659572E+02  0.118644067800E+01  0.485347790599E+01
  0.598042088746E+02  0.101694915250E+01  0.485755937792E+01
  0.437606816160E+01  0.135593220340E+01  0.000000000000E+00
  0.432905964140E+01  0.118644067800E+01  0.000000000000E+00
  0.598049230397E+02  0.135593220340E+01  0.484939643406E+01
  0.598045659572E+02  0.118644067800E+01  0.485347790599E+01
  0.442307668180E+01  0.152542372880E+01  0.000000000000E+00
  0.437606816160E+01  0.135593220340E+01  0.000000000000E+00
  0.598052801222E+02  0.152542372880E+01  0.484531496212E+01
  0.598049230397E+02  0.135593220340E+01  0.484939643406E+01
  0.447008520200E+01  0.169491525420E+01  0.000000000000E+00
  0.442307668180E+01  0.152542372880E+01  0.000000000000E+00
  0.598056372047E+02  0.169491525420E+01  0.484123349019E+01
  0.598052801222E+02  0.152542372880E+01  0.484531496212E+01
  0.451709372220E+01  0.186440677970E+01  0.000000000000E+00
  0.447008520200E+01  0.169491525420E+01  0.000000000000E+00
  0.598059942873E+02  0.186440677970E+01  0.483715201825E+01
  0.598056372047E+02  0.169491525420E+01  0.484123349019E+01
  0.456410224240E+01  0.203389830510E+01  0.000000000000E+00
  0.451709372220E+01  0.186440677970E+01  0.000000000000E+00
  0.598063513698E+02  0.203389830510E+01  0.483307054632E+01
  0.598059942873E+02  0.186440677970E+01  0.483715201825E+01
  0.461111076260E+01  0.220338983050E+01  0.000000000000E+00
  0.456410224240E+01  0.203389830510E+01  0.000000000000E+00
  0.598067084523E+02  0.220338983050E+01  0.482898907439E+01
  0.598063513698E+02  0.203389830510E+01  0.483307054632E+01
  0.465811928280E+01  0.237288135590E+01  0.000000000000E+00
  0.461111076260E+01  0.220338983050E+01  0.000000000000E+00
  0.598070655348E+02  0.237288135590E+01  0.482490760245E+01
  0.598067084523E+02  0.220338983050E+01  0.482898907439E+01
  0.470512780300E+01  0.254237288140E+01  0.000000000000E+00
  0.465811928280E+01  0.237288135590E+01  0.000000000000E+00
  0.598074226174E+02  0.254237288140E+01  0.482082613052E+01
  0.598070655348E+02  0.237288135590E+01  0.482490760245E+01
  0.475213632320E+01  0.271186440680E+01  0.000000000000E+00
  0.470512780300E+01  0.254237288140E+01  0.000000000000E+00
  0.598077796999E+02  0.271186440680E+01  0.481674465859E+01
  0.598074226174E+02  0.254237288140E+01  0.482082613052E+01
  0.479914484340E+01  0.288135593220E+01  0.000000000000E+00
  0.475213632320E+01  0.271186440680E+01  0.000000000000E+00
  0.598081367824E+02  0.288135593220E+01  0.481266318665E+01
  0.598077796999E+02  0.271186440680E+01  0.481674465859E+01
  0.484615336360E+01  0.305084745760E+01  0.000000000000E+00
  0.479914484340E+01  0.288135593220E+01  0.000000000000E+00
  0.598084938649E+02  0.305084745760E+01  0.480858171472E+01
  0.598081367824E+02  0.288135593220E+01  0.481266318665E+01
  0.489316188380E+01  0.322033898310E+01  0.000000000000E+00
  0.484615336360E+01  0.305084745760E+01  0.000000000000E+00
  0.598088509474E+02  0.322033898310E+01  0.480450024278E+01
  0.598084938649E+02  0.305084745760E+01  0.480858171472E+01
  0.494017040400E+01  0.338983050850E+01  0.000000000000E+00
  0.489316188380E+01  0.322033898310E+01  0.000000000000E+00
  0.598092080300E+02  0.338983050850E+01  0.480041877085E+01
  0.598088509474E+02  0.322033898310E+01  0.480450024278E+01
  0.498717892420E+01  0.355932203390E+01  0.000000000000E+00
  0.494017040400E+01  0.338983050850E+01  0.000000000000E+00
  0.598095651125E+02  0.355932203390E+01  0.479633729892E+01
  0.598092080300E+02  0.338983050850E+01  0.480041877085E+01
  0.503418744440E+01  0.372881355930E+01  0.000000000000E+00
  0.498717892420E+01  0.355932203390E+01  0.000000000000E+00
  0.598099221950E+02  0.372881355930E+01  0.479225582698E+01
  0.598095651125E+02  0.355932203390E+01  0.479633729892E+01
  0.508119596460E+01  0.389830508470E+01  0.000000000000E+00
  0.503418744440E+01  0.372881355930E+01  0.000000000000E+00
  0.598102792775E+02  0.389830508470E+01  0.478817435505E+01
  0.598099221950E+02  0.372881355930E+01  0.479225582698E+01
  0.512820448480E+01  0.406779661020E+01  0.000000000000E+00
  0.508119596460E+01  0.389830508470E+01  0.000000000000E+00
  0.598106363601E+02  0.406779661020E+01  0.478409288312E+01
  0.598102792775E+02  0.389830508470E+01  0.478817435505E+01
  0.517521300500E+01  0.423728813560E+01  0.000000000000E+00
  0.512820448480E+01  0.406779661020E+01  0.000000000000E+00
  0.598109934426E+02  0.423728813560E+01  0.478001141118E+01
  0.598106363601E+02  0.406779661020E+01  0.478409288312E+01
  0.522222152520E+01  0.440677966100E+01  0.000000000000E+00
  0.517521300500E+01  0.423728813560E+01  0.000000000000E+00
  0.598113505251E+02  0.440677966100E+01  0.477592993925E+01
  0.598109934426E+02  0.423728813560E+01  0.478001141118E+01
  0.526923004540E+01  0.457627118640E+01  0.000000000000E+00
  0.522222152520E+01  0.440677966100E+01  0.000000000000E+00
  0.598117076076E+02  0.457627118640E+01  0.477184846731E+01
  0.598113505251E+02  0.440677966100E+01  0.477592993925E+01
  0.531623856560E+01  0.474576271190E+01  0.000000000000E+00
  0.526923004540E+01  0.457627118640E+01  0.000000000000E+00
  0.598120646902E+02  0.474576271190E+01  0.476776699538E+01
  0.598117076076E+02  0.457627118640E+01  0.477184846731E+01
  0.536324708580E+01  0.491525423730E+01  0.000000000000E+00
  0.531623856560E+01  0.474576271190E+01  0.000000000000E+00
  0.598124217727E+02  0.491525423730E+01  0.476368552345E+01
  0.598120646902E+02  0.474576271190E+01  0.476776699538E+01
  0.541025560600E+01  0.508474576270E+01  0.000000000000E+00
  0.536324708580E+01  0.491525423730E+01  0.000000000000E+00
  0.598127788552E+02  0.508474576270E+01  0.475960405151E+01
  0.598124217727E+02  0.491525423730E+01  0.476368552345E+01
  0.545726412630E+01  0.525423728810E+01  0.000000000000E+00
  0.541025560600E+01  0.508474576270E+01  0.000000000000E+00
  0.598131359377E+02  0.525423728810E+01  0.475552257957E+01
  0.598127788552E+02  0.508474576270E+01  0.475960405151E+01
  0.550427264650E+01  0.542372881360E+01  0.000000000000E+00
  0.545726412630E+01  0.525423728810E+01  0.000000000000E+00
  0.598134930203E+02  0.542372881360E+01  0.475144110764E+01
  0.598131359377E+02  0.525423728810E+01  0.475552257957E+01
  0.555128116670E+01  0.559322033900E+01  0.000000000000E+00
  0.550427264650E+01  0.542372881360E+01  0.000000000000E+00
  0.598138501028E+02  0.559322033900E+01  0.474735963570E+01
  0.598134930203E+02  0.542372881360E+01  0.475144110764E+01
  0.559828968690E+01  0.576271186440E+01  0.000000000000E+00
  0.555128116670E+01  0.559322033900E+01  0.000000000000E+00
  0.598142071853E+02  0.576271186440E+01  0.474327816377E+01
  0.598138501028E+02  0.559322033900E+01  0.474735963570E+01
  0.564529820710E+01  0.593220338980E+01  0.000000000000E+00
  0.559828968690E+01  0.576271186440E+01  0.000000000000E+00
  0.598145642678E+02  0.593220338980E+01  0.473919669183E+01
  0.598142071853E+02  0.576271186440E+01  0.474327816377E+01
  0.569230672730E+01  0.610169491530E+01  0.000000000000E+00
  0.564529820710E+01  0.593220338980E+01  0.000000000000E+00
  0.598149213504E+02  0.610169491530E+01  0.473511521990E+01
  0.598145642678E+02  0.593220338980E+01  0.473919669183E+01
  0.573931524750E+01  0.627118644070E+01  0.000000000000E+00
  0.569230672730E+01  0.610169491530E+01  0.000000000000E+00
  0.598152784329E+02  0.627118644070E+01  0.473103374797E+01
  0.598149213504E+02  0.610169491530E+01  0.473511521990E+01
  0.578632376770E+01  0.644067796610E+01  0.000000000000E+00
  0.573931524750E+01  0.627118644070E+01  0.000000000000E+00
  0.598156355154E+02  0.644067796610E+01  0.472695227603E+01
  0.598152784329E+02  0.627118644070E+01  0.473103374797E+01
  0.583333228790E+01  0.661016949150E+01  0.000000000000E+00
  0.578632376770E+01  0.644067796610E+01  0.000000000000E+00
  0.598159925979E+02  0.661016949150E+01  0.472287080410E+01
  0.598156355154E+02  0.644067796610E+01  0.472695227603E+01
  0.588034080810E+01  0.677966101690E+01  0.000000000000E+00
  0.583333228790E+01  0.661016949150E+01  0.000000000000E+00
  0.598163496805E+02  0.677966101690E+01  0.471878933217E+01
  0.598159925979E+02  0.661016949150E+01  0.472287080410E+01
  0.592734932830E+01  0.694915254240E+01  0.000000000000E+00
[...]
POINT_DATA                 472
SCALARS mu float 1
LOOKUP_TABLE default
 -0.414279123286E+00
 -0.412779060532E+00
 -0.414279123286E+00
 -0.412779060532E+00
 -0.418486266938E+00
 -0.414279123286E+00
 -0.418486266938E+00
 -0.414279123286E+00
 -0.424163880695E+00
 -0.418486266938E+00
 -0.424163880695E+00
 -0.418486266938E+00
 -0.426721755144E+00
 -0.424163880695E+00
 -0.426721755144E+00
 -0.424163880695E+00
 -0.429638881182E+00
 -0.426721755144E+00
 -0.429638881182E+00
 -0.426721755144E+00
 -0.431498574787E+00
 -0.429638881182E+00
 -0.431498574787E+00
 -0.429638881182E+00
 -0.432315445393E+00
 -0.431498574787E+00
 -0.432315445393E+00
 -0.431498574787E+00
 -0.433147836482E+00
 -0.432315445393E+00
 -0.433147836482E+00
 -0.432315445393E+00
 -0.433964101264E+00
 -0.433147836482E+00
 -0.433964101264E+00
 -0.433147836482E+00
 -0.434160423454E+00
 -0.433964101264E+00
 -0.434160423454E+00
 -0.433964101264E+00
 -0.433843844504E+00
 -0.434160423454E+00
 -0.433843844504E+00
 -0.434160423454E+00
 -0.433088401595E+00
 -0.433843844504E+00
 -0.433088401595E+00
 -0.433843844504E+00
 -0.431668414800E+00
 -0.433088401595E+00
 -0.431668414800E+00
 -0.433088401595E+00
 -0.429810471868E+00
 -0.431668414800E+00
 -0.429810471868E+00
 -0.431668414800E+00
 -0.427593819840E+00
 -0.429810471868E+00
 -0.427593819840E+00
 -0.429810471868E+00
 -0.425363112840E+00
 -0.427593819840E+00
 -0.425363112840E+00
 -0.427593819840E+00
 -0.422997306674E+00
 -0.425363112840E+00
 -0.422997306674E+00
 -0.425363112840E+00
 -0.420090777456E+00
 -0.422997306674E+00
 -0.420090777456E+00
 -0.422997306674E+00
 -0.416223129176E+00
 -0.420090777456E+00
 -0.416223129176E+00
 -0.420090777456E+00
 -0.411244196170E+00
 -0.416223129176E+00
 -0.411244196170E+00
 -0.416223129176E+00
 -0.405111755922E+00
 -0.411244196170E+00
 -0.405111755922E+00
 -0.411244196170E+00
 -0.398331040571E+00
 -0.405111755922E+00
 -0.398331040571E+00
 -0.405111755922E+00
 -0.391351652695E+00
 -0.398331040571E+00
 -0.391351652695E+00
 -0.398331040571E+00
 -0.384486432098E+00
 -0.391351652695E+00
 -0.384486432098E+00
 -0.391351652695E+00
 -0.377651221490E+00
 -0.384486432098E+00
 -0.377651221490E+00
 -0.384486432098E+00
 -0.370815273439E+00
 -0.377651221490E+00
 -0.370815273439E+00
 -0.377651221490E+00
 -0.363910830423E+00
 -0.370815273439E+00
 -0.363910830423E+00
 -0.370815273439E+00
 -0.357000197348E+00
 -0.363910830423E+00
 -0.357000197348E+00
 -0.363910830423E+00
 -0.350000992559E+00
 -0.357000197348E+00
 -0.350000992559E+00
 -0.357000197348E+00
 -0.342930885023E+00
 -0.350000992559E+00
 -0.342930885023E+00
 -0.350000992559E+00
 -0.335943167283E+00
 -0.342930885023E+00
 -0.335943167283E+00
 -0.342930885023E+00
 -0.328955866244E+00
 -0.335943167283E+00
 -0.328955866244E+00
 -0.335943167283E+00
 -0.322035824006E+00
 -0.328955866244E+00
 -0.322035824006E+00
 -0.328955866244E+00
 -0.315200531466E+00
 -0.322035824006E+00
 -0.315200531466E+00
 -0.322035824006E+00
 -0.308360500881E+00
 -0.315200531466E+00
 -0.308360500881E+00
 -0.315200531466E+00
 -0.301527537190E+00
 -0.308360500881E+00
 -0.301527537190E+00
 -0.308360500881E+00
 -0.294703364050E+00
 -0.301527537190E+00
 -0.294703364050E+00
 -0.301527537190E+00
 -0.287916697631E+00
 -0.294703364050E+00
 -0.287916697631E+00
 -0.294703364050E+00
 -0.281091117763E+00
 -0.287916697631E+00
 -0.281091117763E+00
 -0.287916697631E+00
 -0.274182650879E+00
 -0.281091117763E+00
 -0.274182650879E+00
 -0.281091117763E+00
 -0.267220914595E+00
 -0.274182650879E+00
 -0.267220914595E+00
 -0.274182650879E+00
 -0.260244319762E+00
 -0.267220914595E+00
 -0.260244319762E+00
 -0.267220914595E+00
 -0.253230244931E+00
 -0.260244319762E+00
 -0.253230244931E+00
 -0.260244319762E+00
 -0.246131719526E+00
 -0.253230244931E+00
 -0.246131719526E+00
 -0.253230244931E+00
 -0.238969575336E+00
 -0.246131719526E+00
 -0.238969575336E+00
 -0.246131719526E+00
 -0.231741300916E+00
 -0.238969575336E+00
 -0.231741300916E+00
 -0.238969575336E+00
 -0.224406815215E+00
 -0.231741300916E+00
 -0.224406815215E+00
 -0.231741300916E+00
 -0.217048737422E+00
 -0.224406815215E+00
 -0.217048737422E+00
 -0.224406815215E+00
 -0.209531530962E+00
 -0.217048737422E+00
 -0.209531530962E+00
 -0.217048737422E+00
 -0.201991450209E+00
 -0.209531530962E+00
 -0.201991450209E+00
 -0.209531530962E+00
 -0.194276273869E+00
 -0.201991450209E+00
 -0.194276273869E+00
 -0.201991450209E+00
 -0.186529693562E+00
 -0.194276273869E+00
 -0.186529693562E+00
 -0.194276273869E+00
 -0.178292963029E+00
 -0.186529693562E+00
 -0.178292963029E+00
 -0.186529693562E+00
 -0.170791521824E+00
 -0.178292963029E+00
 -0.170791521824E+00
 -0.178292963029E+00
 -0.160817071785E+00
 -0.170791521824E+00
 -0.160817071785E+00
 -0.170791521824E+00
 -0.153601647192E+00
 -0.160817071785E+00
 -0.153601647192E+00
 -0.160817071785E+00
 -0.129118713183E+00
 -0.153601647192E+00
 -0.129118713183E+00
 -0.153601647192E+00
 -0.106187325941E+00
 -0.129118713183E+00
 -0.106187325941E+00
 -0.129118713183E+00
  0.000000000000E+00
 -0.106187325941E+00
  0.000000000000E+00
 -0.106187325941E+00
 -0.412779060532E+00
 -0.414279123286E+00
 -0.412779060532E+00
 -0.414279123286E+00
 -0.414279123286E+00
 -0.418486266938E+00
 -0.414279123286E+00
 -0.418486266938E+00
 -0.418486266938E+00
 -0.424163880695E+00
 -0.418486266938E+00
 -0.424163880695E+00
 -0.424163880695E+00
 -0.426721755144E+00
 -0.424163880695E+00
 -0.426721755144E+00
 -0.426721755144E+00
 -0.429638881182E+00
 -0.426721755144E+00
 -0.429638881182E+00
 -0.429638881182E+00
 -0.431498574787E+00
 -0.429638881182E+00
 -0.431498574787E+00
 -0.431498574787E+00
 -0.432315445393E+00
 -0.431498574787E+00
 -0.432315445393E+00
 -0.432315445393E+00
 -0.433147836482E+00
 -0.432315445393E+00
 -0.433147836482E+00
 -0.433147836482E+00
 -0.433964101264E+00
 -0.433147836482E+00
 -0.433964101264E+00
 -0.433964101264E+00
 -0.434160423454E+00
 -0.433964101264E+00
 -0.434160423454E+00
 -0.434160423454E+00
 -0.433843844504E+00
 -0.434160423454E+00
 -0.433843844504E+00
 -0.433843844504E+00
 -0.433088401595E+00
 -0.433843844504E+00
 -0.433088401595E+00
 -0.433088401595E+00
 -0.431668414800E+00
 -0.433088401595E+00
 -0.431668414800E+00
 -0.431668414800E+00
 -0.429810471868E+00
 -0.431668414800E+00
 -0.429810471868E+00
 -0.429810471868E+00
 -0.427593819840E+00
 -0.429810471868E+00
 -0.427593819840E+00
 -0.427593819840E+00
 -0.425363112840E+00
 -0.427593819840E+00
 -0.425363112840E+00
 -0.425363112840E+00
 -0.422997306674E+00
 -0.425363112840E+00
 -0.422997306674E+00
 -0.422997306674E+00
 -0.420090777456E+00
 -0.422997306674E+00
 -0.420090777456E+00
 -0.420090777456E+00
 -0.416223129176E+00
 -0.420090777456E+00
 -0.416223129176E+00
 -0.416223129176E+00
 -0.411244196170E+00
 -0.416223129176E+00
 -0.411244196170E+00
 -0.411244196170E+00
 -0.405111755922E+00
 -0.411244196170E+00
 -0.405111755922E+00
 -0.405111755922E+00
 -0.398331040571E+00
 -0.405111755922E+00
 -0.398331040571E+00
 -0.398331040571E+00
 -0.391351652695E+00
 -0.398331040571E+00
 -0.391351652695E+00
 -0.391351652695E+00
 -0.384486432098E+00
 -0.391351652695E+00
 -0.384486432098E+00
 -0.384486432098E+00
 -0.377651221490E+00
 -0.384486432098E+00
 -0.377651221490E+00
 -0.377651221490E+00
 -0.370815273439E+00
 -0.377651221490E+00
 -0.370815273439E+00
 -0.370815273439E+00
 -0.363910830423E+00
 -0.370815273439E+00
 -0.363910830423E+00
 -0.363910830423E+00
 -0.357000197348E+00
 -0.363910830423E+00
 -0.357000197348E+00
 -0.357000197348E+00
 -0.350000992560E+00
 -0.357000197348E+00
 -0.350000992560E+00
 -0.350000992560E+00
 -0.342930885023E+00
 -0.350000992560E+00
 -0.342930885023E+00
 -0.342930885023E+00
 -0.335943167284E+00
 -0.342930885023E+00
 -0.335943167284E+00
 -0.335943167284E+00
 -0.328955866245E+00
 -0.335943167284E+00
 -0.328955866245E+00
 -0.328955866245E+00
 -0.322035824005E+00
 -0.328955866245E+00
 -0.322035824005E+00
 -0.322035824005E+00
 -0.315200531464E+00
 -0.322035824005E+00
 -0.315200531464E+00
 -0.315200531464E+00
 -0.308360500881E+00
 -0.315200531464E+00
 -0.308360500881E+00
 -0.308360500881E+00
 -0.301527537190E+00
 -0.308360500881E+00
 -0.301527537190E+00
 -0.301527537190E+00
 -0.294703364050E+00
 -0.301527537190E+00
 -0.294703364050E+00
 -0.294703364050E+00
 -0.287916697629E+00
 -0.294703364050E+00
 -0.287916697629E+00
 -0.287916697629E+00
 -0.281091117760E+00
 -0.287916697629E+00
 -0.281091117760E+00
 -0.281091117760E+00
 -0.274182650883E+00
 -0.281091117760E+00
 -0.274182650883E+00
 -0.274182650883E+00
 -0.267220914591E+00
 -0.274182650883E+00
 -0.267220914591E+00
 -0.267220914591E+00
 -0.260244319757E+00
 -0.267220914591E+00
 -0.260244319757E+00
 -0.260244319757E+00
 -0.253230244936E+00
 -0.260244319757E+00
 -0.253230244936E+00
 -0.253230244936E+00
 -0.246131719528E+00
 -0.253230244936E+00
 -0.246131719528E+00
 -0.246131719528E+00
 -0.238969575347E+00
 -0.246131719528E+00
 -0.238969575347E+00
 -0.238969575347E+00
 -0.231741300909E+00
 -0.238969575347E+00
 -0.231741300909E+00
 -0.231741300909E+00
 -0.224406815219E+00
 -0.231741300909E+00
 -0.224406815219E+00
 -0.224406815219E+00
 -0.217048737432E+00
 -0.224406815219E+00
 -0.217048737432E+00
 -0.217048737432E+00
 -0.209531530969E+00
 -0.217048737432E+00
 -0.209531530969E+00
 -0.209531530969E+00
 -0.201991450190E+00
 -0.209531530969E+00
 -0.201991450190E+00
 -0.201991450190E+00
 -0.194276273890E+00
 -0.201991450190E+00
 -0.194276273890E+00
 -0.194276273890E+00
 -0.186529693431E+00
 -0.194276273890E+00
 -0.186529693431E+00
 -0.186529693431E+00
 -0.178292962638E+00
 -0.186529693431E+00
 -0.178292962638E+00
 -0.178292962638E+00
 -0.170791521543E+00
 -0.178292962638E+00
 -0.170791521543E+00
 -0.170791521543E+00
 -0.160817074015E+00
 -0.170791521543E+00
 -0.160817074015E+00
 -0.160817074015E+00
 -0.153601652172E+00
 -0.160817074015E+00
 -0.153601652172E+00
 -0.153601652172E+00
 -0.129118728588E+00
 -0.153601652172E+00
 -0.129118728588E+00
 -0.129118728588E+00
 -0.106187326559E+00
 -0.129118728588E+00
 -0.106187326559E+00
 -0.106187326559E+00
  0.000000000000E+00
 -0.106187326559E+00
  0.000000000000E+00
