# vtk DataFile Version 3.0
MachLine results file. Generated by MachLine, USU AeroLab (c) 2023.
ASCII
DATASET POLYDATA
POINTS                 536 float
  0.404139556260E+01  0.149253731340E+00  0.000000000000E+00
  0.400000000000E+01  0.000000000000E+00  0.000000000000E+00
  0.598023808253E+02  0.149253731340E+00  0.487845407752E+01
  0.598020663795E+02  0.000000000000E+00  0.488204820953E+01
  0.408279112510E+01  0.298507462690E+00  0.000000000000E+00
  0.404139556260E+01  0.149253731340E+00  0.000000000000E+00
  0.598026952711E+02  0.298507462690E+00  0.487485994553E+01
  0.598023808253E+02  0.149253731340E+00  0.487845407752E+01
  0.412418668770E+01  0.447761194030E+00  0.000000000000E+00
  0.408279112510E+01  0.298507462690E+00  0.000000000000E+00
  0.598030097169E+02  0.447761194030E+00  0.487126581352E+01
  0.598026952711E+02  0.298507462690E+00  0.487485994553E+01
  0.416558225030E+01  0.597014925370E+00  0.000000000000E+00
  0.412418668770E+01  0.447761194030E+00  0.000000000000E+00
  0.598033241627E+02  0.597014925370E+00  0.486767168152E+01
  0.598030097169E+02  0.447761194030E+00  0.487126581352E+01
  0.420697781280E+01  0.746268656720E+00  0.000000000000E+00
  0.416558225030E+01  0.597014925370E+00  0.000000000000E+00
  0.598036386085E+02  0.746268656720E+00  0.486407754952E+01
  0.598033241627E+02  0.597014925370E+00  0.486767168152E+01
  0.424837337540E+01  0.895522388060E+00  0.000000000000E+00
  0.420697781280E+01  0.746268656720E+00  0.000000000000E+00
  0.598039530543E+02  0.895522388060E+00  0.486048341752E+01
  0.598036386085E+02  0.746268656720E+00  0.486407754952E+01
  0.428976893800E+01  0.104477611940E+01  0.000000000000E+00
  0.424837337540E+01  0.895522388060E+00  0.000000000000E+00
  0.598042675001E+02  0.104477611940E+01  0.485688928551E+01
  0.598039530543E+02  0.895522388060E+00  0.486048341752E+01
  0.433116450050E+01  0.119402985070E+01  0.000000000000E+00
  0.428976893800E+01  0.104477611940E+01  0.000000000000E+00
  0.598045819459E+02  0.119402985070E+01  0.485329515352E+01
  0.598042675001E+02  0.104477611940E+01  0.485688928551E+01
  0.437256006310E+01  0.134328358210E+01  0.000000000000E+00
  0.433116450050E+01  0.119402985070E+01  0.000000000000E+00
  0.598048963917E+02  0.134328358210E+01  0.484970102151E+01
  0.598045819459E+02  0.119402985070E+01  0.485329515352E+01
  0.441395562570E+01  0.149253731340E+01  0.000000000000E+00
  0.437256006310E+01  0.134328358210E+01  0.000000000000E+00
  0.598052108375E+02  0.149253731340E+01  0.484610688951E+01
  0.598048963917E+02  0.134328358210E+01  0.484970102151E+01
  0.445535118820E+01  0.164179104480E+01  0.000000000000E+00
  0.441395562570E+01  0.149253731340E+01  0.000000000000E+00
  0.598055252833E+02  0.164179104480E+01  0.484251275751E+01
  0.598052108375E+02  0.149253731340E+01  0.484610688951E+01
  0.449674675080E+01  0.179104477610E+01  0.000000000000E+00
  0.445535118820E+01  0.164179104480E+01  0.000000000000E+00
  0.598058397291E+02  0.179104477610E+01  0.483891862551E+01
  0.598055252833E+02  0.164179104480E+01  0.484251275751E+01
  0.453814231340E+01  0.194029850750E+01  0.000000000000E+00
  0.449674675080E+01  0.179104477610E+01  0.000000000000E+00
  0.598061541750E+02  0.194029850750E+01  0.483532449350E+01
  0.598058397291E+02  0.179104477610E+01  0.483891862551E+01
  0.457953787590E+01  0.208955223880E+01  0.000000000000E+00
  0.453814231340E+01  0.194029850750E+01  0.000000000000E+00
  0.598064686208E+02  0.208955223880E+01  0.483173036151E+01
  0.598061541750E+02  0.194029850750E+01  0.483532449350E+01
  0.462093343850E+01  0.223880597010E+01  0.000000000000E+00
  0.457953787590E+01  0.208955223880E+01  0.000000000000E+00
  0.598067830666E+02  0.223880597010E+01  0.482813622950E+01
  0.598064686208E+02  0.208955223880E+01  0.483173036151E+01
  0.466232900100E+01  0.238805970150E+01  0.000000000000E+00
  0.462093343850E+01  0.223880597010E+01  0.000000000000E+00
  0.598070975124E+02  0.238805970150E+01  0.482454209751E+01
  0.598067830666E+02  0.223880597010E+01  0.482813622950E+01
  0.470372456360E+01  0.253731343280E+01  0.000000000000E+00
  0.466232900100E+01  0.238805970150E+01  0.000000000000E+00
  0.598074119582E+02  0.253731343280E+01  0.482094796550E+01
  0.598070975124E+02  0.238805970150E+01  0.482454209751E+01
  0.474512012620E+01  0.268656716420E+01  0.000000000000E+00
  0.470372456360E+01  0.253731343280E+01  0.000000000000E+00
  0.598077264040E+02  0.268656716420E+01  0.481735383350E+01
  0.598074119582E+02  0.253731343280E+01  0.482094796550E+01
  0.478651568870E+01  0.283582089550E+01  0.000000000000E+00
  0.474512012620E+01  0.268656716420E+01  0.000000000000E+00
  0.598080408498E+02  0.283582089550E+01  0.481375970150E+01
  0.598077264040E+02  0.268656716420E+01  0.481735383350E+01
  0.482791125130E+01  0.298507462690E+01  0.000000000000E+00
  0.478651568870E+01  0.283582089550E+01  0.000000000000E+00
  0.598083552956E+02  0.298507462690E+01  0.481016556950E+01
  0.598080408498E+02  0.283582089550E+01  0.481375970150E+01
  0.486930681390E+01  0.313432835820E+01  0.000000000000E+00
  0.482791125130E+01  0.298507462690E+01  0.000000000000E+00
  0.598086697414E+02  0.313432835820E+01  0.480657143749E+01
  0.598083552956E+02  0.298507462690E+01  0.481016556950E+01
  0.491070237640E+01  0.328358208960E+01  0.000000000000E+00
  0.486930681390E+01  0.313432835820E+01  0.000000000000E+00
  0.598089841872E+02  0.328358208960E+01  0.480297730550E+01
  0.598086697414E+02  0.313432835820E+01  0.480657143749E+01
  0.495209793900E+01  0.343283582090E+01  0.000000000000E+00
  0.491070237640E+01  0.328358208960E+01  0.000000000000E+00
  0.598092986330E+02  0.343283582090E+01  0.479938317349E+01
  0.598089841872E+02  0.328358208960E+01  0.480297730550E+01
  0.499349350160E+01  0.358208955220E+01  0.000000000000E+00
  0.495209793900E+01  0.343283582090E+01  0.000000000000E+00
  0.598096130788E+02  0.358208955220E+01  0.479578904149E+01
  0.598092986330E+02  0.343283582090E+01  0.479938317349E+01
  0.503488906410E+01  0.373134328360E+01  0.000000000000E+00
  0.499349350160E+01  0.358208955220E+01  0.000000000000E+00
  0.598099275246E+02  0.373134328360E+01  0.479219490949E+01
  0.598096130788E+02  0.358208955220E+01  0.479578904149E+01
  0.507628462670E+01  0.388059701490E+01  0.000000000000E+00
  0.503488906410E+01  0.373134328360E+01  0.000000000000E+00
  0.598102419704E+02  0.388059701490E+01  0.478860077749E+01
  0.598099275246E+02  0.373134328360E+01  0.479219490949E+01
  0.511768018930E+01  0.402985074630E+01  0.000000000000E+00
  0.507628462670E+01  0.388059701490E+01  0.000000000000E+00
  0.598105564162E+02  0.402985074630E+01  0.478500664548E+01
  0.598102419704E+02  0.388059701490E+01  0.478860077749E+01
  0.515907575180E+01  0.417910447760E+01  0.000000000000E+00
  0.511768018930E+01  0.402985074630E+01  0.000000000000E+00
  0.598108708620E+02  0.417910447760E+01  0.478141251349E+01
  0.598105564162E+02  0.402985074630E+01  0.478500664548E+01
  0.520047131440E+01  0.432835820900E+01  0.000000000000E+00
  0.515907575180E+01  0.417910447760E+01  0.000000000000E+00
  0.598111853078E+02  0.432835820900E+01  0.477781838148E+01
  0.598108708620E+02  0.417910447760E+01  0.478141251349E+01
  0.524186687700E+01  0.447761194030E+01  0.000000000000E+00
  0.520047131440E+01  0.432835820900E+01  0.000000000000E+00
  0.598114997536E+02  0.447761194030E+01  0.477422424948E+01
  0.598111853078E+02  0.432835820900E+01  0.477781838148E+01
  0.528326243950E+01  0.462686567160E+01  0.000000000000E+00
  0.524186687700E+01  0.447761194030E+01  0.000000000000E+00
  0.598118141994E+02  0.462686567160E+01  0.477063011748E+01
  0.598114997536E+02  0.447761194030E+01  0.477422424948E+01
  0.532465800210E+01  0.477611940300E+01  0.000000000000E+00
  0.528326243950E+01  0.462686567160E+01  0.000000000000E+00
  0.598121286453E+02  0.477611940300E+01  0.476703598548E+01
  0.598118141994E+02  0.462686567160E+01  0.477063011748E+01
  0.536605356470E+01  0.492537313430E+01  0.000000000000E+00
  0.532465800210E+01  0.477611940300E+01  0.000000000000E+00
  0.598124430911E+02  0.492537313430E+01  0.476344185347E+01
  0.598121286453E+02  0.477611940300E+01  0.476703598548E+01
  0.540744912720E+01  0.507462686570E+01  0.000000000000E+00
  0.536605356470E+01  0.492537313430E+01  0.000000000000E+00
  0.598127575369E+02  0.507462686570E+01  0.475984772148E+01
  0.598124430911E+02  0.492537313430E+01  0.476344185347E+01
  0.544884468980E+01  0.522388059700E+01  0.000000000000E+00
  0.540744912720E+01  0.507462686570E+01  0.000000000000E+00
  0.598130719827E+02  0.522388059700E+01  0.475625358947E+01
  0.598127575369E+02  0.507462686570E+01  0.475984772148E+01
  0.549024025240E+01  0.537313432840E+01  0.000000000000E+00
  0.544884468980E+01  0.522388059700E+01  0.000000000000E+00
  0.598133864285E+02  0.537313432840E+01  0.475265945747E+01
  0.598130719827E+02  0.522388059700E+01  0.475625358947E+01
  0.553163581490E+01  0.552238805970E+01  0.000000000000E+00
  0.549024025240E+01  0.537313432840E+01  0.000000000000E+00
  0.598137008743E+02  0.552238805970E+01  0.474906532547E+01
  0.598133864285E+02  0.537313432840E+01  0.475265945747E+01
  0.557303137750E+01  0.567164179100E+01  0.000000000000E+00
  0.553163581490E+01  0.552238805970E+01  0.000000000000E+00
  0.598140153201E+02  0.567164179100E+01  0.474547119347E+01
  0.598137008743E+02  0.552238805970E+01  0.474906532547E+01
  0.561442694010E+01  0.582089552240E+01  0.000000000000E+00
  0.557303137750E+01  0.567164179100E+01  0.000000000000E+00
  0.598143297659E+02  0.582089552240E+01  0.474187706146E+01
  0.598140153201E+02  0.567164179100E+01  0.474547119347E+01
  0.565582250260E+01  0.597014925370E+01  0.000000000000E+00
  0.561442694010E+01  0.582089552240E+01  0.000000000000E+00
  0.598146442117E+02  0.597014925370E+01  0.473828292947E+01
  0.598143297659E+02  0.582089552240E+01  0.474187706146E+01
  0.569721806520E+01  0.611940298510E+01  0.000000000000E+00
[...]
POINT_DATA                 536
SCALARS mu float 1
LOOKUP_TABLE default
 -0.418808105903E+00
 -0.422483586916E+00
 -0.418808105903E+00
 -0.422483586916E+00
 -0.425235641739E+00
 -0.418808105903E+00
 -0.425235641739E+00
 -0.418808105903E+00
 -0.427424111074E+00
 -0.425235641739E+00
 -0.427424111074E+00
 -0.425235641739E+00
 -0.430032705680E+00
 -0.427424111074E+00
 -0.430032705680E+00
 -0.427424111074E+00
 -0.431312400479E+00
 -0.430032705680E+00
 -0.431312400479E+00
 -0.430032705680E+00
 -0.433053537911E+00
 -0.431312400479E+00
 -0.433053537911E+00
 -0.431312400479E+00
 -0.434121879153E+00
 -0.433053537911E+00
 -0.434121879153E+00
 -0.433053537911E+00
 -0.435040246093E+00
 -0.434121879153E+00
 -0.435040246093E+00
 -0.434121879153E+00
 -0.435442440053E+00
 -0.435040246093E+00
 -0.435442440053E+00
 -0.435040246093E+00
 -0.435801102783E+00
 -0.435442440053E+00
 -0.435801102783E+00
 -0.435442440053E+00
 -0.435662439848E+00
 -0.435801102783E+00
 -0.435662439848E+00
 -0.435801102783E+00
 -0.436075956743E+00
 -0.435662439848E+00
 -0.436075956743E+00
 -0.435662439848E+00
 -0.435855790448E+00
 -0.436075956743E+00
 -0.435855790448E+00
 -0.436075956743E+00
 -0.435107072202E+00
 -0.435855790448E+00
 -0.435107072202E+00
 -0.435855790448E+00
 -0.433875404336E+00
 -0.435107072202E+00
 -0.433875404336E+00
 -0.435107072202E+00
 -0.432217185100E+00
 -0.433875404336E+00
 -0.432217185100E+00
 -0.433875404336E+00
 -0.430379661202E+00
 -0.432217185100E+00
 -0.430379661202E+00
 -0.432217185100E+00
 -0.428374543057E+00
 -0.430379661202E+00
 -0.428374543057E+00
 -0.430379661202E+00
 -0.426359142824E+00
 -0.428374543057E+00
 -0.426359142824E+00
 -0.428374543057E+00
 -0.424078794369E+00
 -0.426359142824E+00
 -0.424078794369E+00
 -0.426359142824E+00
 -0.420898992523E+00
 -0.424078794369E+00
 -0.420898992523E+00
 -0.424078794369E+00
 -0.416738481250E+00
 -0.420898992523E+00
 -0.416738481250E+00
 -0.420898992523E+00
 -0.411592459506E+00
 -0.416738481250E+00
 -0.411592459506E+00
 -0.416738481250E+00
 -0.405461679895E+00
 -0.411592459506E+00
 -0.405461679895E+00
 -0.411592459506E+00
 -0.398920185068E+00
 -0.405461679895E+00
 -0.398920185068E+00
 -0.405461679895E+00
 -0.392348847190E+00
 -0.398920185068E+00
 -0.392348847190E+00
 -0.398920185068E+00
 -0.385846884695E+00
 -0.392348847190E+00
 -0.385846884695E+00
 -0.392348847190E+00
 -0.379362800648E+00
 -0.385846884695E+00
 -0.379362800648E+00
 -0.385846884695E+00
 -0.372915950595E+00
 -0.379362800648E+00
 -0.372915950595E+00
 -0.379362800648E+00
 -0.366512955778E+00
 -0.372915950595E+00
 -0.366512955778E+00
 -0.372915950595E+00
 -0.360109449470E+00
 -0.366512955778E+00
 -0.360109449470E+00
 -0.366512955778E+00
 -0.353819694331E+00
 -0.360109449470E+00
 -0.353819694331E+00
 -0.360109449470E+00
 -0.347584548969E+00
 -0.353819694331E+00
 -0.347584548969E+00
 -0.353819694331E+00
 -0.341302094012E+00
 -0.347584548969E+00
 -0.341302094012E+00
 -0.347584548969E+00
 -0.335249734802E+00
 -0.341302094012E+00
 -0.335249734802E+00
 -0.341302094012E+00
 -0.329386899606E+00
 -0.335249734802E+00
 -0.329386899606E+00
 -0.335249734802E+00
 -0.323442893363E+00
 -0.329386899606E+00
 -0.323442893363E+00
 -0.329386899606E+00
 -0.317481249095E+00
 -0.323442893363E+00
 -0.317481249095E+00
 -0.323442893363E+00
 -0.311631433923E+00
 -0.317481249095E+00
 -0.311631433923E+00
 -0.317481249095E+00
 -0.305646054982E+00
 -0.311631433923E+00
 -0.305646054982E+00
 -0.311631433923E+00
 -0.299602786316E+00
 -0.305646054982E+00
 -0.299602786316E+00
 -0.305646054982E+00
 -0.293434405454E+00
 -0.299602786316E+00
 -0.293434405454E+00
 -0.299602786316E+00
 -0.287198844260E+00
 -0.293434405454E+00
 -0.287198844260E+00
 -0.293434405454E+00
 -0.280993937139E+00
 -0.287198844260E+00
 -0.280993937139E+00
 -0.287198844260E+00
 -0.274915260794E+00
 -0.280993937139E+00
 -0.274915260794E+00
 -0.280993937139E+00
 -0.268879523471E+00
 -0.274915260794E+00
 -0.268879523471E+00
 -0.274915260794E+00
 -0.262843874881E+00
 -0.268879523471E+00
 -0.262843874881E+00
 -0.268879523471E+00
 -0.256726638992E+00
 -0.262843874881E+00
 -0.256726638992E+00
 -0.262843874881E+00
 -0.250703899473E+00
 -0.256726638992E+00
 -0.250703899473E+00
 -0.256726638992E+00
 -0.244602532491E+00
 -0.250703899473E+00
 -0.244602532491E+00
 -0.250703899473E+00
 -0.238617781864E+00
 -0.244602532491E+00
 -0.238617781864E+00
 -0.244602532491E+00
 -0.232508562021E+00
 -0.238617781864E+00
 -0.232508562021E+00
 -0.238617781864E+00
 -0.226337169130E+00
 -0.232508562021E+00
 -0.226337169130E+00
 -0.232508562021E+00
 -0.219907928243E+00
 -0.226337169130E+00
 -0.219907928243E+00
 -0.226337169130E+00
 -0.213435915539E+00
 -0.219907928243E+00
 -0.213435915539E+00
 -0.219907928243E+00
 -0.206876806575E+00
 -0.213435915539E+00
 -0.206876806575E+00
 -0.213435915539E+00
 -0.200150769094E+00
 -0.206876806575E+00
 -0.200150769094E+00
 -0.206876806575E+00
 -0.193202812368E+00
 -0.200150769094E+00
 -0.193202812368E+00
 -0.200150769094E+00
 -0.186190666384E+00
 -0.193202812368E+00
 -0.186190666384E+00
 -0.193202812368E+00
 -0.179042737402E+00
 -0.186190666384E+00
 -0.179042737402E+00
 -0.186190666384E+00
 -0.171471918599E+00
 -0.179042737402E+00
 -0.171471918599E+00
 -0.179042737402E+00
 -0.164670019049E+00
 -0.171471918599E+00
 -0.164670019049E+00
 -0.171471918599E+00
 -0.155034993485E+00
 -0.164670019049E+00
 -0.155034993485E+00
 -0.164670019049E+00
 -0.146788096471E+00
 -0.155034993485E+00
 -0.146788096471E+00
 -0.155034993485E+00
 -0.121333373023E+00
 -0.146788096471E+00
 -0.121333373023E+00
 -0.146788096471E+00
 -0.978658433621E-01
 -0.121333373023E+00
 -0.978658433621E-01
 -0.121333373023E+00
  0.000000000000E+00
 -0.978658433621E-01
  0.000000000000E+00
 -0.978658433621E-01
 -0.422483586916E+00
 -0.418808105903E+00
 -0.422483586916E+00
 -0.418808105903E+00
 -0.418808105903E+00
 -0.425235641739E+00
 -0.418808105903E+00
 -0.425235641739E+00
 -0.425235641739E+00
 -0.427424111074E+00
 -0.425235641739E+00
 -0.427424111074E+00
 -0.427424111074E+00
 -0.430032705680E+00
 -0.427424111074E+00
 -0.430032705680E+00
 -0.430032705680E+00
 -0.431312400479E+00
 -0.430032705680E+00
 -0.431312400479E+00
 -0.431312400479E+00
 -0.433053537911E+00
 -0.431312400479E+00
 -0.433053537911E+00
 -0.433053537911E+00
 -0.434121879153E+00
 -0.433053537911E+00
 -0.434121879153E+00
 -0.434121879153E+00
 -0.435040246093E+00
 -0.434121879153E+00
 -0.435040246093E+00
 -0.435040246093E+00
 -0.435442440053E+00
 -0.435040246093E+00
 -0.435442440053E+00
 -0.435442440053E+00
 -0.435801102783E+00
 -0.435442440053E+00
 -0.435801102783E+00
 -0.435801102783E+00
 -0.435662439848E+00
 -0.435801102783E+00
 -0.435662439848E+00
 -0.435662439848E+00
 -0.436075956743E+00
 -0.435662439848E+00
 -0.436075956743E+00
 -0.436075956743E+00
 -0.435855790448E+00
 -0.436075956743E+00
 -0.435855790448E+00
 -0.435855790448E+00
 -0.435107072202E+00
 -0.435855790448E+00
 -0.435107072202E+00
 -0.435107072202E+00
 -0.433875404336E+00
 -0.435107072202E+00
 -0.433875404336E+00
 -0.433875404336E+00
 -0.432217185100E+00
 -0.433875404336E+00
 -0.432217185100E+00
 -0.432217185100E+00
 -0.430379661202E+00
 -0.432217185100E+00
 -0.430379661202E+00
 -0.430379661202E+00
 -0.428374543057E+00
 -0.430379661202E+00
 -0.428374543057E+00
 -0.428374543057E+00
 -0.426359142824E+00
 -0.428374543057E+00
 -0.426359142824E+00
 -0.426359142824E+00
 -0.424078794369E+00
 -0.426359142824E+00
 -0.424078794369E+00
 -0.424078794369E+00
 -0.420898992523E+00
 -0.424078794369E+00
 -0.420898992523E+00
 -0.420898992523E+00
 -0.416738481250E+00
 -0.420898992523E+00
 -0.416738481250E+00
 -0.416738481250E+00
 -0.411592459506E+00
 -0.416738481250E+00
 -0.411592459506E+00
 -0.411592459506E+00
 -0.405461679895E+00
 -0.411592459506E+00
 -0.405461679895E+00
 -0.405461679895E+00
 -0.398920185068E+00
 -0.405461679895E+00
 -0.398920185068E+00
 -0.398920185068E+00
 -0.392348847190E+00
 -0.398920185068E+00
 -0.392348847190E+00
 -0.392348847190E+00
 -0.385846884695E+00
 -0.392348847190E+00
 -0.385846884695E+00
 -0.385846884695E+00
 -0.379362800648E+00
 -0.385846884695E+00
 -0.379362800648E+00
 -0.379362800648E+00
 -0.372915950595E+00
 -0.379362800648E+00
 -0.372915950595E+00
 -0.372915950595E+00
 -0.366512955778E+00
 -0.372915950595E+00
 -0.366512955778E+00
 -0.366512955778E+00
 -0.360109449470E+00
 -0.366512955778E+00
 -0.360109449470E+00
 -0.360109449470E+00
 -0.353819694331E+00
 -0.360109449470E+00
 -0.353819694331E+00
 -0.353819694331E+00
 -0.347584548969E+00
 -0.353819694331E+00
 -0.347584548969E+00
 -0.347584548969E+00
 -0.341302094012E+00
 -0.347584548969E+00
 -0.341302094012E+00
 -0.341302094012E+00
 -0.335249734802E+00
 -0.341302094012E+00
 -0.335249734802E+00
 -0.335249734802E+00
 -0.329386899606E+00
 -0.335249734802E+00
 -0.329386899606E+00
 -0.329386899606E+00
 -0.323442893363E+00
 -0.329386899606E+00
 -0.323442893363E+00
 -0.323442893363E+00
 -0.317481249095E+00
 -0.323442893363E+00
 -0.317481249095E+00
 -0.317481249095E+00
 -0.311631433923E+00
 -0.317481249095E+00
 -0.311631433923E+00
 -0.311631433923E+00
 -0.305646054980E+00
 -0.311631433923E+00
 -0.305646054980E+00
 -0.305646054980E+00
 -0.299602786313E+00
 -0.305646054980E+00
 -0.299602786313E+00
 -0.299602786313E+00
 -0.293434405455E+00
 -0.299602786313E+00
 -0.293434405455E+00
 -0.293434405455E+00
 -0.287198844259E+00
 -0.293434405455E+00
 -0.287198844259E+00
 -0.287198844259E+00
 -0.280993937133E+00
 -0.287198844259E+00
 -0.280993937133E+00
 -0.280993937133E+00
 -0.274915260798E+00
 -0.280993937133E+00
 -0.274915260798E+00
 -0.274915260798E+00
 -0.268879523470E+00
 -0.274915260798E+00
 -0.268879523470E+00
 -0.268879523470E+00
 -0.262843874883E+00
 -0.268879523470E+00
 -0.262843874883E+00
 -0.262843874883E+00
 -0.256726638997E+00
 -0.262843874883E+00
 -0.256726638997E+00
 -0.256726638997E+00
 -0.250703899479E+00
 -0.256726638997E+00
 -0.250703899479E+00
 -0.250703899479E+00
 -0.244602532493E+00
 -0.250703899479E+00
 -0.244602532493E+00
 -0.244602532493E+00
 -0.238617781868E+00
 -0.244602532493E+00
 -0.238617781868E+00
 -0.238617781868E+00
 -0.232508562030E+00
 -0.238617781868E+00
 -0.232508562030E+00
 -0.232508562030E+00
 -0.226337169141E+00
 -0.232508562030E+00
 -0.226337169141E+00
 -0.226337169141E+00
 -0.219907928254E+00
 -0.226337169141E+00
 -0.219907928254E+00
 -0.219907928254E+00
 -0.213435915539E+00
 -0.219907928254E+00
 -0.213435915539E+00
 -0.213435915539E+00
 -0.206876806594E+00
 -0.213435915539E+00
 -0.206876806594E+00
 -0.206876806594E+00
 -0.200150769098E+00
 -0.206876806594E+00
 -0.200150769098E+00
 -0.200150769098E+00
 -0.193202812356E+00
 -0.200150769098E+00
 -0.193202812356E+00
 -0.193202812356E+00
 -0.186190666369E+00
 -0.193202812356E+00
 -0.186190666369E+00
 -0.186190666369E+00
 -0.179042737332E+00
 -0.186190666369E+00
 -0.179042737332E+00
 -0.179042737332E+00
 -0.171471918487E+00
 -0.179042737332E+00
 -0.171471918487E+00
 -0.171471918487E+00
 -0.164670019099E+00
 -0.171471918487E+00
 -0.164670019099E+00
 -0.164670019099E+00
 -0.155034993021E+00
 -0.164670019099E+00
 -0.155034993021E+00
 -0.155034993021E+00
 -0.146788093911E+00
 -0.155034993021E+00
 -0.146788093911E+00
 -0.146788093911E+00
 -0.121333373802E+00
 -0.146788093911E+00
 -0.121333373802E+00
 -0.121333373802E+00
 -0.978658140077E-01
 -0.121333373802E+00
 -0.978658140077E-01
 -0.978658140077E-01
  0.000000000000E+00
 -0.978658140077E-01
  0.000000000000E+00
