# vtk DataFile Version 3.0
MachLine results file. Generated by MachLine, USU AeroLab (c) 2023.
ASCII
DATASET POLYDATA
POINTS                 632 float
  0.403510762900E+01  0.126582278480E+00  0.000000000000E+00
  0.400000000000E+01  0.000000000000E+00  0.000000000000E+00
  0.598023330614E+02  0.126582278480E+00  0.487900002163E+01
  0.598020663795E+02  0.000000000000E+00  0.488204820953E+01
  0.407021525800E+01  0.253164556960E+00  0.000000000000E+00
  0.403510762900E+01  0.126582278480E+00  0.000000000000E+00
  0.598025997433E+02  0.253164556960E+00  0.487595183373E+01
  0.598023330614E+02  0.126582278480E+00  0.487900002163E+01
  0.410532288700E+01  0.379746835440E+00  0.000000000000E+00
  0.407021525800E+01  0.253164556960E+00  0.000000000000E+00
  0.598028664251E+02  0.379746835440E+00  0.487290364583E+01
  0.598025997433E+02  0.253164556960E+00  0.487595183373E+01
  0.414043051600E+01  0.506329113920E+00  0.000000000000E+00
  0.410532288700E+01  0.379746835440E+00  0.000000000000E+00
  0.598031331070E+02  0.506329113920E+00  0.486985545793E+01
  0.598028664251E+02  0.379746835440E+00  0.487290364583E+01
  0.417553814510E+01  0.632911392410E+00  0.000000000000E+00
  0.414043051600E+01  0.506329113920E+00  0.000000000000E+00
  0.598033997889E+02  0.632911392410E+00  0.486680727002E+01
  0.598031331070E+02  0.506329113920E+00  0.486985545793E+01
  0.421064577410E+01  0.759493670890E+00  0.000000000000E+00
  0.417553814510E+01  0.632911392410E+00  0.000000000000E+00
  0.598036664708E+02  0.759493670890E+00  0.486375908212E+01
  0.598033997889E+02  0.632911392410E+00  0.486680727002E+01
  0.424575340310E+01  0.886075949370E+00  0.000000000000E+00
  0.421064577410E+01  0.759493670890E+00  0.000000000000E+00
  0.598039331527E+02  0.886075949370E+00  0.486071089422E+01
  0.598036664708E+02  0.759493670890E+00  0.486375908212E+01
  0.428086103210E+01  0.101265822780E+01  0.000000000000E+00
  0.424575340310E+01  0.886075949370E+00  0.000000000000E+00
  0.598041998346E+02  0.101265822780E+01  0.485766270632E+01
  0.598039331527E+02  0.886075949370E+00  0.486071089422E+01
  0.431596866110E+01  0.113924050630E+01  0.000000000000E+00
  0.428086103210E+01  0.101265822780E+01  0.000000000000E+00
  0.598044665165E+02  0.113924050630E+01  0.485461451843E+01
  0.598041998346E+02  0.101265822780E+01  0.485766270632E+01
  0.435107629010E+01  0.126582278480E+01  0.000000000000E+00
  0.431596866110E+01  0.113924050630E+01  0.000000000000E+00
  0.598047331983E+02  0.126582278480E+01  0.485156633053E+01
  0.598044665165E+02  0.113924050630E+01  0.485461451843E+01
  0.438618391910E+01  0.139240506330E+01  0.000000000000E+00
  0.435107629010E+01  0.126582278480E+01  0.000000000000E+00
  0.598049998802E+02  0.139240506330E+01  0.484851814263E+01
  0.598047331983E+02  0.126582278480E+01  0.485156633053E+01
  0.442129154810E+01  0.151898734180E+01  0.000000000000E+00
  0.438618391910E+01  0.139240506330E+01  0.000000000000E+00
  0.598052665621E+02  0.151898734180E+01  0.484546995473E+01
  0.598049998802E+02  0.139240506330E+01  0.484851814263E+01
  0.445639917710E+01  0.164556962030E+01  0.000000000000E+00
  0.442129154810E+01  0.151898734180E+01  0.000000000000E+00
  0.598055332440E+02  0.164556962030E+01  0.484242176683E+01
  0.598052665621E+02  0.151898734180E+01  0.484546995473E+01
  0.449150680620E+01  0.177215189870E+01  0.000000000000E+00
  0.445639917710E+01  0.164556962030E+01  0.000000000000E+00
  0.598057999259E+02  0.177215189870E+01  0.483937357892E+01
  0.598055332440E+02  0.164556962030E+01  0.484242176683E+01
  0.452661443520E+01  0.189873417720E+01  0.000000000000E+00
  0.449150680620E+01  0.177215189870E+01  0.000000000000E+00
  0.598060666078E+02  0.189873417720E+01  0.483632539102E+01
  0.598057999259E+02  0.177215189870E+01  0.483937357892E+01
  0.456172206420E+01  0.202531645570E+01  0.000000000000E+00
  0.452661443520E+01  0.189873417720E+01  0.000000000000E+00
  0.598063332896E+02  0.202531645570E+01  0.483327720312E+01
  0.598060666078E+02  0.189873417720E+01  0.483632539102E+01
  0.459682969320E+01  0.215189873420E+01  0.000000000000E+00
  0.456172206420E+01  0.202531645570E+01  0.000000000000E+00
  0.598065999715E+02  0.215189873420E+01  0.483022901522E+01
  0.598063332896E+02  0.202531645570E+01  0.483327720312E+01
  0.463193732220E+01  0.227848101270E+01  0.000000000000E+00
  0.459682969320E+01  0.215189873420E+01  0.000000000000E+00
  0.598068666534E+02  0.227848101270E+01  0.482718082733E+01
  0.598065999715E+02  0.215189873420E+01  0.483022901522E+01
  0.466704495120E+01  0.240506329110E+01  0.000000000000E+00
  0.463193732220E+01  0.227848101270E+01  0.000000000000E+00
  0.598071333353E+02  0.240506329110E+01  0.482413263943E+01
  0.598068666534E+02  0.227848101270E+01  0.482718082733E+01
  0.470215258020E+01  0.253164556960E+01  0.000000000000E+00
  0.466704495120E+01  0.240506329110E+01  0.000000000000E+00
  0.598074000172E+02  0.253164556960E+01  0.482108445153E+01
  0.598071333353E+02  0.240506329110E+01  0.482413263943E+01
  0.473726020920E+01  0.265822784810E+01  0.000000000000E+00
  0.470215258020E+01  0.253164556960E+01  0.000000000000E+00
  0.598076666991E+02  0.265822784810E+01  0.481803626363E+01
  0.598074000172E+02  0.253164556960E+01  0.482108445153E+01
  0.477236783820E+01  0.278481012660E+01  0.000000000000E+00
  0.473726020920E+01  0.265822784810E+01  0.000000000000E+00
  0.598079333810E+02  0.278481012660E+01  0.481498807573E+01
  0.598076666991E+02  0.265822784810E+01  0.481803626363E+01
  0.480747546730E+01  0.291139240510E+01  0.000000000000E+00
  0.477236783820E+01  0.278481012660E+01  0.000000000000E+00
  0.598082000628E+02  0.291139240510E+01  0.481193988782E+01
  0.598079333810E+02  0.278481012660E+01  0.481498807573E+01
  0.484258309630E+01  0.303797468350E+01  0.000000000000E+00
  0.480747546730E+01  0.291139240510E+01  0.000000000000E+00
  0.598084667447E+02  0.303797468350E+01  0.480889169992E+01
  0.598082000628E+02  0.291139240510E+01  0.481193988782E+01
  0.487769072530E+01  0.316455696200E+01  0.000000000000E+00
  0.484258309630E+01  0.303797468350E+01  0.000000000000E+00
  0.598087334266E+02  0.316455696200E+01  0.480584351202E+01
  0.598084667447E+02  0.303797468350E+01  0.480889169992E+01
  0.491279835430E+01  0.329113924050E+01  0.000000000000E+00
  0.487769072530E+01  0.316455696200E+01  0.000000000000E+00
  0.598090001085E+02  0.329113924050E+01  0.480279532412E+01
  0.598087334266E+02  0.316455696200E+01  0.480584351202E+01
  0.494790598330E+01  0.341772151900E+01  0.000000000000E+00
  0.491279835430E+01  0.329113924050E+01  0.000000000000E+00
  0.598092667904E+02  0.341772151900E+01  0.479974713623E+01
  0.598090001085E+02  0.329113924050E+01  0.480279532412E+01
  0.498301361230E+01  0.354430379750E+01  0.000000000000E+00
  0.494790598330E+01  0.341772151900E+01  0.000000000000E+00
  0.598095334723E+02  0.354430379750E+01  0.479669894833E+01
  0.598092667904E+02  0.341772151900E+01  0.479974713623E+01
  0.501812124130E+01  0.367088607590E+01  0.000000000000E+00
  0.498301361230E+01  0.354430379750E+01  0.000000000000E+00
  0.598098001542E+02  0.367088607590E+01  0.479365076043E+01
  0.598095334723E+02  0.354430379750E+01  0.479669894833E+01
  0.505322887030E+01  0.379746835440E+01  0.000000000000E+00
  0.501812124130E+01  0.367088607590E+01  0.000000000000E+00
  0.598100668360E+02  0.379746835440E+01  0.479060257253E+01
  0.598098001542E+02  0.367088607590E+01  0.479365076043E+01
  0.508833649940E+01  0.392405063290E+01  0.000000000000E+00
  0.505322887030E+01  0.379746835440E+01  0.000000000000E+00
  0.598103335179E+02  0.392405063290E+01  0.478755438462E+01
  0.598100668360E+02  0.379746835440E+01  0.479060257253E+01
  0.512344412840E+01  0.405063291140E+01  0.000000000000E+00
  0.508833649940E+01  0.392405063290E+01  0.000000000000E+00
  0.598106001998E+02  0.405063291140E+01  0.478450619672E+01
  0.598103335179E+02  0.392405063290E+01  0.478755438462E+01
  0.515855175740E+01  0.417721518990E+01  0.000000000000E+00
  0.512344412840E+01  0.405063291140E+01  0.000000000000E+00
  0.598108668817E+02  0.417721518990E+01  0.478145800882E+01
  0.598106001998E+02  0.405063291140E+01  0.478450619672E+01
  0.519365938640E+01  0.430379746840E+01  0.000000000000E+00
  0.515855175740E+01  0.417721518990E+01  0.000000000000E+00
  0.598111335636E+02  0.430379746840E+01  0.477840982092E+01
  0.598108668817E+02  0.417721518990E+01  0.478145800882E+01
  0.522876701540E+01  0.443037974680E+01  0.000000000000E+00
  0.519365938640E+01  0.430379746840E+01  0.000000000000E+00
  0.598114002455E+02  0.443037974680E+01  0.477536163302E+01
  0.598111335636E+02  0.430379746840E+01  0.477840982092E+01
  0.526387464440E+01  0.455696202530E+01  0.000000000000E+00
  0.522876701540E+01  0.443037974680E+01  0.000000000000E+00
  0.598116669274E+02  0.455696202530E+01  0.477231344513E+01
  0.598114002455E+02  0.443037974680E+01  0.477536163302E+01
  0.529898227340E+01  0.468354430380E+01  0.000000000000E+00
  0.526387464440E+01  0.455696202530E+01  0.000000000000E+00
  0.598119336092E+02  0.468354430380E+01  0.476926525723E+01
  0.598116669274E+02  0.455696202530E+01  0.477231344513E+01
  0.533408990240E+01  0.481012658230E+01  0.000000000000E+00
  0.529898227340E+01  0.468354430380E+01  0.000000000000E+00
  0.598122002911E+02  0.481012658230E+01  0.476621706933E+01
  0.598119336092E+02  0.468354430380E+01  0.476926525723E+01
  0.536919753140E+01  0.493670886080E+01  0.000000000000E+00
  0.533408990240E+01  0.481012658230E+01  0.000000000000E+00
  0.598124669730E+02  0.493670886080E+01  0.476316888143E+01
  0.598122002911E+02  0.481012658230E+01  0.476621706933E+01
  0.540430516050E+01  0.506329113920E+01  0.000000000000E+00
  0.536919753140E+01  0.493670886080E+01  0.000000000000E+00
  0.598127336549E+02  0.506329113920E+01  0.476012069352E+01
  0.598124669730E+02  0.493670886080E+01  0.476316888143E+01
  0.543941278950E+01  0.518987341770E+01  0.000000000000E+00
[...]
POINT_DATA                 632
SCALARS mu float 1
LOOKUP_TABLE default
 -0.420064094776E+00
 -0.427529104626E+00
 -0.420064094776E+00
 -0.427529104626E+00
 -0.417784581385E+00
 -0.420064094776E+00
 -0.417784581385E+00
 -0.420064094776E+00
 -0.417530782357E+00
 -0.417784581385E+00
 -0.417530782357E+00
 -0.417784581385E+00
 -0.426903582733E+00
 -0.417530782357E+00
 -0.426903582733E+00
 -0.417530782357E+00
 -0.428257825068E+00
 -0.426903582733E+00
 -0.428257825068E+00
 -0.426903582733E+00
 -0.430625657069E+00
 -0.428257825068E+00
 -0.430625657069E+00
 -0.428257825068E+00
 -0.431713524762E+00
 -0.430625657069E+00
 -0.431713524762E+00
 -0.430625657069E+00
 -0.434144950832E+00
 -0.431713524762E+00
 -0.434144950832E+00
 -0.431713524762E+00
 -0.435590275306E+00
 -0.434144950832E+00
 -0.435590275306E+00
 -0.434144950832E+00
 -0.436240403614E+00
 -0.435590275306E+00
 -0.436240403614E+00
 -0.435590275306E+00
 -0.436473085478E+00
 -0.436240403614E+00
 -0.436473085478E+00
 -0.436240403614E+00
 -0.436494975584E+00
 -0.436473085478E+00
 -0.436494975584E+00
 -0.436473085478E+00
 -0.436677209253E+00
 -0.436494975584E+00
 -0.436677209253E+00
 -0.436494975584E+00
 -0.436953384860E+00
 -0.436677209253E+00
 -0.436953384860E+00
 -0.436677209253E+00
 -0.436871232934E+00
 -0.436953384860E+00
 -0.436871232934E+00
 -0.436953384860E+00
 -0.436493302552E+00
 -0.436871232934E+00
 -0.436493302552E+00
 -0.436871232934E+00
 -0.435402641747E+00
 -0.436493302552E+00
 -0.435402641747E+00
 -0.436493302552E+00
 -0.434700972587E+00
 -0.435402641747E+00
 -0.434700972587E+00
 -0.435402641747E+00
 -0.433314823407E+00
 -0.434700972587E+00
 -0.433314823407E+00
 -0.434700972587E+00
 -0.431679488957E+00
 -0.433314823407E+00
 -0.431679488957E+00
 -0.433314823407E+00
 -0.429942671999E+00
 -0.431679488957E+00
 -0.429942671999E+00
 -0.431679488957E+00
 -0.428375453800E+00
 -0.429942671999E+00
 -0.428375453800E+00
 -0.429942671999E+00
 -0.426807167108E+00
 -0.428375453800E+00
 -0.426807167108E+00
 -0.428375453800E+00
 -0.424717813917E+00
 -0.426807167108E+00
 -0.424717813917E+00
 -0.426807167108E+00
 -0.422124960109E+00
 -0.424717813917E+00
 -0.422124960109E+00
 -0.424717813917E+00
 -0.418818534154E+00
 -0.422124960109E+00
 -0.418818534154E+00
 -0.422124960109E+00
 -0.414688756216E+00
 -0.418818534154E+00
 -0.414688756216E+00
 -0.418818534154E+00
 -0.409887609988E+00
 -0.414688756216E+00
 -0.409887609988E+00
 -0.414688756216E+00
 -0.404790249985E+00
 -0.409887609988E+00
 -0.404790249985E+00
 -0.409887609988E+00
 -0.399528881657E+00
 -0.404790249985E+00
 -0.399528881657E+00
 -0.404790249985E+00
 -0.394323695422E+00
 -0.399528881657E+00
 -0.394323695422E+00
 -0.399528881657E+00
 -0.389063424742E+00
 -0.394323695422E+00
 -0.389063424742E+00
 -0.394323695422E+00
 -0.383697009358E+00
 -0.389063424742E+00
 -0.383697009358E+00
 -0.389063424742E+00
 -0.378236212071E+00
 -0.383697009358E+00
 -0.378236212071E+00
 -0.383697009358E+00
 -0.372790070147E+00
 -0.378236212071E+00
 -0.372790070147E+00
 -0.378236212071E+00
 -0.367319562068E+00
 -0.372790070147E+00
 -0.367319562068E+00
 -0.372790070147E+00
 -0.361906514390E+00
 -0.367319562068E+00
 -0.361906514390E+00
 -0.367319562068E+00
 -0.356466066213E+00
 -0.361906514390E+00
 -0.356466066213E+00
 -0.361906514390E+00
 -0.351029447335E+00
 -0.356466066213E+00
 -0.351029447335E+00
 -0.356466066213E+00
 -0.345566355820E+00
 -0.351029447335E+00
 -0.345566355820E+00
 -0.351029447335E+00
 -0.340009211326E+00
 -0.345566355820E+00
 -0.340009211326E+00
 -0.345566355820E+00
 -0.334450287816E+00
 -0.340009211326E+00
 -0.334450287816E+00
 -0.340009211326E+00
 -0.328987518878E+00
 -0.334450287816E+00
 -0.328987518878E+00
 -0.334450287816E+00
 -0.323491847403E+00
 -0.328987518878E+00
 -0.323491847403E+00
 -0.328987518878E+00
 -0.318025254244E+00
 -0.323491847403E+00
 -0.318025254244E+00
 -0.323491847403E+00
 -0.312624521846E+00
 -0.318025254244E+00
 -0.312624521846E+00
 -0.318025254244E+00
 -0.307176870134E+00
 -0.312624521846E+00
 -0.307176870134E+00
 -0.312624521846E+00
 -0.301744687978E+00
 -0.307176870134E+00
 -0.301744687978E+00
 -0.307176870134E+00
 -0.296314267295E+00
 -0.301744687978E+00
 -0.296314267295E+00
 -0.301744687978E+00
 -0.290880604196E+00
 -0.296314267295E+00
 -0.290880604196E+00
 -0.296314267295E+00
 -0.285404396702E+00
 -0.290880604196E+00
 -0.285404396702E+00
 -0.290880604196E+00
 -0.280033671713E+00
 -0.285404396702E+00
 -0.280033671713E+00
 -0.285404396702E+00
 -0.274719569151E+00
 -0.280033671713E+00
 -0.274719569151E+00
 -0.280033671713E+00
 -0.269456597629E+00
 -0.274719569151E+00
 -0.269456597629E+00
 -0.274719569151E+00
 -0.264301387722E+00
 -0.269456597629E+00
 -0.264301387722E+00
 -0.269456597629E+00
 -0.259116724415E+00
 -0.264301387722E+00
 -0.259116724415E+00
 -0.264301387722E+00
 -0.254007291241E+00
 -0.259116724415E+00
 -0.254007291241E+00
 -0.259116724415E+00
 -0.248872744197E+00
 -0.254007291241E+00
 -0.248872744197E+00
 -0.254007291241E+00
 -0.243609355296E+00
 -0.248872744197E+00
 -0.243609355296E+00
 -0.248872744197E+00
 -0.238488647626E+00
 -0.243609355296E+00
 -0.238488647626E+00
 -0.243609355296E+00
 -0.233250934884E+00
 -0.238488647626E+00
 -0.233250934884E+00
 -0.238488647626E+00
 -0.227990676114E+00
 -0.233250934884E+00
 -0.227990676114E+00
 -0.233250934884E+00
 -0.222731024054E+00
 -0.227990676114E+00
 -0.222731024054E+00
 -0.227990676114E+00
 -0.217478120263E+00
 -0.222731024054E+00
 -0.217478120263E+00
 -0.222731024054E+00
 -0.212164253412E+00
 -0.217478120263E+00
 -0.212164253412E+00
 -0.217478120263E+00
 -0.206838209518E+00
 -0.212164253412E+00
 -0.206838209518E+00
 -0.212164253412E+00
 -0.201503945854E+00
 -0.206838209518E+00
 -0.201503945854E+00
 -0.206838209518E+00
 -0.196017293662E+00
 -0.201503945854E+00
 -0.196017293662E+00
 -0.201503945854E+00
 -0.190289216818E+00
 -0.196017293662E+00
 -0.190289216818E+00
 -0.196017293662E+00
 -0.184511269132E+00
 -0.190289216818E+00
 -0.184511269132E+00
 -0.190289216818E+00
 -0.178542930562E+00
 -0.184511269132E+00
 -0.178542930562E+00
 -0.184511269132E+00
 -0.172717673354E+00
 -0.178542930562E+00
 -0.172717673354E+00
 -0.178542930562E+00
 -0.166166972380E+00
 -0.172717673354E+00
 -0.166166972380E+00
 -0.172717673354E+00
 -0.160408552365E+00
 -0.166166972380E+00
 -0.160408552365E+00
 -0.166166972380E+00
 -0.150808346574E+00
 -0.160408552365E+00
 -0.150808346574E+00
 -0.160408552365E+00
 -0.140763037174E+00
 -0.150808346574E+00
 -0.140763037174E+00
 -0.150808346574E+00
 -0.114151378948E+00
 -0.140763037174E+00
 -0.114151378948E+00
 -0.140763037174E+00
 -0.898938727562E-01
 -0.114151378948E+00
 -0.898938727562E-01
 -0.114151378948E+00
  0.000000000000E+00
 -0.898938727562E-01
  0.000000000000E+00
 -0.898938727562E-01
 -0.427529104626E+00
 -0.420064094776E+00
 -0.427529104626E+00
 -0.420064094776E+00
 -0.420064094776E+00
 -0.417784581385E+00
 -0.420064094776E+00
 -0.417784581385E+00
 -0.417784581385E+00
 -0.417530782357E+00
 -0.417784581385E+00
 -0.417530782357E+00
 -0.417530782357E+00
 -0.426903582733E+00
 -0.417530782357E+00
 -0.426903582733E+00
 -0.426903582733E+00
 -0.428257825068E+00
 -0.426903582733E+00
 -0.428257825068E+00
 -0.428257825068E+00
 -0.430625657069E+00
 -0.428257825068E+00
 -0.430625657069E+00
 -0.430625657069E+00
 -0.431713524762E+00
 -0.430625657069E+00
 -0.431713524762E+00
 -0.431713524762E+00
 -0.434144950832E+00
 -0.431713524762E+00
 -0.434144950832E+00
 -0.434144950832E+00
 -0.435590275306E+00
 -0.434144950832E+00
 -0.435590275306E+00
 -0.435590275306E+00
 -0.436240403614E+00
 -0.435590275306E+00
 -0.436240403614E+00
 -0.436240403614E+00
 -0.436473085478E+00
 -0.436240403614E+00
 -0.436473085478E+00
 -0.436473085478E+00
 -0.436494975584E+00
 -0.436473085478E+00
 -0.436494975584E+00
 -0.436494975584E+00
 -0.436677209253E+00
 -0.436494975584E+00
 -0.436677209253E+00
 -0.436677209253E+00
 -0.436953384860E+00
 -0.436677209253E+00
 -0.436953384860E+00
 -0.436953384860E+00
 -0.436871232934E+00
 -0.436953384860E+00
 -0.436871232934E+00
 -0.436871232934E+00
 -0.436493302552E+00
 -0.436871232934E+00
 -0.436493302552E+00
 -0.436493302552E+00
 -0.435402641747E+00
 -0.436493302552E+00
 -0.435402641747E+00
 -0.435402641747E+00
 -0.434700972587E+00
 -0.435402641747E+00
 -0.434700972587E+00
 -0.434700972587E+00
 -0.433314823407E+00
 -0.434700972587E+00
 -0.433314823407E+00
 -0.433314823407E+00
 -0.431679488957E+00
 -0.433314823407E+00
 -0.431679488957E+00
 -0.431679488957E+00
 -0.429942671999E+00
 -0.431679488957E+00
 -0.429942671999E+00
 -0.429942671999E+00
 -0.428375453800E+00
 -0.429942671999E+00
 -0.428375453800E+00
 -0.428375453800E+00
 -0.426807167108E+00
 -0.428375453800E+00
 -0.426807167108E+00
 -0.426807167108E+00
 -0.424717813917E+00
 -0.426807167108E+00
 -0.424717813917E+00
 -0.424717813917E+00
 -0.422124960109E+00
 -0.424717813917E+00
 -0.422124960109E+00
 -0.422124960109E+00
 -0.418818534154E+00
 -0.422124960109E+00
 -0.418818534154E+00
 -0.418818534154E+00
 -0.414688756216E+00
 -0.418818534154E+00
 -0.414688756216E+00
 -0.414688756216E+00
 -0.409887609988E+00
 -0.414688756216E+00
 -0.409887609988E+00
 -0.409887609988E+00
 -0.404790249985E+00
 -0.409887609988E+00
 -0.404790249985E+00
 -0.404790249985E+00
 -0.399528881657E+00
 -0.404790249985E+00
 -0.399528881657E+00
 -0.399528881657E+00
 -0.394323695422E+00
 -0.399528881657E+00
 -0.394323695422E+00
 -0.394323695422E+00
 -0.389063424742E+00
 -0.394323695422E+00
 -0.389063424742E+00
 -0.389063424742E+00
 -0.383697009358E+00
 -0.389063424742E+00
 -0.383697009358E+00
 -0.383697009358E+00
 -0.378236212071E+00
 -0.383697009358E+00
 -0.378236212071E+00
 -0.378236212071E+00
 -0.372790070147E+00
 -0.378236212071E+00
 -0.372790070147E+00
 -0.372790070147E+00
 -0.367319562068E+00
 -0.372790070147E+00
 -0.367319562068E+00
 -0.367319562068E+00
 -0.361906514390E+00
 -0.367319562068E+00
 -0.361906514390E+00
 -0.361906514390E+00
 -0.356466066213E+00
 -0.361906514390E+00
 -0.356466066213E+00
 -0.356466066213E+00
 -0.351029447335E+00
 -0.356466066213E+00
 -0.351029447335E+00
 -0.351029447335E+00
 -0.345566355820E+00
 -0.351029447335E+00
 -0.345566355820E+00
 -0.345566355820E+00
 -0.340009211326E+00
 -0.345566355820E+00
 -0.340009211326E+00
 -0.340009211326E+00
 -0.334450287816E+00
 -0.340009211326E+00
 -0.334450287816E+00
 -0.334450287816E+00
 -0.328987518878E+00
 -0.334450287816E+00
 -0.328987518878E+00
 -0.328987518878E+00
 -0.323491847403E+00
 -0.328987518878E+00
 -0.323491847403E+00
 -0.323491847403E+00
 -0.318025254244E+00
 -0.323491847403E+00
 -0.318025254244E+00
 -0.318025254244E+00
 -0.312624521846E+00
 -0.318025254244E+00
 -0.312624521846E+00
 -0.312624521846E+00
 -0.307176870134E+00
 -0.312624521846E+00
 -0.307176870134E+00
 -0.307176870134E+00
 -0.301744687978E+00
 -0.307176870134E+00
 -0.301744687978E+00
 -0.301744687978E+00
 -0.296314267295E+00
 -0.301744687978E+00
 -0.296314267295E+00
 -0.296314267295E+00
 -0.290880604196E+00
 -0.296314267295E+00
 -0.290880604196E+00
 -0.290880604196E+00
 -0.285404396701E+00
 -0.290880604196E+00
 -0.285404396701E+00
 -0.285404396701E+00
 -0.280033671713E+00
 -0.285404396701E+00
 -0.280033671713E+00
 -0.280033671713E+00
 -0.274719569149E+00
 -0.280033671713E+00
 -0.274719569149E+00
 -0.274719569149E+00
 -0.269456597628E+00
 -0.274719569149E+00
 -0.269456597628E+00
 -0.269456597628E+00
 -0.264301387723E+00
 -0.269456597628E+00
 -0.264301387723E+00
 -0.264301387723E+00
 -0.259116724410E+00
 -0.264301387723E+00
 -0.259116724410E+00
 -0.259116724410E+00
 -0.254007291244E+00
 -0.259116724410E+00
 -0.254007291244E+00
 -0.254007291244E+00
 -0.248872744202E+00
 -0.254007291244E+00
 -0.248872744202E+00
 -0.248872744202E+00
 -0.243609355298E+00
 -0.248872744202E+00
 -0.243609355298E+00
 -0.243609355298E+00
 -0.238488647619E+00
 -0.243609355298E+00
 -0.238488647619E+00
 -0.238488647619E+00
 -0.233250934884E+00
 -0.238488647619E+00
 -0.233250934884E+00
 -0.233250934884E+00
 -0.227990676114E+00
 -0.233250934884E+00
 -0.227990676114E+00
 -0.227990676114E+00
 -0.222731024049E+00
 -0.227990676114E+00
 -0.222731024049E+00
 -0.222731024049E+00
 -0.217478120265E+00
 -0.222731024049E+00
 -0.217478120265E+00
 -0.217478120265E+00
 -0.212164253407E+00
 -0.217478120265E+00
 -0.212164253407E+00
 -0.212164253407E+00
 -0.206838209517E+00
 -0.212164253407E+00
 -0.206838209517E+00
 -0.206838209517E+00
 -0.201503945845E+00
 -0.206838209517E+00
 -0.201503945845E+00
 -0.201503945845E+00
 -0.196017293661E+00
 -0.201503945845E+00
 -0.196017293661E+00
 -0.196017293661E+00
 -0.190289216825E+00
 -0.196017293661E+00
 -0.190289216825E+00
 -0.190289216825E+00
 -0.184511269136E+00
 -0.190289216825E+00
 -0.184511269136E+00
 -0.184511269136E+00
 -0.178542930573E+00
 -0.184511269136E+00
 -0.178542930573E+00
 -0.178542930573E+00
 -0.172717673337E+00
 -0.178542930573E+00
 -0.172717673337E+00
 -0.172717673337E+00
 -0.166166972405E+00
 -0.172717673337E+00
 -0.166166972405E+00
 -0.166166972405E+00
 -0.160408552313E+00
 -0.166166972405E+00
 -0.160408552313E+00
 -0.160408552313E+00
 -0.150808346328E+00
 -0.160408552313E+00
 -0.150808346328E+00
 -0.150808346328E+00
 -0.140763036929E+00
 -0.150808346328E+00
 -0.140763036929E+00
 -0.140763036929E+00
 -0.114151377566E+00
 -0.140763036929E+00
 -0.114151377566E+00
 -0.114151377566E+00
 -0.898938713193E-01
 -0.114151377566E+00
 -0.898938713193E-01
 -0.898938713193E-01
  0.000000000000E+00
 -0.898938713193E-01
  0.000000000000E+00
