# vtk DataFile Version 3.0
MachLine results file. Generated by MachLine, USU AeroLab (c) 2023.
ASCII
DATASET POLYDATA
POINTS                 112 float
  0.479242934050E+01  0.285714285710E+01  0.000000000000E+00
  0.439621467030E+01  0.142857142860E+01  0.000000000000E+00
  0.598080857706E+02  0.285714285710E+01  0.481324625407E+01
  0.598050760750E+02  0.142857142860E+01  0.484764723179E+01
  0.439621467030E+01  0.142857142860E+01  0.000000000000E+00
  0.400000000000E+01  0.000000000000E+00  0.000000000000E+00
  0.598050760750E+02  0.142857142860E+01  0.484764723179E+01
  0.598020663795E+02  0.000000000000E+00  0.488204820953E+01
  0.518864401080E+01  0.428571428570E+01  0.000000000000E+00
  0.479242934050E+01  0.285714285710E+01  0.000000000000E+00
  0.598110954662E+02  0.428571428570E+01  0.477884527634E+01
  0.598080857706E+02  0.285714285710E+01  0.481324625407E+01
  0.598107335140E+01  0.714285714290E+01  0.000000000000E+00
  0.558485868110E+01  0.571428571430E+01  0.000000000000E+00
  0.598171148573E+02  0.714285714290E+01  0.471004332088E+01
  0.598141051617E+02  0.571428571430E+01  0.474444429861E+01
  0.558485868110E+01  0.571428571430E+01  0.000000000000E+00
  0.518864401080E+01  0.428571428570E+01  0.000000000000E+00
  0.598141051617E+02  0.571428571430E+01  0.474444429861E+01
  0.598110954662E+02  0.428571428570E+01  0.477884527634E+01
  0.637728802160E+01  0.857142857140E+01  0.000000000000E+00
  0.598107335140E+01  0.714285714290E+01  0.000000000000E+00
  0.598201245529E+02  0.857142857140E+01  0.467564234316E+01
  0.598171148573E+02  0.714285714290E+01  0.471004332088E+01
  0.677350269190E+01  0.100000000000E+02  0.000000000000E+00
  0.637728802160E+01  0.857142857140E+01  0.000000000000E+00
  0.598231342484E+02  0.100000000000E+02  0.464124136542E+01
  0.598201245529E+02  0.857142857140E+01  0.467564234316E+01
  0.439621467030E+01 -0.142857142860E+01  0.000000000000E+00
  0.479242934050E+01 -0.285714285710E+01  0.000000000000E+00
  0.598050760750E+02 -0.142857142860E+01  0.484764723179E+01
  0.598080857706E+02 -0.285714285710E+01  0.481324625407E+01
  0.400000000000E+01  0.000000000000E+00  0.000000000000E+00
  0.439621467030E+01 -0.142857142860E+01  0.000000000000E+00
  0.598020663795E+02  0.000000000000E+00  0.488204820953E+01
  0.598050760750E+02 -0.142857142860E+01  0.484764723179E+01
  0.518864401080E+01 -0.428571428570E+01  0.000000000000E+00
  0.558485868110E+01 -0.571428571430E+01  0.000000000000E+00
  0.598110954662E+02 -0.428571428570E+01  0.477884527634E+01
  0.598141051617E+02 -0.571428571430E+01  0.474444429861E+01
  0.479242934050E+01 -0.285714285710E+01  0.000000000000E+00
  0.518864401080E+01 -0.428571428570E+01  0.000000000000E+00
  0.598080857706E+02 -0.285714285710E+01  0.481324625407E+01
  0.598110954662E+02 -0.428571428570E+01  0.477884527634E+01
  0.558485868110E+01 -0.571428571430E+01  0.000000000000E+00
  0.598107335140E+01 -0.714285714290E+01  0.000000000000E+00
  0.598141051617E+02 -0.571428571430E+01  0.474444429861E+01
  0.598171148573E+02 -0.714285714290E+01  0.471004332088E+01
  0.637728802160E+01 -0.857142857140E+01  0.000000000000E+00
  0.677350269190E+01 -0.100000000000E+02  0.000000000000E+00
  0.598201245529E+02 -0.857142857140E+01  0.467564234316E+01
  0.598231342484E+02 -0.100000000000E+02  0.464124136542E+01
  0.714621467030E+01  0.142857142860E+01 -0.250000000000E+01
  0.675000000000E+01  0.000000000000E+00 -0.250000000000E+01
  0.600430256367E+02  0.142857142860E+01  0.212787129624E+01
  0.600400159412E+02  0.000000000000E+00  0.216227227397E+01
  0.598107335140E+01 -0.714285714290E+01  0.000000000000E+00
  0.637728802160E+01 -0.857142857140E+01  0.000000000000E+00
  0.598171148573E+02 -0.714285714290E+01  0.471004332088E+01
  0.598201245529E+02 -0.857142857140E+01  0.467564234316E+01
  0.754242934050E+01  0.285714285710E+01 -0.250000000000E+01
  0.714621467030E+01  0.142857142860E+01 -0.250000000000E+01
  0.600460353323E+02  0.285714285710E+01  0.209347031851E+01
  0.600430256367E+02  0.142857142860E+01  0.212787129624E+01
  0.793864401080E+01  0.428571428570E+01 -0.250000000000E+01
  0.754242934050E+01  0.285714285710E+01 -0.250000000000E+01
  0.600490450279E+02  0.428571428570E+01  0.205906934078E+01
  0.600460353323E+02  0.285714285710E+01  0.209347031851E+01
  0.873107335140E+01  0.714285714290E+01 -0.250000000000E+01
  0.833485868110E+01  0.571428571430E+01 -0.250000000000E+01
  0.600550644190E+02  0.714285714290E+01  0.199026738532E+01
  0.600520547234E+02  0.571428571430E+01  0.202466836305E+01
  0.952350269190E+01  0.100000000000E+02 -0.250000000000E+01
  0.912728802160E+01  0.857142857140E+01 -0.250000000000E+01
  0.600610838101E+02  0.100000000000E+02  0.192146542987E+01
  0.600580741146E+02  0.857142857140E+01  0.195586640760E+01
  0.833485868110E+01  0.571428571430E+01 -0.250000000000E+01
  0.793864401080E+01  0.428571428570E+01 -0.250000000000E+01
  0.600520547234E+02  0.571428571430E+01  0.202466836305E+01
  0.600490450279E+02  0.428571428570E+01  0.205906934078E+01
  0.675000000000E+01  0.000000000000E+00 -0.250000000000E+01
  0.714621467030E+01 -0.142857142860E+01 -0.250000000000E+01
  0.600400159412E+02  0.000000000000E+00  0.216227227397E+01
  0.600430256367E+02 -0.142857142860E+01  0.212787129624E+01
  0.912728802160E+01  0.857142857140E+01 -0.250000000000E+01
  0.873107335140E+01  0.714285714290E+01 -0.250000000000E+01
  0.600580741146E+02  0.857142857140E+01  0.195586640760E+01
  0.600550644190E+02  0.714285714290E+01  0.199026738532E+01
  0.714621467030E+01 -0.142857142860E+01 -0.250000000000E+01
  0.754242934050E+01 -0.285714285710E+01 -0.250000000000E+01
  0.600430256367E+02 -0.142857142860E+01  0.212787129624E+01
  0.600460353323E+02 -0.285714285710E+01  0.209347031851E+01
  0.754242934050E+01 -0.285714285710E+01 -0.250000000000E+01
  0.793864401080E+01 -0.428571428570E+01 -0.250000000000E+01
  0.600460353323E+02 -0.285714285710E+01  0.209347031851E+01
  0.600490450279E+02 -0.428571428570E+01  0.205906934078E+01
  0.793864401080E+01 -0.428571428570E+01 -0.250000000000E+01
  0.833485868110E+01 -0.571428571430E+01 -0.250000000000E+01
  0.600490450279E+02 -0.428571428570E+01  0.205906934078E+01
  0.600520547234E+02 -0.571428571430E+01  0.202466836305E+01
  0.833485868110E+01 -0.571428571430E+01 -0.250000000000E+01
  0.873107335140E+01 -0.714285714290E+01 -0.250000000000E+01
  0.600520547234E+02 -0.571428571430E+01  0.202466836305E+01
  0.600550644190E+02 -0.714285714290E+01  0.199026738532E+01
  0.873107335140E+01 -0.714285714290E+01 -0.250000000000E+01
  0.912728802160E+01 -0.857142857140E+01 -0.250000000000E+01
  0.600550644190E+02 -0.714285714290E+01  0.199026738532E+01
  0.600580741146E+02 -0.857142857140E+01  0.195586640760E+01
  0.912728802160E+01 -0.857142857140E+01 -0.250000000000E+01
  0.952350269190E+01 -0.100000000000E+02 -0.250000000000E+01
  0.600580741146E+02 -0.857142857140E+01  0.195586640760E+01
  0.600610838101E+02 -0.100000000000E+02  0.192146542987E+01
POLYGONS                  56                 224
3                   0                   3                   1
3                   0                   2                   3
3                   4                   7                   5
3                   4                   6                   7
3                   8                  11                   9
3                   8                  10                  11
3                  12                  15                  13
3                  12                  14                  15
3                  16                  19                  17
3                  16                  18                  19
3                  20                  23                  21
3                  20                  22                  23
3                  24                  27                  25
3                  24                  26                  27
3                  28                  30                  29
3                  30                  31                  29
3                  32                  34                  33
3                  34                  35                  33
3                  36                  38                  37
3                  38                  39                  37
3                  40                  42                  41
3                  42                  43                  41
3                  44                  46                  45
3                  46                  47                  45
3                  48                  50                  49
3                  50                  51                  49
3                  52                  55                  53
3                  52                  54                  55
3                  56                  58                  57
3                  58                  59                  57
3                  60                  63                  61
3                  60                  62                  63
3                  64                  67                  65
3                  64                  66                  67
3                  68                  71                  69
3                  68                  70                  71
3                  72                  75                  73
3                  72                  74                  75
3                  76                  79                  77
3                  76                  78                  79
3                  80                  82                  81
3                  82                  83                  81
3                  84                  87                  85
3                  84                  86                  87
3                  88                  90                  89
3                  90                  91                  89
3                  92                  94                  93
3                  94                  95                  93
3                  96                  98                  97
3                  98                  99                  97
3                 100                 102                 101
3                 102                 103                 101
3                 104                 106                 105
3                 106                 107                 105
3                 108                 110                 109
3                 110                 111                 109
POINT_DATA                 112
SCALARS mu float 1
LOOKUP_TABLE default
 -0.241020371095E+00
 -0.119420376632E+00
 -0.241020371095E+00
 -0.119420376632E+00
 -0.119420376632E+00
 -0.275805274711E+00
 -0.119420376632E+00
 -0.275805274711E+00
 -0.206799947394E+00
 -0.241020371095E+00
 -0.206799947394E+00
 -0.241020371095E+00
 -0.985948242740E-01
 -0.208493037514E+00
 -0.985948242740E-01
 -0.208493037514E+00
 -0.208493037514E+00
 -0.206799947394E+00
 -0.208493037514E+00
 -0.206799947394E+00
 -0.176914232548E+00
 -0.985948242740E-01
 -0.176914232548E+00
 -0.985948242740E-01
  0.000000000000E+00
 -0.176914232548E+00
  0.000000000000E+00
 -0.176914232548E+00
 -0.119420376620E+00
 -0.241020371086E+00
 -0.119420376620E+00
 -0.241020371086E+00
 -0.275805274711E+00
 -0.119420376620E+00
 -0.275805274711E+00
 -0.119420376620E+00
 -0.206799947396E+00
 -0.208493037523E+00
 -0.206799947396E+00
 -0.208493037523E+00
 -0.241020371086E+00
 -0.206799947396E+00
 -0.241020371086E+00
 -0.206799947396E+00
 -0.208493037523E+00
 -0.985948242804E-01
 -0.208493037523E+00
 -0.985948242804E-01
 -0.176914232553E+00
  0.000000000000E+00
 -0.176914232553E+00
  0.000000000000E+00
  0.382016309228E+00
  0.204384364726E+00
  0.382016309228E+00
  0.204384364726E+00
 -0.985948242804E-01
 -0.176914232553E+00
 -0.985948242804E-01
 -0.176914232553E+00
  0.124509872949E+00
  0.382016309228E+00
  0.124509872949E+00
  0.382016309228E+00
  0.135592844580E+00
  0.124509872949E+00
  0.135592844580E+00
  0.124509872949E+00
  0.740139636773E-01
  0.559365747482E-01
  0.740139636773E-01
  0.559365747482E-01
  0.000000000000E+00
 -0.608429254860E-01
  0.000000000000E+00
 -0.608429254860E-01
  0.559365747482E-01
  0.135592844580E+00
  0.559365747482E-01
  0.135592844580E+00
  0.204384364726E+00
  0.382016309226E+00
  0.204384364726E+00
  0.382016309226E+00
 -0.608429254860E-01
  0.740139636773E-01
 -0.608429254860E-01
  0.740139636773E-01
  0.382016309226E+00
  0.124509872947E+00
  0.382016309226E+00
  0.124509872947E+00
  0.124509872947E+00
  0.135592844580E+00
  0.124509872947E+00
  0.135592844580E+00
  0.135592844580E+00
  0.559365747487E-01
  0.135592844580E+00
  0.559365747487E-01
  0.559365747487E-01
  0.740139636780E-01
  0.559365747487E-01
  0.740139636780E-01
  0.740139636780E-01
 -0.608429254854E-01
  0.740139636780E-01
 -0.608429254854E-01
 -0.608429254854E-01
  0.000000000000E+00
 -0.608429254854E-01
  0.000000000000E+00
