# vtk DataFile Version 3.0
MachLine results file. Generated by MachLine, USU AeroLab (c) 2023.
ASCII
DATASET POLYDATA
POINTS                 112 float
  0.439621467030E+01  0.142857142860E+01  0.000000000000E+00
  0.400000000000E+01  0.000000000000E+00  0.000000000000E+00
  0.598031752147E+02  0.526315789470E+00  0.486937416510E+01
  0.598020663795E+02  0.000000000000E+00  0.488204820953E+01
  0.479242934050E+01  0.285714285710E+01  0.000000000000E+00
  0.439621467030E+01  0.142857142860E+01  0.000000000000E+00
  0.598080857706E+02  0.285714285710E+01  0.481324625407E+01
  0.598050760750E+02  0.142857142860E+01  0.484764723179E+01
  0.518864401080E+01  0.428571428570E+01  0.000000000000E+00
  0.479242934050E+01  0.285714285710E+01  0.000000000000E+00
  0.598110954662E+02  0.428571428570E+01  0.477884527634E+01
  0.598080857706E+02  0.285714285710E+01  0.481324625407E+01
  0.558485868110E+01  0.571428571430E+01  0.000000000000E+00
  0.518864401080E+01  0.428571428570E+01  0.000000000000E+00
  0.598141051617E+02  0.571428571430E+01  0.474444429861E+01
  0.598110954662E+02  0.428571428570E+01  0.477884527634E+01
  0.598107335140E+01  0.714285714290E+01  0.000000000000E+00
  0.558485868110E+01  0.571428571430E+01  0.000000000000E+00
  0.598171148573E+02  0.714285714290E+01  0.471004332088E+01
  0.598141051617E+02  0.571428571430E+01  0.474444429861E+01
  0.677350269190E+01  0.100000000000E+02  0.000000000000E+00
  0.662752886600E+01  0.947368421050E+01  0.000000000000E+00
  0.598231342484E+02  0.100000000000E+02  0.464124136542E+01
  0.598201245529E+02  0.857142857140E+01  0.467564234316E+01
  0.637728802160E+01  0.857142857140E+01  0.000000000000E+00
  0.598107335140E+01  0.714285714290E+01  0.000000000000E+00
  0.598201245529E+02  0.857142857140E+01  0.467564234316E+01
  0.598171148573E+02  0.714285714290E+01  0.471004332088E+01
  0.479242934050E+01 -0.285714285710E+01  0.000000000000E+00
  0.518864401080E+01 -0.428571428570E+01  0.000000000000E+00
  0.598080857706E+02 -0.285714285710E+01  0.481324625407E+01
  0.598110954662E+02 -0.428571428570E+01  0.477884527634E+01
  0.400000000000E+01  0.000000000000E+00  0.000000000000E+00
  0.414597382590E+01 -0.526315789470E+00  0.000000000000E+00
  0.598020663795E+02  0.000000000000E+00  0.488204820953E+01
  0.598050760750E+02 -0.142857142860E+01  0.484764723179E+01
  0.439621467030E+01 -0.142857142860E+01  0.000000000000E+00
  0.479242934050E+01 -0.285714285710E+01  0.000000000000E+00
  0.598050760750E+02 -0.142857142860E+01  0.484764723179E+01
  0.598080857706E+02 -0.285714285710E+01  0.481324625407E+01
  0.518864401080E+01 -0.428571428570E+01  0.000000000000E+00
  0.558485868110E+01 -0.571428571430E+01  0.000000000000E+00
  0.598110954662E+02 -0.428571428570E+01  0.477884527634E+01
  0.598141051617E+02 -0.571428571430E+01  0.474444429861E+01
  0.637728802160E+01 -0.857142857140E+01  0.000000000000E+00
  0.677350269190E+01 -0.100000000000E+02  0.000000000000E+00
  0.598220254132E+02 -0.947368421050E+01  0.465391540985E+01
  0.598231342484E+02 -0.100000000000E+02  0.464124136542E+01
  0.558485868110E+01 -0.571428571430E+01  0.000000000000E+00
  0.598107335140E+01 -0.714285714290E+01  0.000000000000E+00
  0.598141051617E+02 -0.571428571430E+01  0.474444429861E+01
  0.598171148573E+02 -0.714285714290E+01  0.471004332088E+01
  0.598107335140E+01 -0.714285714290E+01  0.000000000000E+00
  0.637728802160E+01 -0.857142857140E+01  0.000000000000E+00
  0.598171148573E+02 -0.714285714290E+01  0.471004332088E+01
  0.598201245529E+02 -0.857142857140E+01  0.467564234316E+01
  0.714621467030E+01  0.142857142860E+01 -0.250000000000E+01
  0.675000000000E+01  0.000000000000E+00 -0.250000000000E+01
  0.600430256367E+02  0.142857142860E+01  0.212787129624E+01
  0.600400159412E+02  0.000000000000E+00  0.216227227397E+01
  0.754242934050E+01  0.285714285710E+01 -0.250000000000E+01
  0.714621467030E+01  0.142857142860E+01 -0.250000000000E+01
  0.600460353323E+02  0.285714285710E+01  0.209347031851E+01
  0.600430256367E+02  0.142857142860E+01  0.212787129624E+01
  0.793864401080E+01  0.428571428570E+01 -0.250000000000E+01
  0.754242934050E+01  0.285714285710E+01 -0.250000000000E+01
  0.600490450279E+02  0.428571428570E+01  0.205906934078E+01
  0.600460353323E+02  0.285714285710E+01  0.209347031851E+01
  0.833485868110E+01  0.571428571430E+01 -0.250000000000E+01
  0.793864401080E+01  0.428571428570E+01 -0.250000000000E+01
  0.600520547234E+02  0.571428571430E+01  0.202466836305E+01
  0.600490450279E+02  0.428571428570E+01  0.205906934078E+01
  0.873107335140E+01  0.714285714290E+01 -0.250000000000E+01
  0.833485868110E+01  0.571428571430E+01 -0.250000000000E+01
  0.600550644190E+02  0.714285714290E+01  0.199026738532E+01
  0.600520547234E+02  0.571428571430E+01  0.202466836305E+01
  0.912728802160E+01  0.857142857140E+01 -0.250000000000E+01
  0.873107335140E+01  0.714285714290E+01 -0.250000000000E+01
  0.600580741146E+02  0.857142857140E+01  0.195586640760E+01
  0.600550644190E+02  0.714285714290E+01  0.199026738532E+01
  0.952350269190E+01  0.100000000000E+02 -0.250000000000E+01
  0.912728802160E+01  0.857142857140E+01 -0.250000000000E+01
  0.600610838101E+02  0.100000000000E+02  0.192146542987E+01
  0.600580741146E+02  0.857142857140E+01  0.195586640760E+01
  0.675000000000E+01  0.000000000000E+00 -0.250000000000E+01
  0.714621467030E+01 -0.142857142860E+01 -0.250000000000E+01
  0.600400159412E+02  0.000000000000E+00  0.216227227397E+01
  0.600430256367E+02 -0.142857142860E+01  0.212787129624E+01
  0.714621467030E+01 -0.142857142860E+01 -0.250000000000E+01
  0.754242934050E+01 -0.285714285710E+01 -0.250000000000E+01
  0.600430256367E+02 -0.142857142860E+01  0.212787129624E+01
  0.600460353323E+02 -0.285714285710E+01  0.209347031851E+01
  0.754242934050E+01 -0.285714285710E+01 -0.250000000000E+01
  0.793864401080E+01 -0.428571428570E+01 -0.250000000000E+01
  0.600460353323E+02 -0.285714285710E+01  0.209347031851E+01
  0.600490450279E+02 -0.428571428570E+01  0.205906934078E+01
  0.793864401080E+01 -0.428571428570E+01 -0.250000000000E+01
  0.833485868110E+01 -0.571428571430E+01 -0.250000000000E+01
  0.600490450279E+02 -0.428571428570E+01  0.205906934078E+01
  0.600520547234E+02 -0.571428571430E+01  0.202466836305E+01
  0.833485868110E+01 -0.571428571430E+01 -0.250000000000E+01
  0.873107335140E+01 -0.714285714290E+01 -0.250000000000E+01
  0.600520547234E+02 -0.571428571430E+01  0.202466836305E+01
  0.600550644190E+02 -0.714285714290E+01  0.199026738532E+01
  0.873107335140E+01 -0.714285714290E+01 -0.250000000000E+01
  0.912728802160E+01 -0.857142857140E+01 -0.250000000000E+01
  0.600550644190E+02 -0.714285714290E+01  0.199026738532E+01
  0.600580741146E+02 -0.857142857140E+01  0.195586640760E+01
  0.912728802160E+01 -0.857142857140E+01 -0.250000000000E+01
  0.952350269190E+01 -0.100000000000E+02 -0.250000000000E+01
  0.600599749749E+02 -0.947368421050E+01  0.193413947429E+01
  0.600610838101E+02 -0.100000000000E+02  0.192146542987E+01
POLYGONS                 152                 608
3                   0                   3                   1
3                   0                   2                   3
3                   4                   7                   5
3                   4                   6                   7
3                   8                  11                   9
3                   8                  10                  11
3                  12                  15                  13
3                  12                  14                  15
3                  16                  19                  17
3                  16                  18                  19
3                  20                  23                  21
3                  20                  22                  23
3                  24                  27                  25
3                  24                  26                  27
3                  28                  30                  29
3                  30                  31                  29
3                  32                  34                  33
3                  34                  35                  33
3                  36                  38                  37
3                  38                  39                  37
3                  40                  42                  41
3                  42                  43                  41
3                  44                  46                  45
3                  46                  47                  45
3                  48                  50                  49
3                  50                  51                  49
3                  52                  54                  53
3                  54                  55                  53
3                  56                  59                  57
3                  56                  58                  59
3                  60                  63                  61
3                  60                  62                  63
3                  64                  67                  65
3                  64                  66                  67
3                  68                  71                  69
3                  68                  70                  71
3                  72                  75                  73
3                  72                  74                  75
3                  76                  79                  77
3                  76                  78                  79
3                  80                  83                  81
3                  80                  82                  83
3                  84                  86                  85
3                  86                  87                  85
3                  88                  90                  89
3                  90                  91                  89
3                  92                  94                  93
3                  94                  95                  93
3                  96                  98                  97
3                  98                  99                  97
3                 100                 102                 101
3                 102                 103                 101
3                 104                 106                 105
3                 106                 107                 105
3                 108                 110                 109
3                 110                 111                 109
3                 112                 114                 113
3                 114                 115                 113
3                 116                 118                 117
3                 118                 119                 117
3                 120                 122                 121
3                 122                 123                 121
3                 124                 126                 125
3                 126                 127                 125
3                 128                 130                 129
3                 130                 131                 129
3                 132                 134                 133
3                 134                 135                 133
3                 136                 138                 137
3                 138                 139                 137
3                 140                 142                 141
3                 142                 143                 141
3                 144                 146                 145
3                 146                 147                 145
3                 148                 150                 149
3                 150                 151                 149
3                 152                 155                 153
3                 152                 154                 155
3                 156                 159                 157
3                 156                 158                 159
3                 160                 163                 161
3                 160                 162                 163
3                 164                 167                 165
3                 164                 166                 167
3                 168                 171                 169
3                 168                 170                 171
3                 172                 175                 173
3                 172                 174                 175
3                 176                 179                 177
3                 176                 178                 179
3                 180                 183                 181
3                 180                 182                 183
3                 184                 187                 185
3                 184                 186                 187
3                 188                 191                 189
3                 188                 190                 191
3                 192                 195                 193
3                 192                 194                 195
3                 196                 199                 197
3                 196                 198                 199
3                 200                 203                 201
3                 200                 202                 203
3                 204                 207                 205
3                 204                 206                 207
3                 208                 211                 209
3                 208                 210                 211
3                 212                 215                 213
3                 212                 214                 215
3                 216                 219                 217
3                 216                 218                 219
3                 220                 223                 221
3                 220                 222                 223
3                 224                 227                 225
3                 224                 226                 227
3                 228                 230                 229
3                 230                 231                 229
3                 232                 234                 233
3                 234                 235                 233
3                 236                 238                 237
3                 238                 239                 237
3                 240                 242                 241
3                 242                 243                 241
3                 244                 246                 245
3                 246                 247                 245
3                 248                 250                 249
3                 250                 251                 249
3                 252                 254                 253
3                 254                 255                 253
3                 256                 258                 257
3                 258                 259                 257
3                 260                 262                 261
3                 262                 263                 261
3                 264                 266                 265
3                 266                 267                 265
3                 268                 270                 269
3                 270                 271                 269
3                 272                 274                 273
3                 274                 275                 273
3                 276                 278                 277
3                 278                 279                 277
3                 280                 282                 281
3                 282                 283                 281
3                 284                 286                 285
3                 286                 287                 285
3                 288                 290                 289
3                 290                 291                 289
3                 292                 294                 293
3                 294                 295                 293
3                 296                 298                 297
3                 298                 299                 297
3                 300                 302                 301
3                 302                 303                 301
POINT_DATA                 304
SCALARS mu float 1
LOOKUP_TABLE default
 -0.119420376624E+00
 -0.275805274701E+00
 -0.119420376624E+00
 -0.275805274701E+00
 -0.241020371090E+00
 -0.119420376624E+00
 -0.241020371090E+00
 -0.119420376624E+00
 -0.206799947394E+00
 -0.241020371090E+00
 -0.206799947394E+00
 -0.241020371090E+00
 -0.208493037517E+00
 -0.206799947394E+00
 -0.208493037517E+00
 -0.206799947394E+00
 -0.985948242765E-01
 -0.208493037517E+00
 -0.985948242765E-01
 -0.208493037517E+00
  0.000000000000E+00
 -0.176914232550E+00
  0.000000000000E+00
 -0.176914232550E+00
 -0.176914232550E+00
 -0.985948242765E-01
 -0.176914232550E+00
 -0.985948242765E-01
 -0.241020371080E+00
 -0.206799947393E+00
 -0.241020371080E+00
 -0.206799947393E+00
 -0.275805274701E+00
 -0.119420376613E+00
 -0.275805274701E+00
 -0.119420376613E+00
 -0.119420376613E+00
 -0.241020371080E+00
 -0.119420376613E+00
 -0.241020371080E+00
 -0.206799947393E+00
 -0.208493037521E+00
 -0.206799947393E+00
 -0.208493037521E+00
 -0.176914232553E+00
  0.000000000000E+00
 -0.105293184047E+00
  0.000000000000E+00
 -0.208493037521E+00
 -0.985948242795E-01
 -0.208493037521E+00
 -0.985948242795E-01
 -0.985948242795E-01
 -0.176914232553E+00
 -0.985948242795E-01
 -0.176914232553E+00
  0.382016309227E+00
  0.204384364723E+00
  0.382016309227E+00
  0.204384364723E+00
  0.124509872948E+00
  0.382016309227E+00
  0.124509872948E+00
  0.382016309227E+00
  0.135592844580E+00
  0.124509872948E+00
  0.135592844580E+00
  0.124509872948E+00
  0.559365747488E-01
  0.135592844580E+00
  0.559365747488E-01
  0.135592844580E+00
  0.740139636777E-01
  0.559365747488E-01
  0.740139636777E-01
  0.559365747488E-01
 -0.608429254859E-01
  0.740139636777E-01
 -0.608429254859E-01
  0.740139636777E-01
  0.000000000000E+00
 -0.608429254859E-01
  0.000000000000E+00
 -0.608429254859E-01
  0.204384364723E+00
  0.382016309225E+00
  0.204384364723E+00
  0.382016309225E+00
  0.382016309225E+00
  0.124509872945E+00
  0.382016309225E+00
  0.124509872945E+00
  0.124509872945E+00
  0.135592844578E+00
  0.124509872945E+00
  0.135592844578E+00
  0.135592844578E+00
  0.559365747481E-01
  0.135592844578E+00
  0.559365747481E-01
  0.559365747481E-01
  0.740139636774E-01
  0.559365747481E-01
  0.740139636774E-01
  0.740139636774E-01
 -0.608429254854E-01
  0.740139636774E-01
 -0.608429254854E-01
 -0.608429254854E-01
  0.000000000000E+00
  0.111381317487E-01
  0.000000000000E+00
