# vtk DataFile Version 3.0
MachLine results file. Generated by MachLine, USU AeroLab (c) 2023.
ASCII
DATASET POLYDATA
POINTS                  56 float
  0.439621467030E+01  0.142857142860E+01  0.000000000000E+00
  0.400000000000E+01  0.000000000000E+00  0.000000000000E+00
  0.598050760750E+02  0.142857142860E+01  0.484764723179E+01
  0.598020663795E+02  0.000000000000E+00  0.488204820953E+01
  0.479242934050E+01  0.285714285710E+01  0.000000000000E+00
  0.439621467030E+01  0.142857142860E+01  0.000000000000E+00
  0.598080857706E+02  0.285714285710E+01  0.481324625407E+01
  0.598050760750E+02  0.142857142860E+01  0.484764723179E+01
  0.518864401080E+01  0.428571428570E+01  0.000000000000E+00
  0.479242934050E+01  0.285714285710E+01  0.000000000000E+00
  0.598110954662E+02  0.428571428570E+01  0.477884527634E+01
  0.598080857706E+02  0.285714285710E+01  0.481324625407E+01
  0.558485868110E+01  0.571428571430E+01  0.000000000000E+00
  0.518864401080E+01  0.428571428570E+01  0.000000000000E+00
  0.598141051617E+02  0.571428571430E+01  0.474444429861E+01
  0.598110954662E+02  0.428571428570E+01  0.477884527634E+01
  0.598107335140E+01  0.714285714290E+01  0.000000000000E+00
  0.558485868110E+01  0.571428571430E+01  0.000000000000E+00
  0.598171148573E+02  0.714285714290E+01  0.471004332088E+01
  0.598141051617E+02  0.571428571430E+01  0.474444429861E+01
  0.637728802160E+01  0.857142857140E+01  0.000000000000E+00
  0.598107335140E+01  0.714285714290E+01  0.000000000000E+00
  0.598201245529E+02  0.857142857140E+01  0.467564234316E+01
  0.598171148573E+02  0.714285714290E+01  0.471004332088E+01
  0.677350269190E+01  0.100000000000E+02  0.000000000000E+00
  0.637728802160E+01  0.857142857140E+01  0.000000000000E+00
  0.598231342484E+02  0.100000000000E+02  0.464124136542E+01
  0.598201245529E+02  0.857142857140E+01  0.467564234316E+01
  0.400000000000E+01  0.000000000000E+00  0.000000000000E+00
  0.439621467030E+01 -0.142857142860E+01  0.000000000000E+00
  0.598020663795E+02  0.000000000000E+00  0.488204820953E+01
  0.598050760750E+02 -0.142857142860E+01  0.484764723179E+01
  0.439621467030E+01 -0.142857142860E+01  0.000000000000E+00
  0.479242934050E+01 -0.285714285710E+01  0.000000000000E+00
  0.598050760750E+02 -0.142857142860E+01  0.484764723179E+01
  0.598080857706E+02 -0.285714285710E+01  0.481324625407E+01
  0.479242934050E+01 -0.285714285710E+01  0.000000000000E+00
  0.518864401080E+01 -0.428571428570E+01  0.000000000000E+00
  0.598080857706E+02 -0.285714285710E+01  0.481324625407E+01
  0.598110954662E+02 -0.428571428570E+01  0.477884527634E+01
  0.518864401080E+01 -0.428571428570E+01  0.000000000000E+00
  0.558485868110E+01 -0.571428571430E+01  0.000000000000E+00
  0.598110954662E+02 -0.428571428570E+01  0.477884527634E+01
  0.598141051617E+02 -0.571428571430E+01  0.474444429861E+01
  0.558485868110E+01 -0.571428571430E+01  0.000000000000E+00
  0.598107335140E+01 -0.714285714290E+01  0.000000000000E+00
  0.598141051617E+02 -0.571428571430E+01  0.474444429861E+01
  0.598171148573E+02 -0.714285714290E+01  0.471004332088E+01
  0.598107335140E+01 -0.714285714290E+01  0.000000000000E+00
  0.637728802160E+01 -0.857142857140E+01  0.000000000000E+00
  0.598171148573E+02 -0.714285714290E+01  0.471004332088E+01
  0.598201245529E+02 -0.857142857140E+01  0.467564234316E+01
  0.637728802160E+01 -0.857142857140E+01  0.000000000000E+00
  0.677350269190E+01 -0.100000000000E+02  0.000000000000E+00
  0.598201245529E+02 -0.857142857140E+01  0.467564234316E+01
  0.598231342484E+02 -0.100000000000E+02  0.464124136542E+01
POLYGONS                  28                 112
3                   0                   3                   1
3                   0                   2                   3
3                   4                   7                   5
3                   4                   6                   7
3                   8                  11                   9
3                   8                  10                  11
3                  12                  15                  13
3                  12                  14                  15
3                  16                  19                  17
3                  16                  18                  19
3                  20                  23                  21
3                  20                  22                  23
3                  24                  27                  25
3                  24                  26                  27
3                  28                  30                  29
3                  30                  31                  29
3                  32                  34                  33
3                  34                  35                  33
3                  36                  38                  37
3                  38                  39                  37
3                  40                  42                  41
3                  42                  43                  41
3                  44                  46                  45
3                  46                  47                  45
3                  48                  50                  49
3                  50                  51                  49
3                  52                  54                  53
3                  54                  55                  53
POINT_DATA                  56
SCALARS mu float 1
LOOKUP_TABLE default
 -0.450756546546E+00
 -0.435987344979E+00
 -0.450756546546E+00
 -0.435987344979E+00
 -0.432338033650E+00
 -0.450756546546E+00
 -0.432338033650E+00
 -0.450756546546E+00
 -0.380072147065E+00
 -0.432338033650E+00
 -0.380072147065E+00
 -0.432338033650E+00
 -0.320036293512E+00
 -0.380072147065E+00
 -0.320036293512E+00
 -0.380072147065E+00
 -0.261445111869E+00
 -0.320036293512E+00
 -0.261445111869E+00
 -0.320036293512E+00
 -0.178398798699E+00
 -0.261445111869E+00
 -0.178398798699E+00
 -0.261445111869E+00
  0.000000000000E+00
 -0.178398798699E+00
  0.000000000000E+00
 -0.178398798699E+00
 -0.435987344979E+00
 -0.450756546609E+00
 -0.435987344979E+00
 -0.450756546609E+00
 -0.450756546609E+00
 -0.432338033612E+00
 -0.450756546609E+00
 -0.432338033612E+00
 -0.432338033612E+00
 -0.380072146989E+00
 -0.432338033612E+00
 -0.380072146989E+00
 -0.380072146989E+00
 -0.320036293454E+00
 -0.380072146989E+00
 -0.320036293454E+00
 -0.320036293454E+00
 -0.261445111854E+00
 -0.320036293454E+00
 -0.261445111854E+00
 -0.261445111854E+00
 -0.178398798667E+00
 -0.261445111854E+00
 -0.178398798667E+00
 -0.178398798667E+00
  0.000000000000E+00
 -0.178398798667E+00
  0.000000000000E+00
