# vtk DataFile Version 3.0
MachLine results file. Generated by MachLine, USU AeroLab (c) 2023.
ASCII
DATASET POLYDATA
POINTS                  88 float
  0.437820491255E+01  0.136363636364E+01  0.000000000000E+00
  0.598049392707E+02  0.136363636364E+01  0.484921091260E+01
  0.412606830420E+01  0.454545454545E+00  0.000000000000E+00
  0.598030240099E+02  0.454545454545E+00  0.487110244388E+01
  0.463034152090E+01  0.227272727275E+01  0.000000000000E+00
  0.598068545315E+02  0.227272727275E+01  0.482731938132E+01
  0.488247812925E+01  0.318181818185E+01  0.000000000000E+00
  0.598087697923E+02  0.318181818185E+01  0.480542785004E+01
  0.538675134595E+01  0.500000000000E+01  0.000000000000E+00
  0.598126003140E+02  0.500000000000E+01  0.476164478747E+01
  0.563888795430E+01  0.590909090905E+01  0.000000000000E+00
  0.598145155748E+02  0.590909090905E+01  0.473975325619E+01
  0.513461473760E+01  0.409090909095E+01  0.000000000000E+00
  0.598106850531E+02  0.409090909095E+01  0.478353631876E+01
  0.589102456265E+01  0.681818181815E+01  0.000000000000E+00
  0.598164308356E+02  0.681818181815E+01  0.471786172491E+01
  0.614316117100E+01  0.772727272725E+01  0.000000000000E+00
  0.598183460964E+02  0.772727272725E+01  0.469597019363E+01
  0.639529777935E+01  0.863636363635E+01  0.000000000000E+00
  0.598202613572E+02  0.863636363635E+01  0.467407866235E+01
  0.664743438770E+01  0.954545454545E+01  0.000000000000E+00
  0.598221766180E+02  0.954545454545E+01  0.465218713107E+01
  0.412606830420E+01 -0.454545454545E+00  0.000000000000E+00
  0.598030240099E+02 -0.454545454545E+00  0.487110244388E+01
  0.463034152090E+01 -0.227272727275E+01  0.000000000000E+00
  0.598068545315E+02 -0.227272727275E+01  0.482731938132E+01
  0.437820491255E+01 -0.136363636364E+01  0.000000000000E+00
  0.598049392707E+02 -0.136363636364E+01  0.484921091260E+01
  0.488247812925E+01 -0.318181818185E+01  0.000000000000E+00
  0.598087697923E+02 -0.318181818185E+01  0.480542785004E+01
  0.538675134595E+01 -0.500000000000E+01  0.000000000000E+00
  0.598126003140E+02 -0.500000000000E+01  0.476164478747E+01
  0.563888795430E+01 -0.590909090905E+01  0.000000000000E+00
  0.598145155748E+02 -0.590909090905E+01  0.473975325619E+01
  0.513461473760E+01 -0.409090909095E+01  0.000000000000E+00
  0.598106850531E+02 -0.409090909095E+01  0.478353631876E+01
  0.589102456265E+01 -0.681818181815E+01  0.000000000000E+00
  0.598164308356E+02 -0.681818181815E+01  0.471786172491E+01
  0.614316117100E+01 -0.772727272725E+01  0.000000000000E+00
  0.598183460964E+02 -0.772727272725E+01  0.469597019363E+01
  0.639529777935E+01 -0.863636363635E+01  0.000000000000E+00
  0.598202613572E+02 -0.863636363635E+01  0.467407866235E+01
  0.664743438770E+01 -0.954545454545E+01  0.000000000000E+00
  0.598221766180E+02 -0.954545454545E+01  0.465218713107E+01
  0.687606830420E+01  0.454545454545E+00 -0.250000000000E+01
  0.600409735716E+02  0.454545454545E+00  0.215132650833E+01
  0.738034152090E+01  0.227272727275E+01 -0.250000000000E+01
  0.600448040932E+02  0.227272727275E+01  0.210754344576E+01
  0.712820491255E+01  0.136363636364E+01 -0.250000000000E+01
  0.600428888324E+02  0.136363636364E+01  0.212943497704E+01
  0.763247812925E+01  0.318181818185E+01 -0.250000000000E+01
  0.600467193540E+02  0.318181818185E+01  0.208565191448E+01
  0.788461473760E+01  0.409090909095E+01 -0.250000000000E+01
  0.600486346148E+02  0.409090909095E+01  0.206376038320E+01
  0.838888795430E+01  0.590909090905E+01 -0.250000000000E+01
  0.600524651365E+02  0.590909090905E+01  0.201997732064E+01
  0.864102456265E+01  0.681818181815E+01 -0.250000000000E+01
  0.600543803973E+02  0.681818181815E+01  0.199808578935E+01
  0.813675134595E+01  0.500000000000E+01 -0.250000000000E+01
  0.600505498757E+02  0.500000000000E+01  0.204186885192E+01
  0.889316117100E+01  0.772727272725E+01 -0.250000000000E+01
  0.600562956581E+02  0.772727272725E+01  0.197619425807E+01
  0.914529777935E+01  0.863636363635E+01 -0.250000000000E+01
  0.600582109189E+02  0.863636363635E+01  0.195430272679E+01
  0.939743438770E+01  0.954545454545E+01 -0.250000000000E+01
  0.600601261797E+02  0.954545454545E+01  0.193241119551E+01
  0.687606830420E+01 -0.454545454545E+00 -0.250000000000E+01
  0.600409735716E+02 -0.454545454545E+00  0.215132650833E+01
  0.712820491255E+01 -0.136363636364E+01 -0.250000000000E+01
  0.600428888324E+02 -0.136363636364E+01  0.212943497704E+01
  0.738034152090E+01 -0.227272727275E+01 -0.250000000000E+01
  0.600448040932E+02 -0.227272727275E+01  0.210754344576E+01
  0.763247812925E+01 -0.318181818185E+01 -0.250000000000E+01
  0.600467193540E+02 -0.318181818185E+01  0.208565191448E+01
  0.788461473760E+01 -0.409090909095E+01 -0.250000000000E+01
  0.600486346148E+02 -0.409090909095E+01  0.206376038320E+01
  0.813675134595E+01 -0.500000000000E+01 -0.250000000000E+01
  0.600505498757E+02 -0.500000000000E+01  0.204186885192E+01
  0.838888795430E+01 -0.590909090905E+01 -0.250000000000E+01
  0.600524651365E+02 -0.590909090905E+01  0.201997732064E+01
  0.864102456265E+01 -0.681818181815E+01 -0.250000000000E+01
  0.600543803973E+02 -0.681818181815E+01  0.199808578935E+01
  0.889316117100E+01 -0.772727272725E+01 -0.250000000000E+01
  0.600562956581E+02 -0.772727272725E+01  0.197619425807E+01
  0.914529777935E+01 -0.863636363635E+01 -0.250000000000E+01
  0.600582109189E+02 -0.863636363635E+01  0.195430272679E+01
  0.939743438770E+01 -0.954545454545E+01 -0.250000000000E+01
  0.600601261797E+02 -0.954545454545E+01  0.193241119551E+01
LINES                  44                 132
2                   0                   1
2                   2                   3
2                   4                   5
2                   6                   7
2                   8                   9
2                  10                  11
2                  12                  13
2                  14                  15
2                  16                  17
2                  18                  19
2                  20                  21
2                  22                  23
2                  24                  25
2                  26                  27
2                  28                  29
2                  30                  31
2                  32                  33
2                  34                  35
2                  36                  37
2                  38                  39
2                  40                  41
2                  42                  43
2                  44                  45
2                  46                  47
2                  48                  49
2                  50                  51
2                  52                  53
2                  54                  55
2                  56                  57
2                  58                  59
2                  60                  61
2                  62                  63
2                  64                  65
2                  66                  67
2                  68                  69
2                  70                  71
2                  72                  73
2                  74                  75
2                  76                  77
2                  78                  79
2                  80                  81
2                  82                  83
2                  84                  85
2                  86                  87
POINT_DATA                  88
SCALARS Gamma float 1
LOOKUP_TABLE default
 -0.163193032636E+00
 -0.163193032636E+00
  0.112723099195E+00
  0.112723099195E+00
  0.217564851896E-01
  0.217564851896E-01
  0.613398459643E-01
  0.613398459643E-01
  0.230799783006E-01
  0.230799783006E-01
  0.383015412189E-01
  0.383015412189E-01
 -0.353218616480E-01
 -0.353218616480E-01
  0.430396985837E-03
  0.430396985837E-03
  0.370901441634E-01
  0.370901441634E-01
  0.415222644314E-02
  0.415222644314E-02
  0.769883523135E-01
  0.769883523135E-01
 -0.112723099202E+00
 -0.112723099202E+00
 -0.217564851866E-01
 -0.217564851866E-01
  0.163193032633E+00
  0.163193032633E+00
 -0.613398459593E-01
 -0.613398459593E-01
 -0.230799782980E-01
 -0.230799782980E-01
 -0.383015412181E-01
 -0.383015412181E-01
  0.353218616522E-01
  0.353218616522E-01
 -0.430396985876E-03
 -0.430396985876E-03
 -0.370901441651E-01
 -0.370901441651E-01
 -0.415222644423E-02
 -0.415222644423E-02
 -0.769883523166E-01
 -0.769883523166E-01
  0.167982073498E+00
  0.167982073498E+00
  0.480065472987E-01
  0.480065472987E-01
 -0.364044275068E+00
 -0.364044275068E+00
  0.406138652794E-01
  0.406138652794E-01
 -0.132307149704E+00
 -0.132307149704E+00
 -0.157435188932E-01
 -0.157435188932E-01
 -0.626580606018E-01
 -0.626580606018E-01
 -0.672441847500E-02
 -0.672441847500E-02
 -0.115309014464E-01
 -0.115309014464E-01
 -0.524696363928E-01
 -0.524696363928E-01
 -0.296492607769E-02
 -0.296492607769E-02
 -0.167982073497E+00
 -0.167982073497E+00
  0.364044275069E+00
  0.364044275069E+00
 -0.480065472991E-01
 -0.480065472991E-01
 -0.406138652791E-01
 -0.406138652791E-01
  0.132307149703E+00
  0.132307149703E+00
  0.672441847454E-02
  0.672441847454E-02
  0.157435188931E-01
  0.157435188931E-01
  0.626580606014E-01
  0.626580606014E-01
  0.115309014464E-01
  0.115309014464E-01
  0.524696363929E-01
  0.524696363929E-01
  0.296492607796E-02
  0.296492607796E-02
