# vtk DataFile Version 3.0
MachLine results file. Generated by MachLine, USU AeroLab (c) 2023.
ASCII
DATASET POLYDATA
POINTS                  88 float
  0.425213660840E+01  0.909090909090E+00  0.000000000000E+00
  0.400000000000E+01  0.000000000000E+00  0.000000000000E+00
  0.598039816403E+02  0.909090909090E+00  0.486015667824E+01
  0.598020663795E+02  0.000000000000E+00  0.488204820953E+01
  0.450427321670E+01  0.181818181820E+01  0.000000000000E+00
  0.425213660840E+01  0.909090909090E+00  0.000000000000E+00
  0.598058969011E+02  0.181818181820E+01  0.483826514696E+01
  0.598039816403E+02  0.909090909090E+00  0.486015667824E+01
  0.475640982510E+01  0.272727272730E+01  0.000000000000E+00
  0.450427321670E+01  0.181818181820E+01  0.000000000000E+00
  0.598078121619E+02  0.272727272730E+01  0.481637361568E+01
  0.598058969011E+02  0.181818181820E+01  0.483826514696E+01
  0.500854643340E+01  0.363636363640E+01  0.000000000000E+00
  0.475640982510E+01  0.272727272730E+01  0.000000000000E+00
  0.598097274227E+02  0.363636363640E+01  0.479448208440E+01
  0.598078121619E+02  0.272727272730E+01  0.481637361568E+01
  0.526068304180E+01  0.454545454550E+01  0.000000000000E+00
  0.500854643340E+01  0.363636363640E+01  0.000000000000E+00
  0.598116426836E+02  0.454545454550E+01  0.477259055311E+01
  0.598097274227E+02  0.363636363640E+01  0.479448208440E+01
  0.551281965010E+01  0.545454545450E+01  0.000000000000E+00
  0.526068304180E+01  0.454545454550E+01  0.000000000000E+00
  0.598135579444E+02  0.545454545450E+01  0.475069902184E+01
  0.598116426836E+02  0.454545454550E+01  0.477259055311E+01
  0.576495625850E+01  0.636363636360E+01  0.000000000000E+00
  0.551281965010E+01  0.545454545450E+01  0.000000000000E+00
  0.598154732052E+02  0.636363636360E+01  0.472880749055E+01
  0.598135579444E+02  0.545454545450E+01  0.475069902184E+01
  0.601709286680E+01  0.727272727270E+01  0.000000000000E+00
  0.576495625850E+01  0.636363636360E+01  0.000000000000E+00
  0.598173884660E+02  0.727272727270E+01  0.470691595927E+01
  0.598154732052E+02  0.636363636360E+01  0.472880749055E+01
  0.626922947520E+01  0.818181818180E+01  0.000000000000E+00
  0.601709286680E+01  0.727272727270E+01  0.000000000000E+00
  0.598193037268E+02  0.818181818180E+01  0.468502442799E+01
  0.598173884660E+02  0.727272727270E+01  0.470691595927E+01
  0.652136608350E+01  0.909090909090E+01  0.000000000000E+00
  0.626922947520E+01  0.818181818180E+01  0.000000000000E+00
  0.598212189876E+02  0.909090909090E+01  0.466313289671E+01
  0.598193037268E+02  0.818181818180E+01  0.468502442799E+01
  0.677350269190E+01  0.100000000000E+02  0.000000000000E+00
  0.652136608350E+01  0.909090909090E+01  0.000000000000E+00
  0.598231342484E+02  0.100000000000E+02  0.464124136542E+01
  0.598212189876E+02  0.909090909090E+01  0.466313289671E+01
  0.400000000000E+01  0.000000000000E+00  0.000000000000E+00
  0.425213660840E+01 -0.909090909090E+00  0.000000000000E+00
  0.598020663795E+02  0.000000000000E+00  0.488204820953E+01
  0.598039816403E+02 -0.909090909090E+00  0.486015667824E+01
  0.425213660840E+01 -0.909090909090E+00  0.000000000000E+00
  0.450427321670E+01 -0.181818181820E+01  0.000000000000E+00
  0.598039816403E+02 -0.909090909090E+00  0.486015667824E+01
  0.598058969011E+02 -0.181818181820E+01  0.483826514696E+01
  0.450427321670E+01 -0.181818181820E+01  0.000000000000E+00
  0.475640982510E+01 -0.272727272730E+01  0.000000000000E+00
  0.598058969011E+02 -0.181818181820E+01  0.483826514696E+01
  0.598078121619E+02 -0.272727272730E+01  0.481637361568E+01
  0.475640982510E+01 -0.272727272730E+01  0.000000000000E+00
  0.500854643340E+01 -0.363636363640E+01  0.000000000000E+00
  0.598078121619E+02 -0.272727272730E+01  0.481637361568E+01
  0.598097274227E+02 -0.363636363640E+01  0.479448208440E+01
  0.500854643340E+01 -0.363636363640E+01  0.000000000000E+00
  0.526068304180E+01 -0.454545454550E+01  0.000000000000E+00
  0.598097274227E+02 -0.363636363640E+01  0.479448208440E+01
  0.598116426836E+02 -0.454545454550E+01  0.477259055311E+01
  0.526068304180E+01 -0.454545454550E+01  0.000000000000E+00
  0.551281965010E+01 -0.545454545450E+01  0.000000000000E+00
  0.598116426836E+02 -0.454545454550E+01  0.477259055311E+01
  0.598135579444E+02 -0.545454545450E+01  0.475069902184E+01
  0.551281965010E+01 -0.545454545450E+01  0.000000000000E+00
  0.576495625850E+01 -0.636363636360E+01  0.000000000000E+00
  0.598135579444E+02 -0.545454545450E+01  0.475069902184E+01
  0.598154732052E+02 -0.636363636360E+01  0.472880749055E+01
  0.576495625850E+01 -0.636363636360E+01  0.000000000000E+00
  0.601709286680E+01 -0.727272727270E+01  0.000000000000E+00
  0.598154732052E+02 -0.636363636360E+01  0.472880749055E+01
  0.598173884660E+02 -0.727272727270E+01  0.470691595927E+01
  0.601709286680E+01 -0.727272727270E+01  0.000000000000E+00
  0.626922947520E+01 -0.818181818180E+01  0.000000000000E+00
  0.598173884660E+02 -0.727272727270E+01  0.470691595927E+01
  0.598193037268E+02 -0.818181818180E+01  0.468502442799E+01
  0.626922947520E+01 -0.818181818180E+01  0.000000000000E+00
  0.652136608350E+01 -0.909090909090E+01  0.000000000000E+00
  0.598193037268E+02 -0.818181818180E+01  0.468502442799E+01
  0.598212189876E+02 -0.909090909090E+01  0.466313289671E+01
  0.652136608350E+01 -0.909090909090E+01  0.000000000000E+00
  0.677350269190E+01 -0.100000000000E+02  0.000000000000E+00
  0.598212189876E+02 -0.909090909090E+01  0.466313289671E+01
  0.598231342484E+02 -0.100000000000E+02  0.464124136542E+01
POLYGONS                  44                 176
3                   0                   3                   1
3                   0                   2                   3
3                   4                   7                   5
3                   4                   6                   7
3                   8                  11                   9
3                   8                  10                  11
3                  12                  15                  13
3                  12                  14                  15
3                  16                  19                  17
3                  16                  18                  19
3                  20                  23                  21
3                  20                  22                  23
3                  24                  27                  25
3                  24                  26                  27
3                  28                  31                  29
3                  28                  30                  31
3                  32                  35                  33
3                  32                  34                  35
3                  36                  39                  37
3                  36                  38                  39
3                  40                  43                  41
3                  40                  42                  43
3                  44                  46                  45
3                  46                  47                  45
3                  48                  50                  49
3                  50                  51                  49
3                  52                  54                  53
3                  54                  55                  53
3                  56                  58                  57
3                  58                  59                  57
3                  60                  62                  61
3                  62                  63                  61
3                  64                  66                  65
3                  66                  67                  65
3                  68                  70                  69
3                  70                  71                  69
3                  72                  74                  73
3                  74                  75                  73
3                  76                  78                  77
3                  78                  79                  77
3                  80                  82                  81
3                  82                  83                  81
3                  84                  86                  85
3                  86                  87                  85
POINT_DATA                  88
SCALARS mu float 1
LOOKUP_TABLE default
 -0.440442936842E+00
 -0.417183913768E+00
 -0.440442936842E+00
 -0.417183913768E+00
 -0.445995844114E+00
 -0.440442936842E+00
 -0.445995844114E+00
 -0.440442936842E+00
 -0.435112810459E+00
 -0.445995844114E+00
 -0.435112810459E+00
 -0.445995844114E+00
 -0.405040239076E+00
 -0.435112810459E+00
 -0.405040239076E+00
 -0.435112810459E+00
 -0.367655621691E+00
 -0.405040239076E+00
 -0.367655621691E+00
 -0.405040239076E+00
 -0.329421754277E+00
 -0.367655621691E+00
 -0.329421754277E+00
 -0.367655621691E+00
 -0.290803536802E+00
 -0.329421754277E+00
 -0.290803536802E+00
 -0.329421754277E+00
 -0.252818476644E+00
 -0.290803536802E+00
 -0.252818476644E+00
 -0.290803536802E+00
 -0.209273686960E+00
 -0.252818476644E+00
 -0.209273686960E+00
 -0.252818476644E+00
 -0.163992709867E+00
 -0.209273686960E+00
 -0.163992709867E+00
 -0.209273686960E+00
  0.000000000000E+00
 -0.163992709867E+00
  0.000000000000E+00
 -0.163992709867E+00
 -0.417183913768E+00
 -0.440442936846E+00
 -0.417183913768E+00
 -0.440442936846E+00
 -0.440442936846E+00
 -0.445995844097E+00
 -0.440442936846E+00
 -0.445995844097E+00
 -0.445995844097E+00
 -0.435112810453E+00
 -0.445995844097E+00
 -0.435112810453E+00
 -0.435112810453E+00
 -0.405040239048E+00
 -0.435112810453E+00
 -0.405040239048E+00
 -0.405040239048E+00
 -0.367655621703E+00
 -0.405040239048E+00
 -0.367655621703E+00
 -0.367655621703E+00
 -0.329421754278E+00
 -0.367655621703E+00
 -0.329421754278E+00
 -0.329421754278E+00
 -0.290803536801E+00
 -0.329421754278E+00
 -0.290803536801E+00
 -0.290803536801E+00
 -0.252818476645E+00
 -0.290803536801E+00
 -0.252818476645E+00
 -0.252818476645E+00
 -0.209273686950E+00
 -0.252818476645E+00
 -0.209273686950E+00
 -0.209273686950E+00
 -0.163992709870E+00
 -0.209273686950E+00
 -0.163992709870E+00
 -0.163992709870E+00
  0.000000000000E+00
 -0.163992709870E+00
  0.000000000000E+00
