# vtk DataFile Version 3.0
MachLine results file. Generated by MachLine, USU AeroLab (c) 2023.
ASCII
DATASET POLYDATA
POINTS                 256 float
  0.404333597955E+01  0.156250000000E+00  0.000000000000E+00
  0.598023955649E+02  0.156250000000E+00  0.487828560259E+01
  0.413000793865E+01  0.468750000000E+00  0.000000000000E+00
  0.598030539358E+02  0.468750000000E+00  0.487076038871E+01
  0.421667989780E+01  0.781250000000E+00  0.000000000000E+00
  0.598037123067E+02  0.781250000000E+00  0.486323517483E+01
  0.430335185695E+01  0.109375000000E+01  0.000000000000E+00
  0.598043706776E+02  0.109375000000E+01  0.485570996095E+01
  0.439002381605E+01  0.140625000000E+01  0.000000000000E+00
  0.598050290486E+02  0.140625000000E+01  0.484818474707E+01
  0.447669577515E+01  0.171875000000E+01  0.000000000000E+00
  0.598056874195E+02  0.171875000000E+01  0.484065953320E+01
  0.456336773430E+01  0.203125000000E+01  0.000000000000E+00
  0.598063457904E+02  0.203125000000E+01  0.483313431932E+01
  0.465003969345E+01  0.234375000000E+01  0.000000000000E+00
  0.598070041613E+02  0.234375000000E+01  0.482560910544E+01
  0.473671165255E+01  0.265625000000E+01  0.000000000000E+00
  0.598076625322E+02  0.265625000000E+01  0.481808389156E+01
  0.482338361165E+01  0.296875000000E+01  0.000000000000E+00
  0.598083209031E+02  0.296875000000E+01  0.481055867768E+01
  0.491005557075E+01  0.328125000000E+01  0.000000000000E+00
  0.598089792740E+02  0.328125000000E+01  0.480303346381E+01
  0.499672752990E+01  0.359375000000E+01  0.000000000000E+00
  0.598096376449E+02  0.359375000000E+01  0.479550824993E+01
  0.508339948905E+01  0.390625000000E+01  0.000000000000E+00
  0.598102960158E+02  0.390625000000E+01  0.478798303605E+01
  0.517007144815E+01  0.421875000000E+01  0.000000000000E+00
  0.598109543867E+02  0.421875000000E+01  0.478045782217E+01
  0.525674340725E+01  0.453125000000E+01  0.000000000000E+00
  0.598116127576E+02  0.453125000000E+01  0.477293260829E+01
  0.534341536635E+01  0.484375000000E+01  0.000000000000E+00
  0.598122711285E+02  0.484375000000E+01  0.476540739442E+01
  0.543008732550E+01  0.515625000000E+01  0.000000000000E+00
  0.598129294994E+02  0.515625000000E+01  0.475788218054E+01
  0.551675928465E+01  0.546875000000E+01  0.000000000000E+00
  0.598135878703E+02  0.546875000000E+01  0.475035696666E+01
  0.560343124375E+01  0.578125000000E+01  0.000000000000E+00
  0.598142462412E+02  0.578125000000E+01  0.474283175278E+01
  0.569010320285E+01  0.609375000000E+01  0.000000000000E+00
  0.598149046121E+02  0.609375000000E+01  0.473530653890E+01
  0.577677516200E+01  0.640625000000E+01  0.000000000000E+00
  0.598155629830E+02  0.640625000000E+01  0.472778132502E+01
  0.586344712115E+01  0.671875000000E+01  0.000000000000E+00
  0.598162213539E+02  0.671875000000E+01  0.472025611114E+01
  0.595011908025E+01  0.703125000000E+01  0.000000000000E+00
  0.598168797248E+02  0.703125000000E+01  0.471273089727E+01
  0.603679103935E+01  0.734375000000E+01  0.000000000000E+00
  0.598175380957E+02  0.734375000000E+01  0.470520568339E+01
  0.612346299845E+01  0.765625000000E+01  0.000000000000E+00
  0.598181964667E+02  0.765625000000E+01  0.469768046951E+01
  0.621013495760E+01  0.796875000000E+01  0.000000000000E+00
  0.598188548376E+02  0.796875000000E+01  0.469015525563E+01
  0.629680691675E+01  0.828125000000E+01  0.000000000000E+00
  0.598195132085E+02  0.828125000000E+01  0.468263004175E+01
  0.638347887585E+01  0.859375000000E+01  0.000000000000E+00
  0.598201715794E+02  0.859375000000E+01  0.467510482788E+01
  0.647015083495E+01  0.890625000000E+01  0.000000000000E+00
  0.598208299503E+02  0.890625000000E+01  0.466757961400E+01
  0.655682279410E+01  0.921875000000E+01  0.000000000000E+00
  0.598214883212E+02  0.921875000000E+01  0.466005440012E+01
  0.664349475325E+01  0.953125000000E+01  0.000000000000E+00
  0.598221466921E+02  0.953125000000E+01  0.465252918624E+01
  0.673016671235E+01  0.984375000000E+01  0.000000000000E+00
  0.598228050630E+02  0.984375000000E+01  0.464500397236E+01
  0.404333597955E+01 -0.156250000000E+00  0.000000000000E+00
  0.598023955649E+02 -0.156250000000E+00  0.487828560259E+01
  0.413000793865E+01 -0.468750000000E+00  0.000000000000E+00
  0.598030539358E+02 -0.468750000000E+00  0.487076038871E+01
  0.421667989780E+01 -0.781250000000E+00  0.000000000000E+00
  0.598037123067E+02 -0.781250000000E+00  0.486323517483E+01
  0.430335185695E+01 -0.109375000000E+01  0.000000000000E+00
  0.598043706776E+02 -0.109375000000E+01  0.485570996095E+01
  0.439002381605E+01 -0.140625000000E+01  0.000000000000E+00
  0.598050290486E+02 -0.140625000000E+01  0.484818474707E+01
  0.447669577515E+01 -0.171875000000E+01  0.000000000000E+00
  0.598056874195E+02 -0.171875000000E+01  0.484065953320E+01
  0.456336773430E+01 -0.203125000000E+01  0.000000000000E+00
  0.598063457904E+02 -0.203125000000E+01  0.483313431932E+01
  0.465003969345E+01 -0.234375000000E+01  0.000000000000E+00
  0.598070041613E+02 -0.234375000000E+01  0.482560910544E+01
  0.473671165255E+01 -0.265625000000E+01  0.000000000000E+00
  0.598076625322E+02 -0.265625000000E+01  0.481808389156E+01
  0.482338361165E+01 -0.296875000000E+01  0.000000000000E+00
  0.598083209031E+02 -0.296875000000E+01  0.481055867768E+01
  0.491005557075E+01 -0.328125000000E+01  0.000000000000E+00
  0.598089792740E+02 -0.328125000000E+01  0.480303346381E+01
  0.499672752990E+01 -0.359375000000E+01  0.000000000000E+00
  0.598096376449E+02 -0.359375000000E+01  0.479550824993E+01
  0.508339948905E+01 -0.390625000000E+01  0.000000000000E+00
  0.598102960158E+02 -0.390625000000E+01  0.478798303605E+01
  0.517007144815E+01 -0.421875000000E+01  0.000000000000E+00
  0.598109543867E+02 -0.421875000000E+01  0.478045782217E+01
  0.525674340725E+01 -0.453125000000E+01  0.000000000000E+00
  0.598116127576E+02 -0.453125000000E+01  0.477293260829E+01
  0.534341536635E+01 -0.484375000000E+01  0.000000000000E+00
  0.598122711285E+02 -0.484375000000E+01  0.476540739442E+01
  0.543008732550E+01 -0.515625000000E+01  0.000000000000E+00
  0.598129294994E+02 -0.515625000000E+01  0.475788218054E+01
  0.551675928465E+01 -0.546875000000E+01  0.000000000000E+00
  0.598135878703E+02 -0.546875000000E+01  0.475035696666E+01
  0.560343124375E+01 -0.578125000000E+01  0.000000000000E+00
  0.598142462412E+02 -0.578125000000E+01  0.474283175278E+01
  0.569010320285E+01 -0.609375000000E+01  0.000000000000E+00
  0.598149046121E+02 -0.609375000000E+01  0.473530653890E+01
  0.577677516200E+01 -0.640625000000E+01  0.000000000000E+00
  0.598155629830E+02 -0.640625000000E+01  0.472778132502E+01
  0.586344712115E+01 -0.671875000000E+01  0.000000000000E+00
  0.598162213539E+02 -0.671875000000E+01  0.472025611114E+01
  0.595011908025E+01 -0.703125000000E+01  0.000000000000E+00
  0.598168797248E+02 -0.703125000000E+01  0.471273089727E+01
  0.603679103935E+01 -0.734375000000E+01  0.000000000000E+00
  0.598175380957E+02 -0.734375000000E+01  0.470520568339E+01
  0.612346299845E+01 -0.765625000000E+01  0.000000000000E+00
  0.598181964667E+02 -0.765625000000E+01  0.469768046951E+01
  0.621013495760E+01 -0.796875000000E+01  0.000000000000E+00
  0.598188548376E+02 -0.796875000000E+01  0.469015525563E+01
  0.629680691675E+01 -0.828125000000E+01  0.000000000000E+00
  0.598195132085E+02 -0.828125000000E+01  0.468263004175E+01
  0.638347887585E+01 -0.859375000000E+01  0.000000000000E+00
  0.598201715794E+02 -0.859375000000E+01  0.467510482788E+01
  0.647015083495E+01 -0.890625000000E+01  0.000000000000E+00
  0.598208299503E+02 -0.890625000000E+01  0.466757961400E+01
  0.655682279410E+01 -0.921875000000E+01  0.000000000000E+00
  0.598214883212E+02 -0.921875000000E+01  0.466005440012E+01
  0.664349475325E+01 -0.953125000000E+01  0.000000000000E+00
  0.598221466921E+02 -0.953125000000E+01  0.465252918624E+01
  0.673016671235E+01 -0.984375000000E+01  0.000000000000E+00
  0.598228050630E+02 -0.984375000000E+01  0.464500397236E+01
  0.679333597955E+01  0.156250000000E+00 -0.250000000000E+01
  0.600403451266E+02  0.156250000000E+00  0.215850966703E+01
  0.688000793865E+01  0.468750000000E+00 -0.250000000000E+01
  0.600410034975E+02  0.468750000000E+00  0.215098445315E+01
  0.696667989780E+01  0.781250000000E+00 -0.250000000000E+01
  0.600416618684E+02  0.781250000000E+00  0.214345923927E+01
  0.705335185695E+01  0.109375000000E+01 -0.250000000000E+01
  0.600423202393E+02  0.109375000000E+01  0.213593402539E+01
  0.714002381605E+01  0.140625000000E+01 -0.250000000000E+01
  0.600429786102E+02  0.140625000000E+01  0.212840881152E+01
  0.722669577515E+01  0.171875000000E+01 -0.250000000000E+01
  0.600436369811E+02  0.171875000000E+01  0.212088359764E+01
  0.731336773430E+01  0.203125000000E+01 -0.250000000000E+01
  0.600442953521E+02  0.203125000000E+01  0.211335838376E+01
  0.740003969345E+01  0.234375000000E+01 -0.250000000000E+01
  0.600449537230E+02  0.234375000000E+01  0.210583316988E+01
  0.748671165255E+01  0.265625000000E+01 -0.250000000000E+01
  0.600456120939E+02  0.265625000000E+01  0.209830795600E+01
  0.757338361165E+01  0.296875000000E+01 -0.250000000000E+01
  0.600462704648E+02  0.296875000000E+01  0.209078274213E+01
  0.766005557075E+01  0.328125000000E+01 -0.250000000000E+01
  0.600469288357E+02  0.328125000000E+01  0.208325752825E+01
  0.774672752990E+01  0.359375000000E+01 -0.250000000000E+01
  0.600475872066E+02  0.359375000000E+01  0.207573231437E+01
  0.783339948905E+01  0.390625000000E+01 -0.250000000000E+01
  0.600482455775E+02  0.390625000000E+01  0.206820710049E+01
  0.792007144815E+01  0.421875000000E+01 -0.250000000000E+01
  0.600489039484E+02  0.421875000000E+01  0.206068188661E+01
  0.800674340725E+01  0.453125000000E+01 -0.250000000000E+01
  0.600495623193E+02  0.453125000000E+01  0.205315667274E+01
  0.809341536635E+01  0.484375000000E+01 -0.250000000000E+01
  0.600502206902E+02  0.484375000000E+01  0.204563145886E+01
  0.818008732550E+01  0.515625000000E+01 -0.250000000000E+01
  0.600508790611E+02  0.515625000000E+01  0.203810624498E+01
  0.826675928465E+01  0.546875000000E+01 -0.250000000000E+01
  0.600515374320E+02  0.546875000000E+01  0.203058103110E+01
  0.835343124375E+01  0.578125000000E+01 -0.250000000000E+01
  0.600521958029E+02  0.578125000000E+01  0.202305581722E+01
  0.844010320285E+01  0.609375000000E+01 -0.250000000000E+01
  0.600528541738E+02  0.609375000000E+01  0.201553060335E+01
  0.852677516200E+01  0.640625000000E+01 -0.250000000000E+01
  0.600535125447E+02  0.640625000000E+01  0.200800538947E+01
  0.861344712115E+01  0.671875000000E+01 -0.250000000000E+01
  0.600541709156E+02  0.671875000000E+01  0.200048017559E+01
  0.870011908025E+01  0.703125000000E+01 -0.250000000000E+01
  0.600548292865E+02  0.703125000000E+01  0.199295496171E+01
  0.878679103935E+01  0.734375000000E+01 -0.250000000000E+01
  0.600554876574E+02  0.734375000000E+01  0.198542974783E+01
  0.887346299845E+01  0.765625000000E+01 -0.250000000000E+01
  0.600561460283E+02  0.765625000000E+01  0.197790453396E+01
  0.896013495760E+01  0.796875000000E+01 -0.250000000000E+01
  0.600568043992E+02  0.796875000000E+01  0.197037932008E+01
  0.904680691675E+01  0.828125000000E+01 -0.250000000000E+01
  0.600574627702E+02  0.828125000000E+01  0.196285410620E+01
  0.913347887585E+01  0.859375000000E+01 -0.250000000000E+01
  0.600581211411E+02  0.859375000000E+01  0.195532889232E+01
  0.922015083495E+01  0.890625000000E+01 -0.250000000000E+01
  0.600587795120E+02  0.890625000000E+01  0.194780367844E+01
  0.930682279410E+01  0.921875000000E+01 -0.250000000000E+01
  0.600594378829E+02  0.921875000000E+01  0.194027846456E+01
  0.939349475325E+01  0.953125000000E+01 -0.250000000000E+01
  0.600600962538E+02  0.953125000000E+01  0.193275325068E+01
  0.948016671235E+01  0.984375000000E+01 -0.250000000000E+01
  0.600607546247E+02  0.984375000000E+01  0.192522803681E+01
  0.679333597955E+01 -0.156250000000E+00 -0.250000000000E+01
  0.600403451266E+02 -0.156250000000E+00  0.215850966703E+01
  0.688000793865E+01 -0.468750000000E+00 -0.250000000000E+01
  0.600410034975E+02 -0.468750000000E+00  0.215098445315E+01
  0.696667989780E+01 -0.781250000000E+00 -0.250000000000E+01
  0.600416618684E+02 -0.781250000000E+00  0.214345923927E+01
  0.705335185695E+01 -0.109375000000E+01 -0.250000000000E+01
  0.600423202393E+02 -0.109375000000E+01  0.213593402539E+01
  0.714002381605E+01 -0.140625000000E+01 -0.250000000000E+01
  0.600429786102E+02 -0.140625000000E+01  0.212840881152E+01
  0.722669577515E+01 -0.171875000000E+01 -0.250000000000E+01
  0.600436369811E+02 -0.171875000000E+01  0.212088359764E+01
  0.731336773430E+01 -0.203125000000E+01 -0.250000000000E+01
  0.600442953521E+02 -0.203125000000E+01  0.211335838376E+01
  0.740003969345E+01 -0.234375000000E+01 -0.250000000000E+01
  0.600449537230E+02 -0.234375000000E+01  0.210583316988E+01
  0.748671165255E+01 -0.265625000000E+01 -0.250000000000E+01
  0.600456120939E+02 -0.265625000000E+01  0.209830795600E+01
  0.757338361165E+01 -0.296875000000E+01 -0.250000000000E+01
  0.600462704648E+02 -0.296875000000E+01  0.209078274213E+01
  0.766005557075E+01 -0.328125000000E+01 -0.250000000000E+01
  0.600469288357E+02 -0.328125000000E+01  0.208325752825E+01
  0.774672752990E+01 -0.359375000000E+01 -0.250000000000E+01
  0.600475872066E+02 -0.359375000000E+01  0.207573231437E+01
  0.783339948905E+01 -0.390625000000E+01 -0.250000000000E+01
  0.600482455775E+02 -0.390625000000E+01  0.206820710049E+01
  0.792007144815E+01 -0.421875000000E+01 -0.250000000000E+01
  0.600489039484E+02 -0.421875000000E+01  0.206068188661E+01
  0.800674340725E+01 -0.453125000000E+01 -0.250000000000E+01
  0.600495623193E+02 -0.453125000000E+01  0.205315667274E+01
  0.809341536635E+01 -0.484375000000E+01 -0.250000000000E+01
  0.600502206902E+02 -0.484375000000E+01  0.204563145886E+01
  0.818008732550E+01 -0.515625000000E+01 -0.250000000000E+01
  0.600508790611E+02 -0.515625000000E+01  0.203810624498E+01
  0.826675928465E+01 -0.546875000000E+01 -0.250000000000E+01
  0.600515374320E+02 -0.546875000000E+01  0.203058103110E+01
  0.835343124375E+01 -0.578125000000E+01 -0.250000000000E+01
  0.600521958029E+02 -0.578125000000E+01  0.202305581722E+01
  0.844010320285E+01 -0.609375000000E+01 -0.250000000000E+01
  0.600528541738E+02 -0.609375000000E+01  0.201553060335E+01
  0.852677516200E+01 -0.640625000000E+01 -0.250000000000E+01
  0.600535125447E+02 -0.640625000000E+01  0.200800538947E+01
  0.861344712115E+01 -0.671875000000E+01 -0.250000000000E+01
  0.600541709156E+02 -0.671875000000E+01  0.200048017559E+01
  0.870011908025E+01 -0.703125000000E+01 -0.250000000000E+01
  0.600548292865E+02 -0.703125000000E+01  0.199295496171E+01
  0.878679103935E+01 -0.734375000000E+01 -0.250000000000E+01
  0.600554876574E+02 -0.734375000000E+01  0.198542974783E+01
  0.887346299845E+01 -0.765625000000E+01 -0.250000000000E+01
  0.600561460283E+02 -0.765625000000E+01  0.197790453396E+01
  0.896013495760E+01 -0.796875000000E+01 -0.250000000000E+01
  0.600568043992E+02 -0.796875000000E+01  0.197037932008E+01
  0.904680691675E+01 -0.828125000000E+01 -0.250000000000E+01
  0.600574627702E+02 -0.828125000000E+01  0.196285410620E+01
  0.913347887585E+01 -0.859375000000E+01 -0.250000000000E+01
  0.600581211411E+02 -0.859375000000E+01  0.195532889232E+01
  0.922015083495E+01 -0.890625000000E+01 -0.250000000000E+01
  0.600587795120E+02 -0.890625000000E+01  0.194780367844E+01
  0.930682279410E+01 -0.921875000000E+01 -0.250000000000E+01
  0.600594378829E+02 -0.921875000000E+01  0.194027846456E+01
  0.939349475325E+01 -0.953125000000E+01 -0.250000000000E+01
  0.600600962538E+02 -0.953125000000E+01  0.193275325068E+01
  0.948016671235E+01 -0.984375000000E+01 -0.250000000000E+01
  0.600607546247E+02 -0.984375000000E+01  0.192522803681E+01
LINES                 128                 384
2                   0                   1
2                   2                   3
2                   4                   5
2                   6                   7
2                   8                   9
2                  10                  11
2                  12                  13
2                  14                  15
2                  16                  17
2                  18                  19
2                  20                  21
2                  22                  23
2                  24                  25
2                  26                  27
2                  28                  29
2                  30                  31
2                  32                  33
2                  34                  35
2                  36                  37
2                  38                  39
2                  40                  41
2                  42                  43
2                  44                  45
2                  46                  47
2                  48                  49
2                  50                  51
2                  52                  53
2                  54                  55
2                  56                  57
2                  58                  59
2                  60                  61
2                  62                  63
2                  64                  65
2                  66                  67
2                  68                  69
2                  70                  71
2                  72                  73
2                  74                  75
2                  76                  77
2                  78                  79
2                  80                  81
2                  82                  83
2                  84                  85
2                  86                  87
2                  88                  89
2                  90                  91
2                  92                  93
2                  94                  95
2                  96                  97
2                  98                  99
2                 100                 101
2                 102                 103
2                 104                 105
2                 106                 107
2                 108                 109
2                 110                 111
2                 112                 113
2                 114                 115
2                 116                 117
2                 118                 119
2                 120                 121
2                 122                 123
2                 124                 125
2                 126                 127
2                 128                 129
2                 130                 131
2                 132                 133
2                 134                 135
2                 136                 137
2                 138                 139
2                 140                 141
2                 142                 143
2                 144                 145
2                 146                 147
2                 148                 149
2                 150                 151
2                 152                 153
2                 154                 155
2                 156                 157
2                 158                 159
2                 160                 161
2                 162                 163
2                 164                 165
2                 166                 167
2                 168                 169
2                 170                 171
2                 172                 173
2                 174                 175
2                 176                 177
2                 178                 179
2                 180                 181
2                 182                 183
2                 184                 185
2                 186                 187
2                 188                 189
2                 190                 191
2                 192                 193
2                 194                 195
2                 196                 197
2                 198                 199
2                 200                 201
2                 202                 203
2                 204                 205
2                 206                 207
2                 208                 209
2                 210                 211
2                 212                 213
2                 214                 215
2                 216                 217
2                 218                 219
2                 220                 221
2                 222                 223
2                 224                 225
2                 226                 227
2                 228                 229
2                 230                 231
2                 232                 233
2                 234                 235
2                 236                 237
2                 238                 239
2                 240                 241
2                 242                 243
2                 244                 245
2                 246                 247
2                 248                 249
2                 250                 251
2                 252                 253
2                 254                 255
POINT_DATA                 256
SCALARS Gamma float 1
LOOKUP_TABLE default
  0.844266164764E-01
  0.844266164764E-01
 -0.178757528222E+00
 -0.178757528222E+00
  0.314187572728E-01
  0.314187572728E-01
  0.791851942135E-01
  0.791851942135E-01
 -0.910375022262E-01
 -0.910375022262E-01
 -0.523378000558E-03
 -0.523378000558E-03
  0.539814818942E-01
  0.539814818942E-01
 -0.461530805240E-01
 -0.461530805240E-01
 -0.440653112986E-02
 -0.440653112986E-02
  0.338883593141E-01
  0.338883593141E-01
 -0.225891819274E-01
 -0.225891819274E-01
 -0.601155331693E-03
 -0.601155331693E-03
  0.210661981688E-01
  0.210661981688E-01
 -0.966179466444E-02
 -0.966179466444E-02
  0.382212157758E-02
  0.382212157758E-02
  0.137008665184E-01
  0.137008665184E-01
 -0.194409791676E-02
 -0.194409791676E-02
  0.684065030874E-02
  0.684065030874E-02
  0.985691660658E-02
  0.985691660658E-02
  0.304763475366E-02
  0.304763475366E-02
  0.826537486827E-02
  0.826537486827E-02
  0.811000249893E-02
  0.811000249893E-02
  0.638288674053E-02
  0.638288674053E-02
  0.852484397966E-02
  0.852484397966E-02
  0.776301153567E-02
  0.776301153567E-02
  0.878617459008E-02
  0.878617459008E-02
  0.859510028440E-02
  0.859510028440E-02
  0.974362539550E-02
  0.974362539550E-02
  0.119487348553E-01
  0.119487348553E-01
  0.151683221743E-01
  0.151683221743E-01
  0.144286658980E-01
  0.144286658980E-01
  0.724469044443E-01
  0.724469044443E-01
 -0.844266165062E-01
 -0.844266165062E-01
  0.178757528198E+00
  0.178757528198E+00
 -0.314187572967E-01
 -0.314187572967E-01
 -0.791851942364E-01
 -0.791851942364E-01
  0.910375022048E-01
  0.910375022048E-01
  0.523377981390E-03
  0.523377981390E-03
 -0.539814819098E-01
 -0.539814819098E-01
  0.461530805128E-01
  0.461530805128E-01
  0.440653112356E-02
  0.440653112356E-02
 -0.338883593161E-01
 -0.338883593161E-01
  0.225891819265E-01
  0.225891819265E-01
  0.601155326283E-03
  0.601155326283E-03
 -0.210661981860E-01
 -0.210661981860E-01
  0.966179462805E-02
  0.966179462805E-02
 -0.382212163687E-02
 -0.382212163687E-02
 -0.137008665977E-01
 -0.137008665977E-01
  0.194409782358E-02
  0.194409782358E-02
 -0.684065041008E-02
 -0.684065041008E-02
 -0.985691671339E-02
 -0.985691671339E-02
 -0.304763486836E-02
 -0.304763486836E-02
 -0.826537500645E-02
 -0.826537500645E-02
 -0.811000268204E-02
 -0.811000268204E-02
 -0.638288691149E-02
 -0.638288691149E-02
 -0.852484463211E-02
 -0.852484463211E-02
 -0.776301626921E-02
 -0.776301626921E-02
 -0.878618595689E-02
 -0.878618595689E-02
 -0.859510292162E-02
 -0.859510292162E-02
 -0.974361295887E-02
 -0.974361295887E-02
 -0.119487410349E-01
 -0.119487410349E-01
 -0.151683130172E-01
 -0.151683130172E-01
 -0.144286870603E-01
 -0.144286870603E-01
 -0.724468780227E-01
 -0.724468780227E-01
  0.169283256892E+00
  0.169283256892E+00
 -0.365806333581E+00
 -0.365806333581E+00
  0.676363954099E-01
  0.676363954099E-01
  0.154091973826E+00
  0.154091973826E+00
 -0.191827653151E+00
 -0.191827653151E+00
 -0.353126823713E-02
 -0.353126823713E-02
  0.988010086369E-01
  0.988010086369E-01
 -0.104880676693E+00
 -0.104880676693E+00
 -0.172872612399E-01
 -0.172872612399E-01
  0.541772882066E-01
  0.541772882066E-01
 -0.608300588947E-01
 -0.608300588947E-01
 -0.147134096125E-01
 -0.147134096125E-01
  0.248204624531E-01
  0.248204624531E-01
 -0.378406746845E-01
 -0.378406746845E-01
 -0.987506958254E-02
 -0.987506958254E-02
  0.720407131644E-02
  0.720407131644E-02
 -0.248472968251E-01
 -0.248472968251E-01
 -0.687142685178E-02
 -0.687142685178E-02
 -0.258168357331E-02
 -0.258168357331E-02
 -0.168354984819E-01
 -0.168354984819E-01
 -0.613404745071E-02
 -0.613404745071E-02
 -0.736973606201E-02
 -0.736973606201E-02
 -0.118531839579E-01
 -0.118531839579E-01
 -0.681998569940E-02
 -0.681998569940E-02
 -0.902604680711E-02
 -0.902604680711E-02
 -0.894882116943E-02
 -0.894882116943E-02
 -0.747640510121E-02
 -0.747640510121E-02
 -0.797620203982E-02
 -0.797620203982E-02
 -0.631829894689E-02
 -0.631829894689E-02
 -0.199849880807E-02
 -0.199849880807E-02
 -0.514881486069E-02
 -0.514881486069E-02
  0.348823805286E-01
  0.348823805286E-01
 -0.169283256911E+00
 -0.169283256911E+00
  0.365806333562E+00
  0.365806333562E+00
 -0.676363954289E-01
 -0.676363954289E-01
 -0.154091973845E+00
 -0.154091973845E+00
  0.191827653132E+00
  0.191827653132E+00
  0.353126821841E-02
  0.353126821841E-02
 -0.988010086554E-01
 -0.988010086554E-01
  0.104880676675E+00
  0.104880676675E+00
  0.172872612230E-01
  0.172872612230E-01
 -0.541772882220E-01
 -0.541772882220E-01
  0.608300588807E-01
  0.608300588807E-01
  0.147134095987E-01
  0.147134095987E-01
 -0.248204624700E-01
 -0.248204624700E-01
  0.378406746591E-01
  0.378406746591E-01
  0.987506954167E-02
  0.987506954167E-02
 -0.720407138035E-02
 -0.720407138035E-02
  0.248472967302E-01
  0.248472967302E-01
  0.687142671754E-02
  0.687142671754E-02
  0.258168339110E-02
  0.258168339110E-02
  0.168354982410E-01
  0.168354982410E-01
  0.613404712680E-02
  0.613404712680E-02
  0.736973561948E-02
  0.736973561948E-02
  0.118531834313E-01
  0.118531834313E-01
  0.681998496677E-02
  0.681998496677E-02
  0.902604425360E-02
  0.902604425360E-02
  0.894881380871E-02
  0.894881380871E-02
  0.747639194120E-02
  0.747639194120E-02
  0.797618597971E-02
  0.797618597971E-02
  0.631831283753E-02
  0.631831283753E-02
  0.199855739099E-02
  0.199855739099E-02
  0.514876396106E-02
  0.514876396106E-02
 -0.348823599326E-01
 -0.348823599326E-01
