# vtk DataFile Version 3.0
MachLine results file. Generated by MachLine, USU AeroLab (c) 2023.
ASCII
DATASET POLYDATA
POINTS                 328 float
  0.403382320355E+01  0.121951219510E+00  0.000000000000E+00
  0.598023233047E+02  0.121951219510E+00  0.487911154070E+01
  0.410146961065E+01  0.365853658535E+00  0.000000000000E+00
  0.598028371552E+02  0.365853658535E+00  0.487323820304E+01
  0.416911601780E+01  0.609756097560E+00  0.000000000000E+00
  0.598033510056E+02  0.609756097560E+00  0.486736486537E+01
  0.423676242495E+01  0.853658536585E+00  0.000000000000E+00
  0.598038648561E+02  0.853658536585E+00  0.486149152771E+01
  0.430440883205E+01  0.109756097560E+01  0.000000000000E+00
  0.598043787066E+02  0.109756097560E+01  0.485561819005E+01
  0.437205523915E+01  0.134146341460E+01  0.000000000000E+00
  0.598048925570E+02  0.134146341460E+01  0.484974485239E+01
  0.443970164625E+01  0.158536585365E+01  0.000000000000E+00
  0.598054064075E+02  0.158536585365E+01  0.484387151473E+01
  0.450734805340E+01  0.182926829270E+01  0.000000000000E+00
  0.598059202579E+02  0.182926829270E+01  0.483799817707E+01
  0.457499446055E+01  0.207317073170E+01  0.000000000000E+00
  0.598064341084E+02  0.207317073170E+01  0.483212483940E+01
  0.464264086765E+01  0.231707317070E+01  0.000000000000E+00
  0.598069479589E+02  0.231707317070E+01  0.482625150174E+01
  0.471028727475E+01  0.256097560975E+01  0.000000000000E+00
  0.598074618093E+02  0.256097560975E+01  0.482037816409E+01
  0.477793368185E+01  0.280487804880E+01  0.000000000000E+00
  0.598079756598E+02  0.280487804880E+01  0.481450482643E+01
  0.484558008900E+01  0.304878048780E+01  0.000000000000E+00
  0.598084895103E+02  0.304878048780E+01  0.480863148876E+01
  0.491322649615E+01  0.329268292680E+01  0.000000000000E+00
  0.598090033607E+02  0.329268292680E+01  0.480275815110E+01
  0.498087290325E+01  0.353658536585E+01  0.000000000000E+00
  0.598095172112E+02  0.353658536585E+01  0.479688481344E+01
  0.504851931035E+01  0.378048780490E+01  0.000000000000E+00
  0.598100310616E+02  0.378048780490E+01  0.479101147578E+01
  0.511616571745E+01  0.402439024390E+01  0.000000000000E+00
  0.598105449121E+02  0.402439024390E+01  0.478513813812E+01
  0.518381212455E+01  0.426829268290E+01  0.000000000000E+00
  0.598110587626E+02  0.426829268290E+01  0.477926480046E+01
  0.525145853170E+01  0.451219512195E+01  0.000000000000E+00
  0.598115726130E+02  0.451219512195E+01  0.477339146280E+01
  0.531910493885E+01  0.475609756100E+01  0.000000000000E+00
  0.598120864635E+02  0.475609756100E+01  0.476751812513E+01
  0.538675134595E+01  0.500000000000E+01  0.000000000000E+00
  0.598126003140E+02  0.500000000000E+01  0.476164478747E+01
  0.545439775305E+01  0.524390243900E+01  0.000000000000E+00
  0.598131141644E+02  0.524390243900E+01  0.475577144982E+01
  0.552204416015E+01  0.548780487805E+01  0.000000000000E+00
  0.598136280149E+02  0.548780487805E+01  0.474989811216E+01
  0.558969056730E+01  0.573170731710E+01  0.000000000000E+00
  0.598141418653E+02  0.573170731710E+01  0.474402477449E+01
  0.565733697445E+01  0.597560975610E+01  0.000000000000E+00
  0.598146557158E+02  0.597560975610E+01  0.473815143683E+01
  0.572498338155E+01  0.621951219510E+01  0.000000000000E+00
  0.598151695663E+02  0.621951219510E+01  0.473227809917E+01
  0.579262978865E+01  0.646341463415E+01  0.000000000000E+00
  0.598156834167E+02  0.646341463415E+01  0.472640476151E+01
  0.586027619575E+01  0.670731707320E+01  0.000000000000E+00
  0.598161972672E+02  0.670731707320E+01  0.472053142385E+01
  0.592792260290E+01  0.695121951220E+01  0.000000000000E+00
  0.598167111177E+02  0.695121951220E+01  0.471465808619E+01
  0.599556901005E+01  0.719512195120E+01  0.000000000000E+00
  0.598172249681E+02  0.719512195120E+01  0.470878474852E+01
  0.606321541715E+01  0.743902439025E+01  0.000000000000E+00
  0.598177388186E+02  0.743902439025E+01  0.470291141086E+01
  0.613086182425E+01  0.768292682930E+01  0.000000000000E+00
  0.598182526690E+02  0.768292682930E+01  0.469703807321E+01
  0.619850823135E+01  0.792682926830E+01  0.000000000000E+00
  0.598187665195E+02  0.792682926830E+01  0.469116473555E+01
  0.626615463850E+01  0.817073170730E+01  0.000000000000E+00
  0.598192803700E+02  0.817073170730E+01  0.468529139788E+01
  0.633380104565E+01  0.841463414635E+01  0.000000000000E+00
  0.598197942204E+02  0.841463414635E+01  0.467941806022E+01
  0.640144745275E+01  0.865853658540E+01  0.000000000000E+00
  0.598203080709E+02  0.865853658540E+01  0.467354472256E+01
  0.646909385985E+01  0.890243902440E+01  0.000000000000E+00
  0.598208219214E+02  0.890243902440E+01  0.466767138490E+01
  0.653674026695E+01  0.914634146340E+01  0.000000000000E+00
  0.598213357718E+02  0.914634146340E+01  0.466179804724E+01
  0.660438667410E+01  0.939024390245E+01  0.000000000000E+00
  0.598218496223E+02  0.939024390245E+01  0.465592470958E+01
  0.667203308125E+01  0.963414634150E+01  0.000000000000E+00
  0.598223634727E+02  0.963414634150E+01  0.465005137191E+01
  0.673967948835E+01  0.987804878050E+01  0.000000000000E+00
  0.598228773232E+02  0.987804878050E+01  0.464417803425E+01
  0.403382320355E+01 -0.121951219510E+00  0.000000000000E+00
  0.598023233047E+02 -0.121951219510E+00  0.487911154070E+01
  0.410146961065E+01 -0.365853658535E+00  0.000000000000E+00
  0.598028371552E+02 -0.365853658535E+00  0.487323820304E+01
  0.416911601780E+01 -0.609756097560E+00  0.000000000000E+00
  0.598033510056E+02 -0.609756097560E+00  0.486736486537E+01
  0.423676242495E+01 -0.853658536585E+00  0.000000000000E+00
  0.598038648561E+02 -0.853658536585E+00  0.486149152771E+01
  0.430440883205E+01 -0.109756097560E+01  0.000000000000E+00
  0.598043787066E+02 -0.109756097560E+01  0.485561819005E+01
  0.437205523915E+01 -0.134146341460E+01  0.000000000000E+00
  0.598048925570E+02 -0.134146341460E+01  0.484974485239E+01
  0.443970164625E+01 -0.158536585365E+01  0.000000000000E+00
  0.598054064075E+02 -0.158536585365E+01  0.484387151473E+01
  0.450734805340E+01 -0.182926829270E+01  0.000000000000E+00
  0.598059202579E+02 -0.182926829270E+01  0.483799817707E+01
  0.457499446055E+01 -0.207317073170E+01  0.000000000000E+00
  0.598064341084E+02 -0.207317073170E+01  0.483212483940E+01
  0.464264086765E+01 -0.231707317070E+01  0.000000000000E+00
  0.598069479589E+02 -0.231707317070E+01  0.482625150174E+01
  0.471028727475E+01 -0.256097560975E+01  0.000000000000E+00
  0.598074618093E+02 -0.256097560975E+01  0.482037816409E+01
  0.477793368185E+01 -0.280487804880E+01  0.000000000000E+00
  0.598079756598E+02 -0.280487804880E+01  0.481450482643E+01
  0.484558008900E+01 -0.304878048780E+01  0.000000000000E+00
  0.598084895103E+02 -0.304878048780E+01  0.480863148876E+01
  0.491322649615E+01 -0.329268292680E+01  0.000000000000E+00
  0.598090033607E+02 -0.329268292680E+01  0.480275815110E+01
  0.498087290325E+01 -0.353658536585E+01  0.000000000000E+00
  0.598095172112E+02 -0.353658536585E+01  0.479688481344E+01
  0.504851931035E+01 -0.378048780490E+01  0.000000000000E+00
  0.598100310616E+02 -0.378048780490E+01  0.479101147578E+01
  0.511616571745E+01 -0.402439024390E+01  0.000000000000E+00
  0.598105449121E+02 -0.402439024390E+01  0.478513813812E+01
  0.518381212455E+01 -0.426829268290E+01  0.000000000000E+00
  0.598110587626E+02 -0.426829268290E+01  0.477926480046E+01
  0.525145853170E+01 -0.451219512195E+01  0.000000000000E+00
  0.598115726130E+02 -0.451219512195E+01  0.477339146280E+01
  0.531910493885E+01 -0.475609756100E+01  0.000000000000E+00
  0.598120864635E+02 -0.475609756100E+01  0.476751812513E+01
  0.538675134595E+01 -0.500000000000E+01  0.000000000000E+00
  0.598126003140E+02 -0.500000000000E+01  0.476164478747E+01
  0.545439775305E+01 -0.524390243900E+01  0.000000000000E+00
  0.598131141644E+02 -0.524390243900E+01  0.475577144982E+01
  0.552204416015E+01 -0.548780487805E+01  0.000000000000E+00
  0.598136280149E+02 -0.548780487805E+01  0.474989811216E+01
  0.558969056730E+01 -0.573170731710E+01  0.000000000000E+00
  0.598141418653E+02 -0.573170731710E+01  0.474402477449E+01
  0.565733697445E+01 -0.597560975610E+01  0.000000000000E+00
  0.598146557158E+02 -0.597560975610E+01  0.473815143683E+01
  0.572498338155E+01 -0.621951219510E+01  0.000000000000E+00
  0.598151695663E+02 -0.621951219510E+01  0.473227809917E+01
  0.579262978865E+01 -0.646341463415E+01  0.000000000000E+00
  0.598156834167E+02 -0.646341463415E+01  0.472640476151E+01
  0.586027619575E+01 -0.670731707320E+01  0.000000000000E+00
  0.598161972672E+02 -0.670731707320E+01  0.472053142385E+01
  0.592792260290E+01 -0.695121951220E+01  0.000000000000E+00
  0.598167111177E+02 -0.695121951220E+01  0.471465808619E+01
  0.599556901005E+01 -0.719512195120E+01  0.000000000000E+00
  0.598172249681E+02 -0.719512195120E+01  0.470878474852E+01
  0.606321541715E+01 -0.743902439025E+01  0.000000000000E+00
  0.598177388186E+02 -0.743902439025E+01  0.470291141086E+01
  0.613086182425E+01 -0.768292682930E+01  0.000000000000E+00
  0.598182526690E+02 -0.768292682930E+01  0.469703807321E+01
  0.619850823135E+01 -0.792682926830E+01  0.000000000000E+00
  0.598187665195E+02 -0.792682926830E+01  0.469116473555E+01
  0.626615463850E+01 -0.817073170730E+01  0.000000000000E+00
  0.598192803700E+02 -0.817073170730E+01  0.468529139788E+01
  0.633380104565E+01 -0.841463414635E+01  0.000000000000E+00
  0.598197942204E+02 -0.841463414635E+01  0.467941806022E+01
  0.640144745275E+01 -0.865853658540E+01  0.000000000000E+00
  0.598203080709E+02 -0.865853658540E+01  0.467354472256E+01
  0.646909385985E+01 -0.890243902440E+01  0.000000000000E+00
  0.598208219214E+02 -0.890243902440E+01  0.466767138490E+01
  0.653674026695E+01 -0.914634146340E+01  0.000000000000E+00
  0.598213357718E+02 -0.914634146340E+01  0.466179804724E+01
  0.660438667410E+01 -0.939024390245E+01  0.000000000000E+00
  0.598218496223E+02 -0.939024390245E+01  0.465592470958E+01
  0.667203308125E+01 -0.963414634150E+01  0.000000000000E+00
[...]
POINT_DATA                 328
SCALARS Gamma float 1
LOOKUP_TABLE default
  0.758908958175E-01
  0.758908958175E-01
 -0.181431788707E+00
 -0.181431788707E+00
  0.412833104459E-01
  0.412833104459E-01
  0.765181491809E-01
  0.765181491809E-01
 -0.996302840492E-01
 -0.996302840492E-01
  0.609847264165E-02
  0.609847264165E-02
  0.543129770478E-01
  0.543129770478E-01
 -0.557220286287E-01
 -0.557220286287E-01
 -0.223646860256E-02
 -0.223646860256E-02
  0.349307262300E-01
  0.349307262300E-01
 -0.310997217479E-01
 -0.310997217479E-01
 -0.150365869917E-02
 -0.150365869917E-02
  0.216185345235E-01
  0.216185345235E-01
 -0.168696782533E-01
 -0.168696782533E-01
  0.145326265488E-02
  0.145326265488E-02
  0.134532246768E-01
  0.134532246768E-01
 -0.812528506674E-02
 -0.812528506674E-02
  0.408037115760E-02
  0.408037115760E-02
  0.887468610803E-02
  0.887468610803E-02
 -0.240907324595E-02
 -0.240907324595E-02
  0.570147900132E-02
  0.570147900132E-02
  0.653436759287E-02
  0.653436759287E-02
  0.144493929592E-02
  0.144493929592E-02
  0.642283271545E-02
  0.642283271545E-02
  0.553424669526E-02
  0.553424669526E-02
  0.396866337643E-02
  0.396866337643E-02
  0.651487387561E-02
  0.651487387561E-02
  0.532792593801E-02
  0.532792593801E-02
  0.552887836414E-02
  0.552887836414E-02
  0.631331770752E-02
  0.631331770752E-02
  0.563209202058E-02
  0.563209202058E-02
  0.644974349397E-02
  0.644974349397E-02
  0.626793957850E-02
  0.626793957850E-02
  0.643874055729E-02
  0.643874055729E-02
  0.753339872801E-02
  0.753339872801E-02
  0.729013480559E-02
  0.729013480559E-02
  0.925445139060E-02
  0.925445139060E-02
  0.115448837604E-01
  0.115448837604E-01
  0.147647049798E-01
  0.147647049798E-01
  0.182417839587E-01
  0.182417839587E-01
  0.660698687143E-01
  0.660698687143E-01
 -0.758908958213E-01
 -0.758908958213E-01
  0.181431788703E+00
  0.181431788703E+00
 -0.412833104499E-01
 -0.412833104499E-01
 -0.765181491850E-01
 -0.765181491850E-01
  0.996302840449E-01
  0.996302840449E-01
 -0.609847264602E-02
 -0.609847264602E-02
 -0.543129770521E-01
 -0.543129770521E-01
  0.557220286240E-01
  0.557220286240E-01
  0.223646859771E-02
  0.223646859771E-02
 -0.349307262349E-01
 -0.349307262349E-01
  0.310997217426E-01
  0.310997217426E-01
  0.150365869372E-02
  0.150365869372E-02
 -0.216185345290E-01
 -0.216185345290E-01
  0.168696782475E-01
  0.168696782475E-01
 -0.145326266065E-02
 -0.145326266065E-02
 -0.134532246826E-01
 -0.134532246826E-01
  0.812528506124E-02
  0.812528506124E-02
 -0.408037116267E-02
 -0.408037116267E-02
 -0.887468611265E-02
 -0.887468611265E-02
  0.240907324223E-02
  0.240907324223E-02
 -0.570147900433E-02
 -0.570147900433E-02
 -0.653436759566E-02
 -0.653436759566E-02
 -0.144493929897E-02
 -0.144493929897E-02
 -0.642283272028E-02
 -0.642283272028E-02
 -0.553424670340E-02
 -0.553424670340E-02
 -0.396866338898E-02
 -0.396866338898E-02
 -0.651487389364E-02
 -0.651487389364E-02
 -0.532792596105E-02
 -0.532792596105E-02
 -0.552887839070E-02
 -0.552887839070E-02
 -0.631331773590E-02
 -0.631331773590E-02
 -0.563209204878E-02
 -0.563209204878E-02
 -0.644974352177E-02
 -0.644974352177E-02
 -0.626793960778E-02
 -0.626793960778E-02
 -0.643874059072E-02
 -0.643874059072E-02
 -0.753339877050E-02
 -0.753339877050E-02
 -0.729013482016E-02
 -0.729013482016E-02
 -0.925445106863E-02
 -0.925445106863E-02
 -0.115448825227E-01
 -0.115448825227E-01
 -0.147647042514E-01
 -0.147647042514E-01
 -0.182417872599E-01
 -0.182417872599E-01
 -0.660698672991E-01
 -0.660698672991E-01
  0.155789753931E+00
  0.155789753931E+00
 -0.370102982506E+00
 -0.370102982506E+00
  0.855115023150E-01
  0.855115023150E-01
  0.155304390141E+00
  0.155304390141E+00
 -0.206137481523E+00
 -0.206137481523E+00
  0.112702605995E-01
  0.112702605995E-01
  0.107596792378E+00
  0.107596792378E+00
 -0.119123397977E+00
 -0.119123397977E+00
 -0.861615783395E-02
 -0.861615783395E-02
  0.652599055824E-01
  0.652599055824E-01
 -0.715043127665E-01
 -0.715043127665E-01
 -0.102760302863E-01
 -0.102760302863E-01
  0.351578118983E-01
  0.351578118983E-01
 -0.450750937288E-01
 -0.450750937288E-01
 -0.738617156853E-02
 -0.738617156853E-02
  0.156433719346E-01
  0.156433719346E-01
 -0.296683861428E-01
 -0.296683861428E-01
 -0.479623703677E-02
 -0.479623703677E-02
  0.380714508866E-02
  0.380714508866E-02
 -0.200586803544E-01
 -0.200586803544E-01
 -0.371091939705E-02
 -0.371091939705E-02
 -0.285151291373E-02
 -0.285151291373E-02
 -0.138053553055E-01
 -0.138053553055E-01
 -0.387614964375E-02
 -0.387614964375E-02
 -0.611515347355E-02
 -0.611515347355E-02
 -0.984241110912E-02
 -0.984241110912E-02
 -0.472014389759E-02
 -0.472014389759E-02
 -0.727208041232E-02
 -0.727208041232E-02
 -0.755930519499E-02
 -0.755930519499E-02
 -0.567301325639E-02
 -0.567301325639E-02
 -0.725045953143E-02
 -0.725045953143E-02
 -0.647311462755E-02
 -0.647311462755E-02
 -0.621029768817E-02
 -0.621029768817E-02
 -0.658300492254E-02
 -0.658300492254E-02
 -0.567096754181E-02
 -0.567096754181E-02
 -0.547462383580E-02
 -0.547462383580E-02
 -0.438876048710E-02
 -0.438876048710E-02
 -0.266069278917E-02
 -0.266069278917E-02
  0.990882900630E-03
  0.990882900630E-03
  0.195616562107E-02
  0.195616562107E-02
  0.347668868958E-01
  0.347668868958E-01
 -0.155789753931E+00
 -0.155789753931E+00
  0.370102982504E+00
  0.370102982504E+00
 -0.855115023168E-01
 -0.855115023168E-01
 -0.155304390143E+00
 -0.155304390143E+00
  0.206137481521E+00
  0.206137481521E+00
 -0.112702606013E-01
 -0.112702606013E-01
 -0.107596792380E+00
 -0.107596792380E+00
  0.119123397975E+00
  0.119123397975E+00
  0.861615783202E-02
  0.861615783202E-02
 -0.652599055842E-01
 -0.652599055842E-01
  0.715043127641E-01
  0.715043127641E-01
  0.102760302840E-01
  0.102760302840E-01
 -0.351578119005E-01
 -0.351578119005E-01
  0.450750937261E-01
  0.450750937261E-01
  0.738617156597E-02
  0.738617156597E-02
 -0.156433719372E-01
 -0.156433719372E-01
  0.296683861399E-01
  0.296683861399E-01
  0.479623703414E-02
  0.479623703414E-02
 -0.380714509102E-02
 -0.380714509102E-02
  0.200586803522E-01
  0.200586803522E-01
  0.371091939573E-02
  0.371091939573E-02
  0.285151291331E-02
  0.285151291331E-02
  0.138053553061E-01
  0.138053553061E-01
  0.387614964576E-02
  0.387614964576E-02
  0.611515347672E-02
  0.611515347672E-02
  0.984241111340E-02
  0.984241111340E-02
  0.472014390340E-02
  0.472014390340E-02
  0.727208042024E-02
  0.727208042024E-02
  0.755930520698E-02
  0.755930520698E-02
  0.567301327471E-02
  0.567301327471E-02
  0.725045955814E-02
  0.725045955814E-02
  0.647311466340E-02
  0.647311466340E-02
  0.621029773131E-02
  0.621029773131E-02
  0.658300497037E-02
  0.658300497037E-02
  0.567096759362E-02
  0.567096759362E-02
  0.547462392711E-02
  0.547462392711E-02
  0.438876084070E-02
  0.438876084070E-02
  0.266069377626E-02
  0.266069377626E-02
 -0.990882039806E-03
 -0.990882039806E-03
 -0.195616779534E-02
 -0.195616779534E-02
 -0.347668872296E-01
 -0.347668872296E-01
