# vtk DataFile Version 3.0
MachLine results file. Generated by MachLine, USU AeroLab (c) 2023.
ASCII
DATASET POLYDATA
POINTS                 120 float
  0.418490017950E+01  0.666666666670E+00  0.000000000000E+00
  0.400000000000E+01  0.000000000000E+00  0.000000000000E+00
  0.598034709041E+02  0.666666666670E+00  0.486599441992E+01
  0.598020663795E+02  0.000000000000E+00  0.488204820953E+01
  0.436980035890E+01  0.133333333330E+01  0.000000000000E+00
  0.418490017950E+01  0.666666666670E+00  0.000000000000E+00
  0.598048754287E+02  0.133333333330E+01  0.484994063031E+01
  0.598034709041E+02  0.666666666670E+00  0.486599441992E+01
  0.455470053840E+01  0.200000000000E+01  0.000000000000E+00
  0.436980035890E+01  0.133333333330E+01  0.000000000000E+00
  0.598062799533E+02  0.200000000000E+01  0.483388684070E+01
  0.598048754287E+02  0.133333333330E+01  0.484994063031E+01
  0.473960071780E+01  0.266666666670E+01  0.000000000000E+00
  0.455470053840E+01  0.200000000000E+01  0.000000000000E+00
  0.598076844779E+02  0.266666666670E+01  0.481783305110E+01
  0.598062799533E+02  0.200000000000E+01  0.483388684070E+01
  0.492450089730E+01  0.333333333330E+01  0.000000000000E+00
  0.473960071780E+01  0.266666666670E+01  0.000000000000E+00
  0.598090890025E+02  0.333333333330E+01  0.480177926149E+01
  0.598076844779E+02  0.266666666670E+01  0.481783305110E+01
  0.510940107680E+01  0.400000000000E+01  0.000000000000E+00
  0.492450089730E+01  0.333333333330E+01  0.000000000000E+00
  0.598104935271E+02  0.400000000000E+01  0.478572547188E+01
  0.598090890025E+02  0.333333333330E+01  0.480177926149E+01
  0.529430125620E+01  0.466666666670E+01  0.000000000000E+00
  0.510940107680E+01  0.400000000000E+01  0.000000000000E+00
  0.598118980517E+02  0.466666666670E+01  0.476967168228E+01
  0.598104935271E+02  0.400000000000E+01  0.478572547188E+01
  0.547920143570E+01  0.533333333330E+01  0.000000000000E+00
  0.529430125620E+01  0.466666666670E+01  0.000000000000E+00
  0.598133025763E+02  0.533333333330E+01  0.475361789267E+01
  0.598118980517E+02  0.466666666670E+01  0.476967168228E+01
  0.566410161510E+01  0.600000000000E+01  0.000000000000E+00
  0.547920143570E+01  0.533333333330E+01  0.000000000000E+00
  0.598147071009E+02  0.600000000000E+01  0.473756410307E+01
  0.598133025763E+02  0.533333333330E+01  0.475361789267E+01
  0.584900179460E+01  0.666666666670E+01  0.000000000000E+00
  0.566410161510E+01  0.600000000000E+01  0.000000000000E+00
  0.598161116255E+02  0.666666666670E+01  0.472151031346E+01
  0.598147071009E+02  0.600000000000E+01  0.473756410307E+01
  0.603390197410E+01  0.733333333330E+01  0.000000000000E+00
  0.584900179460E+01  0.666666666670E+01  0.000000000000E+00
  0.598175161501E+02  0.733333333330E+01  0.470545652385E+01
  0.598161116255E+02  0.666666666670E+01  0.472151031346E+01
  0.640370233300E+01  0.866666666670E+01  0.000000000000E+00
  0.621880215350E+01  0.800000000000E+01  0.000000000000E+00
  0.598203251992E+02  0.866666666670E+01  0.467334894464E+01
  0.598189206746E+02  0.800000000000E+01  0.468940273425E+01
  0.621880215350E+01  0.800000000000E+01  0.000000000000E+00
  0.603390197410E+01  0.733333333330E+01  0.000000000000E+00
  0.598189206746E+02  0.800000000000E+01  0.468940273425E+01
  0.598175161501E+02  0.733333333330E+01  0.470545652385E+01
  0.677350269190E+01  0.100000000000E+02  0.000000000000E+00
  0.658860251240E+01  0.933333333330E+01  0.000000000000E+00
  0.598231342484E+02  0.100000000000E+02  0.464124136542E+01
  0.598217297238E+02  0.933333333330E+01  0.465729515503E+01
  0.658860251240E+01  0.933333333330E+01  0.000000000000E+00
  0.640370233300E+01  0.866666666670E+01  0.000000000000E+00
  0.598217297238E+02  0.933333333330E+01  0.465729515503E+01
  0.598203251992E+02  0.866666666670E+01  0.467334894464E+01
  0.400000000000E+01  0.000000000000E+00  0.000000000000E+00
  0.418490017950E+01 -0.666666666670E+00  0.000000000000E+00
  0.598020663795E+02  0.000000000000E+00  0.488204820953E+01
  0.598034709041E+02 -0.666666666670E+00  0.486599441992E+01
  0.418490017950E+01 -0.666666666670E+00  0.000000000000E+00
  0.436980035890E+01 -0.133333333330E+01  0.000000000000E+00
  0.598034709041E+02 -0.666666666670E+00  0.486599441992E+01
  0.598048754287E+02 -0.133333333330E+01  0.484994063031E+01
  0.436980035890E+01 -0.133333333330E+01  0.000000000000E+00
  0.455470053840E+01 -0.200000000000E+01  0.000000000000E+00
  0.598048754287E+02 -0.133333333330E+01  0.484994063031E+01
  0.598062799533E+02 -0.200000000000E+01  0.483388684070E+01
  0.455470053840E+01 -0.200000000000E+01  0.000000000000E+00
  0.473960071780E+01 -0.266666666670E+01  0.000000000000E+00
  0.598062799533E+02 -0.200000000000E+01  0.483388684070E+01
  0.598076844779E+02 -0.266666666670E+01  0.481783305110E+01
  0.473960071780E+01 -0.266666666670E+01  0.000000000000E+00
  0.492450089730E+01 -0.333333333330E+01  0.000000000000E+00
  0.598076844779E+02 -0.266666666670E+01  0.481783305110E+01
  0.598090890025E+02 -0.333333333330E+01  0.480177926149E+01
  0.510940107680E+01 -0.400000000000E+01  0.000000000000E+00
  0.529430125620E+01 -0.466666666670E+01  0.000000000000E+00
  0.598104935271E+02 -0.400000000000E+01  0.478572547188E+01
  0.598118980517E+02 -0.466666666670E+01  0.476967168228E+01
  0.529430125620E+01 -0.466666666670E+01  0.000000000000E+00
  0.547920143570E+01 -0.533333333330E+01  0.000000000000E+00
  0.598118980517E+02 -0.466666666670E+01  0.476967168228E+01
  0.598133025763E+02 -0.533333333330E+01  0.475361789267E+01
  0.492450089730E+01 -0.333333333330E+01  0.000000000000E+00
  0.510940107680E+01 -0.400000000000E+01  0.000000000000E+00
  0.598090890025E+02 -0.333333333330E+01  0.480177926149E+01
  0.598104935271E+02 -0.400000000000E+01  0.478572547188E+01
  0.547920143570E+01 -0.533333333330E+01  0.000000000000E+00
  0.566410161510E+01 -0.600000000000E+01  0.000000000000E+00
  0.598133025763E+02 -0.533333333330E+01  0.475361789267E+01
  0.598147071009E+02 -0.600000000000E+01  0.473756410307E+01
  0.566410161510E+01 -0.600000000000E+01  0.000000000000E+00
  0.584900179460E+01 -0.666666666670E+01  0.000000000000E+00
  0.598147071009E+02 -0.600000000000E+01  0.473756410307E+01
  0.598161116255E+02 -0.666666666670E+01  0.472151031346E+01
  0.584900179460E+01 -0.666666666670E+01  0.000000000000E+00
  0.603390197410E+01 -0.733333333330E+01  0.000000000000E+00
  0.598161116255E+02 -0.666666666670E+01  0.472151031346E+01
  0.598175161501E+02 -0.733333333330E+01  0.470545652385E+01
  0.603390197410E+01 -0.733333333330E+01  0.000000000000E+00
  0.621880215350E+01 -0.800000000000E+01  0.000000000000E+00
  0.598175161501E+02 -0.733333333330E+01  0.470545652385E+01
  0.598189206746E+02 -0.800000000000E+01  0.468940273425E+01
  0.621880215350E+01 -0.800000000000E+01  0.000000000000E+00
  0.640370233300E+01 -0.866666666670E+01  0.000000000000E+00
  0.598189206746E+02 -0.800000000000E+01  0.468940273425E+01
  0.598203251992E+02 -0.866666666670E+01  0.467334894464E+01
  0.640370233300E+01 -0.866666666670E+01  0.000000000000E+00
  0.658860251240E+01 -0.933333333330E+01  0.000000000000E+00
  0.598203251992E+02 -0.866666666670E+01  0.467334894464E+01
  0.598217297238E+02 -0.933333333330E+01  0.465729515503E+01
  0.658860251240E+01 -0.933333333330E+01  0.000000000000E+00
  0.677350269190E+01 -0.100000000000E+02  0.000000000000E+00
  0.598217297238E+02 -0.933333333330E+01  0.465729515503E+01
  0.598231342484E+02 -0.100000000000E+02  0.464124136542E+01
POLYGONS                  60                 240
3                   0                   3                   1
3                   0                   2                   3
3                   4                   7                   5
3                   4                   6                   7
3                   8                  11                   9
3                   8                  10                  11
3                  12                  15                  13
3                  12                  14                  15
3                  16                  19                  17
3                  16                  18                  19
3                  20                  23                  21
3                  20                  22                  23
3                  24                  27                  25
3                  24                  26                  27
3                  28                  31                  29
3                  28                  30                  31
3                  32                  35                  33
3                  32                  34                  35
3                  36                  39                  37
3                  36                  38                  39
3                  40                  43                  41
3                  40                  42                  43
3                  44                  47                  45
3                  44                  46                  47
3                  48                  51                  49
3                  48                  50                  51
3                  52                  55                  53
3                  52                  54                  55
3                  56                  59                  57
3                  56                  58                  59
3                  60                  62                  61
3                  62                  63                  61
3                  64                  66                  65
3                  66                  67                  65
3                  68                  70                  69
3                  70                  71                  69
3                  72                  74                  73
3                  74                  75                  73
3                  76                  78                  77
3                  78                  79                  77
3                  80                  82                  81
3                  82                  83                  81
3                  84                  86                  85
3                  86                  87                  85
3                  88                  90                  89
3                  90                  91                  89
3                  92                  94                  93
3                  94                  95                  93
3                  96                  98                  97
3                  98                  99                  97
3                 100                 102                 101
3                 102                 103                 101
3                 104                 106                 105
3                 106                 107                 105
3                 108                 110                 109
3                 110                 111                 109
3                 112                 114                 113
3                 114                 115                 113
3                 116                 118                 117
3                 118                 119                 117
POINT_DATA                 120
SCALARS mu float 1
LOOKUP_TABLE default
 -0.430098915124E+00
 -0.413480482253E+00
 -0.430098915124E+00
 -0.413480482253E+00
 -0.438823480037E+00
 -0.430098915124E+00
 -0.438823480037E+00
 -0.430098915124E+00
 -0.441792129532E+00
 -0.438823480037E+00
 -0.441792129532E+00
 -0.438823480037E+00
 -0.434839261164E+00
 -0.441792129532E+00
 -0.434839261164E+00
 -0.441792129532E+00
 -0.416740117499E+00
 -0.434839261164E+00
 -0.416740117499E+00
 -0.434839261164E+00
 -0.390734713345E+00
 -0.416740117499E+00
 -0.390734713345E+00
 -0.416740117499E+00
 -0.362739344477E+00
 -0.390734713345E+00
 -0.362739344477E+00
 -0.390734713345E+00
 -0.334826746465E+00
 -0.362739344477E+00
 -0.334826746465E+00
 -0.362739344477E+00
 -0.306777483419E+00
 -0.334826746465E+00
 -0.306777483419E+00
 -0.334826746465E+00
 -0.279006049424E+00
 -0.306777483419E+00
 -0.279006049424E+00
 -0.306777483419E+00
 -0.250510367858E+00
 -0.279006049424E+00
 -0.250510367858E+00
 -0.279006049424E+00
 -0.186813511668E+00
 -0.222416348591E+00
 -0.186813511668E+00
 -0.222416348591E+00
 -0.222416348591E+00
 -0.250510367858E+00
 -0.222416348591E+00
 -0.250510367858E+00
  0.000000000000E+00
 -0.158554654283E+00
  0.000000000000E+00
 -0.158554654283E+00
 -0.158554654283E+00
 -0.186813511668E+00
 -0.158554654283E+00
 -0.186813511668E+00
 -0.413480482253E+00
 -0.430098915138E+00
 -0.413480482253E+00
 -0.430098915138E+00
 -0.430098915138E+00
 -0.438823480053E+00
 -0.430098915138E+00
 -0.438823480053E+00
 -0.438823480053E+00
 -0.441792129557E+00
 -0.438823480053E+00
 -0.441792129557E+00
 -0.441792129557E+00
 -0.434839261141E+00
 -0.441792129557E+00
 -0.434839261141E+00
 -0.434839261141E+00
 -0.416740117523E+00
 -0.434839261141E+00
 -0.416740117523E+00
 -0.390734713336E+00
 -0.362739344478E+00
 -0.390734713336E+00
 -0.362739344478E+00
 -0.362739344478E+00
 -0.334826746470E+00
 -0.362739344478E+00
 -0.334826746470E+00
 -0.416740117523E+00
 -0.390734713336E+00
 -0.416740117523E+00
 -0.390734713336E+00
 -0.334826746470E+00
 -0.306777483416E+00
 -0.334826746470E+00
 -0.306777483416E+00
 -0.306777483416E+00
 -0.279006049412E+00
 -0.306777483416E+00
 -0.279006049412E+00
 -0.279006049412E+00
 -0.250510367843E+00
 -0.279006049412E+00
 -0.250510367843E+00
 -0.250510367843E+00
 -0.222416348594E+00
 -0.250510367843E+00
 -0.222416348594E+00
 -0.222416348594E+00
 -0.186813511667E+00
 -0.222416348594E+00
 -0.186813511667E+00
 -0.186813511667E+00
 -0.158554654280E+00
 -0.186813511667E+00
 -0.158554654280E+00
 -0.158554654280E+00
  0.000000000000E+00
 -0.158554654280E+00
  0.000000000000E+00
