# vtk DataFile Version 3.0
MachLine results file. Generated by MachLine, USU AeroLab (c) 2023.
ASCII
DATASET POLYDATA
POINTS                 352 float
  0.412606830420E+01  0.454545454550E+00  0.000000000000E+00
  0.400000000000E+01  0.000000000000E+00  0.000000000000E+00
  0.598030240099E+02  0.454545454550E+00  0.487110244388E+01
  0.598020663795E+02  0.000000000000E+00  0.488204820953E+01
  0.425213660840E+01  0.909090909090E+00  0.000000000000E+00
  0.412606830420E+01  0.454545454550E+00  0.000000000000E+00
  0.598039816403E+02  0.909090909090E+00  0.486015667824E+01
  0.598030240099E+02  0.454545454550E+00  0.487110244388E+01
  0.437820491250E+01  0.136363636360E+01  0.000000000000E+00
  0.425213660840E+01  0.909090909090E+00  0.000000000000E+00
  0.598049392707E+02  0.136363636360E+01  0.484921091261E+01
  0.598039816403E+02  0.909090909090E+00  0.486015667824E+01
  0.450427321670E+01  0.181818181820E+01  0.000000000000E+00
  0.437820491250E+01  0.136363636360E+01  0.000000000000E+00
  0.598058969011E+02  0.181818181820E+01  0.483826514696E+01
  0.598049392707E+02  0.136363636360E+01  0.484921091261E+01
  0.463034152090E+01  0.227272727270E+01  0.000000000000E+00
  0.450427321670E+01  0.181818181820E+01  0.000000000000E+00
  0.598068545315E+02  0.227272727270E+01  0.482731938132E+01
  0.598058969011E+02  0.181818181820E+01  0.483826514696E+01
  0.475640982510E+01  0.272727272730E+01  0.000000000000E+00
  0.463034152090E+01  0.227272727270E+01  0.000000000000E+00
  0.598078121619E+02  0.272727272730E+01  0.481637361568E+01
  0.598068545315E+02  0.227272727270E+01  0.482731938132E+01
  0.488247812920E+01  0.318181818180E+01  0.000000000000E+00
  0.475640982510E+01  0.272727272730E+01  0.000000000000E+00
  0.598087697923E+02  0.318181818180E+01  0.480542785004E+01
  0.598078121619E+02  0.272727272730E+01  0.481637361568E+01
  0.500854643340E+01  0.363636363640E+01  0.000000000000E+00
  0.488247812920E+01  0.318181818180E+01  0.000000000000E+00
  0.598097274227E+02  0.363636363640E+01  0.479448208440E+01
  0.598087697923E+02  0.318181818180E+01  0.480542785004E+01
  0.513461473760E+01  0.409090909090E+01  0.000000000000E+00
  0.500854643340E+01  0.363636363640E+01  0.000000000000E+00
  0.598106850531E+02  0.409090909090E+01  0.478353631876E+01
  0.598097274227E+02  0.363636363640E+01  0.479448208440E+01
  0.526068304180E+01  0.454545454550E+01  0.000000000000E+00
  0.513461473760E+01  0.409090909090E+01  0.000000000000E+00
  0.598116426836E+02  0.454545454550E+01  0.477259055311E+01
  0.598106850531E+02  0.409090909090E+01  0.478353631876E+01
  0.538675134590E+01  0.500000000000E+01  0.000000000000E+00
  0.526068304180E+01  0.454545454550E+01  0.000000000000E+00
  0.598126003140E+02  0.500000000000E+01  0.476164478748E+01
  0.598116426836E+02  0.454545454550E+01  0.477259055311E+01
  0.551281965010E+01  0.545454545450E+01  0.000000000000E+00
  0.538675134590E+01  0.500000000000E+01  0.000000000000E+00
  0.598135579444E+02  0.545454545450E+01  0.475069902184E+01
  0.598126003140E+02  0.500000000000E+01  0.476164478748E+01
  0.563888795430E+01  0.590909090910E+01  0.000000000000E+00
  0.551281965010E+01  0.545454545450E+01  0.000000000000E+00
  0.598145155748E+02  0.590909090910E+01  0.473975325619E+01
  0.598135579444E+02  0.545454545450E+01  0.475069902184E+01
  0.576495625850E+01  0.636363636360E+01  0.000000000000E+00
  0.563888795430E+01  0.590909090910E+01  0.000000000000E+00
  0.598154732052E+02  0.636363636360E+01  0.472880749055E+01
  0.598145155748E+02  0.590909090910E+01  0.473975325619E+01
  0.589102456270E+01  0.681818181820E+01  0.000000000000E+00
  0.576495625850E+01  0.636363636360E+01  0.000000000000E+00
  0.598164308356E+02  0.681818181820E+01  0.471786172491E+01
  0.598154732052E+02  0.636363636360E+01  0.472880749055E+01
  0.601709286680E+01  0.727272727270E+01  0.000000000000E+00
  0.589102456270E+01  0.681818181820E+01  0.000000000000E+00
  0.598173884660E+02  0.727272727270E+01  0.470691595927E+01
  0.598164308356E+02  0.681818181820E+01  0.471786172491E+01
  0.614316117100E+01  0.772727272730E+01  0.000000000000E+00
  0.601709286680E+01  0.727272727270E+01  0.000000000000E+00
  0.598183460964E+02  0.772727272730E+01  0.469597019363E+01
  0.598173884660E+02  0.727272727270E+01  0.470691595927E+01
  0.626922947520E+01  0.818181818180E+01  0.000000000000E+00
  0.614316117100E+01  0.772727272730E+01  0.000000000000E+00
  0.598193037268E+02  0.818181818180E+01  0.468502442799E+01
  0.598183460964E+02  0.772727272730E+01  0.469597019363E+01
  0.639529777940E+01  0.863636363640E+01  0.000000000000E+00
  0.626922947520E+01  0.818181818180E+01  0.000000000000E+00
  0.598202613572E+02  0.863636363640E+01  0.467407866234E+01
  0.598193037268E+02  0.818181818180E+01  0.468502442799E+01
  0.652136608350E+01  0.909090909090E+01  0.000000000000E+00
  0.639529777940E+01  0.863636363640E+01  0.000000000000E+00
  0.598212189876E+02  0.909090909090E+01  0.466313289671E+01
  0.598202613572E+02  0.863636363640E+01  0.467407866234E+01
  0.664743438770E+01  0.954545454550E+01  0.000000000000E+00
  0.652136608350E+01  0.909090909090E+01  0.000000000000E+00
  0.598221766180E+02  0.954545454550E+01  0.465218713107E+01
  0.598212189876E+02  0.909090909090E+01  0.466313289671E+01
  0.677350269190E+01  0.100000000000E+02  0.000000000000E+00
  0.664743438770E+01  0.954545454550E+01  0.000000000000E+00
  0.598231342484E+02  0.100000000000E+02  0.464124136542E+01
  0.598221766180E+02  0.954545454550E+01  0.465218713107E+01
  0.400000000000E+01  0.000000000000E+00  0.000000000000E+00
  0.412606830420E+01 -0.454545454550E+00  0.000000000000E+00
  0.598020663795E+02  0.000000000000E+00  0.488204820953E+01
  0.598030240099E+02 -0.454545454550E+00  0.487110244388E+01
  0.412606830420E+01 -0.454545454550E+00  0.000000000000E+00
  0.425213660840E+01 -0.909090909090E+00  0.000000000000E+00
  0.598030240099E+02 -0.454545454550E+00  0.487110244388E+01
  0.598039816403E+02 -0.909090909090E+00  0.486015667824E+01
  0.425213660840E+01 -0.909090909090E+00  0.000000000000E+00
  0.437820491250E+01 -0.136363636360E+01  0.000000000000E+00
  0.598039816403E+02 -0.909090909090E+00  0.486015667824E+01
  0.598049392707E+02 -0.136363636360E+01  0.484921091261E+01
  0.437820491250E+01 -0.136363636360E+01  0.000000000000E+00
  0.450427321670E+01 -0.181818181820E+01  0.000000000000E+00
  0.598049392707E+02 -0.136363636360E+01  0.484921091261E+01
  0.598058969011E+02 -0.181818181820E+01  0.483826514696E+01
  0.450427321670E+01 -0.181818181820E+01  0.000000000000E+00
  0.463034152090E+01 -0.227272727270E+01  0.000000000000E+00
  0.598058969011E+02 -0.181818181820E+01  0.483826514696E+01
  0.598068545315E+02 -0.227272727270E+01  0.482731938132E+01
  0.463034152090E+01 -0.227272727270E+01  0.000000000000E+00
  0.475640982510E+01 -0.272727272730E+01  0.000000000000E+00
  0.598068545315E+02 -0.227272727270E+01  0.482731938132E+01
  0.598078121619E+02 -0.272727272730E+01  0.481637361568E+01
  0.475640982510E+01 -0.272727272730E+01  0.000000000000E+00
  0.488247812920E+01 -0.318181818180E+01  0.000000000000E+00
  0.598078121619E+02 -0.272727272730E+01  0.481637361568E+01
  0.598087697923E+02 -0.318181818180E+01  0.480542785004E+01
  0.488247812920E+01 -0.318181818180E+01  0.000000000000E+00
  0.500854643340E+01 -0.363636363640E+01  0.000000000000E+00
  0.598087697923E+02 -0.318181818180E+01  0.480542785004E+01
  0.598097274227E+02 -0.363636363640E+01  0.479448208440E+01
  0.500854643340E+01 -0.363636363640E+01  0.000000000000E+00
  0.513461473760E+01 -0.409090909090E+01  0.000000000000E+00
  0.598097274227E+02 -0.363636363640E+01  0.479448208440E+01
  0.598106850531E+02 -0.409090909090E+01  0.478353631876E+01
  0.513461473760E+01 -0.409090909090E+01  0.000000000000E+00
  0.526068304180E+01 -0.454545454550E+01  0.000000000000E+00
  0.598106850531E+02 -0.409090909090E+01  0.478353631876E+01
  0.598116426836E+02 -0.454545454550E+01  0.477259055311E+01
  0.526068304180E+01 -0.454545454550E+01  0.000000000000E+00
  0.538675134590E+01 -0.500000000000E+01  0.000000000000E+00
  0.598116426836E+02 -0.454545454550E+01  0.477259055311E+01
  0.598126003140E+02 -0.500000000000E+01  0.476164478748E+01
  0.538675134590E+01 -0.500000000000E+01  0.000000000000E+00
  0.551281965010E+01 -0.545454545450E+01  0.000000000000E+00
  0.598126003140E+02 -0.500000000000E+01  0.476164478748E+01
  0.598135579444E+02 -0.545454545450E+01  0.475069902184E+01
  0.551281965010E+01 -0.545454545450E+01  0.000000000000E+00
  0.563888795430E+01 -0.590909090910E+01  0.000000000000E+00
  0.598135579444E+02 -0.545454545450E+01  0.475069902184E+01
  0.598145155748E+02 -0.590909090910E+01  0.473975325619E+01
  0.563888795430E+01 -0.590909090910E+01  0.000000000000E+00
  0.576495625850E+01 -0.636363636360E+01  0.000000000000E+00
  0.598145155748E+02 -0.590909090910E+01  0.473975325619E+01
  0.598154732052E+02 -0.636363636360E+01  0.472880749055E+01
  0.576495625850E+01 -0.636363636360E+01  0.000000000000E+00
  0.589102456270E+01 -0.681818181820E+01  0.000000000000E+00
  0.598154732052E+02 -0.636363636360E+01  0.472880749055E+01
  0.598164308356E+02 -0.681818181820E+01  0.471786172491E+01
  0.589102456270E+01 -0.681818181820E+01  0.000000000000E+00
  0.601709286680E+01 -0.727272727270E+01  0.000000000000E+00
  0.598164308356E+02 -0.681818181820E+01  0.471786172491E+01
  0.598173884660E+02 -0.727272727270E+01  0.470691595927E+01
  0.601709286680E+01 -0.727272727270E+01  0.000000000000E+00
  0.614316117100E+01 -0.772727272730E+01  0.000000000000E+00
  0.598173884660E+02 -0.727272727270E+01  0.470691595927E+01
  0.598183460964E+02 -0.772727272730E+01  0.469597019363E+01
  0.614316117100E+01 -0.772727272730E+01  0.000000000000E+00
  0.626922947520E+01 -0.818181818180E+01  0.000000000000E+00
  0.598183460964E+02 -0.772727272730E+01  0.469597019363E+01
  0.598193037268E+02 -0.818181818180E+01  0.468502442799E+01
  0.626922947520E+01 -0.818181818180E+01  0.000000000000E+00
[...]
POINT_DATA                 352
SCALARS mu float 1
LOOKUP_TABLE default
 -0.663781861434E+00
 -0.663425799376E+00
 -0.663781861434E+00
 -0.663425799376E+00
 -0.661656538435E+00
 -0.663781861434E+00
 -0.661656538435E+00
 -0.663781861434E+00
 -0.657343350858E+00
 -0.661656538435E+00
 -0.657343350858E+00
 -0.661656538435E+00
 -0.653151087871E+00
 -0.657343350858E+00
 -0.653151087871E+00
 -0.657343350858E+00
 -0.647348580479E+00
 -0.653151087871E+00
 -0.647348580479E+00
 -0.653151087871E+00
 -0.638525648511E+00
 -0.647348580479E+00
 -0.638525648511E+00
 -0.647348580479E+00
 -0.626265200498E+00
 -0.638525648511E+00
 -0.626265200498E+00
 -0.638525648511E+00
 -0.612654239447E+00
 -0.626265200498E+00
 -0.612654239447E+00
 -0.626265200498E+00
 -0.596756296152E+00
 -0.612654239447E+00
 -0.596756296152E+00
 -0.612654239447E+00
 -0.578859117228E+00
 -0.596756296152E+00
 -0.578859117228E+00
 -0.596756296152E+00
 -0.559399177503E+00
 -0.578859117228E+00
 -0.559399177503E+00
 -0.578859117228E+00
 -0.537601586829E+00
 -0.559399177503E+00
 -0.537601586829E+00
 -0.559399177503E+00
 -0.514542005821E+00
 -0.537601586829E+00
 -0.514542005821E+00
 -0.537601586829E+00
 -0.488542872282E+00
 -0.514542005821E+00
 -0.488542872282E+00
 -0.514542005821E+00
 -0.460034534174E+00
 -0.488542872282E+00
 -0.460034534174E+00
 -0.488542872282E+00
 -0.430487120180E+00
 -0.460034534174E+00
 -0.430487120180E+00
 -0.460034534174E+00
 -0.396684334570E+00
 -0.430487120180E+00
 -0.396684334570E+00
 -0.430487120180E+00
 -0.357529520079E+00
 -0.396684334570E+00
 -0.357529520079E+00
 -0.396684334570E+00
 -0.310144905788E+00
 -0.357529520079E+00
 -0.310144905788E+00
 -0.357529520079E+00
 -0.245565627063E+00
 -0.310144905788E+00
 -0.245565627063E+00
 -0.310144905788E+00
 -0.152212448768E+00
 -0.245565627063E+00
 -0.152212448768E+00
 -0.245565627063E+00
  0.000000000000E+00
 -0.152212448768E+00
  0.000000000000E+00
 -0.152212448768E+00
 -0.663425799376E+00
 -0.663355926337E+00
 -0.663425799376E+00
 -0.663355926337E+00
 -0.663355926337E+00
 -0.660535086815E+00
 -0.663355926337E+00
 -0.660535086815E+00
 -0.660535086815E+00
 -0.656074037759E+00
 -0.660535086815E+00
 -0.656074037759E+00
 -0.656074037759E+00
 -0.652042638769E+00
 -0.656074037759E+00
 -0.652042638769E+00
 -0.652042638769E+00
 -0.646542631022E+00
 -0.652042638769E+00
 -0.646542631022E+00
 -0.646542631022E+00
 -0.637995396120E+00
 -0.646542631022E+00
 -0.637995396120E+00
 -0.637995396120E+00
 -0.626096582386E+00
 -0.637995396120E+00
 -0.626096582386E+00
 -0.626096582386E+00
 -0.612059602646E+00
 -0.626096582386E+00
 -0.612059602646E+00
 -0.612059602646E+00
 -0.596332398808E+00
 -0.612059602646E+00
 -0.596332398808E+00
 -0.596332398808E+00
 -0.578957806372E+00
 -0.596332398808E+00
 -0.578957806372E+00
 -0.578957806372E+00
 -0.559428054842E+00
 -0.578957806372E+00
 -0.559428054842E+00
 -0.559428054842E+00
 -0.538228888438E+00
 -0.559428054842E+00
 -0.538228888438E+00
 -0.538228888438E+00
 -0.515785641813E+00
 -0.538228888438E+00
 -0.515785641813E+00
 -0.515785641813E+00
 -0.490084165158E+00
 -0.515785641813E+00
 -0.490084165158E+00
 -0.490084165158E+00
 -0.461103968323E+00
 -0.490084165158E+00
 -0.461103968323E+00
 -0.461103968323E+00
 -0.430845476594E+00
 -0.461103968323E+00
 -0.430845476594E+00
 -0.430845476594E+00
 -0.397000040110E+00
 -0.430845476594E+00
 -0.397000040110E+00
 -0.397000040110E+00
 -0.357475471903E+00
 -0.397000040110E+00
 -0.357475471903E+00
 -0.357475471903E+00
 -0.310248497652E+00
 -0.357475471903E+00
 -0.310248497652E+00
 -0.310248497652E+00
 -0.245938690920E+00
 -0.310248497652E+00
 -0.245938690920E+00
 -0.245938690920E+00
 -0.152502781866E+00
 -0.245938690920E+00
 -0.152502781866E+00
 -0.152502781866E+00
  0.000000000000E+00
 -0.152502781866E+00
  0.000000000000E+00
 -0.387955926787E+00
 -0.385624927852E+00
 -0.387955926787E+00
 -0.385624927852E+00
 -0.391522662540E+00
 -0.387955926787E+00
 -0.391522662540E+00
 -0.387955926787E+00
 -0.392065533738E+00
 -0.391522662540E+00
 -0.392065533738E+00
 -0.391522662540E+00
 -0.389742389280E+00
 -0.392065533738E+00
 -0.389742389280E+00
 -0.392065533738E+00
 -0.386981450080E+00
 -0.389742389280E+00
 -0.386981450080E+00
 -0.389742389280E+00
 -0.384025078007E+00
 -0.386981450080E+00
 -0.384025078007E+00
 -0.386981450080E+00
 -0.381079499291E+00
 -0.384025078007E+00
 -0.381079499291E+00
 -0.384025078007E+00
 -0.374348778730E+00
 -0.381079499291E+00
 -0.374348778730E+00
 -0.381079499291E+00
 -0.370747651393E+00
 -0.374348778730E+00
 -0.370747651393E+00
 -0.374348778730E+00
 -0.363732099318E+00
 -0.370747651393E+00
 -0.363732099318E+00
 -0.370747651393E+00
 -0.356718818279E+00
 -0.363732099318E+00
 -0.356718818279E+00
 -0.363732099318E+00
 -0.346288860535E+00
 -0.356718818279E+00
 -0.346288860535E+00
 -0.356718818279E+00
 -0.335718664117E+00
 -0.346288860535E+00
 -0.335718664117E+00
 -0.346288860535E+00
 -0.323897250475E+00
 -0.335718664117E+00
 -0.323897250475E+00
 -0.335718664117E+00
 -0.310618865908E+00
 -0.323897250475E+00
 -0.310618865908E+00
 -0.323897250475E+00
 -0.294507427607E+00
 -0.310618865908E+00
 -0.294507427607E+00
 -0.310618865908E+00
 -0.278233534548E+00
 -0.294507427607E+00
 -0.278233534548E+00
 -0.294507427607E+00
 -0.257865441350E+00
 -0.278233534548E+00
 -0.257865441350E+00
 -0.278233534548E+00
 -0.229845675851E+00
 -0.257865441350E+00
 -0.229845675851E+00
 -0.257865441350E+00
 -0.187350345719E+00
 -0.229845675851E+00
 -0.187350345719E+00
 -0.229845675851E+00
 -0.119102205965E+00
 -0.187350345719E+00
 -0.119102205965E+00
 -0.187350345719E+00
  0.000000000000E+00
 -0.119102205965E+00
  0.000000000000E+00
 -0.119102205965E+00
 -0.385624927852E+00
 -0.389811059344E+00
 -0.385624927852E+00
 -0.389811059344E+00
 -0.389811059344E+00
 -0.392486741290E+00
 -0.389811059344E+00
 -0.392486741290E+00
 -0.392486741290E+00
 -0.392430428169E+00
 -0.392486741290E+00
 -0.392430428169E+00
 -0.392430428169E+00
 -0.390497147914E+00
 -0.392430428169E+00
 -0.390497147914E+00
 -0.390497147914E+00
 -0.388463136968E+00
 -0.390497147914E+00
 -0.388463136968E+00
 -0.388463136968E+00
 -0.385808254793E+00
 -0.388463136968E+00
 -0.385808254793E+00
 -0.385808254793E+00
 -0.382950102234E+00
 -0.385808254793E+00
 -0.382950102234E+00
 -0.382950102234E+00
 -0.376685740906E+00
 -0.382950102234E+00
 -0.376685740906E+00
 -0.376685740906E+00
 -0.371736435678E+00
 -0.376685740906E+00
 -0.371736435678E+00
 -0.371736435678E+00
 -0.364705456522E+00
 -0.371736435678E+00
 -0.364705456522E+00
 -0.364705456522E+00
 -0.358044938291E+00
 -0.364705456522E+00
 -0.358044938291E+00
 -0.358044938291E+00
 -0.348363285773E+00
 -0.358044938291E+00
 -0.348363285773E+00
 -0.348363285773E+00
 -0.338961217324E+00
 -0.348363285773E+00
 -0.338961217324E+00
 -0.338961217324E+00
 -0.327109695183E+00
 -0.338961217324E+00
 -0.327109695183E+00
 -0.327109695183E+00
 -0.313461629716E+00
 -0.327109695183E+00
 -0.313461629716E+00
 -0.313461629716E+00
 -0.297567426711E+00
 -0.313461629716E+00
 -0.297567426711E+00
 -0.297567426711E+00
 -0.280016310923E+00
 -0.297567426711E+00
 -0.280016310923E+00
 -0.280016310923E+00
 -0.259105381920E+00
 -0.280016310923E+00
 -0.259105381920E+00
 -0.259105381920E+00
 -0.231004622270E+00
 -0.259105381920E+00
 -0.231004622270E+00
 -0.231004622270E+00
 -0.188180381989E+00
 -0.231004622270E+00
 -0.188180381989E+00
 -0.188180381989E+00
 -0.119644619249E+00
 -0.188180381989E+00
 -0.119644619249E+00
 -0.119644619249E+00
  0.000000000000E+00
 -0.119644619249E+00
  0.000000000000E+00
