# vtk DataFile Version 3.0
MachLine results file. Generated by MachLine, USU AeroLab (c) 2023.
ASCII
DATASET POLYDATA
POINTS                 208 float
  0.421334636090E+01  0.769230769230E+00  0.000000000000E+00
  0.400000000000E+01  0.000000000000E+00  0.000000000000E+00
  0.598036869848E+02  0.769230769230E+00  0.486352460613E+01
  0.598020663795E+02  0.000000000000E+00  0.488204820953E+01
  0.442669272180E+01  0.153846153850E+01  0.000000000000E+00
  0.421334636090E+01  0.769230769230E+00  0.000000000000E+00
  0.598053075901E+02  0.153846153850E+01  0.484500100274E+01
  0.598036869848E+02  0.769230769230E+00  0.486352460613E+01
  0.464003908270E+01  0.230769230770E+01  0.000000000000E+00
  0.442669272180E+01  0.153846153850E+01  0.000000000000E+00
  0.598069281954E+02  0.230769230770E+01  0.482647739935E+01
  0.598053075901E+02  0.153846153850E+01  0.484500100274E+01
  0.485338544370E+01  0.307692307690E+01  0.000000000000E+00
  0.464003908270E+01  0.230769230770E+01  0.000000000000E+00
  0.598085488007E+02  0.307692307690E+01  0.480795379595E+01
  0.598069281954E+02  0.230769230770E+01  0.482647739935E+01
  0.506673180460E+01  0.384615384620E+01  0.000000000000E+00
  0.485338544370E+01  0.307692307690E+01  0.000000000000E+00
  0.598101694060E+02  0.384615384620E+01  0.478943019256E+01
  0.598085488007E+02  0.307692307690E+01  0.480795379595E+01
  0.528007816550E+01  0.461538461540E+01  0.000000000000E+00
  0.506673180460E+01  0.384615384620E+01  0.000000000000E+00
  0.598117900113E+02  0.461538461540E+01  0.477090658917E+01
  0.598101694060E+02  0.384615384620E+01  0.478943019256E+01
  0.570677088730E+01  0.615384615380E+01  0.000000000000E+00
  0.549342452640E+01  0.538461538460E+01  0.000000000000E+00
  0.598150312219E+02  0.615384615380E+01  0.473385938239E+01
  0.598134106166E+02  0.538461538460E+01  0.475238298578E+01
  0.549342452640E+01  0.538461538460E+01  0.000000000000E+00
  0.528007816550E+01  0.461538461540E+01  0.000000000000E+00
  0.598134106166E+02  0.538461538460E+01  0.475238298578E+01
  0.598117900113E+02  0.461538461540E+01  0.477090658917E+01
  0.592011724820E+01  0.692307692310E+01  0.000000000000E+00
  0.570677088730E+01  0.615384615380E+01  0.000000000000E+00
  0.598166518272E+02  0.692307692310E+01  0.471533577900E+01
  0.598150312219E+02  0.615384615380E+01  0.473385938239E+01
  0.613346360920E+01  0.769230769230E+01  0.000000000000E+00
  0.592011724820E+01  0.692307692310E+01  0.000000000000E+00
  0.598182724325E+02  0.769230769230E+01  0.469681217560E+01
  0.598166518272E+02  0.692307692310E+01  0.471533577900E+01
  0.634680997010E+01  0.846153846150E+01  0.000000000000E+00
  0.613346360920E+01  0.769230769230E+01  0.000000000000E+00
  0.598198930378E+02  0.846153846150E+01  0.467828857221E+01
  0.598182724325E+02  0.769230769230E+01  0.469681217560E+01
  0.677350269190E+01  0.100000000000E+02  0.000000000000E+00
  0.656015633100E+01  0.923076923080E+01  0.000000000000E+00
  0.598231342484E+02  0.100000000000E+02  0.464124136542E+01
  0.598215136431E+02  0.923076923080E+01  0.465976496882E+01
  0.656015633100E+01  0.923076923080E+01  0.000000000000E+00
  0.634680997010E+01  0.846153846150E+01  0.000000000000E+00
  0.598215136431E+02  0.923076923080E+01  0.465976496882E+01
  0.598198930378E+02  0.846153846150E+01  0.467828857221E+01
  0.400000000000E+01  0.000000000000E+00  0.000000000000E+00
  0.421334636090E+01 -0.769230769230E+00  0.000000000000E+00
  0.598020663795E+02  0.000000000000E+00  0.488204820953E+01
  0.598036869848E+02 -0.769230769230E+00  0.486352460613E+01
  0.421334636090E+01 -0.769230769230E+00  0.000000000000E+00
  0.442669272180E+01 -0.153846153850E+01  0.000000000000E+00
  0.598036869848E+02 -0.769230769230E+00  0.486352460613E+01
  0.598053075901E+02 -0.153846153850E+01  0.484500100274E+01
  0.442669272180E+01 -0.153846153850E+01  0.000000000000E+00
  0.464003908270E+01 -0.230769230770E+01  0.000000000000E+00
  0.598053075901E+02 -0.153846153850E+01  0.484500100274E+01
  0.598069281954E+02 -0.230769230770E+01  0.482647739935E+01
  0.464003908270E+01 -0.230769230770E+01  0.000000000000E+00
  0.485338544370E+01 -0.307692307690E+01  0.000000000000E+00
  0.598069281954E+02 -0.230769230770E+01  0.482647739935E+01
  0.598085488007E+02 -0.307692307690E+01  0.480795379595E+01
  0.485338544370E+01 -0.307692307690E+01  0.000000000000E+00
  0.506673180460E+01 -0.384615384620E+01  0.000000000000E+00
  0.598085488007E+02 -0.307692307690E+01  0.480795379595E+01
  0.598101694060E+02 -0.384615384620E+01  0.478943019256E+01
  0.506673180460E+01 -0.384615384620E+01  0.000000000000E+00
  0.528007816550E+01 -0.461538461540E+01  0.000000000000E+00
  0.598101694060E+02 -0.384615384620E+01  0.478943019256E+01
  0.598117900113E+02 -0.461538461540E+01  0.477090658917E+01
  0.528007816550E+01 -0.461538461540E+01  0.000000000000E+00
  0.549342452640E+01 -0.538461538460E+01  0.000000000000E+00
  0.598117900113E+02 -0.461538461540E+01  0.477090658917E+01
  0.598134106166E+02 -0.538461538460E+01  0.475238298578E+01
  0.549342452640E+01 -0.538461538460E+01  0.000000000000E+00
  0.570677088730E+01 -0.615384615380E+01  0.000000000000E+00
  0.598134106166E+02 -0.538461538460E+01  0.475238298578E+01
  0.598150312219E+02 -0.615384615380E+01  0.473385938239E+01
  0.570677088730E+01 -0.615384615380E+01  0.000000000000E+00
  0.592011724820E+01 -0.692307692310E+01  0.000000000000E+00
  0.598150312219E+02 -0.615384615380E+01  0.473385938239E+01
  0.598166518272E+02 -0.692307692310E+01  0.471533577900E+01
  0.592011724820E+01 -0.692307692310E+01  0.000000000000E+00
  0.613346360920E+01 -0.769230769230E+01  0.000000000000E+00
  0.598166518272E+02 -0.692307692310E+01  0.471533577900E+01
  0.598182724325E+02 -0.769230769230E+01  0.469681217560E+01
  0.613346360920E+01 -0.769230769230E+01  0.000000000000E+00
  0.634680997010E+01 -0.846153846150E+01  0.000000000000E+00
  0.598182724325E+02 -0.769230769230E+01  0.469681217560E+01
  0.598198930378E+02 -0.846153846150E+01  0.467828857221E+01
  0.634680997010E+01 -0.846153846150E+01  0.000000000000E+00
  0.656015633100E+01 -0.923076923080E+01  0.000000000000E+00
  0.598198930378E+02 -0.846153846150E+01  0.467828857221E+01
  0.598215136431E+02 -0.923076923080E+01  0.465976496882E+01
  0.656015633100E+01 -0.923076923080E+01  0.000000000000E+00
  0.677350269190E+01 -0.100000000000E+02  0.000000000000E+00
  0.598215136431E+02 -0.923076923080E+01  0.465976496882E+01
  0.598231342484E+02 -0.100000000000E+02  0.464124136542E+01
  0.696334636090E+01  0.769230769230E+00 -0.250000000000E+01
  0.675000000000E+01  0.000000000000E+00 -0.250000000000E+01
  0.600416365465E+02  0.769230769230E+00  0.214374867058E+01
  0.600400159412E+02  0.000000000000E+00  0.216227227397E+01
  0.717669272180E+01  0.153846153850E+01 -0.250000000000E+01
  0.696334636090E+01  0.769230769230E+00 -0.250000000000E+01
  0.600432571518E+02  0.153846153850E+01  0.212522506719E+01
  0.600416365465E+02  0.769230769230E+00  0.214374867058E+01
  0.739003908270E+01  0.230769230770E+01 -0.250000000000E+01
  0.717669272180E+01  0.153846153850E+01 -0.250000000000E+01
  0.600448777571E+02  0.230769230770E+01  0.210670146380E+01
  0.600432571518E+02  0.153846153850E+01  0.212522506719E+01
  0.760338544370E+01  0.307692307690E+01 -0.250000000000E+01
  0.739003908270E+01  0.230769230770E+01 -0.250000000000E+01
  0.600464983624E+02  0.307692307690E+01  0.208817786040E+01
  0.600448777571E+02  0.230769230770E+01  0.210670146380E+01
  0.781673180460E+01  0.384615384620E+01 -0.250000000000E+01
  0.760338544370E+01  0.307692307690E+01 -0.250000000000E+01
  0.600481189677E+02  0.384615384620E+01  0.206965425700E+01
  0.600464983624E+02  0.307692307690E+01  0.208817786040E+01
  0.803007816550E+01  0.461538461540E+01 -0.250000000000E+01
  0.781673180460E+01  0.384615384620E+01 -0.250000000000E+01
  0.600497395730E+02  0.461538461540E+01  0.205113065361E+01
  0.600481189677E+02  0.384615384620E+01  0.206965425700E+01
  0.824342452640E+01  0.538461538460E+01 -0.250000000000E+01
  0.803007816550E+01  0.461538461540E+01 -0.250000000000E+01
  0.600513601783E+02  0.538461538460E+01  0.203260705022E+01
  0.600497395730E+02  0.461538461540E+01  0.205113065361E+01
  0.867011724820E+01  0.692307692310E+01 -0.250000000000E+01
  0.845677088730E+01  0.615384615380E+01 -0.250000000000E+01
  0.600546013889E+02  0.692307692310E+01  0.199555984344E+01
  0.600529807836E+02  0.615384615380E+01  0.201408344683E+01
  0.845677088730E+01  0.615384615380E+01 -0.250000000000E+01
  0.824342452640E+01  0.538461538460E+01 -0.250000000000E+01
  0.600529807836E+02  0.615384615380E+01  0.201408344683E+01
  0.600513601783E+02  0.538461538460E+01  0.203260705022E+01
  0.888346360920E+01  0.769230769230E+01 -0.250000000000E+01
  0.867011724820E+01  0.692307692310E+01 -0.250000000000E+01
  0.600562219942E+02  0.769230769230E+01  0.197703624004E+01
  0.600546013889E+02  0.692307692310E+01  0.199555984344E+01
  0.909680997010E+01  0.846153846150E+01 -0.250000000000E+01
  0.888346360920E+01  0.769230769230E+01 -0.250000000000E+01
  0.600578425995E+02  0.846153846150E+01  0.195851263665E+01
  0.600562219942E+02  0.769230769230E+01  0.197703624004E+01
  0.931015633100E+01  0.923076923080E+01 -0.250000000000E+01
  0.909680997010E+01  0.846153846150E+01 -0.250000000000E+01
  0.600594632048E+02  0.923076923080E+01  0.193998903326E+01
  0.600578425995E+02  0.846153846150E+01  0.195851263665E+01
  0.952350269190E+01  0.100000000000E+02 -0.250000000000E+01
  0.931015633100E+01  0.923076923080E+01 -0.250000000000E+01
  0.600610838101E+02  0.100000000000E+02  0.192146542987E+01
  0.600594632048E+02  0.923076923080E+01  0.193998903326E+01
  0.675000000000E+01  0.000000000000E+00 -0.250000000000E+01
  0.696334636090E+01 -0.769230769230E+00 -0.250000000000E+01
  0.600400159412E+02  0.000000000000E+00  0.216227227397E+01
  0.600416365465E+02 -0.769230769230E+00  0.214374867058E+01
  0.696334636090E+01 -0.769230769230E+00 -0.250000000000E+01
  0.717669272180E+01 -0.153846153850E+01 -0.250000000000E+01
  0.600416365465E+02 -0.769230769230E+00  0.214374867058E+01
  0.600432571518E+02 -0.153846153850E+01  0.212522506719E+01
  0.717669272180E+01 -0.153846153850E+01 -0.250000000000E+01
  0.739003908270E+01 -0.230769230770E+01 -0.250000000000E+01
  0.600432571518E+02 -0.153846153850E+01  0.212522506719E+01
  0.600448777571E+02 -0.230769230770E+01  0.210670146380E+01
  0.739003908270E+01 -0.230769230770E+01 -0.250000000000E+01
  0.760338544370E+01 -0.307692307690E+01 -0.250000000000E+01
  0.600448777571E+02 -0.230769230770E+01  0.210670146380E+01
  0.600464983624E+02 -0.307692307690E+01  0.208817786040E+01
  0.760338544370E+01 -0.307692307690E+01 -0.250000000000E+01
  0.781673180460E+01 -0.384615384620E+01 -0.250000000000E+01
  0.600464983624E+02 -0.307692307690E+01  0.208817786040E+01
  0.600481189677E+02 -0.384615384620E+01  0.206965425700E+01
  0.781673180460E+01 -0.384615384620E+01 -0.250000000000E+01
  0.803007816550E+01 -0.461538461540E+01 -0.250000000000E+01
  0.600481189677E+02 -0.384615384620E+01  0.206965425700E+01
  0.600497395730E+02 -0.461538461540E+01  0.205113065361E+01
  0.803007816550E+01 -0.461538461540E+01 -0.250000000000E+01
  0.824342452640E+01 -0.538461538460E+01 -0.250000000000E+01
  0.600497395730E+02 -0.461538461540E+01  0.205113065361E+01
  0.600513601783E+02 -0.538461538460E+01  0.203260705022E+01
  0.824342452640E+01 -0.538461538460E+01 -0.250000000000E+01
  0.845677088730E+01 -0.615384615380E+01 -0.250000000000E+01
  0.600513601783E+02 -0.538461538460E+01  0.203260705022E+01
  0.600529807836E+02 -0.615384615380E+01  0.201408344683E+01
  0.845677088730E+01 -0.615384615380E+01 -0.250000000000E+01
  0.867011724820E+01 -0.692307692310E+01 -0.250000000000E+01
  0.600529807836E+02 -0.615384615380E+01  0.201408344683E+01
  0.600546013889E+02 -0.692307692310E+01  0.199555984344E+01
  0.867011724820E+01 -0.692307692310E+01 -0.250000000000E+01
  0.888346360920E+01 -0.769230769230E+01 -0.250000000000E+01
  0.600546013889E+02 -0.692307692310E+01  0.199555984344E+01
  0.600562219942E+02 -0.769230769230E+01  0.197703624004E+01
  0.888346360920E+01 -0.769230769230E+01 -0.250000000000E+01
  0.909680997010E+01 -0.846153846150E+01 -0.250000000000E+01
  0.600562219942E+02 -0.769230769230E+01  0.197703624004E+01
  0.600578425995E+02 -0.846153846150E+01  0.195851263665E+01
  0.931015633100E+01 -0.923076923080E+01 -0.250000000000E+01
  0.952350269190E+01 -0.100000000000E+02 -0.250000000000E+01
  0.600594632048E+02 -0.923076923080E+01  0.193998903326E+01
  0.600610838101E+02 -0.100000000000E+02  0.192146542987E+01
  0.909680997010E+01 -0.846153846150E+01 -0.250000000000E+01
  0.931015633100E+01 -0.923076923080E+01 -0.250000000000E+01
  0.600578425995E+02 -0.846153846150E+01  0.195851263665E+01
  0.600594632048E+02 -0.923076923080E+01  0.193998903326E+01
POLYGONS                 104                 416
3                   0                   3                   1
3                   0                   2                   3
3                   4                   7                   5
3                   4                   6                   7
3                   8                  11                   9
3                   8                  10                  11
3                  12                  15                  13
3                  12                  14                  15
3                  16                  19                  17
3                  16                  18                  19
3                  20                  23                  21
3                  20                  22                  23
3                  24                  27                  25
3                  24                  26                  27
3                  28                  31                  29
3                  28                  30                  31
3                  32                  35                  33
3                  32                  34                  35
3                  36                  39                  37
3                  36                  38                  39
3                  40                  43                  41
3                  40                  42                  43
3                  44                  47                  45
3                  44                  46                  47
3                  48                  51                  49
3                  48                  50                  51
3                  52                  54                  53
3                  54                  55                  53
3                  56                  58                  57
3                  58                  59                  57
3                  60                  62                  61
3                  62                  63                  61
3                  64                  66                  65
3                  66                  67                  65
3                  68                  70                  69
3                  70                  71                  69
3                  72                  74                  73
3                  74                  75                  73
3                  76                  78                  77
3                  78                  79                  77
3                  80                  82                  81
3                  82                  83                  81
3                  84                  86                  85
3                  86                  87                  85
3                  88                  90                  89
3                  90                  91                  89
3                  92                  94                  93
3                  94                  95                  93
3                  96                  98                  97
3                  98                  99                  97
3                 100                 102                 101
3                 102                 103                 101
3                 104                 107                 105
3                 104                 106                 107
3                 108                 111                 109
3                 108                 110                 111
3                 112                 115                 113
3                 112                 114                 115
3                 116                 119                 117
3                 116                 118                 119
3                 120                 123                 121
3                 120                 122                 123
3                 124                 127                 125
3                 124                 126                 127
3                 128                 131                 129
3                 128                 130                 131
3                 132                 135                 133
3                 132                 134                 135
3                 136                 139                 137
3                 136                 138                 139
3                 140                 143                 141
3                 140                 142                 143
3                 144                 147                 145
3                 144                 146                 147
3                 148                 151                 149
3                 148                 150                 151
3                 152                 155                 153
3                 152                 154                 155
3                 156                 158                 157
3                 158                 159                 157
3                 160                 162                 161
3                 162                 163                 161
3                 164                 166                 165
3                 166                 167                 165
3                 168                 170                 169
3                 170                 171                 169
3                 172                 174                 173
3                 174                 175                 173
3                 176                 178                 177
3                 178                 179                 177
3                 180                 182                 181
3                 182                 183                 181
3                 184                 186                 185
3                 186                 187                 185
3                 188                 190                 189
3                 190                 191                 189
3                 192                 194                 193
3                 194                 195                 193
3                 196                 198                 197
3                 198                 199                 197
3                 200                 202                 201
3                 202                 203                 201
3                 204                 206                 205
3                 206                 207                 205
POINT_DATA                 208
SCALARS mu float 1
LOOKUP_TABLE default
 -0.425965656189E+00
 -0.398784570687E+00
 -0.425965656189E+00
 -0.398784570687E+00
 -0.439649966979E+00
 -0.425965656189E+00
 -0.439649966979E+00
 -0.425965656189E+00
 -0.434832216090E+00
 -0.439649966979E+00
 -0.434832216090E+00
 -0.439649966979E+00
 -0.417643499076E+00
 -0.434832216090E+00
 -0.417643499076E+00
 -0.434832216090E+00
 -0.388153926371E+00
 -0.417643499076E+00
 -0.388153926371E+00
 -0.417643499076E+00
 -0.355227478342E+00
 -0.388153926371E+00
 -0.355227478342E+00
 -0.388153926371E+00
 -0.295850389175E+00
 -0.323880717240E+00
 -0.295850389175E+00
 -0.323880717240E+00
 -0.323880717240E+00
 -0.355227478342E+00
 -0.323880717240E+00
 -0.355227478342E+00
 -0.247705453160E+00
 -0.295850389175E+00
 -0.247705453160E+00
 -0.295850389175E+00
 -0.220983794477E+00
 -0.247705453160E+00
 -0.220983794477E+00
 -0.247705453160E+00
 -0.187972267464E+00
 -0.220983794477E+00
 -0.187972267464E+00
 -0.220983794477E+00
  0.000000000000E+00
 -0.165112534795E+00
  0.000000000000E+00
 -0.165112534795E+00
 -0.165112534795E+00
 -0.187972267464E+00
 -0.165112534795E+00
 -0.187972267464E+00
 -0.398784570687E+00
 -0.425965656168E+00
 -0.398784570687E+00
 -0.425965656168E+00
 -0.425965656168E+00
 -0.439649967004E+00
 -0.425965656168E+00
 -0.439649967004E+00
 -0.439649967004E+00
 -0.434832216093E+00
 -0.439649967004E+00
 -0.434832216093E+00
 -0.434832216093E+00
 -0.417643499114E+00
 -0.434832216093E+00
 -0.417643499114E+00
 -0.417643499114E+00
 -0.388153926342E+00
 -0.417643499114E+00
 -0.388153926342E+00
 -0.388153926342E+00
 -0.355227478398E+00
 -0.388153926342E+00
 -0.355227478398E+00
 -0.355227478398E+00
 -0.323880717224E+00
 -0.355227478398E+00
 -0.323880717224E+00
 -0.323880717224E+00
 -0.295850389182E+00
 -0.323880717224E+00
 -0.295850389182E+00
 -0.295850389182E+00
 -0.247705453155E+00
 -0.295850389182E+00
 -0.247705453155E+00
 -0.247705453155E+00
 -0.220983794475E+00
 -0.247705453155E+00
 -0.220983794475E+00
 -0.220983794475E+00
 -0.187972267468E+00
 -0.220983794475E+00
 -0.187972267468E+00
 -0.187972267468E+00
 -0.165112534795E+00
 -0.187972267468E+00
 -0.165112534795E+00
 -0.165112534795E+00
  0.000000000000E+00
 -0.165112534795E+00
  0.000000000000E+00
 -0.115916045710E+00
 -0.111613029554E+00
 -0.115916045710E+00
 -0.111613029554E+00
 -0.116254665835E+00
 -0.115916045710E+00
 -0.116254665835E+00
 -0.115916045710E+00
 -0.652809798381E-01
 -0.116254665835E+00
 -0.652809798381E-01
 -0.116254665835E+00
 -0.320589107287E-01
 -0.652809798381E-01
 -0.320589107287E-01
 -0.652809798381E-01
  0.211479260936E-01
 -0.320589107287E-01
  0.211479260936E-01
 -0.320589107287E-01
  0.171100827755E-01
  0.211479260936E-01
  0.171100827755E-01
  0.211479260936E-01
  0.566005571946E-01
  0.171100827755E-01
  0.566005571946E-01
  0.171100827755E-01
  0.195753823201E-01
 -0.259455479347E-01
  0.195753823201E-01
 -0.259455479347E-01
 -0.259455479347E-01
  0.566005571946E-01
 -0.259455479347E-01
  0.566005571946E-01
 -0.637348263760E-01
  0.195753823201E-01
 -0.637348263760E-01
  0.195753823201E-01
 -0.780720026485E-01
 -0.637348263760E-01
 -0.780720026485E-01
 -0.637348263760E-01
 -0.156406307800E+00
 -0.780720026485E-01
 -0.156406307800E+00
 -0.780720026485E-01
  0.000000000000E+00
 -0.156406307800E+00
  0.000000000000E+00
 -0.156406307800E+00
 -0.111613029554E+00
 -0.115916045723E+00
 -0.111613029554E+00
 -0.115916045723E+00
 -0.115916045723E+00
 -0.116254665843E+00
 -0.115916045723E+00
 -0.116254665843E+00
 -0.116254665843E+00
 -0.652809798329E-01
 -0.116254665843E+00
 -0.652809798329E-01
 -0.652809798329E-01
 -0.320589107334E-01
 -0.652809798329E-01
 -0.320589107334E-01
 -0.320589107334E-01
  0.211479260841E-01
 -0.320589107334E-01
  0.211479260841E-01
  0.211479260841E-01
  0.171100828055E-01
  0.211479260841E-01
  0.171100828055E-01
  0.171100828055E-01
  0.566005571745E-01
  0.171100828055E-01
  0.566005571745E-01
  0.566005571745E-01
 -0.259455479292E-01
  0.566005571745E-01
 -0.259455479292E-01
 -0.259455479292E-01
  0.195753822894E-01
 -0.259455479292E-01
  0.195753822894E-01
  0.195753822894E-01
 -0.637348263582E-01
  0.195753822894E-01
 -0.637348263582E-01
 -0.637348263582E-01
 -0.780720026645E-01
 -0.637348263582E-01
 -0.780720026645E-01
 -0.156406307795E+00
  0.000000000000E+00
 -0.156406307795E+00
  0.000000000000E+00
 -0.780720026645E-01
 -0.156406307795E+00
 -0.780720026645E-01
 -0.156406307795E+00
