# vtk DataFile Version 3.0
MachLine results file. Generated by MachLine, USU AeroLab (c) 2023.
ASCII
DATASET POLYDATA
POINTS                 400 float
  0.411094010770E+01  0.400000000000E+00  0.000000000000E+00
  0.400000000000E+01  0.000000000000E+00  0.000000000000E+00
  0.598029090942E+02  0.400000000000E+00  0.487241593576E+01
  0.598020663795E+02  0.000000000000E+00  0.488204820953E+01
  0.422188021540E+01  0.800000000000E+00  0.000000000000E+00
  0.411094010770E+01  0.400000000000E+00  0.000000000000E+00
  0.598037518090E+02  0.800000000000E+00  0.486278366199E+01
  0.598029090942E+02  0.400000000000E+00  0.487241593576E+01
  0.433282032300E+01  0.120000000000E+01  0.000000000000E+00
  0.422188021540E+01  0.800000000000E+00  0.000000000000E+00
  0.598045945238E+02  0.120000000000E+01  0.485315138824E+01
  0.598037518090E+02  0.800000000000E+00  0.486278366199E+01
  0.444376043070E+01  0.160000000000E+01  0.000000000000E+00
  0.433282032300E+01  0.120000000000E+01  0.000000000000E+00
  0.598054372385E+02  0.160000000000E+01  0.484351911447E+01
  0.598045945238E+02  0.120000000000E+01  0.485315138824E+01
  0.455470053840E+01  0.200000000000E+01  0.000000000000E+00
  0.444376043070E+01  0.160000000000E+01  0.000000000000E+00
  0.598062799533E+02  0.200000000000E+01  0.483388684070E+01
  0.598054372385E+02  0.160000000000E+01  0.484351911447E+01
  0.466564064610E+01  0.240000000000E+01  0.000000000000E+00
  0.455470053840E+01  0.200000000000E+01  0.000000000000E+00
  0.598071226680E+02  0.240000000000E+01  0.482425456694E+01
  0.598062799533E+02  0.200000000000E+01  0.483388684070E+01
  0.477658075370E+01  0.280000000000E+01  0.000000000000E+00
  0.466564064610E+01  0.240000000000E+01  0.000000000000E+00
  0.598079653828E+02  0.280000000000E+01  0.481462229318E+01
  0.598071226680E+02  0.240000000000E+01  0.482425456694E+01
  0.488752086140E+01  0.320000000000E+01  0.000000000000E+00
  0.477658075370E+01  0.280000000000E+01  0.000000000000E+00
  0.598088080975E+02  0.320000000000E+01  0.480499001941E+01
  0.598079653828E+02  0.280000000000E+01  0.481462229318E+01
  0.499846096910E+01  0.360000000000E+01  0.000000000000E+00
  0.488752086140E+01  0.320000000000E+01  0.000000000000E+00
  0.598096508123E+02  0.360000000000E+01  0.479535774565E+01
  0.598088080975E+02  0.320000000000E+01  0.480499001941E+01
  0.510940107680E+01  0.400000000000E+01  0.000000000000E+00
  0.499846096910E+01  0.360000000000E+01  0.000000000000E+00
  0.598104935271E+02  0.400000000000E+01  0.478572547188E+01
  0.598096508123E+02  0.360000000000E+01  0.479535774565E+01
  0.522034118440E+01  0.440000000000E+01  0.000000000000E+00
  0.510940107680E+01  0.400000000000E+01  0.000000000000E+00
  0.598113362418E+02  0.440000000000E+01  0.477609319812E+01
  0.598104935271E+02  0.400000000000E+01  0.478572547188E+01
  0.533128129210E+01  0.480000000000E+01  0.000000000000E+00
  0.522034118440E+01  0.440000000000E+01  0.000000000000E+00
  0.598121789566E+02  0.480000000000E+01  0.476646092436E+01
  0.598113362418E+02  0.440000000000E+01  0.477609319812E+01
  0.544222139980E+01  0.520000000000E+01  0.000000000000E+00
  0.533128129210E+01  0.480000000000E+01  0.000000000000E+00
  0.598130216713E+02  0.520000000000E+01  0.475682865059E+01
  0.598121789566E+02  0.480000000000E+01  0.476646092436E+01
  0.555316150750E+01  0.560000000000E+01  0.000000000000E+00
  0.544222139980E+01  0.520000000000E+01  0.000000000000E+00
  0.598138643861E+02  0.560000000000E+01  0.474719637683E+01
  0.598130216713E+02  0.520000000000E+01  0.475682865059E+01
  0.566410161510E+01  0.600000000000E+01  0.000000000000E+00
  0.555316150750E+01  0.560000000000E+01  0.000000000000E+00
  0.598147071009E+02  0.600000000000E+01  0.473756410307E+01
  0.598138643861E+02  0.560000000000E+01  0.474719637683E+01
  0.577504172280E+01  0.640000000000E+01  0.000000000000E+00
  0.566410161510E+01  0.600000000000E+01  0.000000000000E+00
  0.598155498156E+02  0.640000000000E+01  0.472793182930E+01
  0.598147071009E+02  0.600000000000E+01  0.473756410307E+01
  0.588598183050E+01  0.680000000000E+01  0.000000000000E+00
  0.577504172280E+01  0.640000000000E+01  0.000000000000E+00
  0.598163925304E+02  0.680000000000E+01  0.471829955554E+01
  0.598155498156E+02  0.640000000000E+01  0.472793182930E+01
  0.599692193820E+01  0.720000000000E+01  0.000000000000E+00
  0.588598183050E+01  0.680000000000E+01  0.000000000000E+00
  0.598172352451E+02  0.720000000000E+01  0.470866728177E+01
  0.598163925304E+02  0.680000000000E+01  0.471829955554E+01
  0.610786204580E+01  0.760000000000E+01  0.000000000000E+00
  0.599692193820E+01  0.720000000000E+01  0.000000000000E+00
  0.598180779599E+02  0.760000000000E+01  0.469903500801E+01
  0.598172352451E+02  0.720000000000E+01  0.470866728177E+01
  0.621880215350E+01  0.800000000000E+01  0.000000000000E+00
  0.610786204580E+01  0.760000000000E+01  0.000000000000E+00
  0.598189206746E+02  0.800000000000E+01  0.468940273425E+01
  0.598180779599E+02  0.760000000000E+01  0.469903500801E+01
  0.632974226120E+01  0.840000000000E+01  0.000000000000E+00
  0.621880215350E+01  0.800000000000E+01  0.000000000000E+00
  0.598197633894E+02  0.840000000000E+01  0.467977046048E+01
  0.598189206746E+02  0.800000000000E+01  0.468940273425E+01
  0.644068236890E+01  0.880000000000E+01  0.000000000000E+00
  0.632974226120E+01  0.840000000000E+01  0.000000000000E+00
  0.598206061042E+02  0.880000000000E+01  0.467013818671E+01
  0.598197633894E+02  0.840000000000E+01  0.467977046048E+01
  0.655162247650E+01  0.920000000000E+01  0.000000000000E+00
  0.644068236890E+01  0.880000000000E+01  0.000000000000E+00
  0.598214488189E+02  0.920000000000E+01  0.466050591296E+01
  0.598206061042E+02  0.880000000000E+01  0.467013818671E+01
  0.666256258420E+01  0.960000000000E+01  0.000000000000E+00
  0.655162247650E+01  0.920000000000E+01  0.000000000000E+00
  0.598222915337E+02  0.960000000000E+01  0.465087363919E+01
  0.598214488189E+02  0.920000000000E+01  0.466050591296E+01
  0.677350269190E+01  0.100000000000E+02  0.000000000000E+00
  0.666256258420E+01  0.960000000000E+01  0.000000000000E+00
  0.598231342484E+02  0.100000000000E+02  0.464124136542E+01
  0.598222915337E+02  0.960000000000E+01  0.465087363919E+01
  0.400000000000E+01  0.000000000000E+00  0.000000000000E+00
  0.411094010770E+01 -0.400000000000E+00  0.000000000000E+00
  0.598020663795E+02  0.000000000000E+00  0.488204820953E+01
  0.598029090942E+02 -0.400000000000E+00  0.487241593576E+01
  0.411094010770E+01 -0.400000000000E+00  0.000000000000E+00
  0.422188021540E+01 -0.800000000000E+00  0.000000000000E+00
  0.598029090942E+02 -0.400000000000E+00  0.487241593576E+01
  0.598037518090E+02 -0.800000000000E+00  0.486278366199E+01
  0.422188021540E+01 -0.800000000000E+00  0.000000000000E+00
  0.433282032300E+01 -0.120000000000E+01  0.000000000000E+00
  0.598037518090E+02 -0.800000000000E+00  0.486278366199E+01
  0.598045945238E+02 -0.120000000000E+01  0.485315138824E+01
  0.433282032300E+01 -0.120000000000E+01  0.000000000000E+00
  0.444376043070E+01 -0.160000000000E+01  0.000000000000E+00
  0.598045945238E+02 -0.120000000000E+01  0.485315138824E+01
  0.598054372385E+02 -0.160000000000E+01  0.484351911447E+01
  0.444376043070E+01 -0.160000000000E+01  0.000000000000E+00
  0.455470053840E+01 -0.200000000000E+01  0.000000000000E+00
  0.598054372385E+02 -0.160000000000E+01  0.484351911447E+01
  0.598062799533E+02 -0.200000000000E+01  0.483388684070E+01
  0.455470053840E+01 -0.200000000000E+01  0.000000000000E+00
  0.466564064610E+01 -0.240000000000E+01  0.000000000000E+00
  0.598062799533E+02 -0.200000000000E+01  0.483388684070E+01
  0.598071226680E+02 -0.240000000000E+01  0.482425456694E+01
  0.466564064610E+01 -0.240000000000E+01  0.000000000000E+00
  0.477658075370E+01 -0.280000000000E+01  0.000000000000E+00
  0.598071226680E+02 -0.240000000000E+01  0.482425456694E+01
  0.598079653828E+02 -0.280000000000E+01  0.481462229318E+01
  0.477658075370E+01 -0.280000000000E+01  0.000000000000E+00
  0.488752086140E+01 -0.320000000000E+01  0.000000000000E+00
  0.598079653828E+02 -0.280000000000E+01  0.481462229318E+01
  0.598088080975E+02 -0.320000000000E+01  0.480499001941E+01
  0.488752086140E+01 -0.320000000000E+01  0.000000000000E+00
  0.499846096910E+01 -0.360000000000E+01  0.000000000000E+00
  0.598088080975E+02 -0.320000000000E+01  0.480499001941E+01
  0.598096508123E+02 -0.360000000000E+01  0.479535774565E+01
  0.499846096910E+01 -0.360000000000E+01  0.000000000000E+00
  0.510940107680E+01 -0.400000000000E+01  0.000000000000E+00
  0.598096508123E+02 -0.360000000000E+01  0.479535774565E+01
  0.598104935271E+02 -0.400000000000E+01  0.478572547188E+01
  0.510940107680E+01 -0.400000000000E+01  0.000000000000E+00
  0.522034118440E+01 -0.440000000000E+01  0.000000000000E+00
  0.598104935271E+02 -0.400000000000E+01  0.478572547188E+01
  0.598113362418E+02 -0.440000000000E+01  0.477609319812E+01
  0.522034118440E+01 -0.440000000000E+01  0.000000000000E+00
  0.533128129210E+01 -0.480000000000E+01  0.000000000000E+00
  0.598113362418E+02 -0.440000000000E+01  0.477609319812E+01
  0.598121789566E+02 -0.480000000000E+01  0.476646092436E+01
  0.533128129210E+01 -0.480000000000E+01  0.000000000000E+00
  0.544222139980E+01 -0.520000000000E+01  0.000000000000E+00
  0.598121789566E+02 -0.480000000000E+01  0.476646092436E+01
  0.598130216713E+02 -0.520000000000E+01  0.475682865059E+01
  0.544222139980E+01 -0.520000000000E+01  0.000000000000E+00
  0.555316150750E+01 -0.560000000000E+01  0.000000000000E+00
  0.598130216713E+02 -0.520000000000E+01  0.475682865059E+01
  0.598138643861E+02 -0.560000000000E+01  0.474719637683E+01
  0.555316150750E+01 -0.560000000000E+01  0.000000000000E+00
  0.566410161510E+01 -0.600000000000E+01  0.000000000000E+00
  0.598138643861E+02 -0.560000000000E+01  0.474719637683E+01
  0.598147071009E+02 -0.600000000000E+01  0.473756410307E+01
  0.566410161510E+01 -0.600000000000E+01  0.000000000000E+00
[...]
POINT_DATA                 400
SCALARS mu float 1
LOOKUP_TABLE default
 -0.411495916333E+00
 -0.399587393980E+00
 -0.411495916333E+00
 -0.399587393980E+00
 -0.413515577139E+00
 -0.411495916333E+00
 -0.413515577139E+00
 -0.411495916333E+00
 -0.423031360812E+00
 -0.413515577139E+00
 -0.423031360812E+00
 -0.413515577139E+00
 -0.425160020998E+00
 -0.423031360812E+00
 -0.425160020998E+00
 -0.423031360812E+00
 -0.426414775770E+00
 -0.425160020998E+00
 -0.426414775770E+00
 -0.425160020998E+00
 -0.420619469595E+00
 -0.426414775770E+00
 -0.420619469595E+00
 -0.426414775770E+00
 -0.416424392565E+00
 -0.420619469595E+00
 -0.416424392565E+00
 -0.420619469595E+00
 -0.404193229725E+00
 -0.416424392565E+00
 -0.404193229725E+00
 -0.416424392565E+00
 -0.391680335531E+00
 -0.404193229725E+00
 -0.391680335531E+00
 -0.404193229725E+00
 -0.373512490015E+00
 -0.391680335531E+00
 -0.373512490015E+00
 -0.391680335531E+00
 -0.360814061890E+00
 -0.373512490015E+00
 -0.360814061890E+00
 -0.373512490015E+00
 -0.343281536542E+00
 -0.360814061890E+00
 -0.343281536542E+00
 -0.360814061890E+00
 -0.330273505719E+00
 -0.343281536542E+00
 -0.330273505719E+00
 -0.343281536542E+00
 -0.311738179168E+00
 -0.330273505719E+00
 -0.311738179168E+00
 -0.330273505719E+00
 -0.295986607232E+00
 -0.311738179168E+00
 -0.295986607232E+00
 -0.311738179168E+00
 -0.278444601954E+00
 -0.295986607232E+00
 -0.278444601954E+00
 -0.295986607232E+00
 -0.262125133008E+00
 -0.278444601954E+00
 -0.262125133008E+00
 -0.278444601954E+00
 -0.247574446957E+00
 -0.262125133008E+00
 -0.247574446957E+00
 -0.262125133008E+00
 -0.230224351375E+00
 -0.247574446957E+00
 -0.230224351375E+00
 -0.247574446957E+00
 -0.217181747171E+00
 -0.230224351375E+00
 -0.217181747171E+00
 -0.230224351375E+00
 -0.198785539988E+00
 -0.217181747171E+00
 -0.198785539988E+00
 -0.217181747171E+00
 -0.183873296819E+00
 -0.198785539988E+00
 -0.183873296819E+00
 -0.198785539988E+00
 -0.156645367612E+00
 -0.183873296819E+00
 -0.156645367612E+00
 -0.183873296819E+00
 -0.140978897199E+00
 -0.156645367612E+00
 -0.140978897199E+00
 -0.156645367612E+00
  0.000000000000E+00
 -0.140978897199E+00
  0.000000000000E+00
 -0.140978897199E+00
 -0.399587393980E+00
 -0.411495916322E+00
 -0.399587393980E+00
 -0.411495916322E+00
 -0.411495916322E+00
 -0.413515577140E+00
 -0.411495916322E+00
 -0.413515577140E+00
 -0.413515577140E+00
 -0.423031360806E+00
 -0.413515577140E+00
 -0.423031360806E+00
 -0.423031360806E+00
 -0.425160020980E+00
 -0.423031360806E+00
 -0.425160020980E+00
 -0.425160020980E+00
 -0.426414775776E+00
 -0.425160020980E+00
 -0.426414775776E+00
 -0.426414775776E+00
 -0.420619469598E+00
 -0.426414775776E+00
 -0.420619469598E+00
 -0.420619469598E+00
 -0.416424392559E+00
 -0.420619469598E+00
 -0.416424392559E+00
 -0.416424392559E+00
 -0.404193229738E+00
 -0.416424392559E+00
 -0.404193229738E+00
 -0.404193229738E+00
 -0.391680335561E+00
 -0.404193229738E+00
 -0.391680335561E+00
 -0.391680335561E+00
 -0.373512490038E+00
 -0.391680335561E+00
 -0.373512490038E+00
 -0.373512490038E+00
 -0.360814061885E+00
 -0.373512490038E+00
 -0.360814061885E+00
 -0.360814061885E+00
 -0.343281536518E+00
 -0.360814061885E+00
 -0.343281536518E+00
 -0.343281536518E+00
 -0.330273505689E+00
 -0.343281536518E+00
 -0.330273505689E+00
 -0.330273505689E+00
 -0.311738179189E+00
 -0.330273505689E+00
 -0.311738179189E+00
 -0.311738179189E+00
 -0.295986607160E+00
 -0.311738179189E+00
 -0.295986607160E+00
 -0.295986607160E+00
 -0.278444602085E+00
 -0.295986607160E+00
 -0.278444602085E+00
 -0.278444602085E+00
 -0.262125132481E+00
 -0.278444602085E+00
 -0.262125132481E+00
 -0.262125132481E+00
 -0.247574445618E+00
 -0.262125132481E+00
 -0.247574445618E+00
 -0.247574445618E+00
 -0.230224362976E+00
 -0.247574445618E+00
 -0.230224362976E+00
 -0.230224362976E+00
 -0.217181801809E+00
 -0.230224362976E+00
 -0.217181801809E+00
 -0.217181801809E+00
 -0.198785546110E+00
 -0.217181801809E+00
 -0.198785546110E+00
 -0.198785546110E+00
 -0.183873289161E+00
 -0.198785546110E+00
 -0.183873289161E+00
 -0.183873289161E+00
 -0.156645362910E+00
 -0.183873289161E+00
 -0.156645362910E+00
 -0.156645362910E+00
 -0.140978851021E+00
 -0.156645362910E+00
 -0.140978851021E+00
 -0.140978851021E+00
  0.000000000000E+00
 -0.140978851021E+00
  0.000000000000E+00
 -0.830504525426E-01
 -0.647281235672E-01
 -0.830504525426E-01
 -0.647281235672E-01
 -0.905708882386E-01
 -0.830504525426E-01
 -0.905708882386E-01
 -0.830504525426E-01
 -0.926913847175E-01
 -0.905708882386E-01
 -0.926913847175E-01
 -0.905708882386E-01
 -0.923928400411E-01
 -0.926913847175E-01
 -0.923928400411E-01
 -0.926913847175E-01
 -0.942000513898E-01
 -0.923928400411E-01
 -0.942000513898E-01
 -0.923928400411E-01
 -0.713546390680E-01
 -0.942000513898E-01
 -0.713546390680E-01
 -0.942000513898E-01
 -0.497653641300E-01
 -0.713546390680E-01
 -0.497653641300E-01
 -0.713546390680E-01
 -0.386284764255E-01
 -0.497653641300E-01
 -0.386284764255E-01
 -0.497653641300E-01
 -0.156976629806E-01
 -0.386284764255E-01
 -0.156976629806E-01
 -0.386284764255E-01
 -0.334425024159E-02
 -0.156976629806E-01
 -0.334425024159E-02
 -0.156976629806E-01
  0.995392147181E-02
 -0.334425024159E-02
  0.995392147181E-02
 -0.334425024159E-02
  0.132100239234E-01
  0.995392147181E-02
  0.132100239234E-01
  0.995392147181E-02
 -0.374731872323E-02
  0.132100239234E-01
 -0.374731872323E-02
  0.132100239234E-01
 -0.314552384698E-01
 -0.374731872323E-02
 -0.314552384698E-01
 -0.374731872323E-02
 -0.418385574469E-01
 -0.314552384698E-01
 -0.418385574469E-01
 -0.314552384698E-01
 -0.157503139457E-02
 -0.418385574469E-01
 -0.157503139457E-02
 -0.418385574469E-01
 -0.826175001260E-02
 -0.157503139457E-02
 -0.826175001260E-02
 -0.157503139457E-02
  0.473469143116E-03
 -0.826175001260E-02
  0.473469143116E-03
 -0.826175001260E-02
 -0.196684107155E-02
  0.473469143116E-03
 -0.196684107155E-02
  0.473469143116E-03
  0.151406717057E-01
 -0.196684107155E-02
  0.151406717057E-01
 -0.196684107155E-02
 -0.591879013655E-01
  0.151406717057E-01
 -0.591879013655E-01
  0.151406717057E-01
 -0.746587984494E-01
 -0.591879013655E-01
 -0.746587984494E-01
 -0.591879013655E-01
 -0.989609373434E-01
 -0.746587984494E-01
 -0.989609373434E-01
 -0.746587984494E-01
 -0.115370828401E+00
 -0.989609373434E-01
 -0.115370828401E+00
 -0.989609373434E-01
  0.000000000000E+00
 -0.115370828401E+00
  0.000000000000E+00
 -0.115370828401E+00
 -0.647281235672E-01
 -0.830504525396E-01
 -0.647281235672E-01
 -0.830504525396E-01
 -0.830504525396E-01
 -0.905708882568E-01
 -0.830504525396E-01
 -0.905708882568E-01
 -0.905708882568E-01
 -0.926913846612E-01
 -0.905708882568E-01
 -0.926913846612E-01
 -0.926913846612E-01
 -0.923928400529E-01
 -0.926913846612E-01
 -0.923928400529E-01
 -0.923928400529E-01
 -0.942000516817E-01
 -0.923928400529E-01
 -0.942000516817E-01
 -0.942000516817E-01
 -0.713546387937E-01
 -0.942000516817E-01
 -0.713546387937E-01
 -0.713546387937E-01
 -0.497653642124E-01
 -0.713546387937E-01
 -0.497653642124E-01
 -0.497653642124E-01
 -0.386284764251E-01
 -0.497653642124E-01
 -0.386284764251E-01
 -0.386284764251E-01
 -0.156976633878E-01
 -0.386284764251E-01
 -0.156976633878E-01
 -0.156976633878E-01
 -0.334424944403E-02
 -0.156976633878E-01
 -0.334424944403E-02
 -0.334424944403E-02
  0.995392309209E-02
 -0.334424944403E-02
  0.995392309209E-02
  0.995392309209E-02
  0.132100239258E-01
  0.995392309209E-02
  0.132100239258E-01
  0.132100239258E-01
 -0.374732556194E-02
  0.132100239258E-01
 -0.374732556194E-02
 -0.374732556194E-02
 -0.314552343770E-01
 -0.374732556194E-02
 -0.314552343770E-01
 -0.314552343770E-01
 -0.418385535227E-01
 -0.314552343770E-01
 -0.418385535227E-01
 -0.418385535227E-01
 -0.157501558850E-02
 -0.418385535227E-01
 -0.157501558850E-02
 -0.157501558850E-02
 -0.826173434821E-02
 -0.157501558850E-02
 -0.826173434821E-02
 -0.826173434821E-02
  0.473460063719E-03
 -0.826173434821E-02
  0.473460063719E-03
  0.473460063719E-03
 -0.196683693852E-02
  0.473460063719E-03
 -0.196683693852E-02
 -0.196683693852E-02
  0.151406719868E-01
 -0.196683693852E-02
  0.151406719868E-01
  0.151406719868E-01
 -0.591879240209E-01
  0.151406719868E-01
 -0.591879240209E-01
 -0.591879240209E-01
 -0.746587824814E-01
 -0.591879240209E-01
 -0.746587824814E-01
 -0.746587824814E-01
 -0.989609318449E-01
 -0.746587824814E-01
 -0.989609318449E-01
 -0.989609318449E-01
 -0.115370863889E+00
 -0.989609318449E-01
 -0.115370863889E+00
 -0.115370863889E+00
  0.000000000000E+00
 -0.115370863889E+00
  0.000000000000E+00
