# vtk DataFile Version 3.0
MachLine results file. Generated by MachLine, USU AeroLab (c) 2023.
ASCII
DATASET POLYDATA
POINTS                 304 float
  0.414597382590E+01  0.526315789470E+00  0.000000000000E+00
  0.400000000000E+01  0.000000000000E+00  0.000000000000E+00
  0.598031752147E+02  0.526315789470E+00  0.486937416510E+01
  0.598020663795E+02  0.000000000000E+00  0.488204820953E+01
  0.429194765180E+01  0.105263157890E+01  0.000000000000E+00
  0.414597382590E+01  0.526315789470E+00  0.000000000000E+00
  0.598042840499E+02  0.105263157890E+01  0.485670012067E+01
  0.598031752147E+02  0.526315789470E+00  0.486937416510E+01
  0.443792147770E+01  0.157894736840E+01  0.000000000000E+00
  0.429194765180E+01  0.105263157890E+01  0.000000000000E+00
  0.598053928851E+02  0.157894736840E+01  0.484402607624E+01
  0.598042840499E+02  0.105263157890E+01  0.485670012067E+01
  0.458389530360E+01  0.210526315790E+01  0.000000000000E+00
  0.443792147770E+01  0.157894736840E+01  0.000000000000E+00
  0.598065017203E+02  0.210526315790E+01  0.483135203182E+01
  0.598053928851E+02  0.157894736840E+01  0.484402607624E+01
  0.472986912940E+01  0.263157894740E+01  0.000000000000E+00
  0.458389530360E+01  0.210526315790E+01  0.000000000000E+00
  0.598076105555E+02  0.263157894740E+01  0.481867798740E+01
  0.598065017203E+02  0.210526315790E+01  0.483135203182E+01
  0.487584295530E+01  0.315789473680E+01  0.000000000000E+00
  0.472986912940E+01  0.263157894740E+01  0.000000000000E+00
  0.598087193907E+02  0.315789473680E+01  0.480600394297E+01
  0.598076105555E+02  0.263157894740E+01  0.481867798740E+01
  0.502181678120E+01  0.368421052630E+01  0.000000000000E+00
  0.487584295530E+01  0.315789473680E+01  0.000000000000E+00
  0.598098282259E+02  0.368421052630E+01  0.479332989854E+01
  0.598087193907E+02  0.315789473680E+01  0.480600394297E+01
  0.516779060710E+01  0.421052631580E+01  0.000000000000E+00
  0.502181678120E+01  0.368421052630E+01  0.000000000000E+00
  0.598109370611E+02  0.421052631580E+01  0.478065585412E+01
  0.598098282259E+02  0.368421052630E+01  0.479332989854E+01
  0.531376443300E+01  0.473684210530E+01  0.000000000000E+00
  0.516779060710E+01  0.421052631580E+01  0.000000000000E+00
  0.598120458964E+02  0.473684210530E+01  0.476798180969E+01
  0.598109370611E+02  0.421052631580E+01  0.478065585412E+01
  0.545973825890E+01  0.526315789470E+01  0.000000000000E+00
  0.531376443300E+01  0.473684210530E+01  0.000000000000E+00
  0.598131547316E+02  0.526315789470E+01  0.475530776526E+01
  0.598120458964E+02  0.473684210530E+01  0.476798180969E+01
  0.560571208480E+01  0.578947368420E+01  0.000000000000E+00
  0.545973825890E+01  0.526315789470E+01  0.000000000000E+00
  0.598142635668E+02  0.578947368420E+01  0.474263372083E+01
  0.598131547316E+02  0.526315789470E+01  0.475530776526E+01
  0.575168591070E+01  0.631578947370E+01  0.000000000000E+00
  0.560571208480E+01  0.578947368420E+01  0.000000000000E+00
  0.598153724020E+02  0.631578947370E+01  0.472995967641E+01
  0.598142635668E+02  0.578947368420E+01  0.474263372083E+01
  0.589765973660E+01  0.684210526320E+01  0.000000000000E+00
  0.575168591070E+01  0.631578947370E+01  0.000000000000E+00
  0.598164812372E+02  0.684210526320E+01  0.471728563198E+01
  0.598153724020E+02  0.631578947370E+01  0.472995967641E+01
  0.604363356240E+01  0.736842105260E+01  0.000000000000E+00
  0.589765973660E+01  0.684210526320E+01  0.000000000000E+00
  0.598175900724E+02  0.736842105260E+01  0.470461158756E+01
  0.598164812372E+02  0.684210526320E+01  0.471728563198E+01
  0.618960738830E+01  0.789473684210E+01  0.000000000000E+00
  0.604363356240E+01  0.736842105260E+01  0.000000000000E+00
  0.598186989076E+02  0.789473684210E+01  0.469193754313E+01
  0.598175900724E+02  0.736842105260E+01  0.470461158756E+01
  0.633558121420E+01  0.842105263160E+01  0.000000000000E+00
  0.618960738830E+01  0.789473684210E+01  0.000000000000E+00
  0.598198077428E+02  0.842105263160E+01  0.467926349871E+01
  0.598186989076E+02  0.789473684210E+01  0.469193754313E+01
  0.648155504010E+01  0.894736842110E+01  0.000000000000E+00
  0.633558121420E+01  0.842105263160E+01  0.000000000000E+00
  0.598209165780E+02  0.894736842110E+01  0.466658945428E+01
  0.598198077428E+02  0.842105263160E+01  0.467926349871E+01
  0.662752886600E+01  0.947368421050E+01  0.000000000000E+00
  0.648155504010E+01  0.894736842110E+01  0.000000000000E+00
  0.598220254132E+02  0.947368421050E+01  0.465391540985E+01
  0.598209165780E+02  0.894736842110E+01  0.466658945428E+01
  0.677350269190E+01  0.100000000000E+02  0.000000000000E+00
  0.662752886600E+01  0.947368421050E+01  0.000000000000E+00
  0.598231342484E+02  0.100000000000E+02  0.464124136542E+01
  0.598220254132E+02  0.947368421050E+01  0.465391540985E+01
  0.400000000000E+01  0.000000000000E+00  0.000000000000E+00
  0.414597382590E+01 -0.526315789470E+00  0.000000000000E+00
  0.598020663795E+02  0.000000000000E+00  0.488204820953E+01
  0.598031752147E+02 -0.526315789470E+00  0.486937416510E+01
  0.414597382590E+01 -0.526315789470E+00  0.000000000000E+00
  0.429194765180E+01 -0.105263157890E+01  0.000000000000E+00
  0.598031752147E+02 -0.526315789470E+00  0.486937416510E+01
  0.598042840499E+02 -0.105263157890E+01  0.485670012067E+01
  0.429194765180E+01 -0.105263157890E+01  0.000000000000E+00
  0.443792147770E+01 -0.157894736840E+01  0.000000000000E+00
  0.598042840499E+02 -0.105263157890E+01  0.485670012067E+01
  0.598053928851E+02 -0.157894736840E+01  0.484402607624E+01
  0.443792147770E+01 -0.157894736840E+01  0.000000000000E+00
  0.458389530360E+01 -0.210526315790E+01  0.000000000000E+00
  0.598053928851E+02 -0.157894736840E+01  0.484402607624E+01
  0.598065017203E+02 -0.210526315790E+01  0.483135203182E+01
  0.458389530360E+01 -0.210526315790E+01  0.000000000000E+00
  0.472986912940E+01 -0.263157894740E+01  0.000000000000E+00
  0.598065017203E+02 -0.210526315790E+01  0.483135203182E+01
  0.598076105555E+02 -0.263157894740E+01  0.481867798740E+01
  0.472986912940E+01 -0.263157894740E+01  0.000000000000E+00
  0.487584295530E+01 -0.315789473680E+01  0.000000000000E+00
  0.598076105555E+02 -0.263157894740E+01  0.481867798740E+01
  0.598087193907E+02 -0.315789473680E+01  0.480600394297E+01
  0.487584295530E+01 -0.315789473680E+01  0.000000000000E+00
  0.502181678120E+01 -0.368421052630E+01  0.000000000000E+00
  0.598087193907E+02 -0.315789473680E+01  0.480600394297E+01
  0.598098282259E+02 -0.368421052630E+01  0.479332989854E+01
  0.502181678120E+01 -0.368421052630E+01  0.000000000000E+00
  0.516779060710E+01 -0.421052631580E+01  0.000000000000E+00
  0.598098282259E+02 -0.368421052630E+01  0.479332989854E+01
  0.598109370611E+02 -0.421052631580E+01  0.478065585412E+01
  0.516779060710E+01 -0.421052631580E+01  0.000000000000E+00
  0.531376443300E+01 -0.473684210530E+01  0.000000000000E+00
  0.598109370611E+02 -0.421052631580E+01  0.478065585412E+01
  0.598120458964E+02 -0.473684210530E+01  0.476798180969E+01
  0.531376443300E+01 -0.473684210530E+01  0.000000000000E+00
  0.545973825890E+01 -0.526315789470E+01  0.000000000000E+00
  0.598120458964E+02 -0.473684210530E+01  0.476798180969E+01
  0.598131547316E+02 -0.526315789470E+01  0.475530776526E+01
  0.545973825890E+01 -0.526315789470E+01  0.000000000000E+00
  0.560571208480E+01 -0.578947368420E+01  0.000000000000E+00
  0.598131547316E+02 -0.526315789470E+01  0.475530776526E+01
  0.598142635668E+02 -0.578947368420E+01  0.474263372083E+01
  0.560571208480E+01 -0.578947368420E+01  0.000000000000E+00
  0.575168591070E+01 -0.631578947370E+01  0.000000000000E+00
  0.598142635668E+02 -0.578947368420E+01  0.474263372083E+01
  0.598153724020E+02 -0.631578947370E+01  0.472995967641E+01
  0.575168591070E+01 -0.631578947370E+01  0.000000000000E+00
  0.589765973660E+01 -0.684210526320E+01  0.000000000000E+00
  0.598153724020E+02 -0.631578947370E+01  0.472995967641E+01
  0.598164812372E+02 -0.684210526320E+01  0.471728563198E+01
  0.589765973660E+01 -0.684210526320E+01  0.000000000000E+00
  0.604363356240E+01 -0.736842105260E+01  0.000000000000E+00
  0.598164812372E+02 -0.684210526320E+01  0.471728563198E+01
  0.598175900724E+02 -0.736842105260E+01  0.470461158756E+01
  0.604363356240E+01 -0.736842105260E+01  0.000000000000E+00
  0.618960738830E+01 -0.789473684210E+01  0.000000000000E+00
  0.598175900724E+02 -0.736842105260E+01  0.470461158756E+01
  0.598186989076E+02 -0.789473684210E+01  0.469193754313E+01
  0.618960738830E+01 -0.789473684210E+01  0.000000000000E+00
  0.633558121420E+01 -0.842105263160E+01  0.000000000000E+00
  0.598186989076E+02 -0.789473684210E+01  0.469193754313E+01
  0.598198077428E+02 -0.842105263160E+01  0.467926349871E+01
  0.633558121420E+01 -0.842105263160E+01  0.000000000000E+00
  0.648155504010E+01 -0.894736842110E+01  0.000000000000E+00
  0.598198077428E+02 -0.842105263160E+01  0.467926349871E+01
  0.598209165780E+02 -0.894736842110E+01  0.466658945428E+01
  0.648155504010E+01 -0.894736842110E+01  0.000000000000E+00
  0.662752886600E+01 -0.947368421050E+01  0.000000000000E+00
  0.598209165780E+02 -0.894736842110E+01  0.466658945428E+01
  0.598220254132E+02 -0.947368421050E+01  0.465391540985E+01
  0.662752886600E+01 -0.947368421050E+01  0.000000000000E+00
  0.677350269190E+01 -0.100000000000E+02  0.000000000000E+00
  0.598220254132E+02 -0.947368421050E+01  0.465391540985E+01
  0.598231342484E+02 -0.100000000000E+02  0.464124136542E+01
  0.689597382590E+01  0.526315789470E+00 -0.250000000000E+01
  0.675000000000E+01  0.000000000000E+00 -0.250000000000E+01
  0.600411247764E+02  0.526315789470E+00  0.214959822954E+01
  0.600400159412E+02  0.000000000000E+00  0.216227227397E+01
  0.704194765180E+01  0.105263157890E+01 -0.250000000000E+01
  0.689597382590E+01  0.526315789470E+00 -0.250000000000E+01
  0.600422336116E+02  0.105263157890E+01  0.213692418511E+01
  0.600411247764E+02  0.526315789470E+00  0.214959822954E+01
  0.718792147770E+01  0.157894736840E+01 -0.250000000000E+01
[...]
POINT_DATA                 304
SCALARS mu float 1
LOOKUP_TABLE default
 -0.105747195653E+00
 -0.189813184612E+00
 -0.105747195653E+00
 -0.189813184612E+00
 -0.270231250441E+00
 -0.105747195653E+00
 -0.270231250441E+00
 -0.105747195653E+00
 -0.223945246347E+00
 -0.270231250441E+00
 -0.223945246347E+00
 -0.270231250441E+00
 -0.180400496120E+00
 -0.223945246347E+00
 -0.180400496120E+00
 -0.223945246347E+00
 -0.251838511046E+00
 -0.180400496120E+00
 -0.251838511046E+00
 -0.180400496120E+00
 -0.222677129282E+00
 -0.251838511046E+00
 -0.222677129282E+00
 -0.251838511046E+00
 -0.202330304156E+00
 -0.222677129282E+00
 -0.202330304156E+00
 -0.222677129282E+00
 -0.228112507028E+00
 -0.202330304156E+00
 -0.228112507028E+00
 -0.202330304156E+00
 -0.202192818036E+00
 -0.228112507028E+00
 -0.202192818036E+00
 -0.228112507028E+00
 -0.193240127266E+00
 -0.202192818036E+00
 -0.193240127266E+00
 -0.202192818036E+00
 -0.193777500155E+00
 -0.193240127266E+00
 -0.193777500155E+00
 -0.193240127266E+00
 -0.171266941653E+00
 -0.193777500155E+00
 -0.171266941653E+00
 -0.193777500155E+00
 -0.166005461103E+00
 -0.171266941653E+00
 -0.166005461103E+00
 -0.171266941653E+00
 -0.151934275580E+00
 -0.166005461103E+00
 -0.151934275580E+00
 -0.166005461103E+00
 -0.131763213644E+00
 -0.151934275580E+00
 -0.131763213644E+00
 -0.151934275580E+00
 -0.135935263811E+00
 -0.131763213644E+00
 -0.135935263811E+00
 -0.131763213644E+00
 -0.784014735225E-01
 -0.135935263811E+00
 -0.784014735225E-01
 -0.135935263811E+00
 -0.120408998574E+00
 -0.784014735225E-01
 -0.120408998574E+00
 -0.784014735225E-01
  0.000000000000E+00
 -0.120408998574E+00
  0.000000000000E+00
 -0.120408998574E+00
 -0.189813184612E+00
 -0.105747204003E+00
 -0.189813184612E+00
 -0.105747204003E+00
 -0.105747204003E+00
 -0.270231261979E+00
 -0.105747204003E+00
 -0.270231261979E+00
 -0.270231261979E+00
 -0.223945228350E+00
 -0.270231261979E+00
 -0.223945228350E+00
 -0.223945228350E+00
 -0.180400520060E+00
 -0.223945228350E+00
 -0.180400520060E+00
 -0.180400520060E+00
 -0.251838561532E+00
 -0.180400520060E+00
 -0.251838561532E+00
 -0.251838561532E+00
 -0.222677099270E+00
 -0.251838561532E+00
 -0.222677099270E+00
 -0.222677099270E+00
 -0.202330303542E+00
 -0.222677099270E+00
 -0.202330303542E+00
 -0.202330303542E+00
 -0.228112509604E+00
 -0.202330303542E+00
 -0.228112509604E+00
 -0.228112509604E+00
 -0.202192810148E+00
 -0.228112509604E+00
 -0.202192810148E+00
 -0.202192810148E+00
 -0.193240143205E+00
 -0.202192810148E+00
 -0.193240143205E+00
 -0.193240143205E+00
 -0.193777499606E+00
 -0.193240143205E+00
 -0.193777499606E+00
 -0.193777499606E+00
 -0.171266930801E+00
 -0.193777499606E+00
 -0.171266930801E+00
 -0.171266930801E+00
 -0.166005478487E+00
 -0.171266930801E+00
 -0.166005478487E+00
 -0.166005478487E+00
 -0.151934313721E+00
 -0.166005478487E+00
 -0.151934313721E+00
 -0.151934313721E+00
 -0.131763239550E+00
 -0.151934313721E+00
 -0.131763239550E+00
 -0.131763239550E+00
 -0.135935299722E+00
 -0.131763239550E+00
 -0.135935299722E+00
 -0.135935299722E+00
 -0.784014810805E-01
 -0.135935299722E+00
 -0.784014810805E-01
 -0.784014810805E-01
 -0.120408990124E+00
 -0.784014810805E-01
 -0.120408990124E+00
 -0.120408990124E+00
  0.000000000000E+00
 -0.120408990124E+00
  0.000000000000E+00
  0.433752225713E+00
  0.254264400814E+00
  0.433752225713E+00
  0.254264400814E+00
  0.116616133868E+00
  0.433752225713E+00
  0.116616133868E+00
  0.433752225713E+00
  0.183825930595E+00
  0.116616133868E+00
  0.183825930595E+00
  0.116616133868E+00
  0.262326160611E+00
  0.183825930595E+00
  0.262326160611E+00
  0.183825930595E+00
  0.111696554203E+00
  0.262326160611E+00
  0.111696554203E+00
  0.262326160611E+00
  0.136704701698E+00
  0.111696554203E+00
  0.136704701698E+00
  0.111696554203E+00
  0.155375382960E+00
  0.136704701698E+00
  0.155375382960E+00
  0.136704701698E+00
  0.790576481272E-01
  0.155375382960E+00
  0.790576481272E-01
  0.155375382960E+00
  0.910973619747E-01
  0.790576481272E-01
  0.910973619747E-01
  0.790576481272E-01
  0.793857589780E-01
  0.910973619747E-01
  0.793857589780E-01
  0.910973619747E-01
  0.422787625107E-01
  0.793857589780E-01
  0.422787625107E-01
  0.793857589780E-01
  0.445954680637E-01
  0.422787625107E-01
  0.445954680637E-01
  0.422787625107E-01
  0.221674363502E-01
  0.445954680637E-01
  0.221674363502E-01
  0.445954680637E-01
  0.711495059575E-02
  0.221674363502E-01
  0.711495059575E-02
  0.221674363502E-01
  0.141903201815E-02
  0.711495059575E-02
  0.141903201815E-02
  0.711495059575E-02
 -0.288452179617E-01
  0.141903201815E-02
 -0.288452179617E-01
  0.141903201815E-02
 -0.458662873189E-02
 -0.288452179617E-01
 -0.458662873189E-02
 -0.288452179617E-01
 -0.641216554577E-01
 -0.458662873189E-02
 -0.641216554577E-01
 -0.458662873189E-02
  0.000000000000E+00
 -0.641216554577E-01
  0.000000000000E+00
 -0.641216554577E-01
  0.254264400814E+00
  0.433752227444E+00
  0.254264400814E+00
  0.433752227444E+00
  0.433752227444E+00
  0.116616119435E+00
  0.433752227444E+00
  0.116616119435E+00
  0.116616119435E+00
  0.183825937597E+00
  0.116616119435E+00
  0.183825937597E+00
  0.183825937597E+00
  0.262326168736E+00
  0.183825937597E+00
  0.262326168736E+00
  0.262326168736E+00
  0.111696544201E+00
  0.262326168736E+00
  0.111696544201E+00
  0.111696544201E+00
  0.136704715358E+00
  0.111696544201E+00
  0.136704715358E+00
  0.136704715358E+00
  0.155375375332E+00
  0.136704715358E+00
  0.155375375332E+00
  0.155375375332E+00
  0.790576698315E-01
  0.155375375332E+00
  0.790576698315E-01
  0.790576698315E-01
  0.910973520315E-01
  0.790576698315E-01
  0.910973520315E-01
  0.910973520315E-01
  0.793857439985E-01
  0.910973520315E-01
  0.793857439985E-01
  0.793857439985E-01
  0.422787664720E-01
  0.793857439985E-01
  0.422787664720E-01
  0.422787664720E-01
  0.445954583212E-01
  0.422787664720E-01
  0.445954583212E-01
  0.445954583212E-01
  0.221674463624E-01
  0.445954583212E-01
  0.221674463624E-01
  0.221674463624E-01
  0.711495875930E-02
  0.221674463624E-01
  0.711495875930E-02
  0.711495875930E-02
  0.141904734872E-02
  0.711495875930E-02
  0.141904734872E-02
  0.141904734872E-02
 -0.288452416446E-01
  0.141904734872E-02
 -0.288452416446E-01
 -0.288452416446E-01
 -0.458664403061E-02
 -0.288452416446E-01
 -0.458664403061E-02
 -0.458664403061E-02
 -0.641216461957E-01
 -0.458664403061E-02
 -0.641216461957E-01
 -0.641216461957E-01
  0.000000000000E+00
 -0.641216461957E-01
  0.000000000000E+00
