# vtk DataFile Version 3.0
MachLine results file. Generated by MachLine, USU AeroLab (c) 2023.
ASCII
DATASET POLYDATA
POINTS                 464 float
  0.409563802390E+01  0.344827586210E+00  0.000000000000E+00
  0.400000000000E+01  0.000000000000E+00  0.000000000000E+00
  0.598027928577E+02  0.344827586210E+00  0.487374452524E+01
  0.598020663795E+02  0.000000000000E+00  0.488204820953E+01
  0.419127604770E+01  0.689655172410E+00  0.000000000000E+00
  0.409563802390E+01  0.344827586210E+00  0.000000000000E+00
  0.598035193360E+02  0.689655172410E+00  0.486544084097E+01
  0.598027928577E+02  0.344827586210E+00  0.487374452524E+01
  0.428691407160E+01  0.103448275860E+01  0.000000000000E+00
  0.419127604770E+01  0.689655172410E+00  0.000000000000E+00
  0.598042458142E+02  0.103448275860E+01  0.485713715669E+01
  0.598035193360E+02  0.689655172410E+00  0.486544084097E+01
  0.438255209540E+01  0.137931034480E+01  0.000000000000E+00
  0.428691407160E+01  0.103448275860E+01  0.000000000000E+00
  0.598049722924E+02  0.137931034480E+01  0.484883347241E+01
  0.598042458142E+02  0.103448275860E+01  0.485713715669E+01
  0.447819011930E+01  0.172413793100E+01  0.000000000000E+00
  0.438255209540E+01  0.137931034480E+01  0.000000000000E+00
  0.598056987707E+02  0.172413793100E+01  0.484052978813E+01
  0.598049722924E+02  0.137931034480E+01  0.484883347241E+01
  0.457382814320E+01  0.206896551720E+01  0.000000000000E+00
  0.447819011930E+01  0.172413793100E+01  0.000000000000E+00
  0.598064252489E+02  0.206896551720E+01  0.483222610385E+01
  0.598056987707E+02  0.172413793100E+01  0.484052978813E+01
  0.466946616700E+01  0.241379310340E+01  0.000000000000E+00
  0.457382814320E+01  0.206896551720E+01  0.000000000000E+00
  0.598071517272E+02  0.241379310340E+01  0.482392241957E+01
  0.598064252489E+02  0.206896551720E+01  0.483222610385E+01
  0.476510419090E+01  0.275862068970E+01  0.000000000000E+00
  0.466946616700E+01  0.241379310340E+01  0.000000000000E+00
  0.598078782054E+02  0.275862068970E+01  0.481561873529E+01
  0.598071517272E+02  0.241379310340E+01  0.482392241957E+01
  0.486074221470E+01  0.310344827590E+01  0.000000000000E+00
  0.476510419090E+01  0.275862068970E+01  0.000000000000E+00
  0.598086046836E+02  0.310344827590E+01  0.480731505101E+01
  0.598078782054E+02  0.275862068970E+01  0.481561873529E+01
  0.495638023860E+01  0.344827586210E+01  0.000000000000E+00
  0.486074221470E+01  0.310344827590E+01  0.000000000000E+00
  0.598093311619E+02  0.344827586210E+01  0.479901136673E+01
  0.598086046836E+02  0.310344827590E+01  0.480731505101E+01
  0.505201826240E+01  0.379310344830E+01  0.000000000000E+00
  0.495638023860E+01  0.344827586210E+01  0.000000000000E+00
  0.598100576401E+02  0.379310344830E+01  0.479070768246E+01
  0.598093311619E+02  0.344827586210E+01  0.479901136673E+01
  0.514765628630E+01  0.413793103450E+01  0.000000000000E+00
  0.505201826240E+01  0.379310344830E+01  0.000000000000E+00
  0.598107841184E+02  0.413793103450E+01  0.478240399817E+01
  0.598100576401E+02  0.379310344830E+01  0.479070768246E+01
  0.524329431020E+01  0.448275862070E+01  0.000000000000E+00
  0.514765628630E+01  0.413793103450E+01  0.000000000000E+00
  0.598115105966E+02  0.448275862070E+01  0.477410031389E+01
  0.598107841184E+02  0.413793103450E+01  0.478240399817E+01
  0.533893233400E+01  0.482758620690E+01  0.000000000000E+00
  0.524329431020E+01  0.448275862070E+01  0.000000000000E+00
  0.598122370748E+02  0.482758620690E+01  0.476579662962E+01
  0.598115105966E+02  0.448275862070E+01  0.477410031389E+01
  0.543457035790E+01  0.517241379310E+01  0.000000000000E+00
  0.533893233400E+01  0.482758620690E+01  0.000000000000E+00
  0.598129635531E+02  0.517241379310E+01  0.475749294533E+01
  0.598122370748E+02  0.482758620690E+01  0.476579662962E+01
  0.553020838170E+01  0.551724137930E+01  0.000000000000E+00
  0.543457035790E+01  0.517241379310E+01  0.000000000000E+00
  0.598136900313E+02  0.551724137930E+01  0.474918926106E+01
  0.598129635531E+02  0.517241379310E+01  0.475749294533E+01
  0.562584640560E+01  0.586206896550E+01  0.000000000000E+00
  0.553020838170E+01  0.551724137930E+01  0.000000000000E+00
  0.598144165096E+02  0.586206896550E+01  0.474088557678E+01
  0.598136900313E+02  0.551724137930E+01  0.474918926106E+01
  0.572148442950E+01  0.620689655170E+01  0.000000000000E+00
  0.562584640560E+01  0.586206896550E+01  0.000000000000E+00
  0.598151429878E+02  0.620689655170E+01  0.473258189249E+01
  0.598144165096E+02  0.586206896550E+01  0.474088557678E+01
  0.581712245330E+01  0.655172413790E+01  0.000000000000E+00
  0.572148442950E+01  0.620689655170E+01  0.000000000000E+00
  0.598158694660E+02  0.655172413790E+01  0.472427820822E+01
  0.598151429878E+02  0.620689655170E+01  0.473258189249E+01
  0.591276047720E+01  0.689655172410E+01  0.000000000000E+00
  0.581712245330E+01  0.655172413790E+01  0.000000000000E+00
  0.598165959443E+02  0.689655172410E+01  0.471597452394E+01
  0.598158694660E+02  0.655172413790E+01  0.472427820822E+01
  0.600839850100E+01  0.724137931030E+01  0.000000000000E+00
  0.591276047720E+01  0.689655172410E+01  0.000000000000E+00
  0.598173224225E+02  0.724137931030E+01  0.470767083966E+01
  0.598165959443E+02  0.689655172410E+01  0.471597452394E+01
  0.610403652490E+01  0.758620689660E+01  0.000000000000E+00
  0.600839850100E+01  0.724137931030E+01  0.000000000000E+00
  0.598180489008E+02  0.758620689660E+01  0.469936715538E+01
  0.598173224225E+02  0.724137931030E+01  0.470767083966E+01
  0.619967454870E+01  0.793103448280E+01  0.000000000000E+00
  0.610403652490E+01  0.758620689660E+01  0.000000000000E+00
  0.598187753790E+02  0.793103448280E+01  0.469106347110E+01
  0.598180489008E+02  0.758620689660E+01  0.469936715538E+01
  0.629531257260E+01  0.827586206900E+01  0.000000000000E+00
  0.619967454870E+01  0.793103448280E+01  0.000000000000E+00
  0.598195018572E+02  0.827586206900E+01  0.468275978682E+01
  0.598187753790E+02  0.793103448280E+01  0.469106347110E+01
  0.639095059650E+01  0.862068965520E+01  0.000000000000E+00
  0.629531257260E+01  0.827586206900E+01  0.000000000000E+00
  0.598202283355E+02  0.862068965520E+01  0.467445610254E+01
  0.598195018572E+02  0.827586206900E+01  0.468275978682E+01
  0.648658862030E+01  0.896551724140E+01  0.000000000000E+00
  0.639095059650E+01  0.862068965520E+01  0.000000000000E+00
  0.598209548137E+02  0.896551724140E+01  0.466615241826E+01
  0.598202283355E+02  0.862068965520E+01  0.467445610254E+01
  0.658222664420E+01  0.931034482760E+01  0.000000000000E+00
  0.648658862030E+01  0.896551724140E+01  0.000000000000E+00
  0.598216812920E+02  0.931034482760E+01  0.465784873398E+01
  0.598209548137E+02  0.896551724140E+01  0.466615241826E+01
  0.667786466800E+01  0.965517241380E+01  0.000000000000E+00
  0.658222664420E+01  0.931034482760E+01  0.000000000000E+00
  0.598224077702E+02  0.965517241380E+01  0.464954504971E+01
  0.598216812920E+02  0.931034482760E+01  0.465784873398E+01
  0.677350269190E+01  0.100000000000E+02  0.000000000000E+00
  0.667786466800E+01  0.965517241380E+01  0.000000000000E+00
  0.598231342484E+02  0.100000000000E+02  0.464124136542E+01
  0.598224077702E+02  0.965517241380E+01  0.464954504971E+01
  0.400000000000E+01  0.000000000000E+00  0.000000000000E+00
  0.409563802390E+01 -0.344827586210E+00  0.000000000000E+00
  0.598020663795E+02  0.000000000000E+00  0.488204820953E+01
  0.598027928577E+02 -0.344827586210E+00  0.487374452524E+01
  0.409563802390E+01 -0.344827586210E+00  0.000000000000E+00
  0.419127604770E+01 -0.689655172410E+00  0.000000000000E+00
  0.598027928577E+02 -0.344827586210E+00  0.487374452524E+01
  0.598035193360E+02 -0.689655172410E+00  0.486544084097E+01
  0.419127604770E+01 -0.689655172410E+00  0.000000000000E+00
  0.428691407160E+01 -0.103448275860E+01  0.000000000000E+00
  0.598035193360E+02 -0.689655172410E+00  0.486544084097E+01
  0.598042458142E+02 -0.103448275860E+01  0.485713715669E+01
  0.428691407160E+01 -0.103448275860E+01  0.000000000000E+00
  0.438255209540E+01 -0.137931034480E+01  0.000000000000E+00
  0.598042458142E+02 -0.103448275860E+01  0.485713715669E+01
  0.598049722924E+02 -0.137931034480E+01  0.484883347241E+01
  0.438255209540E+01 -0.137931034480E+01  0.000000000000E+00
  0.447819011930E+01 -0.172413793100E+01  0.000000000000E+00
  0.598049722924E+02 -0.137931034480E+01  0.484883347241E+01
  0.598056987707E+02 -0.172413793100E+01  0.484052978813E+01
  0.447819011930E+01 -0.172413793100E+01  0.000000000000E+00
  0.457382814320E+01 -0.206896551720E+01  0.000000000000E+00
  0.598056987707E+02 -0.172413793100E+01  0.484052978813E+01
  0.598064252489E+02 -0.206896551720E+01  0.483222610385E+01
  0.457382814320E+01 -0.206896551720E+01  0.000000000000E+00
  0.466946616700E+01 -0.241379310340E+01  0.000000000000E+00
  0.598064252489E+02 -0.206896551720E+01  0.483222610385E+01
  0.598071517272E+02 -0.241379310340E+01  0.482392241957E+01
  0.466946616700E+01 -0.241379310340E+01  0.000000000000E+00
  0.476510419090E+01 -0.275862068970E+01  0.000000000000E+00
  0.598071517272E+02 -0.241379310340E+01  0.482392241957E+01
  0.598078782054E+02 -0.275862068970E+01  0.481561873529E+01
  0.476510419090E+01 -0.275862068970E+01  0.000000000000E+00
  0.486074221470E+01 -0.310344827590E+01  0.000000000000E+00
  0.598078782054E+02 -0.275862068970E+01  0.481561873529E+01
  0.598086046836E+02 -0.310344827590E+01  0.480731505101E+01
  0.486074221470E+01 -0.310344827590E+01  0.000000000000E+00
  0.495638023860E+01 -0.344827586210E+01  0.000000000000E+00
  0.598086046836E+02 -0.310344827590E+01  0.480731505101E+01
  0.598093311619E+02 -0.344827586210E+01  0.479901136673E+01
  0.495638023860E+01 -0.344827586210E+01  0.000000000000E+00
  0.505201826240E+01 -0.379310344830E+01  0.000000000000E+00
  0.598093311619E+02 -0.344827586210E+01  0.479901136673E+01
  0.598100576401E+02 -0.379310344830E+01  0.479070768246E+01
  0.505201826240E+01 -0.379310344830E+01  0.000000000000E+00
[...]
POINT_DATA                 464
SCALARS mu float 1
LOOKUP_TABLE default
 -0.659886653795E+00
 -0.657612616334E+00
 -0.659886653795E+00
 -0.657612616334E+00
 -0.661570682319E+00
 -0.659886653795E+00
 -0.661570682319E+00
 -0.659886653795E+00
 -0.661925679892E+00
 -0.661570682319E+00
 -0.661925679892E+00
 -0.661570682319E+00
 -0.657965984129E+00
 -0.661925679892E+00
 -0.657965984129E+00
 -0.661925679892E+00
 -0.654199587661E+00
 -0.657965984129E+00
 -0.654199587661E+00
 -0.657965984129E+00
 -0.650478994201E+00
 -0.654199587661E+00
 -0.650478994201E+00
 -0.654199587661E+00
 -0.643991543509E+00
 -0.650478994201E+00
 -0.643991543509E+00
 -0.650478994201E+00
 -0.636038872861E+00
 -0.643991543509E+00
 -0.636038872861E+00
 -0.643991543509E+00
 -0.628765120508E+00
 -0.636038872861E+00
 -0.628765120508E+00
 -0.636038872861E+00
 -0.618850404324E+00
 -0.628765120508E+00
 -0.618850404324E+00
 -0.628765120508E+00
 -0.606984850418E+00
 -0.618850404324E+00
 -0.606984850418E+00
 -0.618850404324E+00
 -0.596755245952E+00
 -0.606984850418E+00
 -0.596755245952E+00
 -0.606984850418E+00
 -0.587344596819E+00
 -0.596755245952E+00
 -0.587344596819E+00
 -0.596755245952E+00
 -0.573322916301E+00
 -0.587344596819E+00
 -0.573322916301E+00
 -0.587344596819E+00
 -0.557950443775E+00
 -0.573322916301E+00
 -0.557950443775E+00
 -0.573322916301E+00
 -0.542790819940E+00
 -0.557950443775E+00
 -0.542790819940E+00
 -0.557950443775E+00
 -0.527698897294E+00
 -0.542790819940E+00
 -0.527698897294E+00
 -0.542790819940E+00
 -0.509431508839E+00
 -0.527698897294E+00
 -0.509431508839E+00
 -0.527698897294E+00
 -0.492091759738E+00
 -0.509431508839E+00
 -0.492091759738E+00
 -0.509431508839E+00
 -0.469733967007E+00
 -0.492091759738E+00
 -0.469733967007E+00
 -0.492091759738E+00
 -0.447264446970E+00
 -0.469733967007E+00
 -0.447264446970E+00
 -0.469733967007E+00
 -0.422903270850E+00
 -0.447264446970E+00
 -0.422903270850E+00
 -0.447264446970E+00
 -0.394967371320E+00
 -0.422903270850E+00
 -0.394967371320E+00
 -0.422903270850E+00
 -0.363227350616E+00
 -0.394967371320E+00
 -0.363227350616E+00
 -0.394967371320E+00
 -0.327321159603E+00
 -0.363227350616E+00
 -0.327321159603E+00
 -0.363227350616E+00
 -0.283361548397E+00
 -0.327321159603E+00
 -0.283361548397E+00
 -0.327321159603E+00
 -0.224181028216E+00
 -0.283361548397E+00
 -0.224181028216E+00
 -0.283361548397E+00
 -0.138092943583E+00
 -0.224181028216E+00
 -0.138092943583E+00
 -0.224181028216E+00
  0.000000000000E+00
 -0.138092943583E+00
  0.000000000000E+00
 -0.138092943583E+00
 -0.657612616334E+00
 -0.660498088000E+00
 -0.657612616334E+00
 -0.660498088000E+00
 -0.660498088000E+00
 -0.661749771229E+00
 -0.660498088000E+00
 -0.661749771229E+00
 -0.661749771229E+00
 -0.662702330186E+00
 -0.661749771229E+00
 -0.662702330186E+00
 -0.662702330186E+00
 -0.659151566478E+00
 -0.662702330186E+00
 -0.659151566478E+00
 -0.659151566478E+00
 -0.654680905593E+00
 -0.659151566478E+00
 -0.654680905593E+00
 -0.654680905593E+00
 -0.651021976138E+00
 -0.654680905593E+00
 -0.651021976138E+00
 -0.651021976138E+00
 -0.643744710653E+00
 -0.651021976138E+00
 -0.643744710653E+00
 -0.643744710653E+00
 -0.636108211784E+00
 -0.643744710653E+00
 -0.636108211784E+00
 -0.636108211784E+00
 -0.629133045646E+00
 -0.636108211784E+00
 -0.629133045646E+00
 -0.629133045646E+00
 -0.619739209761E+00
 -0.629133045646E+00
 -0.619739209761E+00
 -0.619739209761E+00
 -0.608443768362E+00
 -0.619739209761E+00
 -0.608443768362E+00
 -0.608443768362E+00
 -0.600460018978E+00
 -0.608443768362E+00
 -0.600460018978E+00
 -0.600460018978E+00
 -0.589901522818E+00
 -0.600460018978E+00
 -0.589901522818E+00
 -0.589901522818E+00
 -0.574954406436E+00
 -0.589901522818E+00
 -0.574954406436E+00
 -0.574954406436E+00
 -0.559600701410E+00
 -0.574954406436E+00
 -0.559600701410E+00
 -0.559600701410E+00
 -0.544226726582E+00
 -0.559600701410E+00
 -0.544226726582E+00
 -0.544226726582E+00
 -0.529505646477E+00
 -0.544226726582E+00
 -0.529505646477E+00
 -0.529505646477E+00
 -0.512351951768E+00
 -0.529505646477E+00
 -0.512351951768E+00
 -0.512351951768E+00
 -0.493877566060E+00
 -0.512351951768E+00
 -0.493877566060E+00
 -0.493877566060E+00
 -0.471142393323E+00
 -0.493877566060E+00
 -0.471142393323E+00
 -0.471142393323E+00
 -0.448135129783E+00
 -0.471142393323E+00
 -0.448135129783E+00
 -0.448135129783E+00
 -0.423056530277E+00
 -0.448135129783E+00
 -0.423056530277E+00
 -0.423056530277E+00
 -0.395237230528E+00
 -0.423056530277E+00
 -0.395237230528E+00
 -0.395237230528E+00
 -0.363681116769E+00
 -0.395237230528E+00
 -0.363681116769E+00
 -0.363681116769E+00
 -0.327468043420E+00
 -0.363681116769E+00
 -0.327468043420E+00
 -0.327468043420E+00
 -0.283217202850E+00
 -0.327468043420E+00
 -0.283217202850E+00
 -0.283217202850E+00
 -0.223717735626E+00
 -0.283217202850E+00
 -0.223717735626E+00
 -0.223717735626E+00
 -0.137725478208E+00
 -0.223717735626E+00
 -0.137725478208E+00
 -0.137725478208E+00
  0.000000000000E+00
 -0.137725478208E+00
  0.000000000000E+00
 -0.405029101553E+00
 -0.405168677874E+00
 -0.405029101553E+00
 -0.405168677874E+00
 -0.406122070352E+00
 -0.405029101553E+00
 -0.406122070352E+00
 -0.405029101553E+00
 -0.406299821851E+00
 -0.406122070352E+00
 -0.406299821851E+00
 -0.406122070352E+00
 -0.407519380750E+00
 -0.406299821851E+00
 -0.407519380750E+00
 -0.406299821851E+00
 -0.406244493602E+00
 -0.407519380750E+00
 -0.406244493602E+00
 -0.407519380750E+00
 -0.404867586051E+00
 -0.406244493602E+00
 -0.404867586051E+00
 -0.406244493602E+00
 -0.403435606735E+00
 -0.404867586051E+00
 -0.403435606735E+00
 -0.404867586051E+00
 -0.399334031194E+00
 -0.403435606735E+00
 -0.399334031194E+00
 -0.403435606735E+00
 -0.396319589865E+00
 -0.399334031194E+00
 -0.396319589865E+00
 -0.399334031194E+00
 -0.392068290724E+00
 -0.396319589865E+00
 -0.392068290724E+00
 -0.396319589865E+00
 -0.385946165509E+00
 -0.392068290724E+00
 -0.385946165509E+00
 -0.392068290724E+00
 -0.380104775277E+00
 -0.385946165509E+00
 -0.380104775277E+00
 -0.385946165509E+00
 -0.374633550568E+00
 -0.380104775277E+00
 -0.374633550568E+00
 -0.380104775277E+00
 -0.368771409106E+00
 -0.374633550568E+00
 -0.368771409106E+00
 -0.374633550568E+00
 -0.361680731740E+00
 -0.368771409106E+00
 -0.361680731740E+00
 -0.368771409106E+00
 -0.354785455205E+00
 -0.361680731740E+00
 -0.354785455205E+00
 -0.361680731740E+00
 -0.346118984644E+00
 -0.354785455205E+00
 -0.346118984644E+00
 -0.354785455205E+00
 -0.338901748546E+00
 -0.346118984644E+00
 -0.338901748546E+00
 -0.346118984644E+00
 -0.331812657862E+00
 -0.338901748546E+00
 -0.331812657862E+00
 -0.338901748546E+00
 -0.322574939358E+00
 -0.331812657862E+00
 -0.322574939358E+00
 -0.331812657862E+00
 -0.312132359727E+00
 -0.322574939358E+00
 -0.312132359727E+00
 -0.322574939358E+00
 -0.299493348025E+00
 -0.312132359727E+00
 -0.299493348025E+00
 -0.312132359727E+00
 -0.284582225515E+00
 -0.299493348025E+00
 -0.284582225515E+00
 -0.299493348025E+00
 -0.265980185585E+00
 -0.284582225515E+00
 -0.265980185585E+00
 -0.284582225515E+00
 -0.243884078236E+00
 -0.265980185585E+00
 -0.243884078236E+00
 -0.265980185585E+00
 -0.216136111861E+00
 -0.243884078236E+00
 -0.216136111861E+00
 -0.243884078236E+00
 -0.174606393565E+00
 -0.216136111861E+00
 -0.174606393565E+00
 -0.216136111861E+00
 -0.109109466873E+00
 -0.174606393565E+00
 -0.109109466873E+00
 -0.174606393565E+00
  0.000000000000E+00
 -0.109109466873E+00
  0.000000000000E+00
 -0.109109466873E+00
 -0.405168677874E+00
 -0.405046674743E+00
 -0.405168677874E+00
 -0.405046674743E+00
 -0.405046674743E+00
 -0.407020036297E+00
 -0.405046674743E+00
 -0.407020036297E+00
 -0.407020036297E+00
 -0.408189464375E+00
 -0.407020036297E+00
 -0.408189464375E+00
 -0.408189464375E+00
 -0.408518825580E+00
 -0.408189464375E+00
 -0.408518825580E+00
 -0.408518825580E+00
 -0.406377098189E+00
 -0.408518825580E+00
 -0.406377098189E+00
 -0.406377098189E+00
 -0.404897003830E+00
 -0.406377098189E+00
 -0.404897003830E+00
 -0.404897003830E+00
 -0.402927130700E+00
 -0.404897003830E+00
 -0.402927130700E+00
 -0.402927130700E+00
 -0.398960557977E+00
 -0.402927130700E+00
 -0.398960557977E+00
 -0.398960557977E+00
 -0.395879880890E+00
 -0.398960557977E+00
 -0.395879880890E+00
 -0.395879880890E+00
 -0.391795918179E+00
 -0.395879880890E+00
 -0.391795918179E+00
 -0.391795918179E+00
 -0.385753705372E+00
 -0.391795918179E+00
 -0.385753705372E+00
 -0.385753705372E+00
 -0.380118460857E+00
 -0.385753705372E+00
 -0.380118460857E+00
 -0.380118460857E+00
 -0.374661328267E+00
 -0.380118460857E+00
 -0.374661328267E+00
 -0.374661328267E+00
 -0.368879654256E+00
 -0.374661328267E+00
 -0.368879654256E+00
 -0.368879654256E+00
 -0.361761796586E+00
 -0.368879654256E+00
 -0.361761796586E+00
 -0.361761796586E+00
 -0.355081793461E+00
 -0.361761796586E+00
 -0.355081793461E+00
 -0.355081793461E+00
 -0.346593514038E+00
 -0.355081793461E+00
 -0.346593514038E+00
 -0.346593514038E+00
 -0.339904540027E+00
 -0.346593514038E+00
 -0.339904540027E+00
 -0.339904540027E+00
 -0.332743077219E+00
 -0.339904540027E+00
 -0.332743077219E+00
 -0.332743077219E+00
 -0.323323570442E+00
 -0.332743077219E+00
 -0.323323570442E+00
 -0.323323570442E+00
 -0.312758069408E+00
 -0.323323570442E+00
 -0.312758069408E+00
 -0.312758069408E+00
 -0.300347910995E+00
 -0.312758069408E+00
 -0.300347910995E+00
 -0.300347910995E+00
 -0.285395604847E+00
 -0.300347910995E+00
 -0.285395604847E+00
 -0.285395604847E+00
 -0.267235735857E+00
 -0.285395604847E+00
 -0.267235735857E+00
 -0.267235735857E+00
 -0.245629281728E+00
 -0.267235735857E+00
 -0.245629281728E+00
 -0.245629281728E+00
 -0.217603434676E+00
 -0.245629281728E+00
 -0.217603434676E+00
 -0.217603434676E+00
 -0.175372892245E+00
 -0.217603434676E+00
 -0.175372892245E+00
 -0.175372892245E+00
 -0.109463957810E+00
 -0.175372892245E+00
 -0.109463957810E+00
 -0.109463957810E+00
  0.000000000000E+00
 -0.109463957810E+00
  0.000000000000E+00
