# vtk DataFile Version 3.0
MachLine results file. Generated by MachLine, USU AeroLab (c) 2023.
ASCII
DATASET POLYDATA
POINTS                 464 float
  0.409563802390E+01  0.344827586210E+00  0.000000000000E+00
  0.400000000000E+01  0.000000000000E+00  0.000000000000E+00
  0.598027928577E+02  0.344827586210E+00  0.487374452524E+01
  0.598020663795E+02  0.000000000000E+00  0.488204820953E+01
  0.429194765180E+01  0.105263157890E+01  0.000000000000E+00
  0.414597382590E+01  0.526315789470E+00  0.000000000000E+00
  0.598042840499E+02  0.105263157890E+01  0.485670012067E+01
  0.598031752147E+02  0.526315789470E+00  0.486937416510E+01
  0.443792147770E+01  0.157894736840E+01  0.000000000000E+00
  0.429194765180E+01  0.105263157890E+01  0.000000000000E+00
  0.598053928851E+02  0.157894736840E+01  0.484402607624E+01
  0.598042840499E+02  0.105263157890E+01  0.485670012067E+01
  0.458389530360E+01  0.210526315790E+01  0.000000000000E+00
  0.443792147770E+01  0.157894736840E+01  0.000000000000E+00
  0.598065017203E+02  0.210526315790E+01  0.483135203182E+01
  0.598053928851E+02  0.157894736840E+01  0.484402607624E+01
  0.472986912940E+01  0.263157894740E+01  0.000000000000E+00
  0.458389530360E+01  0.210526315790E+01  0.000000000000E+00
  0.598076105555E+02  0.263157894740E+01  0.481867798740E+01
  0.598065017203E+02  0.210526315790E+01  0.483135203182E+01
  0.502181678120E+01  0.368421052630E+01  0.000000000000E+00
  0.487584295530E+01  0.315789473680E+01  0.000000000000E+00
  0.598098282259E+02  0.368421052630E+01  0.479332989854E+01
  0.598087193907E+02  0.315789473680E+01  0.480600394297E+01
  0.487584295530E+01  0.315789473680E+01  0.000000000000E+00
  0.472986912940E+01  0.263157894740E+01  0.000000000000E+00
  0.598087193907E+02  0.315789473680E+01  0.480600394297E+01
  0.598076105555E+02  0.263157894740E+01  0.481867798740E+01
  0.516779060710E+01  0.421052631580E+01  0.000000000000E+00
  0.502181678120E+01  0.368421052630E+01  0.000000000000E+00
  0.598109370611E+02  0.421052631580E+01  0.478065585412E+01
  0.598098282259E+02  0.368421052630E+01  0.479332989854E+01
  0.531376443300E+01  0.473684210530E+01  0.000000000000E+00
  0.516779060710E+01  0.421052631580E+01  0.000000000000E+00
  0.598120458964E+02  0.473684210530E+01  0.476798180969E+01
  0.598109370611E+02  0.421052631580E+01  0.478065585412E+01
  0.545973825890E+01  0.526315789470E+01  0.000000000000E+00
  0.531376443300E+01  0.473684210530E+01  0.000000000000E+00
  0.598131547316E+02  0.526315789470E+01  0.475530776526E+01
  0.598120458964E+02  0.473684210530E+01  0.476798180969E+01
  0.560571208480E+01  0.578947368420E+01  0.000000000000E+00
  0.545973825890E+01  0.526315789470E+01  0.000000000000E+00
  0.598142635668E+02  0.578947368420E+01  0.474263372083E+01
  0.598131547316E+02  0.526315789470E+01  0.475530776526E+01
  0.575168591070E+01  0.631578947370E+01  0.000000000000E+00
  0.560571208480E+01  0.578947368420E+01  0.000000000000E+00
  0.598153724020E+02  0.631578947370E+01  0.472995967641E+01
  0.598142635668E+02  0.578947368420E+01  0.474263372083E+01
  0.589765973660E+01  0.684210526320E+01  0.000000000000E+00
  0.575168591070E+01  0.631578947370E+01  0.000000000000E+00
  0.598164812372E+02  0.684210526320E+01  0.471728563198E+01
  0.598153724020E+02  0.631578947370E+01  0.472995967641E+01
  0.604363356240E+01  0.736842105260E+01  0.000000000000E+00
  0.589765973660E+01  0.684210526320E+01  0.000000000000E+00
  0.598175900724E+02  0.736842105260E+01  0.470461158756E+01
  0.598164812372E+02  0.684210526320E+01  0.471728563198E+01
  0.618960738830E+01  0.789473684210E+01  0.000000000000E+00
  0.604363356240E+01  0.736842105260E+01  0.000000000000E+00
  0.598186989076E+02  0.789473684210E+01  0.469193754313E+01
  0.598175900724E+02  0.736842105260E+01  0.470461158756E+01
  0.633558121420E+01  0.842105263160E+01  0.000000000000E+00
  0.618960738830E+01  0.789473684210E+01  0.000000000000E+00
  0.598198077428E+02  0.842105263160E+01  0.467926349871E+01
  0.598186989076E+02  0.789473684210E+01  0.469193754313E+01
  0.662752886600E+01  0.947368421050E+01  0.000000000000E+00
  0.648155504010E+01  0.894736842110E+01  0.000000000000E+00
  0.598220254132E+02  0.947368421050E+01  0.465391540985E+01
  0.598209165780E+02  0.894736842110E+01  0.466658945428E+01
  0.648155504010E+01  0.894736842110E+01  0.000000000000E+00
  0.633558121420E+01  0.842105263160E+01  0.000000000000E+00
  0.598209165780E+02  0.894736842110E+01  0.466658945428E+01
  0.598198077428E+02  0.842105263160E+01  0.467926349871E+01
  0.677350269190E+01  0.100000000000E+02  0.000000000000E+00
  0.667786466800E+01  0.965517241380E+01  0.000000000000E+00
  0.598231342484E+02  0.100000000000E+02  0.464124136542E+01
  0.598224077702E+02  0.965517241380E+01  0.464954504971E+01
  0.400000000000E+01  0.000000000000E+00  0.000000000000E+00
  0.409563802390E+01 -0.344827586210E+00  0.000000000000E+00
  0.598020663795E+02  0.000000000000E+00  0.488204820953E+01
  0.598027928577E+02 -0.344827586210E+00  0.487374452524E+01
  0.409563802390E+01 -0.344827586210E+00  0.000000000000E+00
  0.419127604770E+01 -0.689655172410E+00  0.000000000000E+00
  0.598027928577E+02 -0.344827586210E+00  0.487374452524E+01
  0.598035193360E+02 -0.689655172410E+00  0.486544084097E+01
  0.419127604770E+01 -0.689655172410E+00  0.000000000000E+00
  0.428691407160E+01 -0.103448275860E+01  0.000000000000E+00
  0.598035193360E+02 -0.689655172410E+00  0.486544084097E+01
  0.598042458142E+02 -0.103448275860E+01  0.485713715669E+01
  0.428691407160E+01 -0.103448275860E+01  0.000000000000E+00
  0.438255209540E+01 -0.137931034480E+01  0.000000000000E+00
  0.598042458142E+02 -0.103448275860E+01  0.485713715669E+01
  0.598049722924E+02 -0.137931034480E+01  0.484883347241E+01
  0.438255209540E+01 -0.137931034480E+01  0.000000000000E+00
  0.447819011930E+01 -0.172413793100E+01  0.000000000000E+00
  0.598049722924E+02 -0.137931034480E+01  0.484883347241E+01
  0.598056987707E+02 -0.172413793100E+01  0.484052978813E+01
  0.447819011930E+01 -0.172413793100E+01  0.000000000000E+00
  0.457382814320E+01 -0.206896551720E+01  0.000000000000E+00
  0.598056987707E+02 -0.172413793100E+01  0.484052978813E+01
  0.598064252489E+02 -0.206896551720E+01  0.483222610385E+01
  0.457382814320E+01 -0.206896551720E+01  0.000000000000E+00
  0.466946616700E+01 -0.241379310340E+01  0.000000000000E+00
  0.598064252489E+02 -0.206896551720E+01  0.483222610385E+01
  0.598071517272E+02 -0.241379310340E+01  0.482392241957E+01
  0.466946616700E+01 -0.241379310340E+01  0.000000000000E+00
  0.476510419090E+01 -0.275862068970E+01  0.000000000000E+00
  0.598071517272E+02 -0.241379310340E+01  0.482392241957E+01
  0.598078782054E+02 -0.275862068970E+01  0.481561873529E+01
  0.476510419090E+01 -0.275862068970E+01  0.000000000000E+00
  0.486074221470E+01 -0.310344827590E+01  0.000000000000E+00
  0.598078782054E+02 -0.275862068970E+01  0.481561873529E+01
  0.598086046836E+02 -0.310344827590E+01  0.480731505101E+01
  0.486074221470E+01 -0.310344827590E+01  0.000000000000E+00
  0.495638023860E+01 -0.344827586210E+01  0.000000000000E+00
  0.598086046836E+02 -0.310344827590E+01  0.480731505101E+01
  0.598093311619E+02 -0.344827586210E+01  0.479901136673E+01
  0.495638023860E+01 -0.344827586210E+01  0.000000000000E+00
  0.505201826240E+01 -0.379310344830E+01  0.000000000000E+00
  0.598093311619E+02 -0.344827586210E+01  0.479901136673E+01
  0.598100576401E+02 -0.379310344830E+01  0.479070768246E+01
  0.505201826240E+01 -0.379310344830E+01  0.000000000000E+00
  0.514765628630E+01 -0.413793103450E+01  0.000000000000E+00
  0.598100576401E+02 -0.379310344830E+01  0.479070768246E+01
  0.598107841184E+02 -0.413793103450E+01  0.478240399817E+01
  0.514765628630E+01 -0.413793103450E+01  0.000000000000E+00
  0.524329431020E+01 -0.448275862070E+01  0.000000000000E+00
  0.598107841184E+02 -0.413793103450E+01  0.478240399817E+01
  0.598115105966E+02 -0.448275862070E+01  0.477410031389E+01
  0.524329431020E+01 -0.448275862070E+01  0.000000000000E+00
  0.533893233400E+01 -0.482758620690E+01  0.000000000000E+00
  0.598115105966E+02 -0.448275862070E+01  0.477410031389E+01
  0.598122370748E+02 -0.482758620690E+01  0.476579662962E+01
  0.533893233400E+01 -0.482758620690E+01  0.000000000000E+00
  0.543457035790E+01 -0.517241379310E+01  0.000000000000E+00
  0.598122370748E+02 -0.482758620690E+01  0.476579662962E+01
  0.598129635531E+02 -0.517241379310E+01  0.475749294533E+01
  0.543457035790E+01 -0.517241379310E+01  0.000000000000E+00
  0.553020838170E+01 -0.551724137930E+01  0.000000000000E+00
  0.598129635531E+02 -0.517241379310E+01  0.475749294533E+01
  0.598136900313E+02 -0.551724137930E+01  0.474918926106E+01
  0.553020838170E+01 -0.551724137930E+01  0.000000000000E+00
  0.562584640560E+01 -0.586206896550E+01  0.000000000000E+00
  0.598136900313E+02 -0.551724137930E+01  0.474918926106E+01
  0.598144165096E+02 -0.586206896550E+01  0.474088557678E+01
  0.562584640560E+01 -0.586206896550E+01  0.000000000000E+00
  0.572148442950E+01 -0.620689655170E+01  0.000000000000E+00
  0.598144165096E+02 -0.586206896550E+01  0.474088557678E+01
  0.598151429878E+02 -0.620689655170E+01  0.473258189249E+01
  0.572148442950E+01 -0.620689655170E+01  0.000000000000E+00
  0.581712245330E+01 -0.655172413790E+01  0.000000000000E+00
  0.598151429878E+02 -0.620689655170E+01  0.473258189249E+01
  0.598158694660E+02 -0.655172413790E+01  0.472427820822E+01
  0.581712245330E+01 -0.655172413790E+01  0.000000000000E+00
  0.591276047720E+01 -0.689655172410E+01  0.000000000000E+00
  0.598158694660E+02 -0.655172413790E+01  0.472427820822E+01
  0.598165959443E+02 -0.689655172410E+01  0.471597452394E+01
  0.591276047720E+01 -0.689655172410E+01  0.000000000000E+00
  0.600839850100E+01 -0.724137931030E+01  0.000000000000E+00
  0.598165959443E+02 -0.689655172410E+01  0.471597452394E+01
  0.598173224225E+02 -0.724137931030E+01  0.470767083966E+01
  0.600839850100E+01 -0.724137931030E+01  0.000000000000E+00
[...]
POINT_DATA                 464
SCALARS mu float 1
LOOKUP_TABLE default
 -0.105747576712E+00
 -0.189813285356E+00
 -0.105747576712E+00
 -0.189813285356E+00
 -0.270231129594E+00
 -0.105747576712E+00
 -0.270231129594E+00
 -0.105747576712E+00
 -0.223945161770E+00
 -0.270231129594E+00
 -0.223945161770E+00
 -0.270231129594E+00
 -0.180400683379E+00
 -0.223945161770E+00
 -0.180400683379E+00
 -0.223945161770E+00
 -0.251838472007E+00
 -0.180400683379E+00
 -0.251838472007E+00
 -0.180400683379E+00
 -0.202330471728E+00
 -0.222677038609E+00
 -0.202330471728E+00
 -0.222677038609E+00
 -0.222677038609E+00
 -0.251838472007E+00
 -0.222677038609E+00
 -0.251838472007E+00
 -0.228112486820E+00
 -0.202330471728E+00
 -0.228112486820E+00
 -0.202330471728E+00
 -0.202192820122E+00
 -0.228112486820E+00
 -0.202192820122E+00
 -0.228112486820E+00
 -0.193240174947E+00
 -0.202192820122E+00
 -0.193240174947E+00
 -0.202192820122E+00
 -0.193777372231E+00
 -0.193240174947E+00
 -0.193777372231E+00
 -0.193240174947E+00
 -0.171266864994E+00
 -0.193777372231E+00
 -0.171266864994E+00
 -0.193777372231E+00
 -0.166005480817E+00
 -0.171266864994E+00
 -0.166005480817E+00
 -0.171266864994E+00
 -0.151934227027E+00
 -0.166005480817E+00
 -0.151934227027E+00
 -0.166005480817E+00
 -0.131763201677E+00
 -0.151934227027E+00
 -0.131763201677E+00
 -0.151934227027E+00
 -0.135935311730E+00
 -0.131763201677E+00
 -0.135935311730E+00
 -0.131763201677E+00
 -0.120408975102E+00
 -0.784014485464E-01
 -0.120408975102E+00
 -0.784014485464E-01
 -0.784014485464E-01
 -0.135935311730E+00
 -0.784014485464E-01
 -0.135935311730E+00
  0.000000000000E+00
 -0.120408975102E+00
  0.000000000000E+00
 -0.120408975102E+00
 -0.189813285356E+00
 -0.105747571782E+00
 -0.189813285356E+00
 -0.105747571782E+00
 -0.105747571782E+00
 -0.270231151979E+00
 -0.105747571782E+00
 -0.270231151979E+00
 -0.270231151979E+00
 -0.223945164567E+00
 -0.270231151979E+00
 -0.223945164567E+00
 -0.223945164567E+00
 -0.180400670162E+00
 -0.223945164567E+00
 -0.180400670162E+00
 -0.180400670162E+00
 -0.251838493006E+00
 -0.180400670162E+00
 -0.251838493006E+00
 -0.251838493006E+00
 -0.222677058441E+00
 -0.251838493006E+00
 -0.222677058441E+00
 -0.222677058441E+00
 -0.202330497847E+00
 -0.222677058441E+00
 -0.202330497847E+00
 -0.202330497847E+00
 -0.228112445895E+00
 -0.202330497847E+00
 -0.228112445895E+00
 -0.228112445895E+00
 -0.202192829355E+00
 -0.228112445895E+00
 -0.202192829355E+00
 -0.202192829355E+00
 -0.193240178971E+00
 -0.202192829355E+00
 -0.193240178971E+00
 -0.193240178971E+00
 -0.193777384613E+00
 -0.193240178971E+00
 -0.193777384613E+00
 -0.193777384613E+00
 -0.171266859316E+00
 -0.193777384613E+00
 -0.171266859316E+00
 -0.171266859316E+00
 -0.166005489573E+00
 -0.171266859316E+00
 -0.166005489573E+00
 -0.166005489573E+00
 -0.151934240020E+00
 -0.166005489573E+00
 -0.151934240020E+00
 -0.151934240020E+00
 -0.131763211829E+00
 -0.151934240020E+00
 -0.131763211829E+00
 -0.131763211829E+00
 -0.135935331291E+00
 -0.131763211829E+00
 -0.135935331291E+00
 -0.135935331291E+00
 -0.784014224021E-01
 -0.135935331291E+00
 -0.784014224021E-01
 -0.784014224021E-01
 -0.120408985403E+00
 -0.784014224021E-01
 -0.120408985403E+00
 -0.120408985403E+00
  0.000000000000E+00
 -0.120408985403E+00
  0.000000000000E+00
  0.433752427008E+00
  0.254264661961E+00
  0.433752427008E+00
  0.254264661961E+00
  0.116615995253E+00
  0.433752427008E+00
  0.116615995253E+00
  0.433752427008E+00
  0.183825989830E+00
  0.116615995253E+00
  0.183825989830E+00
  0.116615995253E+00
  0.262326264258E+00
  0.183825989830E+00
  0.262326264258E+00
  0.183825989830E+00
  0.111696539266E+00
  0.262326264258E+00
  0.111696539266E+00
  0.262326264258E+00
  0.136704861337E+00
  0.111696539266E+00
  0.136704861337E+00
  0.111696539266E+00
  0.155375451331E+00
  0.136704861337E+00
  0.155375451331E+00
  0.136704861337E+00
  0.790574487490E-01
  0.155375451331E+00
  0.790574487490E-01
  0.155375451331E+00
  0.910973184067E-01
  0.790574487490E-01
  0.910973184067E-01
  0.790574487490E-01
  0.793857805268E-01
  0.910973184067E-01
  0.793857805268E-01
  0.910973184067E-01
  0.422786687686E-01
  0.793857805268E-01
  0.422786687686E-01
  0.793857805268E-01
  0.445954511776E-01
  0.422786687686E-01
  0.445954511776E-01
  0.422786687686E-01
  0.221674116453E-01
  0.445954511776E-01
  0.221674116453E-01
  0.445954511776E-01
  0.711497243717E-02
  0.221674116453E-01
  0.711497243717E-02
  0.221674116453E-01
  0.141901128529E-02
  0.711497243717E-02
  0.141901128529E-02
  0.711497243717E-02
 -0.288452218066E-01
  0.141901128529E-02
 -0.288452218066E-01
  0.141901128529E-02
 -0.458659073327E-02
 -0.288452218066E-01
 -0.458659073327E-02
 -0.288452218066E-01
 -0.641216550114E-01
 -0.458659073327E-02
 -0.641216550114E-01
 -0.458659073327E-02
  0.000000000000E+00
 -0.641216550114E-01
  0.000000000000E+00
 -0.641216550114E-01
  0.254264661961E+00
  0.433752441351E+00
  0.254264661961E+00
  0.433752441351E+00
  0.433752441351E+00
  0.116615971174E+00
  0.433752441351E+00
  0.116615971174E+00
  0.116615971174E+00
  0.183825976440E+00
  0.116615971174E+00
  0.183825976440E+00
  0.183825976440E+00
  0.262326314867E+00
  0.183825976440E+00
  0.262326314867E+00
  0.262326314867E+00
  0.111696537808E+00
  0.262326314867E+00
  0.111696537808E+00
  0.111696537808E+00
  0.136704821840E+00
  0.111696537808E+00
  0.136704821840E+00
  0.136704821840E+00
  0.155375489253E+00
  0.136704821840E+00
  0.155375489253E+00
  0.155375489253E+00
  0.790575058258E-01
  0.155375489253E+00
  0.790575058258E-01
  0.790575058258E-01
  0.910973262322E-01
  0.790575058258E-01
  0.910973262322E-01
  0.910973262322E-01
  0.793858229088E-01
  0.910973262322E-01
  0.793858229088E-01
  0.793858229088E-01
  0.422786699370E-01
  0.793858229088E-01
  0.422786699370E-01
  0.422786699370E-01
  0.445954677922E-01
  0.422786699370E-01
  0.445954677922E-01
  0.445954677922E-01
  0.221674290982E-01
  0.445954677922E-01
  0.221674290982E-01
  0.221674290982E-01
  0.711499735269E-02
  0.221674290982E-01
  0.711499735269E-02
  0.711499735269E-02
  0.141904770144E-02
  0.711499735269E-02
  0.141904770144E-02
  0.141904770144E-02
 -0.288452226170E-01
  0.141904770144E-02
 -0.288452226170E-01
 -0.288452226170E-01
 -0.458659147544E-02
 -0.288452226170E-01
 -0.458659147544E-02
 -0.458659147544E-02
 -0.641216553154E-01
 -0.458659147544E-02
 -0.641216553154E-01
 -0.641216553154E-01
  0.000000000000E+00
 -0.641216553154E-01
  0.000000000000E+00
