# vtk DataFile Version 3.0
MachLine results file. Generated by MachLine, USU AeroLab (c) 2023.
ASCII
DATASET POLYDATA
POINTS                  64 float
  0.469337567300E+01  0.250000000000E+01  0.000000000000E+00
  0.400000000000E+01  0.000000000000E+00  0.000000000000E+00
  0.598073333467E+02  0.250000000000E+01  0.482184649850E+01
  0.598020663795E+02  0.000000000000E+00  0.488204820953E+01
  0.538675134590E+01  0.500000000000E+01  0.000000000000E+00
  0.469337567300E+01  0.250000000000E+01  0.000000000000E+00
  0.598126003140E+02  0.500000000000E+01  0.476164478748E+01
  0.598073333467E+02  0.250000000000E+01  0.482184649850E+01
  0.608012701890E+01  0.750000000000E+01  0.000000000000E+00
  0.538675134590E+01  0.500000000000E+01  0.000000000000E+00
  0.598178672812E+02  0.750000000000E+01  0.470144307645E+01
  0.598126003140E+02  0.500000000000E+01  0.476164478748E+01
  0.469337567300E+01 -0.250000000000E+01  0.000000000000E+00
  0.538675134590E+01 -0.500000000000E+01  0.000000000000E+00
  0.598073333467E+02 -0.250000000000E+01  0.482184649850E+01
  0.598126003140E+02 -0.500000000000E+01  0.476164478748E+01
  0.538675134590E+01 -0.500000000000E+01  0.000000000000E+00
  0.608012701890E+01 -0.750000000000E+01  0.000000000000E+00
  0.598126003140E+02 -0.500000000000E+01  0.476164478748E+01
  0.598178672812E+02 -0.750000000000E+01  0.470144307645E+01
  0.608012701890E+01 -0.750000000000E+01  0.000000000000E+00
  0.677350269190E+01 -0.100000000000E+02  0.000000000000E+00
  0.598178672812E+02 -0.750000000000E+01  0.470144307645E+01
  0.598231342484E+02 -0.100000000000E+02  0.464124136542E+01
  0.744337567300E+01  0.250000000000E+01 -0.250000000000E+01
  0.675000000000E+01  0.000000000000E+00 -0.250000000000E+01
  0.600452829084E+02  0.250000000000E+01  0.210207056294E+01
  0.600400159412E+02  0.000000000000E+00  0.216227227397E+01
  0.813675134590E+01  0.500000000000E+01 -0.250000000000E+01
  0.744337567300E+01  0.250000000000E+01 -0.250000000000E+01
  0.600505498757E+02  0.500000000000E+01  0.204186885192E+01
  0.600452829084E+02  0.250000000000E+01  0.210207056294E+01
  0.883012701890E+01  0.750000000000E+01 -0.250000000000E+01
  0.813675134590E+01  0.500000000000E+01 -0.250000000000E+01
  0.600558168429E+02  0.750000000000E+01  0.198166714089E+01
  0.600505498757E+02  0.500000000000E+01  0.204186885192E+01
  0.400000000000E+01  0.000000000000E+00  0.000000000000E+00
  0.469337567300E+01 -0.250000000000E+01  0.000000000000E+00
  0.598020663795E+02  0.000000000000E+00  0.488204820953E+01
  0.598073333467E+02 -0.250000000000E+01  0.482184649850E+01
  0.744337567300E+01 -0.250000000000E+01 -0.250000000000E+01
  0.813675134590E+01 -0.500000000000E+01 -0.250000000000E+01
  0.600452829084E+02 -0.250000000000E+01  0.210207056294E+01
  0.600505498757E+02 -0.500000000000E+01  0.204186885192E+01
  0.813675134590E+01 -0.500000000000E+01 -0.250000000000E+01
  0.883012701890E+01 -0.750000000000E+01 -0.250000000000E+01
  0.600505498757E+02 -0.500000000000E+01  0.204186885192E+01
  0.600558168429E+02 -0.750000000000E+01  0.198166714089E+01
  0.883012701890E+01 -0.750000000000E+01 -0.250000000000E+01
  0.952350269190E+01 -0.100000000000E+02 -0.250000000000E+01
  0.600558168429E+02 -0.750000000000E+01  0.198166714089E+01
  0.600610838101E+02 -0.100000000000E+02  0.192146542987E+01
  0.675000000000E+01  0.000000000000E+00 -0.250000000000E+01
  0.744337567300E+01 -0.250000000000E+01 -0.250000000000E+01
  0.600400159412E+02  0.000000000000E+00  0.216227227397E+01
  0.600452829084E+02 -0.250000000000E+01  0.210207056294E+01
  0.677350269190E+01  0.100000000000E+02  0.000000000000E+00
  0.608012701890E+01  0.750000000000E+01  0.000000000000E+00
  0.598231342484E+02  0.100000000000E+02  0.464124136542E+01
  0.598178672812E+02  0.750000000000E+01  0.470144307645E+01
  0.952350269190E+01  0.100000000000E+02 -0.250000000000E+01
  0.883012701890E+01  0.750000000000E+01 -0.250000000000E+01
  0.600610838101E+02  0.100000000000E+02  0.192146542987E+01
  0.600558168429E+02  0.750000000000E+01  0.198166714089E+01
POLYGONS                  32                 128
3                   0                   3                   1
3                   0                   2                   3
3                   4                   7                   5
3                   4                   6                   7
3                   8                  11                   9
3                   8                  10                  11
3                  12                  14                  13
3                  14                  15                  13
3                  16                  18                  17
3                  18                  19                  17
3                  20                  22                  21
3                  22                  23                  21
3                  24                  27                  25
3                  24                  26                  27
3                  28                  31                  29
3                  28                  30                  31
3                  32                  35                  33
3                  32                  34                  35
3                  36                  38                  37
3                  38                  39                  37
3                  40                  42                  41
3                  42                  43                  41
3                  44                  46                  45
3                  46                  47                  45
3                  48                  50                  49
3                  50                  51                  49
3                  52                  54                  53
3                  54                  55                  53
3                  56                  59                  57
3                  56                  58                  59
3                  60                  63                  61
3                  60                  62                  63
POINT_DATA                  64
SCALARS mu float 1
LOOKUP_TABLE default
 -0.182265383504E+00
 -0.155133557640E+00
 -0.182265383504E+00
 -0.155133557640E+00
 -0.181852183972E+00
 -0.182265383504E+00
 -0.181852183972E+00
 -0.182265383504E+00
 -0.143130988316E+00
 -0.181852183972E+00
 -0.143130988316E+00
 -0.181852183972E+00
 -0.182286508373E+00
 -0.181889613338E+00
 -0.182286508373E+00
 -0.181889613338E+00
 -0.181889613338E+00
 -0.143124057474E+00
 -0.181889613338E+00
 -0.143124057474E+00
 -0.143124057474E+00
  0.000000000000E+00
 -0.143124057474E+00
  0.000000000000E+00
 -0.404733761129E+00
 -0.440796749748E+00
 -0.404733761129E+00
 -0.440796749748E+00
 -0.377514334550E+00
 -0.404733761129E+00
 -0.377514334550E+00
 -0.404733761129E+00
 -0.109690002057E+00
 -0.377514334550E+00
 -0.109690002057E+00
 -0.377514334550E+00
 -0.155133557640E+00
 -0.182286508373E+00
 -0.155133557640E+00
 -0.182286508373E+00
 -0.415442595764E+00
 -0.383946357014E+00
 -0.415442595764E+00
 -0.383946357014E+00
 -0.383946357014E+00
 -0.111867099270E+00
 -0.383946357014E+00
 -0.111867099270E+00
 -0.111867099270E+00
  0.000000000000E+00
 -0.111867099270E+00
  0.000000000000E+00
 -0.440796749748E+00
 -0.415442595764E+00
 -0.440796749748E+00
 -0.415442595764E+00
  0.000000000000E+00
 -0.143130988316E+00
  0.000000000000E+00
 -0.143130988316E+00
  0.000000000000E+00
 -0.109690002057E+00
  0.000000000000E+00
 -0.109690002057E+00
