# vtk DataFile Version 3.0
MachLine results file. Generated by MachLine, USU AeroLab (c) 2023.
ASCII
DATASET POLYDATA
POINTS                 120 float
  0.409245008975E+01  0.333333333335E+00  0.000000000000E+00
  0.598027686418E+02  0.333333333335E+00  0.487402131472E+01
  0.427735026920E+01  0.999999999985E+00  0.000000000000E+00
  0.598041731664E+02  0.999999999985E+00  0.485796752511E+01
  0.446225044865E+01  0.166666666665E+01  0.000000000000E+00
  0.598055776910E+02  0.166666666665E+01  0.484191373551E+01
  0.464715062810E+01  0.233333333335E+01  0.000000000000E+00
  0.598069822156E+02  0.233333333335E+01  0.482585994590E+01
  0.483205080755E+01  0.300000000000E+01  0.000000000000E+00
  0.598083867402E+02  0.300000000000E+01  0.480980615630E+01
  0.501695098705E+01  0.366666666665E+01  0.000000000000E+00
  0.598097912648E+02  0.366666666665E+01  0.479375236669E+01
  0.520185116650E+01  0.433333333335E+01  0.000000000000E+00
  0.598111957894E+02  0.433333333335E+01  0.477769857708E+01
  0.538675134595E+01  0.500000000000E+01  0.000000000000E+00
  0.598126003140E+02  0.500000000000E+01  0.476164478747E+01
  0.557165152540E+01  0.566666666665E+01  0.000000000000E+00
  0.598140048386E+02  0.566666666665E+01  0.474559099787E+01
  0.575655170485E+01  0.633333333335E+01  0.000000000000E+00
  0.598154093632E+02  0.633333333335E+01  0.472953720826E+01
  0.594145188435E+01  0.700000000000E+01  0.000000000000E+00
  0.598168138878E+02  0.700000000000E+01  0.471348341865E+01
  0.612635206380E+01  0.766666666665E+01  0.000000000000E+00
  0.598182184123E+02  0.766666666665E+01  0.469742962905E+01
  0.631125224325E+01  0.833333333335E+01  0.000000000000E+00
  0.598196229369E+02  0.833333333335E+01  0.468137583944E+01
  0.668105260215E+01  0.966666666665E+01  0.000000000000E+00
  0.598224319861E+02  0.966666666665E+01  0.464926826023E+01
  0.649615242270E+01  0.900000000000E+01  0.000000000000E+00
  0.598210274615E+02  0.900000000000E+01  0.466532204984E+01
  0.409245008975E+01 -0.333333333335E+00  0.000000000000E+00
  0.598027686418E+02 -0.333333333335E+00  0.487402131472E+01
  0.427735026920E+01 -0.999999999985E+00  0.000000000000E+00
  0.598041731664E+02 -0.999999999985E+00  0.485796752511E+01
  0.446225044865E+01 -0.166666666665E+01  0.000000000000E+00
  0.598055776910E+02 -0.166666666665E+01  0.484191373551E+01
  0.464715062810E+01 -0.233333333335E+01  0.000000000000E+00
  0.598069822156E+02 -0.233333333335E+01  0.482585994590E+01
  0.483205080755E+01 -0.300000000000E+01  0.000000000000E+00
  0.598083867402E+02 -0.300000000000E+01  0.480980615630E+01
  0.501695098705E+01 -0.366666666665E+01  0.000000000000E+00
  0.598097912648E+02 -0.366666666665E+01  0.479375236669E+01
  0.520185116650E+01 -0.433333333335E+01  0.000000000000E+00
  0.598111957894E+02 -0.433333333335E+01  0.477769857708E+01
  0.538675134595E+01 -0.500000000000E+01  0.000000000000E+00
  0.598126003140E+02 -0.500000000000E+01  0.476164478747E+01
  0.575655170485E+01 -0.633333333335E+01  0.000000000000E+00
  0.598154093632E+02 -0.633333333335E+01  0.472953720826E+01
  0.557165152540E+01 -0.566666666665E+01  0.000000000000E+00
  0.598140048386E+02 -0.566666666665E+01  0.474559099787E+01
  0.594145188435E+01 -0.700000000000E+01  0.000000000000E+00
  0.598168138878E+02 -0.700000000000E+01  0.471348341865E+01
  0.612635206380E+01 -0.766666666665E+01  0.000000000000E+00
  0.598182184123E+02 -0.766666666665E+01  0.469742962905E+01
  0.631125224325E+01 -0.833333333335E+01  0.000000000000E+00
  0.598196229369E+02 -0.833333333335E+01  0.468137583944E+01
  0.668105260215E+01 -0.966666666665E+01  0.000000000000E+00
  0.598224319861E+02 -0.966666666665E+01  0.464926826023E+01
  0.649615242270E+01 -0.900000000000E+01  0.000000000000E+00
  0.598210274615E+02 -0.900000000000E+01  0.466532204984E+01
  0.684245008975E+01  0.333333333335E+00 -0.250000000000E+01
  0.600407182035E+02  0.333333333335E+00  0.215424537916E+01
  0.702735026920E+01  0.999999999985E+00 -0.250000000000E+01
  0.600421227281E+02  0.999999999985E+00  0.213819158956E+01
  0.721225044865E+01  0.166666666665E+01 -0.250000000000E+01
  0.600435272527E+02  0.166666666665E+01  0.212213779995E+01
  0.739715062810E+01  0.233333333335E+01 -0.250000000000E+01
  0.600449317773E+02  0.233333333335E+01  0.210608401035E+01
  0.758205080755E+01  0.300000000000E+01 -0.250000000000E+01
  0.600463363019E+02  0.300000000000E+01  0.209003022074E+01
  0.776695098705E+01  0.366666666665E+01 -0.250000000000E+01
  0.600477408265E+02  0.366666666665E+01  0.207397643113E+01
  0.795185116650E+01  0.433333333335E+01 -0.250000000000E+01
  0.600491453511E+02  0.433333333335E+01  0.205792264152E+01
  0.813675134595E+01  0.500000000000E+01 -0.250000000000E+01
  0.600505498757E+02  0.500000000000E+01  0.204186885192E+01
  0.832165152540E+01  0.566666666665E+01 -0.250000000000E+01
  0.600519544002E+02  0.566666666665E+01  0.202581506231E+01
  0.850655170485E+01  0.633333333335E+01 -0.250000000000E+01
  0.600533589248E+02  0.633333333335E+01  0.200976127271E+01
  0.869145188435E+01  0.700000000000E+01 -0.250000000000E+01
  0.600547634494E+02  0.700000000000E+01  0.199370748310E+01
  0.887635206380E+01  0.766666666665E+01 -0.250000000000E+01
  0.600561679740E+02  0.766666666665E+01  0.197765369349E+01
  0.906125224325E+01  0.833333333335E+01 -0.250000000000E+01
  0.600575724986E+02  0.833333333335E+01  0.196159990388E+01
  0.924615242270E+01  0.900000000000E+01 -0.250000000000E+01
  0.600589770232E+02  0.900000000000E+01  0.194554611428E+01
  0.943105260215E+01  0.966666666665E+01 -0.250000000000E+01
  0.600603815478E+02  0.966666666665E+01  0.192949232467E+01
  0.684245008975E+01 -0.333333333335E+00 -0.250000000000E+01
  0.600407182035E+02 -0.333333333335E+00  0.215424537916E+01
  0.702735026920E+01 -0.999999999985E+00 -0.250000000000E+01
  0.600421227281E+02 -0.999999999985E+00  0.213819158956E+01
  0.721225044865E+01 -0.166666666665E+01 -0.250000000000E+01
  0.600435272527E+02 -0.166666666665E+01  0.212213779995E+01
  0.739715062810E+01 -0.233333333335E+01 -0.250000000000E+01
  0.600449317773E+02 -0.233333333335E+01  0.210608401035E+01
  0.758205080755E+01 -0.300000000000E+01 -0.250000000000E+01
  0.600463363019E+02 -0.300000000000E+01  0.209003022074E+01
  0.776695098705E+01 -0.366666666665E+01 -0.250000000000E+01
  0.600477408265E+02 -0.366666666665E+01  0.207397643113E+01
  0.795185116650E+01 -0.433333333335E+01 -0.250000000000E+01
  0.600491453511E+02 -0.433333333335E+01  0.205792264152E+01
  0.813675134595E+01 -0.500000000000E+01 -0.250000000000E+01
  0.600505498757E+02 -0.500000000000E+01  0.204186885192E+01
  0.850655170485E+01 -0.633333333335E+01 -0.250000000000E+01
  0.600533589248E+02 -0.633333333335E+01  0.200976127271E+01
  0.832165152540E+01 -0.566666666665E+01 -0.250000000000E+01
  0.600519544002E+02 -0.566666666665E+01  0.202581506231E+01
  0.887635206380E+01 -0.766666666665E+01 -0.250000000000E+01
  0.600561679740E+02 -0.766666666665E+01  0.197765369349E+01
  0.869145188435E+01 -0.700000000000E+01 -0.250000000000E+01
  0.600547634494E+02 -0.700000000000E+01  0.199370748310E+01
  0.906125224325E+01 -0.833333333335E+01 -0.250000000000E+01
  0.600575724986E+02 -0.833333333335E+01  0.196159990388E+01
  0.924615242270E+01 -0.900000000000E+01 -0.250000000000E+01
  0.600589770232E+02 -0.900000000000E+01  0.194554611428E+01
  0.943105260215E+01 -0.966666666665E+01 -0.250000000000E+01
  0.600603815478E+02 -0.966666666665E+01  0.192949232467E+01
LINES                  60                 180
2                   0                   1
2                   2                   3
2                   4                   5
2                   6                   7
2                   8                   9
2                  10                  11
2                  12                  13
2                  14                  15
2                  16                  17
2                  18                  19
2                  20                  21
2                  22                  23
2                  24                  25
2                  26                  27
2                  28                  29
2                  30                  31
2                  32                  33
2                  34                  35
2                  36                  37
2                  38                  39
2                  40                  41
2                  42                  43
2                  44                  45
2                  46                  47
2                  48                  49
2                  50                  51
2                  52                  53
2                  54                  55
2                  56                  57
2                  58                  59
2                  60                  61
2                  62                  63
2                  64                  65
2                  66                  67
2                  68                  69
2                  70                  71
2                  72                  73
2                  74                  75
2                  76                  77
2                  78                  79
2                  80                  81
2                  82                  83
2                  84                  85
2                  86                  87
2                  88                  89
2                  90                  91
2                  92                  93
2                  94                  95
2                  96                  97
2                  98                  99
2                 100                 101
2                 102                 103
2                 104                 105
2                 106                 107
2                 108                 109
2                 110                 111
2                 112                 113
2                 114                 115
2                 116                 117
2                 118                 119
POINT_DATA                 120
SCALARS Gamma float 1
LOOKUP_TABLE default
 -0.175004277335E-01
 -0.175004277335E-01
 -0.103214545733E-01
 -0.103214545733E-01
 -0.100958384224E-01
 -0.100958384224E-01
  0.108832530225E-01
  0.108832530225E-01
  0.180426700846E-01
  0.180426700846E-01
  0.327735107972E-01
  0.327735107972E-01
  0.164997414232E-01
  0.164997414232E-01
  0.369018464894E-01
  0.369018464894E-01
  0.219112353877E-01
  0.219112353877E-01
  0.341137890173E-01
  0.341137890173E-01
  0.224302042714E-01
  0.224302042714E-01
  0.352634230919E-01
  0.352634230919E-01
  0.313773580967E-01
  0.313773580967E-01
  0.157674478009E+00
  0.157674478009E+00
  0.203995216264E-01
  0.203995216264E-01
  0.175005810545E-01
  0.175005810545E-01
  0.103211444745E-01
  0.103211444745E-01
  0.100975763348E-01
  0.100975763348E-01
 -0.108853594469E-01
 -0.108853594469E-01
 -0.180417186575E-01
 -0.180417186575E-01
 -0.327751938186E-01
 -0.327751938186E-01
 -0.164971151227E-01
 -0.164971151227E-01
 -0.369061396806E-01
 -0.369061396806E-01
 -0.341157514470E-01
 -0.341157514470E-01
 -0.219075406375E-01
 -0.219075406375E-01
 -0.224279626733E-01
 -0.224279626733E-01
 -0.352646686323E-01
 -0.352646686323E-01
 -0.313775170265E-01
 -0.313775170265E-01
 -0.157674401475E+00
 -0.157674401475E+00
 -0.203992438335E-01
 -0.203992438335E-01
  0.125154768642E-01
  0.125154768642E-01
 -0.334473504316E-01
 -0.334473504316E-01
  0.282896921446E-01
  0.282896921446E-01
  0.243465951367E-01
  0.243465951367E-01
  0.513912923050E-01
  0.513912923050E-01
  0.253293155068E-01
  0.253293155068E-01
  0.298356249826E-01
  0.298356249826E-01
  0.380762464771E-01
  0.380762464771E-01
 -0.101897161950E+00
 -0.101897161950E+00
  0.209800160048E-01
  0.209800160048E-01
 -0.650780593337E-01
 -0.650780593337E-01
  0.802057396096E-01
  0.802057396096E-01
 -0.109929823647E+00
 -0.109929823647E+00
 -0.308451763891E-02
 -0.308451763891E-02
  0.117914740192E+00
  0.117914740192E+00
 -0.125127904096E-01
 -0.125127904096E-01
  0.334434179208E-01
  0.334434179208E-01
 -0.282880056765E-01
 -0.282880056765E-01
 -0.243489313699E-01
 -0.243489313699E-01
 -0.513900816211E-01
 -0.513900816211E-01
 -0.253277763707E-01
 -0.253277763707E-01
 -0.298372568986E-01
 -0.298372568986E-01
 -0.380719331981E-01
 -0.380719331981E-01
 -0.209785908048E-01
 -0.209785908048E-01
  0.101892776713E+00
  0.101892776713E+00
 -0.802033845264E-01
 -0.802033845264E-01
  0.650755439586E-01
  0.650755439586E-01
  0.109929774206E+00
  0.109929774206E+00
  0.308421282019E-02
  0.308421282019E-02
 -0.117914800964E+00
 -0.117914800964E+00
