# vtk DataFile Version 3.0
MachLine results file. Generated by MachLine, USU AeroLab (c) 2023.
ASCII
DATASET POLYDATA
POINTS                 160 float
  0.406933756730E+01  0.250000000000E+00  0.000000000000E+00
  0.598025930762E+02  0.250000000000E+00  0.487602803842E+01
  0.420801270190E+01  0.750000000000E+00  0.000000000000E+00
  0.598036464697E+02  0.750000000000E+00  0.486398769622E+01
  0.434668783650E+01  0.125000000000E+01  0.000000000000E+00
  0.598046998631E+02  0.125000000000E+01  0.485194735401E+01
  0.448536297110E+01  0.175000000000E+01  0.000000000000E+00
  0.598057532565E+02  0.175000000000E+01  0.483990701181E+01
  0.462403810570E+01  0.225000000000E+01  0.000000000000E+00
  0.598068066500E+02  0.225000000000E+01  0.482786666960E+01
  0.476271324030E+01  0.275000000000E+01  0.000000000000E+00
  0.598078600434E+02  0.275000000000E+01  0.481582632740E+01
  0.490138837490E+01  0.325000000000E+01  0.000000000000E+00
  0.598089134369E+02  0.325000000000E+01  0.480378598519E+01
  0.504006350950E+01  0.375000000000E+01  0.000000000000E+00
  0.598099668303E+02  0.375000000000E+01  0.479174564298E+01
  0.517873864410E+01  0.425000000000E+01  0.000000000000E+00
  0.598110202238E+02  0.425000000000E+01  0.477970530078E+01
  0.531741377865E+01  0.475000000000E+01  0.000000000000E+00
  0.598120736172E+02  0.475000000000E+01  0.476766495858E+01
  0.545608891320E+01  0.525000000000E+01  0.000000000000E+00
  0.598131270107E+02  0.525000000000E+01  0.475562461638E+01
  0.559476404780E+01  0.575000000000E+01  0.000000000000E+00
  0.598141804041E+02  0.575000000000E+01  0.474358427417E+01
  0.573343918240E+01  0.625000000000E+01  0.000000000000E+00
  0.598152337976E+02  0.625000000000E+01  0.473154393197E+01
  0.587211431700E+01  0.675000000000E+01  0.000000000000E+00
  0.598162871910E+02  0.675000000000E+01  0.471950358976E+01
  0.601078945160E+01  0.725000000000E+01  0.000000000000E+00
  0.598173405845E+02  0.725000000000E+01  0.470746324755E+01
  0.614946458620E+01  0.775000000000E+01  0.000000000000E+00
  0.598183939779E+02  0.775000000000E+01  0.469542290535E+01
  0.628813972080E+01  0.825000000000E+01  0.000000000000E+00
  0.598194473714E+02  0.825000000000E+01  0.468338256314E+01
  0.642681485540E+01  0.875000000000E+01  0.000000000000E+00
  0.598205007648E+02  0.875000000000E+01  0.467134222094E+01
  0.670416512460E+01  0.975000000000E+01  0.000000000000E+00
  0.598226075517E+02  0.975000000000E+01  0.464726153653E+01
  0.656548999000E+01  0.925000000000E+01  0.000000000000E+00
  0.598215541583E+02  0.925000000000E+01  0.465930187873E+01
  0.406933756730E+01 -0.250000000000E+00  0.000000000000E+00
  0.598025930762E+02 -0.250000000000E+00  0.487602803842E+01
  0.420801270190E+01 -0.750000000000E+00  0.000000000000E+00
  0.598036464697E+02 -0.750000000000E+00  0.486398769622E+01
  0.434668783650E+01 -0.125000000000E+01  0.000000000000E+00
  0.598046998631E+02 -0.125000000000E+01  0.485194735401E+01
  0.448536297110E+01 -0.175000000000E+01  0.000000000000E+00
  0.598057532565E+02 -0.175000000000E+01  0.483990701181E+01
  0.462403810570E+01 -0.225000000000E+01  0.000000000000E+00
  0.598068066500E+02 -0.225000000000E+01  0.482786666960E+01
  0.476271324030E+01 -0.275000000000E+01  0.000000000000E+00
  0.598078600434E+02 -0.275000000000E+01  0.481582632740E+01
  0.490138837490E+01 -0.325000000000E+01  0.000000000000E+00
  0.598089134369E+02 -0.325000000000E+01  0.480378598519E+01
  0.504006350950E+01 -0.375000000000E+01  0.000000000000E+00
  0.598099668303E+02 -0.375000000000E+01  0.479174564298E+01
  0.517873864410E+01 -0.425000000000E+01  0.000000000000E+00
  0.598110202238E+02 -0.425000000000E+01  0.477970530078E+01
  0.531741377865E+01 -0.475000000000E+01  0.000000000000E+00
  0.598120736172E+02 -0.475000000000E+01  0.476766495858E+01
  0.545608891320E+01 -0.525000000000E+01  0.000000000000E+00
  0.598131270107E+02 -0.525000000000E+01  0.475562461638E+01
  0.559476404780E+01 -0.575000000000E+01  0.000000000000E+00
  0.598141804041E+02 -0.575000000000E+01  0.474358427417E+01
  0.573343918240E+01 -0.625000000000E+01  0.000000000000E+00
  0.598152337976E+02 -0.625000000000E+01  0.473154393197E+01
  0.587211431700E+01 -0.675000000000E+01  0.000000000000E+00
  0.598162871910E+02 -0.675000000000E+01  0.471950358976E+01
  0.601078945160E+01 -0.725000000000E+01  0.000000000000E+00
  0.598173405845E+02 -0.725000000000E+01  0.470746324755E+01
  0.614946458620E+01 -0.775000000000E+01  0.000000000000E+00
  0.598183939779E+02 -0.775000000000E+01  0.469542290535E+01
  0.628813972080E+01 -0.825000000000E+01  0.000000000000E+00
  0.598194473714E+02 -0.825000000000E+01  0.468338256314E+01
  0.642681485540E+01 -0.875000000000E+01  0.000000000000E+00
  0.598205007648E+02 -0.875000000000E+01  0.467134222094E+01
  0.656548999000E+01 -0.925000000000E+01  0.000000000000E+00
  0.598215541583E+02 -0.925000000000E+01  0.465930187873E+01
  0.670416512460E+01 -0.975000000000E+01  0.000000000000E+00
  0.598226075517E+02 -0.975000000000E+01  0.464726153653E+01
  0.681933756730E+01  0.250000000000E+00 -0.250000000000E+01
  0.600405426379E+02  0.250000000000E+00  0.215625210287E+01
  0.695801270190E+01  0.750000000000E+00 -0.250000000000E+01
  0.600415960313E+02  0.750000000000E+00  0.214421176066E+01
  0.709668783650E+01  0.125000000000E+01 -0.250000000000E+01
  0.600426494248E+02  0.125000000000E+01  0.213217141845E+01
  0.723536297110E+01  0.175000000000E+01 -0.250000000000E+01
  0.600437028182E+02  0.175000000000E+01  0.212013107625E+01
  0.737403810570E+01  0.225000000000E+01 -0.250000000000E+01
  0.600447562117E+02  0.225000000000E+01  0.210809073404E+01
  0.751271324030E+01  0.275000000000E+01 -0.250000000000E+01
  0.600458096051E+02  0.275000000000E+01  0.209605039184E+01
  0.765138837490E+01  0.325000000000E+01 -0.250000000000E+01
  0.600468629986E+02  0.325000000000E+01  0.208401004963E+01
  0.792873864410E+01  0.425000000000E+01 -0.250000000000E+01
  0.600489697855E+02  0.425000000000E+01  0.205992936522E+01
  0.779006350950E+01  0.375000000000E+01 -0.250000000000E+01
  0.600479163920E+02  0.375000000000E+01  0.207196970743E+01
  0.806741377865E+01  0.475000000000E+01 -0.250000000000E+01
  0.600500231789E+02  0.475000000000E+01  0.204788902302E+01
  0.820608891320E+01  0.525000000000E+01 -0.250000000000E+01
  0.600510765724E+02  0.525000000000E+01  0.203584868082E+01
  0.834476404780E+01  0.575000000000E+01 -0.250000000000E+01
  0.600521299658E+02  0.575000000000E+01  0.202380833861E+01
  0.848343918240E+01  0.625000000000E+01 -0.250000000000E+01
  0.600531833593E+02  0.625000000000E+01  0.201176799641E+01
  0.862211431700E+01  0.675000000000E+01 -0.250000000000E+01
  0.600542367527E+02  0.675000000000E+01  0.199972765420E+01
  0.876078945160E+01  0.725000000000E+01 -0.250000000000E+01
  0.600552901462E+02  0.725000000000E+01  0.198768731200E+01
  0.889946458620E+01  0.775000000000E+01 -0.250000000000E+01
  0.600563435396E+02  0.775000000000E+01  0.197564696979E+01
  0.903813972080E+01  0.825000000000E+01 -0.250000000000E+01
  0.600573969331E+02  0.825000000000E+01  0.196360662759E+01
  0.917681485540E+01  0.875000000000E+01 -0.250000000000E+01
  0.600584503265E+02  0.875000000000E+01  0.195156628538E+01
  0.931548999000E+01  0.925000000000E+01 -0.250000000000E+01
  0.600595037200E+02  0.925000000000E+01  0.193952594318E+01
  0.945416512460E+01  0.975000000000E+01 -0.250000000000E+01
  0.600605571134E+02  0.975000000000E+01  0.192748560097E+01
  0.681933756730E+01 -0.250000000000E+00 -0.250000000000E+01
  0.600405426379E+02 -0.250000000000E+00  0.215625210287E+01
  0.695801270190E+01 -0.750000000000E+00 -0.250000000000E+01
  0.600415960313E+02 -0.750000000000E+00  0.214421176066E+01
  0.709668783650E+01 -0.125000000000E+01 -0.250000000000E+01
  0.600426494248E+02 -0.125000000000E+01  0.213217141845E+01
  0.723536297110E+01 -0.175000000000E+01 -0.250000000000E+01
  0.600437028182E+02 -0.175000000000E+01  0.212013107625E+01
  0.737403810570E+01 -0.225000000000E+01 -0.250000000000E+01
  0.600447562117E+02 -0.225000000000E+01  0.210809073404E+01
  0.751271324030E+01 -0.275000000000E+01 -0.250000000000E+01
  0.600458096051E+02 -0.275000000000E+01  0.209605039184E+01
  0.765138837490E+01 -0.325000000000E+01 -0.250000000000E+01
  0.600468629986E+02 -0.325000000000E+01  0.208401004963E+01
  0.779006350950E+01 -0.375000000000E+01 -0.250000000000E+01
  0.600479163920E+02 -0.375000000000E+01  0.207196970743E+01
  0.792873864410E+01 -0.425000000000E+01 -0.250000000000E+01
  0.600489697855E+02 -0.425000000000E+01  0.205992936522E+01
  0.806741377865E+01 -0.475000000000E+01 -0.250000000000E+01
  0.600500231789E+02 -0.475000000000E+01  0.204788902302E+01
  0.820608891320E+01 -0.525000000000E+01 -0.250000000000E+01
  0.600510765724E+02 -0.525000000000E+01  0.203584868082E+01
  0.834476404780E+01 -0.575000000000E+01 -0.250000000000E+01
  0.600521299658E+02 -0.575000000000E+01  0.202380833861E+01
  0.848343918240E+01 -0.625000000000E+01 -0.250000000000E+01
  0.600531833593E+02 -0.625000000000E+01  0.201176799641E+01
  0.862211431700E+01 -0.675000000000E+01 -0.250000000000E+01
  0.600542367527E+02 -0.675000000000E+01  0.199972765420E+01
  0.876078945160E+01 -0.725000000000E+01 -0.250000000000E+01
  0.600552901462E+02 -0.725000000000E+01  0.198768731200E+01
  0.889946458620E+01 -0.775000000000E+01 -0.250000000000E+01
  0.600563435396E+02 -0.775000000000E+01  0.197564696979E+01
  0.903813972080E+01 -0.825000000000E+01 -0.250000000000E+01
  0.600573969331E+02 -0.825000000000E+01  0.196360662759E+01
  0.917681485540E+01 -0.875000000000E+01 -0.250000000000E+01
  0.600584503265E+02 -0.875000000000E+01  0.195156628538E+01
  0.931548999000E+01 -0.925000000000E+01 -0.250000000000E+01
  0.600595037200E+02 -0.925000000000E+01  0.193952594318E+01
  0.945416512460E+01 -0.975000000000E+01 -0.250000000000E+01
  0.600605571134E+02 -0.975000000000E+01  0.192748560097E+01
LINES                  80                 240
2                   0                   1
2                   2                   3
2                   4                   5
2                   6                   7
2                   8                   9
2                  10                  11
2                  12                  13
2                  14                  15
2                  16                  17
2                  18                  19
2                  20                  21
2                  22                  23
2                  24                  25
2                  26                  27
2                  28                  29
2                  30                  31
2                  32                  33
2                  34                  35
2                  36                  37
2                  38                  39
2                  40                  41
2                  42                  43
2                  44                  45
2                  46                  47
2                  48                  49
2                  50                  51
2                  52                  53
2                  54                  55
2                  56                  57
2                  58                  59
2                  60                  61
2                  62                  63
2                  64                  65
2                  66                  67
2                  68                  69
2                  70                  71
2                  72                  73
2                  74                  75
2                  76                  77
2                  78                  79
2                  80                  81
2                  82                  83
2                  84                  85
2                  86                  87
2                  88                  89
2                  90                  91
2                  92                  93
2                  94                  95
2                  96                  97
2                  98                  99
2                 100                 101
2                 102                 103
2                 104                 105
2                 106                 107
2                 108                 109
2                 110                 111
2                 112                 113
2                 114                 115
2                 116                 117
2                 118                 119
2                 120                 121
2                 122                 123
2                 124                 125
2                 126                 127
2                 128                 129
2                 130                 131
2                 132                 133
2                 134                 135
2                 136                 137
2                 138                 139
2                 140                 141
2                 142                 143
2                 144                 145
2                 146                 147
2                 148                 149
2                 150                 151
2                 152                 153
2                 154                 155
2                 156                 157
2                 158                 159
POINT_DATA                 160
SCALARS Gamma float 1
LOOKUP_TABLE default
 -0.149227537173E-01
 -0.149227537173E-01
 -0.740775440494E-02
 -0.740775440494E-02
 -0.729883161214E-02
 -0.729883161214E-02
  0.402853950721E-02
  0.402853950721E-02
  0.700744975848E-02
  0.700744975848E-02
  0.899373262737E-02
  0.899373262737E-02
  0.144904757172E-01
  0.144904757172E-01
  0.162407026424E-01
  0.162407026424E-01
  0.178905805440E-01
  0.178905805440E-01
  0.173652091045E-01
  0.173652091045E-01
  0.248407718719E-01
  0.248407718719E-01
  0.203843735881E-01
  0.203843735881E-01
  0.169174215749E-01
  0.169174215749E-01
  0.215690770750E-01
  0.215690770750E-01
  0.218994990795E-01
  0.218994990795E-01
  0.221830680201E-01
  0.221830680201E-01
  0.164496384597E-01
  0.164496384597E-01
  0.308442872489E-01
  0.308442872489E-01
  0.146061360418E+00
  0.146061360418E+00
  0.199152143777E-01
  0.199152143777E-01
  0.149227530431E-01
  0.149227530431E-01
  0.740775538518E-02
  0.740775538518E-02
  0.729883188893E-02
  0.729883188893E-02
 -0.402853801063E-02
 -0.402853801063E-02
 -0.700744926016E-02
 -0.700744926016E-02
 -0.899373156761E-02
 -0.899373156761E-02
 -0.144904761326E-01
 -0.144904761326E-01
 -0.162407262089E-01
 -0.162407262089E-01
 -0.178905770578E-01
 -0.178905770578E-01
 -0.173652477137E-01
 -0.173652477137E-01
 -0.248406547243E-01
 -0.248406547243E-01
 -0.203845366945E-01
 -0.203845366945E-01
 -0.169173266534E-01
 -0.169173266534E-01
 -0.215689832398E-01
 -0.215689832398E-01
 -0.218996643819E-01
 -0.218996643819E-01
 -0.221829736368E-01
 -0.221829736368E-01
 -0.164496553267E-01
 -0.164496553267E-01
 -0.308442719442E-01
 -0.308442719442E-01
 -0.199152225054E-01
 -0.199152225054E-01
 -0.146061367140E+00
 -0.146061367140E+00
 -0.121934106445E-01
 -0.121934106445E-01
 -0.990380842872E-02
 -0.990380842872E-02
  0.146518854258E-01
  0.146518854258E-01
  0.187733662229E-01
  0.187733662229E-01
 -0.201086179269E-01
 -0.201086179269E-01
  0.152420852473E-01
  0.152420852473E-01
  0.372462162066E-01
  0.372462162066E-01
  0.571755804978E-01
  0.571755804978E-01
  0.300813201492E-01
  0.300813201492E-01
  0.534210731462E-02
  0.534210731462E-02
 -0.253783006188E-01
 -0.253783006188E-01
  0.464054980949E-01
  0.464054980949E-01
 -0.662373995202E-01
 -0.662373995202E-01
  0.433479439716E-01
  0.433479439716E-01
 -0.808756249819E-01
 -0.808756249819E-01
  0.146025906147E-01
  0.146025906147E-01
 -0.330399954550E-01
 -0.330399954550E-01
 -0.127439539424E-01
 -0.127439539424E-01
 -0.252392521970E-01
 -0.252392521970E-01
  0.113332633818E+00
  0.113332633818E+00
  0.121934065990E-01
  0.121934065990E-01
  0.990381757164E-02
  0.990381757164E-02
 -0.146519214676E-01
 -0.146519214676E-01
 -0.187733018804E-01
 -0.187733018804E-01
  0.201086089517E-01
  0.201086089517E-01
 -0.152421001684E-01
 -0.152421001684E-01
 -0.372462454992E-01
 -0.372462454992E-01
 -0.300813528077E-01
 -0.300813528077E-01
 -0.571755202005E-01
 -0.571755202005E-01
 -0.534214446301E-02
 -0.534214446301E-02
  0.253783520709E-01
  0.253783520709E-01
 -0.464054938509E-01
 -0.464054938509E-01
  0.662373987874E-01
  0.662373987874E-01
 -0.433479792636E-01
 -0.433479792636E-01
  0.808756578900E-01
  0.808756578900E-01
 -0.146027149371E-01
 -0.146027149371E-01
  0.330400944478E-01
  0.330400944478E-01
  0.127438241150E-01
  0.127438241150E-01
  0.252393805591E-01
  0.252393805591E-01
 -0.113332630303E+00
 -0.113332630303E+00
