# vtk DataFile Version 3.0
MachLine results file. Generated by MachLine, USU AeroLab (c) 2023.
ASCII
DATASET POLYDATA
POINTS                 160 float
  0.427735026920E+01  0.100000000000E+01  0.000000000000E+00
  0.400000000000E+01  0.000000000000E+00  0.000000000000E+00
  0.598041731664E+02  0.100000000000E+01  0.485796752511E+01
  0.598020663795E+02  0.000000000000E+00  0.488204820953E+01
  0.455470053840E+01  0.200000000000E+01  0.000000000000E+00
  0.427735026920E+01  0.100000000000E+01  0.000000000000E+00
  0.598062799533E+02  0.200000000000E+01  0.483388684070E+01
  0.598041731664E+02  0.100000000000E+01  0.485796752511E+01
  0.483205080760E+01  0.300000000000E+01  0.000000000000E+00
  0.455470053840E+01  0.200000000000E+01  0.000000000000E+00
  0.598083867402E+02  0.300000000000E+01  0.480980615629E+01
  0.598062799533E+02  0.200000000000E+01  0.483388684070E+01
  0.510940107680E+01  0.400000000000E+01  0.000000000000E+00
  0.483205080760E+01  0.300000000000E+01  0.000000000000E+00
  0.598104935271E+02  0.400000000000E+01  0.478572547188E+01
  0.598083867402E+02  0.300000000000E+01  0.480980615629E+01
  0.538675134590E+01  0.500000000000E+01  0.000000000000E+00
  0.510940107680E+01  0.400000000000E+01  0.000000000000E+00
  0.598126003140E+02  0.500000000000E+01  0.476164478748E+01
  0.598104935271E+02  0.400000000000E+01  0.478572547188E+01
  0.566410161510E+01  0.600000000000E+01  0.000000000000E+00
  0.538675134590E+01  0.500000000000E+01  0.000000000000E+00
  0.598147071009E+02  0.600000000000E+01  0.473756410307E+01
  0.598126003140E+02  0.500000000000E+01  0.476164478748E+01
  0.594145188430E+01  0.700000000000E+01  0.000000000000E+00
  0.566410161510E+01  0.600000000000E+01  0.000000000000E+00
  0.598168138878E+02  0.700000000000E+01  0.471348341866E+01
  0.598147071009E+02  0.600000000000E+01  0.473756410307E+01
  0.621880215350E+01  0.800000000000E+01  0.000000000000E+00
  0.594145188430E+01  0.700000000000E+01  0.000000000000E+00
  0.598189206746E+02  0.800000000000E+01  0.468940273425E+01
  0.598168138878E+02  0.700000000000E+01  0.471348341866E+01
  0.649615242270E+01  0.900000000000E+01  0.000000000000E+00
  0.621880215350E+01  0.800000000000E+01  0.000000000000E+00
  0.598210274615E+02  0.900000000000E+01  0.466532204984E+01
  0.598189206746E+02  0.800000000000E+01  0.468940273425E+01
  0.677350269190E+01  0.100000000000E+02  0.000000000000E+00
  0.649615242270E+01  0.900000000000E+01  0.000000000000E+00
  0.598231342484E+02  0.100000000000E+02  0.464124136542E+01
  0.598210274615E+02  0.900000000000E+01  0.466532204984E+01
  0.400000000000E+01  0.000000000000E+00  0.000000000000E+00
  0.427735026920E+01 -0.100000000000E+01  0.000000000000E+00
  0.598020663795E+02  0.000000000000E+00  0.488204820953E+01
  0.598041731664E+02 -0.100000000000E+01  0.485796752511E+01
  0.427735026920E+01 -0.100000000000E+01  0.000000000000E+00
  0.455470053840E+01 -0.200000000000E+01  0.000000000000E+00
  0.598041731664E+02 -0.100000000000E+01  0.485796752511E+01
  0.598062799533E+02 -0.200000000000E+01  0.483388684070E+01
  0.455470053840E+01 -0.200000000000E+01  0.000000000000E+00
  0.483205080760E+01 -0.300000000000E+01  0.000000000000E+00
  0.598062799533E+02 -0.200000000000E+01  0.483388684070E+01
  0.598083867402E+02 -0.300000000000E+01  0.480980615629E+01
  0.483205080760E+01 -0.300000000000E+01  0.000000000000E+00
  0.510940107680E+01 -0.400000000000E+01  0.000000000000E+00
  0.598083867402E+02 -0.300000000000E+01  0.480980615629E+01
  0.598104935271E+02 -0.400000000000E+01  0.478572547188E+01
  0.510940107680E+01 -0.400000000000E+01  0.000000000000E+00
  0.538675134590E+01 -0.500000000000E+01  0.000000000000E+00
  0.598104935271E+02 -0.400000000000E+01  0.478572547188E+01
  0.598126003140E+02 -0.500000000000E+01  0.476164478748E+01
  0.538675134590E+01 -0.500000000000E+01  0.000000000000E+00
  0.566410161510E+01 -0.600000000000E+01  0.000000000000E+00
  0.598126003140E+02 -0.500000000000E+01  0.476164478748E+01
  0.598147071009E+02 -0.600000000000E+01  0.473756410307E+01
  0.566410161510E+01 -0.600000000000E+01  0.000000000000E+00
  0.594145188430E+01 -0.700000000000E+01  0.000000000000E+00
  0.598147071009E+02 -0.600000000000E+01  0.473756410307E+01
  0.598168138878E+02 -0.700000000000E+01  0.471348341866E+01
  0.621880215350E+01 -0.800000000000E+01  0.000000000000E+00
  0.649615242270E+01 -0.900000000000E+01  0.000000000000E+00
  0.598189206746E+02 -0.800000000000E+01  0.468940273425E+01
  0.598210274615E+02 -0.900000000000E+01  0.466532204984E+01
  0.594145188430E+01 -0.700000000000E+01  0.000000000000E+00
  0.621880215350E+01 -0.800000000000E+01  0.000000000000E+00
  0.598168138878E+02 -0.700000000000E+01  0.471348341866E+01
  0.598189206746E+02 -0.800000000000E+01  0.468940273425E+01
  0.649615242270E+01 -0.900000000000E+01  0.000000000000E+00
  0.677350269190E+01 -0.100000000000E+02  0.000000000000E+00
  0.598210274615E+02 -0.900000000000E+01  0.466532204984E+01
  0.598231342484E+02 -0.100000000000E+02  0.464124136542E+01
  0.702735026920E+01  0.100000000000E+01 -0.250000000000E+01
  0.675000000000E+01  0.000000000000E+00 -0.250000000000E+01
  0.600421227281E+02  0.100000000000E+01  0.213819158956E+01
  0.600400159412E+02  0.000000000000E+00  0.216227227397E+01
  0.730470053840E+01  0.200000000000E+01 -0.250000000000E+01
  0.702735026920E+01  0.100000000000E+01 -0.250000000000E+01
  0.600442295150E+02  0.200000000000E+01  0.211411090515E+01
  0.600421227281E+02  0.100000000000E+01  0.213819158956E+01
  0.758205080760E+01  0.300000000000E+01 -0.250000000000E+01
  0.730470053840E+01  0.200000000000E+01 -0.250000000000E+01
  0.600463363019E+02  0.300000000000E+01  0.209003022074E+01
  0.600442295150E+02  0.200000000000E+01  0.211411090515E+01
  0.785940107680E+01  0.400000000000E+01 -0.250000000000E+01
  0.758205080760E+01  0.300000000000E+01 -0.250000000000E+01
  0.600484430888E+02  0.400000000000E+01  0.206594953632E+01
  0.600463363019E+02  0.300000000000E+01  0.209003022074E+01
  0.841410161510E+01  0.600000000000E+01 -0.250000000000E+01
  0.813675134590E+01  0.500000000000E+01 -0.250000000000E+01
  0.600526566625E+02  0.600000000000E+01  0.201778816751E+01
  0.600505498757E+02  0.500000000000E+01  0.204186885192E+01
  0.813675134590E+01  0.500000000000E+01 -0.250000000000E+01
  0.785940107680E+01  0.400000000000E+01 -0.250000000000E+01
  0.600505498757E+02  0.500000000000E+01  0.204186885192E+01
  0.600484430888E+02  0.400000000000E+01  0.206594953632E+01
  0.869145188430E+01  0.700000000000E+01 -0.250000000000E+01
  0.841410161510E+01  0.600000000000E+01 -0.250000000000E+01
  0.600547634494E+02  0.700000000000E+01  0.199370748310E+01
  0.600526566625E+02  0.600000000000E+01  0.201778816751E+01
  0.896880215350E+01  0.800000000000E+01 -0.250000000000E+01
  0.869145188430E+01  0.700000000000E+01 -0.250000000000E+01
  0.600568702363E+02  0.800000000000E+01  0.196962679869E+01
  0.600547634494E+02  0.700000000000E+01  0.199370748310E+01
  0.924615242270E+01  0.900000000000E+01 -0.250000000000E+01
  0.896880215350E+01  0.800000000000E+01 -0.250000000000E+01
  0.600589770232E+02  0.900000000000E+01  0.194554611428E+01
  0.600568702363E+02  0.800000000000E+01  0.196962679869E+01
  0.952350269190E+01  0.100000000000E+02 -0.250000000000E+01
  0.924615242270E+01  0.900000000000E+01 -0.250000000000E+01
  0.600610838101E+02  0.100000000000E+02  0.192146542987E+01
  0.600589770232E+02  0.900000000000E+01  0.194554611428E+01
  0.675000000000E+01  0.000000000000E+00 -0.250000000000E+01
  0.702735026920E+01 -0.100000000000E+01 -0.250000000000E+01
  0.600400159412E+02  0.000000000000E+00  0.216227227397E+01
  0.600421227281E+02 -0.100000000000E+01  0.213819158956E+01
  0.702735026920E+01 -0.100000000000E+01 -0.250000000000E+01
  0.730470053840E+01 -0.200000000000E+01 -0.250000000000E+01
  0.600421227281E+02 -0.100000000000E+01  0.213819158956E+01
  0.600442295150E+02 -0.200000000000E+01  0.211411090515E+01
  0.730470053840E+01 -0.200000000000E+01 -0.250000000000E+01
  0.758205080760E+01 -0.300000000000E+01 -0.250000000000E+01
  0.600442295150E+02 -0.200000000000E+01  0.211411090515E+01
  0.600463363019E+02 -0.300000000000E+01  0.209003022074E+01
  0.758205080760E+01 -0.300000000000E+01 -0.250000000000E+01
  0.785940107680E+01 -0.400000000000E+01 -0.250000000000E+01
  0.600463363019E+02 -0.300000000000E+01  0.209003022074E+01
  0.600484430888E+02 -0.400000000000E+01  0.206594953632E+01
  0.785940107680E+01 -0.400000000000E+01 -0.250000000000E+01
  0.813675134590E+01 -0.500000000000E+01 -0.250000000000E+01
  0.600484430888E+02 -0.400000000000E+01  0.206594953632E+01
  0.600505498757E+02 -0.500000000000E+01  0.204186885192E+01
  0.841410161510E+01 -0.600000000000E+01 -0.250000000000E+01
  0.869145188430E+01 -0.700000000000E+01 -0.250000000000E+01
  0.600526566625E+02 -0.600000000000E+01  0.201778816751E+01
  0.600547634494E+02 -0.700000000000E+01  0.199370748310E+01
  0.813675134590E+01 -0.500000000000E+01 -0.250000000000E+01
  0.841410161510E+01 -0.600000000000E+01 -0.250000000000E+01
  0.600505498757E+02 -0.500000000000E+01  0.204186885192E+01
  0.600526566625E+02 -0.600000000000E+01  0.201778816751E+01
  0.869145188430E+01 -0.700000000000E+01 -0.250000000000E+01
  0.896880215350E+01 -0.800000000000E+01 -0.250000000000E+01
  0.600547634494E+02 -0.700000000000E+01  0.199370748310E+01
  0.600568702363E+02 -0.800000000000E+01  0.196962679869E+01
  0.896880215350E+01 -0.800000000000E+01 -0.250000000000E+01
  0.924615242270E+01 -0.900000000000E+01 -0.250000000000E+01
  0.600568702363E+02 -0.800000000000E+01  0.196962679869E+01
  0.600589770232E+02 -0.900000000000E+01  0.194554611428E+01
  0.924615242270E+01 -0.900000000000E+01 -0.250000000000E+01
  0.952350269190E+01 -0.100000000000E+02 -0.250000000000E+01
  0.600589770232E+02 -0.900000000000E+01  0.194554611428E+01
  0.600610838101E+02 -0.100000000000E+02  0.192146542987E+01
POLYGONS                  80                 320
3                   0                   3                   1
3                   0                   2                   3
3                   4                   7                   5
3                   4                   6                   7
3                   8                  11                   9
3                   8                  10                  11
3                  12                  15                  13
3                  12                  14                  15
3                  16                  19                  17
3                  16                  18                  19
3                  20                  23                  21
3                  20                  22                  23
3                  24                  27                  25
3                  24                  26                  27
3                  28                  31                  29
3                  28                  30                  31
3                  32                  35                  33
3                  32                  34                  35
3                  36                  39                  37
3                  36                  38                  39
3                  40                  42                  41
3                  42                  43                  41
3                  44                  46                  45
3                  46                  47                  45
3                  48                  50                  49
3                  50                  51                  49
3                  52                  54                  53
3                  54                  55                  53
3                  56                  58                  57
3                  58                  59                  57
3                  60                  62                  61
3                  62                  63                  61
3                  64                  66                  65
3                  66                  67                  65
3                  68                  70                  69
3                  70                  71                  69
3                  72                  74                  73
3                  74                  75                  73
3                  76                  78                  77
3                  78                  79                  77
3                  80                  83                  81
3                  80                  82                  83
3                  84                  87                  85
3                  84                  86                  87
3                  88                  91                  89
3                  88                  90                  91
3                  92                  95                  93
3                  92                  94                  95
3                  96                  99                  97
3                  96                  98                  99
3                 100                 103                 101
3                 100                 102                 103
3                 104                 107                 105
3                 104                 106                 107
3                 108                 111                 109
3                 108                 110                 111
3                 112                 115                 113
3                 112                 114                 115
3                 116                 119                 117
3                 116                 118                 119
3                 120                 122                 121
3                 122                 123                 121
3                 124                 126                 125
3                 126                 127                 125
3                 128                 130                 129
3                 130                 131                 129
3                 132                 134                 133
3                 134                 135                 133
3                 136                 138                 137
3                 138                 139                 137
3                 140                 142                 141
3                 142                 143                 141
3                 144                 146                 145
3                 146                 147                 145
3                 148                 150                 149
3                 150                 151                 149
3                 152                 154                 153
3                 154                 155                 153
3                 156                 158                 157
3                 158                 159                 157
POINT_DATA                 160
SCALARS mu float 1
LOOKUP_TABLE default
 -0.394204424721E+00
 -0.388186817484E+00
 -0.394204424721E+00
 -0.388186817484E+00
 -0.389628049061E+00
 -0.394204424721E+00
 -0.389628049061E+00
 -0.394204424721E+00
 -0.376136326967E+00
 -0.389628049061E+00
 -0.376136326967E+00
 -0.389628049061E+00
 -0.353644952418E+00
 -0.376136326967E+00
 -0.353644952418E+00
 -0.376136326967E+00
 -0.325853328684E+00
 -0.353644952418E+00
 -0.325853328684E+00
 -0.353644952418E+00
 -0.293639949725E+00
 -0.325853328684E+00
 -0.293639949725E+00
 -0.325853328684E+00
 -0.257209850781E+00
 -0.293639949725E+00
 -0.257209850781E+00
 -0.293639949725E+00
 -0.214924768134E+00
 -0.257209850781E+00
 -0.214924768134E+00
 -0.257209850781E+00
 -0.136102342659E+00
 -0.214924768134E+00
 -0.136102342659E+00
 -0.214924768134E+00
  0.000000000000E+00
 -0.136102342659E+00
  0.000000000000E+00
 -0.136102342659E+00
 -0.388186817484E+00
 -0.394362857487E+00
 -0.388186817484E+00
 -0.394362857487E+00
 -0.394362857487E+00
 -0.389988545972E+00
 -0.394362857487E+00
 -0.389988545972E+00
 -0.389988545972E+00
 -0.375734600963E+00
 -0.389988545972E+00
 -0.375734600963E+00
 -0.375734600963E+00
 -0.353577730102E+00
 -0.375734600963E+00
 -0.353577730102E+00
 -0.353577730102E+00
 -0.325154042478E+00
 -0.353577730102E+00
 -0.325154042478E+00
 -0.325154042478E+00
 -0.292711699437E+00
 -0.325154042478E+00
 -0.292711699437E+00
 -0.292711699437E+00
 -0.256699064068E+00
 -0.292711699437E+00
 -0.256699064068E+00
 -0.214421552861E+00
 -0.135929863347E+00
 -0.214421552861E+00
 -0.135929863347E+00
 -0.256699064068E+00
 -0.214421552861E+00
 -0.256699064068E+00
 -0.214421552861E+00
 -0.135929863347E+00
  0.000000000000E+00
 -0.135929863347E+00
  0.000000000000E+00
 -0.185539182256E+00
 -0.173054027595E+00
 -0.185539182256E+00
 -0.173054027595E+00
 -0.197962642129E+00
 -0.185539182256E+00
 -0.197962642129E+00
 -0.185539182256E+00
 -0.159554612289E+00
 -0.197962642129E+00
 -0.159554612289E+00
 -0.197962642129E+00
 -0.101896806176E+00
 -0.159554612289E+00
 -0.101896806176E+00
 -0.159554612289E+00
 -0.814601601695E-01
 -0.393243872300E-01
 -0.814601601695E-01
 -0.393243872300E-01
 -0.393243872300E-01
 -0.101896806176E+00
 -0.393243872300E-01
 -0.101896806176E+00
 -0.305638969703E-01
 -0.814601601695E-01
 -0.305638969703E-01
 -0.814601601695E-01
 -0.908497956568E-01
 -0.305638969703E-01
 -0.908497956568E-01
 -0.305638969703E-01
  0.671189933785E-02
 -0.908497956568E-01
  0.671189933785E-02
 -0.908497956568E-01
  0.000000000000E+00
  0.671189933785E-02
  0.000000000000E+00
  0.671189933785E-02
 -0.173054027595E+00
 -0.185539438355E+00
 -0.173054027595E+00
 -0.185539438355E+00
 -0.185539438355E+00
 -0.198026547095E+00
 -0.185539438355E+00
 -0.198026547095E+00
 -0.198026547095E+00
 -0.159469328642E+00
 -0.198026547095E+00
 -0.159469328642E+00
 -0.159469328642E+00
 -0.101824773074E+00
 -0.159469328642E+00
 -0.101824773074E+00
 -0.101824773074E+00
 -0.395253694247E-01
 -0.101824773074E+00
 -0.395253694247E-01
 -0.815595051034E-01
 -0.299028902921E-01
 -0.815595051034E-01
 -0.299028902921E-01
 -0.395253694247E-01
 -0.815595051034E-01
 -0.395253694247E-01
 -0.815595051034E-01
 -0.299028902921E-01
 -0.917686956745E-01
 -0.299028902921E-01
 -0.917686956745E-01
 -0.917686956745E-01
  0.629618072858E-02
 -0.917686956745E-01
  0.629618072858E-02
  0.629618072858E-02
  0.000000000000E+00
  0.629618072858E-02
  0.000000000000E+00
