# vtk DataFile Version 3.0
MachLine results file. Generated by MachLine, USU AeroLab (c) 2023.
ASCII
DATASET POLYDATA
POINTS                 216 float
  0.410272232190E+01  0.370370370370E+00  0.000000000000E+00
  0.400000000000E+01  0.000000000000E+00  0.000000000000E+00
  0.598028466709E+02  0.370370370370E+00  0.487312943752E+01
  0.598020663795E+02  0.000000000000E+00  0.488204820953E+01
  0.420544464380E+01  0.740740740740E+00  0.000000000000E+00
  0.410272232190E+01  0.370370370370E+00  0.000000000000E+00
  0.598036269624E+02  0.740740740740E+00  0.486421066552E+01
  0.598028466709E+02  0.370370370370E+00  0.487312943752E+01
  0.430816696580E+01  0.111111111110E+01  0.000000000000E+00
  0.420544464380E+01  0.740740740740E+00  0.000000000000E+00
  0.598044072538E+02  0.111111111110E+01  0.485529189351E+01
  0.598036269624E+02  0.740740740740E+00  0.486421066552E+01
  0.441088928770E+01  0.148148148150E+01  0.000000000000E+00
  0.430816696580E+01  0.111111111110E+01  0.000000000000E+00
  0.598051875453E+02  0.148148148150E+01  0.484637312151E+01
  0.598044072538E+02  0.111111111110E+01  0.485529189351E+01
  0.451361160960E+01  0.185185185190E+01  0.000000000000E+00
  0.441088928770E+01  0.148148148150E+01  0.000000000000E+00
  0.598059678367E+02  0.185185185190E+01  0.483745434951E+01
  0.598051875453E+02  0.148148148150E+01  0.484637312151E+01
  0.461633393150E+01  0.222222222220E+01  0.000000000000E+00
  0.451361160960E+01  0.185185185190E+01  0.000000000000E+00
  0.598067481281E+02  0.222222222220E+01  0.482853557751E+01
  0.598059678367E+02  0.185185185190E+01  0.483745434951E+01
  0.471905625350E+01  0.259259259260E+01  0.000000000000E+00
  0.461633393150E+01  0.222222222220E+01  0.000000000000E+00
  0.598075284196E+02  0.259259259260E+01  0.481961680550E+01
  0.598067481281E+02  0.222222222220E+01  0.482853557751E+01
  0.482177857540E+01  0.296296296300E+01  0.000000000000E+00
  0.471905625350E+01  0.259259259260E+01  0.000000000000E+00
  0.598083087110E+02  0.296296296300E+01  0.481069803349E+01
  0.598075284196E+02  0.259259259260E+01  0.481961680550E+01
  0.492450089730E+01  0.333333333330E+01  0.000000000000E+00
  0.482177857540E+01  0.296296296300E+01  0.000000000000E+00
  0.598090890025E+02  0.333333333330E+01  0.480177926149E+01
  0.598083087110E+02  0.296296296300E+01  0.481069803349E+01
  0.502722321920E+01  0.370370370370E+01  0.000000000000E+00
  0.492450089730E+01  0.333333333330E+01  0.000000000000E+00
  0.598098692939E+02  0.370370370370E+01  0.479286048949E+01
  0.598090890025E+02  0.333333333330E+01  0.480177926149E+01
  0.512994554110E+01  0.407407407410E+01  0.000000000000E+00
  0.502722321920E+01  0.370370370370E+01  0.000000000000E+00
  0.598106495854E+02  0.407407407410E+01  0.478394171749E+01
  0.598098692939E+02  0.370370370370E+01  0.479286048949E+01
  0.523266786310E+01  0.444444444440E+01  0.000000000000E+00
  0.512994554110E+01  0.407407407410E+01  0.000000000000E+00
  0.598114298768E+02  0.444444444440E+01  0.477502294548E+01
  0.598106495854E+02  0.407407407410E+01  0.478394171749E+01
  0.533539018500E+01  0.481481481480E+01  0.000000000000E+00
  0.523266786310E+01  0.444444444440E+01  0.000000000000E+00
  0.598122101682E+02  0.481481481480E+01  0.476610417348E+01
  0.598114298768E+02  0.444444444440E+01  0.477502294548E+01
  0.543811250690E+01  0.518518518520E+01  0.000000000000E+00
  0.533539018500E+01  0.481481481480E+01  0.000000000000E+00
  0.598129904597E+02  0.518518518520E+01  0.475718540147E+01
  0.598122101682E+02  0.481481481480E+01  0.476610417348E+01
  0.554083482880E+01  0.555555555560E+01  0.000000000000E+00
  0.543811250690E+01  0.518518518520E+01  0.000000000000E+00
  0.598137707511E+02  0.555555555560E+01  0.474826662947E+01
  0.598129904597E+02  0.518518518520E+01  0.475718540147E+01
  0.564355715080E+01  0.592592592590E+01  0.000000000000E+00
  0.554083482880E+01  0.555555555560E+01  0.000000000000E+00
  0.598145510426E+02  0.592592592590E+01  0.473934785746E+01
  0.598137707511E+02  0.555555555560E+01  0.474826662947E+01
  0.574627947270E+01  0.629629629630E+01  0.000000000000E+00
  0.564355715080E+01  0.592592592590E+01  0.000000000000E+00
  0.598153313340E+02  0.629629629630E+01  0.473042908546E+01
  0.598145510426E+02  0.592592592590E+01  0.473934785746E+01
  0.584900179460E+01  0.666666666670E+01  0.000000000000E+00
  0.574627947270E+01  0.629629629630E+01  0.000000000000E+00
  0.598161116255E+02  0.666666666670E+01  0.472151031346E+01
  0.598153313340E+02  0.629629629630E+01  0.473042908546E+01
  0.595172411650E+01  0.703703703700E+01  0.000000000000E+00
  0.584900179460E+01  0.666666666670E+01  0.000000000000E+00
  0.598168919169E+02  0.703703703700E+01  0.471259154146E+01
  0.598161116255E+02  0.666666666670E+01  0.472151031346E+01
  0.605444643840E+01  0.740740740740E+01  0.000000000000E+00
  0.595172411650E+01  0.703703703700E+01  0.000000000000E+00
  0.598176722083E+02  0.740740740740E+01  0.470367276945E+01
  0.598168919169E+02  0.703703703700E+01  0.471259154146E+01
  0.615716876040E+01  0.777777777780E+01  0.000000000000E+00
  0.605444643840E+01  0.740740740740E+01  0.000000000000E+00
  0.598184524998E+02  0.777777777780E+01  0.469475399744E+01
  0.598176722083E+02  0.740740740740E+01  0.470367276945E+01
  0.625989108230E+01  0.814814814810E+01  0.000000000000E+00
  0.615716876040E+01  0.777777777780E+01  0.000000000000E+00
  0.598192327912E+02  0.814814814810E+01  0.468583522544E+01
  0.598184524998E+02  0.777777777780E+01  0.469475399744E+01
  0.636261340420E+01  0.851851851850E+01  0.000000000000E+00
  0.625989108230E+01  0.814814814810E+01  0.000000000000E+00
  0.598200130827E+02  0.851851851850E+01  0.467691645344E+01
  0.598192327912E+02  0.814814814810E+01  0.468583522544E+01
  0.646533572610E+01  0.888888888890E+01  0.000000000000E+00
  0.636261340420E+01  0.851851851850E+01  0.000000000000E+00
  0.598207933741E+02  0.888888888890E+01  0.466799768144E+01
  0.598200130827E+02  0.851851851850E+01  0.467691645344E+01
  0.656805804810E+01  0.925925925930E+01  0.000000000000E+00
  0.646533572610E+01  0.888888888890E+01  0.000000000000E+00
  0.598215736656E+02  0.925925925930E+01  0.465907890943E+01
  0.598207933741E+02  0.888888888890E+01  0.466799768144E+01
  0.667078037000E+01  0.962962962960E+01  0.000000000000E+00
  0.656805804810E+01  0.925925925930E+01  0.000000000000E+00
  0.598223539570E+02  0.962962962960E+01  0.465016013743E+01
  0.598215736656E+02  0.925925925930E+01  0.465907890943E+01
  0.677350269190E+01  0.100000000000E+02  0.000000000000E+00
  0.667078037000E+01  0.962962962960E+01  0.000000000000E+00
  0.598231342484E+02  0.100000000000E+02  0.464124136542E+01
  0.598223539570E+02  0.962962962960E+01  0.465016013743E+01
  0.400000000000E+01  0.000000000000E+00  0.000000000000E+00
  0.410272232190E+01 -0.370370370370E+00  0.000000000000E+00
  0.598020663795E+02  0.000000000000E+00  0.488204820953E+01
  0.598028466709E+02 -0.370370370370E+00  0.487312943752E+01
  0.410272232190E+01 -0.370370370370E+00  0.000000000000E+00
  0.420544464380E+01 -0.740740740740E+00  0.000000000000E+00
  0.598028466709E+02 -0.370370370370E+00  0.487312943752E+01
  0.598036269624E+02 -0.740740740740E+00  0.486421066552E+01
  0.420544464380E+01 -0.740740740740E+00  0.000000000000E+00
  0.430816696580E+01 -0.111111111110E+01  0.000000000000E+00
  0.598036269624E+02 -0.740740740740E+00  0.486421066552E+01
  0.598044072538E+02 -0.111111111110E+01  0.485529189351E+01
  0.430816696580E+01 -0.111111111110E+01  0.000000000000E+00
  0.441088928770E+01 -0.148148148150E+01  0.000000000000E+00
  0.598044072538E+02 -0.111111111110E+01  0.485529189351E+01
  0.598051875453E+02 -0.148148148150E+01  0.484637312151E+01
  0.441088928770E+01 -0.148148148150E+01  0.000000000000E+00
  0.451361160960E+01 -0.185185185190E+01  0.000000000000E+00
  0.598051875453E+02 -0.148148148150E+01  0.484637312151E+01
  0.598059678367E+02 -0.185185185190E+01  0.483745434951E+01
  0.451361160960E+01 -0.185185185190E+01  0.000000000000E+00
  0.461633393150E+01 -0.222222222220E+01  0.000000000000E+00
  0.598059678367E+02 -0.185185185190E+01  0.483745434951E+01
  0.598067481281E+02 -0.222222222220E+01  0.482853557751E+01
  0.461633393150E+01 -0.222222222220E+01  0.000000000000E+00
  0.471905625350E+01 -0.259259259260E+01  0.000000000000E+00
  0.598067481281E+02 -0.222222222220E+01  0.482853557751E+01
  0.598075284196E+02 -0.259259259260E+01  0.481961680550E+01
  0.471905625350E+01 -0.259259259260E+01  0.000000000000E+00
  0.482177857540E+01 -0.296296296300E+01  0.000000000000E+00
  0.598075284196E+02 -0.259259259260E+01  0.481961680550E+01
  0.598083087110E+02 -0.296296296300E+01  0.481069803349E+01
  0.482177857540E+01 -0.296296296300E+01  0.000000000000E+00
  0.492450089730E+01 -0.333333333330E+01  0.000000000000E+00
  0.598083087110E+02 -0.296296296300E+01  0.481069803349E+01
  0.598090890025E+02 -0.333333333330E+01  0.480177926149E+01
  0.492450089730E+01 -0.333333333330E+01  0.000000000000E+00
  0.502722321920E+01 -0.370370370370E+01  0.000000000000E+00
  0.598090890025E+02 -0.333333333330E+01  0.480177926149E+01
  0.598098692939E+02 -0.370370370370E+01  0.479286048949E+01
  0.502722321920E+01 -0.370370370370E+01  0.000000000000E+00
  0.512994554110E+01 -0.407407407410E+01  0.000000000000E+00
  0.598098692939E+02 -0.370370370370E+01  0.479286048949E+01
  0.598106495854E+02 -0.407407407410E+01  0.478394171749E+01
  0.512994554110E+01 -0.407407407410E+01  0.000000000000E+00
  0.523266786310E+01 -0.444444444440E+01  0.000000000000E+00
  0.598106495854E+02 -0.407407407410E+01  0.478394171749E+01
  0.598114298768E+02 -0.444444444440E+01  0.477502294548E+01
  0.523266786310E+01 -0.444444444440E+01  0.000000000000E+00
  0.533539018500E+01 -0.481481481480E+01  0.000000000000E+00
  0.598114298768E+02 -0.444444444440E+01  0.477502294548E+01
  0.598122101682E+02 -0.481481481480E+01  0.476610417348E+01
  0.533539018500E+01 -0.481481481480E+01  0.000000000000E+00
  0.543811250690E+01 -0.518518518520E+01  0.000000000000E+00
  0.598122101682E+02 -0.481481481480E+01  0.476610417348E+01
  0.598129904597E+02 -0.518518518520E+01  0.475718540147E+01
  0.543811250690E+01 -0.518518518520E+01  0.000000000000E+00
  0.554083482880E+01 -0.555555555560E+01  0.000000000000E+00
  0.598129904597E+02 -0.518518518520E+01  0.475718540147E+01
  0.598137707511E+02 -0.555555555560E+01  0.474826662947E+01
  0.554083482880E+01 -0.555555555560E+01  0.000000000000E+00
  0.564355715080E+01 -0.592592592590E+01  0.000000000000E+00
  0.598137707511E+02 -0.555555555560E+01  0.474826662947E+01
  0.598145510426E+02 -0.592592592590E+01  0.473934785746E+01
  0.564355715080E+01 -0.592592592590E+01  0.000000000000E+00
  0.574627947270E+01 -0.629629629630E+01  0.000000000000E+00
  0.598145510426E+02 -0.592592592590E+01  0.473934785746E+01
  0.598153313340E+02 -0.629629629630E+01  0.473042908546E+01
  0.574627947270E+01 -0.629629629630E+01  0.000000000000E+00
  0.584900179460E+01 -0.666666666670E+01  0.000000000000E+00
  0.598153313340E+02 -0.629629629630E+01  0.473042908546E+01
  0.598161116255E+02 -0.666666666670E+01  0.472151031346E+01
  0.584900179460E+01 -0.666666666670E+01  0.000000000000E+00
  0.595172411650E+01 -0.703703703700E+01  0.000000000000E+00
  0.598161116255E+02 -0.666666666670E+01  0.472151031346E+01
  0.598168919169E+02 -0.703703703700E+01  0.471259154146E+01
  0.595172411650E+01 -0.703703703700E+01  0.000000000000E+00
  0.605444643840E+01 -0.740740740740E+01  0.000000000000E+00
  0.598168919169E+02 -0.703703703700E+01  0.471259154146E+01
  0.598176722083E+02 -0.740740740740E+01  0.470367276945E+01
  0.605444643840E+01 -0.740740740740E+01  0.000000000000E+00
  0.615716876040E+01 -0.777777777780E+01  0.000000000000E+00
  0.598176722083E+02 -0.740740740740E+01  0.470367276945E+01
  0.598184524998E+02 -0.777777777780E+01  0.469475399744E+01
  0.615716876040E+01 -0.777777777780E+01  0.000000000000E+00
  0.625989108230E+01 -0.814814814810E+01  0.000000000000E+00
  0.598184524998E+02 -0.777777777780E+01  0.469475399744E+01
  0.598192327912E+02 -0.814814814810E+01  0.468583522544E+01
  0.625989108230E+01 -0.814814814810E+01  0.000000000000E+00
  0.636261340420E+01 -0.851851851850E+01  0.000000000000E+00
  0.598192327912E+02 -0.814814814810E+01  0.468583522544E+01
  0.598200130827E+02 -0.851851851850E+01  0.467691645344E+01
  0.636261340420E+01 -0.851851851850E+01  0.000000000000E+00
  0.646533572610E+01 -0.888888888890E+01  0.000000000000E+00
  0.598200130827E+02 -0.851851851850E+01  0.467691645344E+01
  0.598207933741E+02 -0.888888888890E+01  0.466799768144E+01
  0.646533572610E+01 -0.888888888890E+01  0.000000000000E+00
  0.656805804810E+01 -0.925925925930E+01  0.000000000000E+00
  0.598207933741E+02 -0.888888888890E+01  0.466799768144E+01
  0.598215736656E+02 -0.925925925930E+01  0.465907890943E+01
  0.656805804810E+01 -0.925925925930E+01  0.000000000000E+00
  0.667078037000E+01 -0.962962962960E+01  0.000000000000E+00
  0.598215736656E+02 -0.925925925930E+01  0.465907890943E+01
  0.598223539570E+02 -0.962962962960E+01  0.465016013743E+01
  0.667078037000E+01 -0.962962962960E+01  0.000000000000E+00
  0.677350269190E+01 -0.100000000000E+02  0.000000000000E+00
  0.598223539570E+02 -0.962962962960E+01  0.465016013743E+01
  0.598231342484E+02 -0.100000000000E+02  0.464124136542E+01
POLYGONS                 108                 432
3                   0                   3                   1
3                   0                   2                   3
3                   4                   7                   5
3                   4                   6                   7
3                   8                  11                   9
3                   8                  10                  11
3                  12                  15                  13
3                  12                  14                  15
3                  16                  19                  17
3                  16                  18                  19
3                  20                  23                  21
3                  20                  22                  23
3                  24                  27                  25
3                  24                  26                  27
3                  28                  31                  29
3                  28                  30                  31
3                  32                  35                  33
3                  32                  34                  35
3                  36                  39                  37
3                  36                  38                  39
3                  40                  43                  41
3                  40                  42                  43
3                  44                  47                  45
3                  44                  46                  47
3                  48                  51                  49
3                  48                  50                  51
3                  52                  55                  53
3                  52                  54                  55
3                  56                  59                  57
3                  56                  58                  59
3                  60                  63                  61
3                  60                  62                  63
3                  64                  67                  65
3                  64                  66                  67
3                  68                  71                  69
3                  68                  70                  71
3                  72                  75                  73
3                  72                  74                  75
3                  76                  79                  77
3                  76                  78                  79
3                  80                  83                  81
3                  80                  82                  83
3                  84                  87                  85
3                  84                  86                  87
3                  88                  91                  89
3                  88                  90                  91
3                  92                  95                  93
3                  92                  94                  95
3                  96                  99                  97
3                  96                  98                  99
3                 100                 103                 101
3                 100                 102                 103
3                 104                 107                 105
3                 104                 106                 107
3                 108                 110                 109
3                 110                 111                 109
3                 112                 114                 113
3                 114                 115                 113
3                 116                 118                 117
3                 118                 119                 117
3                 120                 122                 121
3                 122                 123                 121
3                 124                 126                 125
3                 126                 127                 125
3                 128                 130                 129
3                 130                 131                 129
3                 132                 134                 133
3                 134                 135                 133
3                 136                 138                 137
3                 138                 139                 137
3                 140                 142                 141
3                 142                 143                 141
3                 144                 146                 145
3                 146                 147                 145
3                 148                 150                 149
3                 150                 151                 149
3                 152                 154                 153
3                 154                 155                 153
3                 156                 158                 157
3                 158                 159                 157
3                 160                 162                 161
3                 162                 163                 161
3                 164                 166                 165
3                 166                 167                 165
3                 168                 170                 169
3                 170                 171                 169
3                 172                 174                 173
3                 174                 175                 173
3                 176                 178                 177
3                 178                 179                 177
3                 180                 182                 181
3                 182                 183                 181
3                 184                 186                 185
3                 186                 187                 185
3                 188                 190                 189
3                 190                 191                 189
3                 192                 194                 193
3                 194                 195                 193
3                 196                 198                 197
3                 198                 199                 197
3                 200                 202                 201
3                 202                 203                 201
3                 204                 206                 205
3                 206                 207                 205
3                 208                 210                 209
3                 210                 211                 209
3                 212                 214                 213
3                 214                 215                 213
POINT_DATA                 216
SCALARS mu float 1
LOOKUP_TABLE default
 -0.421917729767E+00
 -0.413995540677E+00
 -0.421917729767E+00
 -0.413995540677E+00
 -0.428414962815E+00
 -0.421917729767E+00
 -0.428414962815E+00
 -0.421917729767E+00
 -0.431852017478E+00
 -0.428414962815E+00
 -0.431852017478E+00
 -0.428414962815E+00
 -0.433536040441E+00
 -0.431852017478E+00
 -0.433536040441E+00
 -0.431852017478E+00
 -0.433677123388E+00
 -0.433536040441E+00
 -0.433677123388E+00
 -0.433536040441E+00
 -0.432342690416E+00
 -0.433677123388E+00
 -0.432342690416E+00
 -0.433677123388E+00
 -0.429328484648E+00
 -0.432342690416E+00
 -0.429328484648E+00
 -0.432342690416E+00
 -0.423454426846E+00
 -0.429328484648E+00
 -0.423454426846E+00
 -0.429328484648E+00
 -0.413655475326E+00
 -0.423454426846E+00
 -0.413655475326E+00
 -0.423454426846E+00
 -0.399998707712E+00
 -0.413655475326E+00
 -0.399998707712E+00
 -0.413655475326E+00
 -0.384839153075E+00
 -0.399998707712E+00
 -0.384839153075E+00
 -0.399998707712E+00
 -0.369455104253E+00
 -0.384839153075E+00
 -0.369455104253E+00
 -0.384839153075E+00
 -0.354181248369E+00
 -0.369455104253E+00
 -0.354181248369E+00
 -0.369455104253E+00
 -0.338978240905E+00
 -0.354181248369E+00
 -0.338978240905E+00
 -0.354181248369E+00
 -0.323830388168E+00
 -0.338978240905E+00
 -0.323830388168E+00
 -0.338978240905E+00
 -0.308710854889E+00
 -0.323830388168E+00
 -0.308710854889E+00
 -0.323830388168E+00
 -0.293548850612E+00
 -0.308710854889E+00
 -0.293548850612E+00
 -0.308710854889E+00
 -0.278459513224E+00
 -0.293548850612E+00
 -0.278459513224E+00
 -0.293548850612E+00
 -0.263258088087E+00
 -0.278459513224E+00
 -0.263258088087E+00
 -0.278459513224E+00
 -0.248187734404E+00
 -0.263258088087E+00
 -0.248187734404E+00
 -0.263258088087E+00
 -0.232554345054E+00
 -0.248187734404E+00
 -0.232554345054E+00
 -0.248187734404E+00
 -0.217231534151E+00
 -0.232554345054E+00
 -0.217231534151E+00
 -0.232554345054E+00
 -0.199494474350E+00
 -0.217231534151E+00
 -0.199494474350E+00
 -0.217231534151E+00
 -0.183975493871E+00
 -0.199494474350E+00
 -0.183975493871E+00
 -0.199494474350E+00
 -0.156887742346E+00
 -0.183975493871E+00
 -0.156887742346E+00
 -0.183975493871E+00
 -0.137577710839E+00
 -0.156887742346E+00
 -0.137577710839E+00
 -0.156887742346E+00
  0.000000000000E+00
 -0.137577710839E+00
  0.000000000000E+00
 -0.137577710839E+00
 -0.413995540677E+00
 -0.421917729762E+00
 -0.413995540677E+00
 -0.421917729762E+00
 -0.421917729762E+00
 -0.428414962832E+00
 -0.421917729762E+00
 -0.428414962832E+00
 -0.428414962832E+00
 -0.431852017347E+00
 -0.428414962832E+00
 -0.431852017347E+00
 -0.431852017347E+00
 -0.433536040413E+00
 -0.431852017347E+00
 -0.433536040413E+00
 -0.433536040413E+00
 -0.433677122798E+00
 -0.433536040413E+00
 -0.433677122798E+00
 -0.433677122798E+00
 -0.432342688065E+00
 -0.433677122798E+00
 -0.432342688065E+00
 -0.432342688065E+00
 -0.429328478128E+00
 -0.432342688065E+00
 -0.429328478128E+00
 -0.429328478128E+00
 -0.423454419546E+00
 -0.429328478128E+00
 -0.423454419546E+00
 -0.423454419546E+00
 -0.413655480298E+00
 -0.423454419546E+00
 -0.413655480298E+00
 -0.413655480298E+00
 -0.399998713206E+00
 -0.413655480298E+00
 -0.399998713206E+00
 -0.399998713206E+00
 -0.384839148195E+00
 -0.399998713206E+00
 -0.384839148195E+00
 -0.384839148195E+00
 -0.369455114218E+00
 -0.384839148195E+00
 -0.369455114218E+00
 -0.369455114218E+00
 -0.354181238230E+00
 -0.369455114218E+00
 -0.354181238230E+00
 -0.354181238230E+00
 -0.338978253885E+00
 -0.354181238230E+00
 -0.338978253885E+00
 -0.338978253885E+00
 -0.323830387180E+00
 -0.338978253885E+00
 -0.323830387180E+00
 -0.323830387180E+00
 -0.308710826247E+00
 -0.323830387180E+00
 -0.308710826247E+00
 -0.308710826247E+00
 -0.293548825982E+00
 -0.308710826247E+00
 -0.293548825982E+00
 -0.293548825982E+00
 -0.278459539085E+00
 -0.293548825982E+00
 -0.278459539085E+00
 -0.278459539085E+00
 -0.263258100411E+00
 -0.278459539085E+00
 -0.263258100411E+00
 -0.263258100411E+00
 -0.248187737252E+00
 -0.263258100411E+00
 -0.248187737252E+00
 -0.248187737252E+00
 -0.232554339919E+00
 -0.248187737252E+00
 -0.232554339919E+00
 -0.232554339919E+00
 -0.217231504084E+00
 -0.232554339919E+00
 -0.217231504084E+00
 -0.217231504084E+00
 -0.199494468651E+00
 -0.217231504084E+00
 -0.199494468651E+00
 -0.199494468651E+00
 -0.183975511156E+00
 -0.199494468651E+00
 -0.183975511156E+00
 -0.183975511156E+00
 -0.156887742665E+00
 -0.183975511156E+00
 -0.156887742665E+00
 -0.156887742665E+00
 -0.137577704014E+00
 -0.156887742665E+00
 -0.137577704014E+00
 -0.137577704014E+00
  0.000000000000E+00
 -0.137577704014E+00
  0.000000000000E+00
