# vtk DataFile Version 3.0
MachLine results file. Generated by MachLine, USU AeroLab (c) 2023.
ASCII
DATASET POLYDATA
POINTS                 272 float
  0.404078680430E+01  0.147058823530E+00  0.000000000000E+00
  0.598023762011E+02  0.147058823530E+00  0.487850693241E+01
  0.412236041290E+01  0.441176470590E+00  0.000000000000E+00
  0.598029958443E+02  0.441176470590E+00  0.487142437817E+01
  0.420393402150E+01  0.735294117650E+00  0.000000000000E+00
  0.598036154875E+02  0.735294117650E+00  0.486434182393E+01
  0.428550763005E+01  0.102941176469E+01  0.000000000000E+00
  0.598042351307E+02  0.102941176469E+01  0.485725926969E+01
  0.436708123860E+01  0.132352941175E+01  0.000000000000E+00
  0.598048547739E+02  0.132352941175E+01  0.485017671546E+01
  0.444865484720E+01  0.161764705885E+01  0.000000000000E+00
  0.598054744171E+02  0.161764705885E+01  0.484309416122E+01
  0.453022845580E+01  0.191176470590E+01  0.000000000000E+00
  0.598060940603E+02  0.191176470590E+01  0.483601160698E+01
  0.461180206440E+01  0.220588235295E+01  0.000000000000E+00
  0.598067137035E+02  0.220588235295E+01  0.482892905274E+01
  0.469337567300E+01  0.250000000000E+01  0.000000000000E+00
  0.598073333467E+02  0.250000000000E+01  0.482184649850E+01
  0.477494928160E+01  0.279411764705E+01  0.000000000000E+00
  0.598079529899E+02  0.279411764705E+01  0.481476394426E+01
  0.485652289015E+01  0.308823529410E+01  0.000000000000E+00
  0.598085726331E+02  0.308823529410E+01  0.480768139002E+01
  0.493809649870E+01  0.338235294115E+01  0.000000000000E+00
  0.598091922763E+02  0.338235294115E+01  0.480059883579E+01
  0.501967010730E+01  0.367647058825E+01  0.000000000000E+00
  0.598098119195E+02  0.367647058825E+01  0.479351628155E+01
  0.510124371590E+01  0.397058823530E+01  0.000000000000E+00
  0.598104315627E+02  0.397058823530E+01  0.478643372731E+01
  0.518281732450E+01  0.426470588235E+01  0.000000000000E+00
  0.598110512059E+02  0.426470588235E+01  0.477935117307E+01
  0.526439093310E+01  0.455882352940E+01  0.000000000000E+00
  0.598116708492E+02  0.455882352940E+01  0.477226861883E+01
  0.534596454165E+01  0.485294117645E+01  0.000000000000E+00
  0.598122904924E+02  0.485294117645E+01  0.476518606459E+01
  0.542753815020E+01  0.514705882355E+01  0.000000000000E+00
  0.598129101356E+02  0.514705882355E+01  0.475810351036E+01
  0.550911175880E+01  0.544117647060E+01  0.000000000000E+00
  0.598135297788E+02  0.544117647060E+01  0.475102095612E+01
  0.559068536740E+01  0.573529411765E+01  0.000000000000E+00
  0.598141494220E+02  0.573529411765E+01  0.474393840188E+01
  0.567225897600E+01  0.602941176470E+01  0.000000000000E+00
  0.598147690652E+02  0.602941176470E+01  0.473685584764E+01
  0.575383258460E+01  0.632352941175E+01  0.000000000000E+00
  0.598153887084E+02  0.632352941175E+01  0.472977329340E+01
  0.583540619320E+01  0.661764705885E+01  0.000000000000E+00
  0.598160083516E+02  0.661764705885E+01  0.472269073916E+01
  0.591697980175E+01  0.691176470590E+01  0.000000000000E+00
  0.598166279948E+02  0.691176470590E+01  0.471560818493E+01
  0.599855341030E+01  0.720588235295E+01  0.000000000000E+00
  0.598172476380E+02  0.720588235295E+01  0.470852563069E+01
  0.608012701890E+01  0.750000000000E+01  0.000000000000E+00
  0.598178672812E+02  0.750000000000E+01  0.470144307645E+01
  0.616170062750E+01  0.779411764705E+01  0.000000000000E+00
  0.598184869244E+02  0.779411764705E+01  0.469436052221E+01
  0.624327423610E+01  0.808823529410E+01  0.000000000000E+00
  0.598191065676E+02  0.808823529410E+01  0.468727796797E+01
  0.632484784470E+01  0.838235294115E+01  0.000000000000E+00
  0.598197262108E+02  0.838235294115E+01  0.468019541373E+01
  0.640642145330E+01  0.867647058825E+01  0.000000000000E+00
  0.598203458540E+02  0.867647058825E+01  0.467311285949E+01
  0.648799506185E+01  0.897058823530E+01  0.000000000000E+00
  0.598209654972E+02  0.897058823530E+01  0.466603030526E+01
  0.656956867040E+01  0.926470588235E+01  0.000000000000E+00
  0.598215851404E+02  0.926470588235E+01  0.465894775102E+01
  0.665114227900E+01  0.955882352940E+01  0.000000000000E+00
  0.598222047836E+02  0.955882352940E+01  0.465186519678E+01
  0.673271588760E+01  0.985294117645E+01  0.000000000000E+00
  0.598228244268E+02  0.985294117645E+01  0.464478264254E+01
  0.404078680430E+01 -0.147058823530E+00  0.000000000000E+00
  0.598023762011E+02 -0.147058823530E+00  0.487850693241E+01
  0.412236041290E+01 -0.441176470590E+00  0.000000000000E+00
  0.598029958443E+02 -0.441176470590E+00  0.487142437817E+01
  0.420393402150E+01 -0.735294117650E+00  0.000000000000E+00
  0.598036154875E+02 -0.735294117650E+00  0.486434182393E+01
  0.428550763005E+01 -0.102941176469E+01  0.000000000000E+00
  0.598042351307E+02 -0.102941176469E+01  0.485725926969E+01
  0.436708123860E+01 -0.132352941175E+01  0.000000000000E+00
  0.598048547739E+02 -0.132352941175E+01  0.485017671546E+01
  0.444865484720E+01 -0.161764705885E+01  0.000000000000E+00
  0.598054744171E+02 -0.161764705885E+01  0.484309416122E+01
  0.453022845580E+01 -0.191176470590E+01  0.000000000000E+00
  0.598060940603E+02 -0.191176470590E+01  0.483601160698E+01
  0.461180206440E+01 -0.220588235295E+01  0.000000000000E+00
  0.598067137035E+02 -0.220588235295E+01  0.482892905274E+01
  0.469337567300E+01 -0.250000000000E+01  0.000000000000E+00
  0.598073333467E+02 -0.250000000000E+01  0.482184649850E+01
  0.477494928160E+01 -0.279411764705E+01  0.000000000000E+00
  0.598079529899E+02 -0.279411764705E+01  0.481476394426E+01
  0.485652289015E+01 -0.308823529410E+01  0.000000000000E+00
  0.598085726331E+02 -0.308823529410E+01  0.480768139002E+01
  0.493809649870E+01 -0.338235294115E+01  0.000000000000E+00
  0.598091922763E+02 -0.338235294115E+01  0.480059883579E+01
  0.501967010730E+01 -0.367647058825E+01  0.000000000000E+00
  0.598098119195E+02 -0.367647058825E+01  0.479351628155E+01
  0.510124371590E+01 -0.397058823530E+01  0.000000000000E+00
  0.598104315627E+02 -0.397058823530E+01  0.478643372731E+01
  0.518281732450E+01 -0.426470588235E+01  0.000000000000E+00
  0.598110512059E+02 -0.426470588235E+01  0.477935117307E+01
  0.526439093310E+01 -0.455882352940E+01  0.000000000000E+00
  0.598116708492E+02 -0.455882352940E+01  0.477226861883E+01
  0.534596454165E+01 -0.485294117645E+01  0.000000000000E+00
  0.598122904924E+02 -0.485294117645E+01  0.476518606459E+01
  0.542753815020E+01 -0.514705882355E+01  0.000000000000E+00
  0.598129101356E+02 -0.514705882355E+01  0.475810351036E+01
  0.550911175880E+01 -0.544117647060E+01  0.000000000000E+00
  0.598135297788E+02 -0.544117647060E+01  0.475102095612E+01
  0.559068536740E+01 -0.573529411765E+01  0.000000000000E+00
  0.598141494220E+02 -0.573529411765E+01  0.474393840188E+01
  0.567225897600E+01 -0.602941176470E+01  0.000000000000E+00
  0.598147690652E+02 -0.602941176470E+01  0.473685584764E+01
  0.575383258460E+01 -0.632352941175E+01  0.000000000000E+00
  0.598153887084E+02 -0.632352941175E+01  0.472977329340E+01
  0.583540619320E+01 -0.661764705885E+01  0.000000000000E+00
  0.598160083516E+02 -0.661764705885E+01  0.472269073916E+01
  0.591697980175E+01 -0.691176470590E+01  0.000000000000E+00
  0.598166279948E+02 -0.691176470590E+01  0.471560818493E+01
  0.599855341030E+01 -0.720588235295E+01  0.000000000000E+00
  0.598172476380E+02 -0.720588235295E+01  0.470852563069E+01
  0.608012701890E+01 -0.750000000000E+01  0.000000000000E+00
  0.598178672812E+02 -0.750000000000E+01  0.470144307645E+01
  0.616170062750E+01 -0.779411764705E+01  0.000000000000E+00
  0.598184869244E+02 -0.779411764705E+01  0.469436052221E+01
  0.624327423610E+01 -0.808823529410E+01  0.000000000000E+00
  0.598191065676E+02 -0.808823529410E+01  0.468727796797E+01
  0.632484784470E+01 -0.838235294115E+01  0.000000000000E+00
  0.598197262108E+02 -0.838235294115E+01  0.468019541373E+01
  0.640642145330E+01 -0.867647058825E+01  0.000000000000E+00
  0.598203458540E+02 -0.867647058825E+01  0.467311285949E+01
  0.648799506185E+01 -0.897058823530E+01  0.000000000000E+00
  0.598209654972E+02 -0.897058823530E+01  0.466603030526E+01
  0.656956867040E+01 -0.926470588235E+01  0.000000000000E+00
  0.598215851404E+02 -0.926470588235E+01  0.465894775102E+01
  0.665114227900E+01 -0.955882352940E+01  0.000000000000E+00
  0.598222047836E+02 -0.955882352940E+01  0.465186519678E+01
  0.673271588760E+01 -0.985294117645E+01  0.000000000000E+00
  0.598228244268E+02 -0.985294117645E+01  0.464478264254E+01
  0.679078680430E+01  0.147058823530E+00 -0.250000000000E+01
  0.600403257628E+02  0.147058823530E+00  0.215873099685E+01
  0.687236041290E+01  0.441176470590E+00 -0.250000000000E+01
  0.600409454060E+02  0.441176470590E+00  0.215164844261E+01
  0.695393402150E+01  0.735294117650E+00 -0.250000000000E+01
  0.600415650492E+02  0.735294117650E+00  0.214456588837E+01
  0.703550763005E+01  0.102941176469E+01 -0.250000000000E+01
  0.600421846924E+02  0.102941176469E+01  0.213748333413E+01
  0.711708123860E+01  0.132352941175E+01 -0.250000000000E+01
  0.600428043356E+02  0.132352941175E+01  0.213040077990E+01
  0.719865484720E+01  0.161764705885E+01 -0.250000000000E+01
  0.600434239788E+02  0.161764705885E+01  0.212331822566E+01
  0.728022845580E+01  0.191176470590E+01 -0.250000000000E+01
  0.600440436220E+02  0.191176470590E+01  0.211623567142E+01
  0.736180206440E+01  0.220588235295E+01 -0.250000000000E+01
  0.600446632652E+02  0.220588235295E+01  0.210915311718E+01
  0.744337567300E+01  0.250000000000E+01 -0.250000000000E+01
  0.600452829084E+02  0.250000000000E+01  0.210207056294E+01
  0.752494928160E+01  0.279411764705E+01 -0.250000000000E+01
  0.600459025516E+02  0.279411764705E+01  0.209498800870E+01
  0.760652289015E+01  0.308823529410E+01 -0.250000000000E+01
  0.600465221948E+02  0.308823529410E+01  0.208790545447E+01
  0.768809649870E+01  0.338235294115E+01 -0.250000000000E+01
  0.600471418380E+02  0.338235294115E+01  0.208082290023E+01
  0.776967010730E+01  0.367647058825E+01 -0.250000000000E+01
  0.600477614812E+02  0.367647058825E+01  0.207374034599E+01
  0.785124371590E+01  0.397058823530E+01 -0.250000000000E+01
  0.600483811244E+02  0.397058823530E+01  0.206665779175E+01
  0.793281732450E+01  0.426470588235E+01 -0.250000000000E+01
  0.600490007676E+02  0.426470588235E+01  0.205957523751E+01
  0.801439093310E+01  0.455882352940E+01 -0.250000000000E+01
  0.600496204108E+02  0.455882352940E+01  0.205249268327E+01
  0.809596454165E+01  0.485294117645E+01 -0.250000000000E+01
  0.600502400540E+02  0.485294117645E+01  0.204541012904E+01
  0.817753815020E+01  0.514705882355E+01 -0.250000000000E+01
  0.600508596973E+02  0.514705882355E+01  0.203832757480E+01
  0.825911175880E+01  0.544117647060E+01 -0.250000000000E+01
  0.600514793405E+02  0.544117647060E+01  0.203124502056E+01
  0.834068536740E+01  0.573529411765E+01 -0.250000000000E+01
  0.600520989837E+02  0.573529411765E+01  0.202416246632E+01
  0.842225897600E+01  0.602941176470E+01 -0.250000000000E+01
  0.600527186269E+02  0.602941176470E+01  0.201707991208E+01
  0.850383258460E+01  0.632352941175E+01 -0.250000000000E+01
  0.600533382701E+02  0.632352941175E+01  0.200999735784E+01
  0.858540619320E+01  0.661764705885E+01 -0.250000000000E+01
  0.600539579133E+02  0.661764705885E+01  0.200291480360E+01
  0.866697980175E+01  0.691176470590E+01 -0.250000000000E+01
  0.600545775565E+02  0.691176470590E+01  0.199583224937E+01
  0.874855341030E+01  0.720588235295E+01 -0.250000000000E+01
  0.600551971997E+02  0.720588235295E+01  0.198874969513E+01
  0.883012701890E+01  0.750000000000E+01 -0.250000000000E+01
  0.600558168429E+02  0.750000000000E+01  0.198166714089E+01
  0.891170062750E+01  0.779411764705E+01 -0.250000000000E+01
  0.600564364861E+02  0.779411764705E+01  0.197458458665E+01
  0.899327423610E+01  0.808823529410E+01 -0.250000000000E+01
  0.600570561293E+02  0.808823529410E+01  0.196750203242E+01
  0.907484784470E+01  0.838235294115E+01 -0.250000000000E+01
  0.600576757725E+02  0.838235294115E+01  0.196041947818E+01
  0.915642145330E+01  0.867647058825E+01 -0.250000000000E+01
  0.600582954157E+02  0.867647058825E+01  0.195333692394E+01
  0.923799506185E+01  0.897058823530E+01 -0.250000000000E+01
  0.600589150589E+02  0.897058823530E+01  0.194625436970E+01
  0.931956867040E+01  0.926470588235E+01 -0.250000000000E+01
  0.600595347021E+02  0.926470588235E+01  0.193917181547E+01
  0.940114227900E+01  0.955882352940E+01 -0.250000000000E+01
  0.600601543453E+02  0.955882352940E+01  0.193208926123E+01
  0.948271588760E+01  0.985294117645E+01 -0.250000000000E+01
  0.600607739885E+02  0.985294117645E+01  0.192500670699E+01
  0.679078680430E+01 -0.147058823530E+00 -0.250000000000E+01
  0.600403257628E+02 -0.147058823530E+00  0.215873099685E+01
  0.687236041290E+01 -0.441176470590E+00 -0.250000000000E+01
  0.600409454060E+02 -0.441176470590E+00  0.215164844261E+01
  0.695393402150E+01 -0.735294117650E+00 -0.250000000000E+01
  0.600415650492E+02 -0.735294117650E+00  0.214456588837E+01
  0.703550763005E+01 -0.102941176469E+01 -0.250000000000E+01
  0.600421846924E+02 -0.102941176469E+01  0.213748333413E+01
  0.711708123860E+01 -0.132352941175E+01 -0.250000000000E+01
  0.600428043356E+02 -0.132352941175E+01  0.213040077990E+01
  0.719865484720E+01 -0.161764705885E+01 -0.250000000000E+01
  0.600434239788E+02 -0.161764705885E+01  0.212331822566E+01
  0.728022845580E+01 -0.191176470590E+01 -0.250000000000E+01
  0.600440436220E+02 -0.191176470590E+01  0.211623567142E+01
  0.736180206440E+01 -0.220588235295E+01 -0.250000000000E+01
  0.600446632652E+02 -0.220588235295E+01  0.210915311718E+01
  0.744337567300E+01 -0.250000000000E+01 -0.250000000000E+01
  0.600452829084E+02 -0.250000000000E+01  0.210207056294E+01
  0.752494928160E+01 -0.279411764705E+01 -0.250000000000E+01
  0.600459025516E+02 -0.279411764705E+01  0.209498800870E+01
  0.760652289015E+01 -0.308823529410E+01 -0.250000000000E+01
  0.600465221948E+02 -0.308823529410E+01  0.208790545447E+01
  0.768809649870E+01 -0.338235294115E+01 -0.250000000000E+01
  0.600471418380E+02 -0.338235294115E+01  0.208082290023E+01
  0.776967010730E+01 -0.367647058825E+01 -0.250000000000E+01
  0.600477614812E+02 -0.367647058825E+01  0.207374034599E+01
  0.785124371590E+01 -0.397058823530E+01 -0.250000000000E+01
  0.600483811244E+02 -0.397058823530E+01  0.206665779175E+01
  0.793281732450E+01 -0.426470588235E+01 -0.250000000000E+01
  0.600490007676E+02 -0.426470588235E+01  0.205957523751E+01
  0.801439093310E+01 -0.455882352940E+01 -0.250000000000E+01
  0.600496204108E+02 -0.455882352940E+01  0.205249268327E+01
  0.809596454165E+01 -0.485294117645E+01 -0.250000000000E+01
  0.600502400540E+02 -0.485294117645E+01  0.204541012904E+01
  0.817753815020E+01 -0.514705882355E+01 -0.250000000000E+01
  0.600508596973E+02 -0.514705882355E+01  0.203832757480E+01
  0.825911175880E+01 -0.544117647060E+01 -0.250000000000E+01
  0.600514793405E+02 -0.544117647060E+01  0.203124502056E+01
  0.834068536740E+01 -0.573529411765E+01 -0.250000000000E+01
  0.600520989837E+02 -0.573529411765E+01  0.202416246632E+01
  0.842225897600E+01 -0.602941176470E+01 -0.250000000000E+01
  0.600527186269E+02 -0.602941176470E+01  0.201707991208E+01
  0.850383258460E+01 -0.632352941175E+01 -0.250000000000E+01
  0.600533382701E+02 -0.632352941175E+01  0.200999735784E+01
  0.858540619320E+01 -0.661764705885E+01 -0.250000000000E+01
  0.600539579133E+02 -0.661764705885E+01  0.200291480360E+01
  0.866697980175E+01 -0.691176470590E+01 -0.250000000000E+01
  0.600545775565E+02 -0.691176470590E+01  0.199583224937E+01
  0.874855341030E+01 -0.720588235295E+01 -0.250000000000E+01
  0.600551971997E+02 -0.720588235295E+01  0.198874969513E+01
  0.883012701890E+01 -0.750000000000E+01 -0.250000000000E+01
  0.600558168429E+02 -0.750000000000E+01  0.198166714089E+01
  0.891170062750E+01 -0.779411764705E+01 -0.250000000000E+01
  0.600564364861E+02 -0.779411764705E+01  0.197458458665E+01
  0.899327423610E+01 -0.808823529410E+01 -0.250000000000E+01
  0.600570561293E+02 -0.808823529410E+01  0.196750203242E+01
  0.907484784470E+01 -0.838235294115E+01 -0.250000000000E+01
  0.600576757725E+02 -0.838235294115E+01  0.196041947818E+01
  0.915642145330E+01 -0.867647058825E+01 -0.250000000000E+01
  0.600582954157E+02 -0.867647058825E+01  0.195333692394E+01
  0.923799506185E+01 -0.897058823530E+01 -0.250000000000E+01
  0.600589150589E+02 -0.897058823530E+01  0.194625436970E+01
  0.931956867040E+01 -0.926470588235E+01 -0.250000000000E+01
  0.600595347021E+02 -0.926470588235E+01  0.193917181547E+01
  0.940114227900E+01 -0.955882352940E+01 -0.250000000000E+01
  0.600601543453E+02 -0.955882352940E+01  0.193208926123E+01
  0.948271588760E+01 -0.985294117645E+01 -0.250000000000E+01
  0.600607739885E+02 -0.985294117645E+01  0.192500670699E+01
LINES                 136                 408
2                   0                   1
2                   2                   3
2                   4                   5
2                   6                   7
2                   8                   9
2                  10                  11
2                  12                  13
2                  14                  15
2                  16                  17
2                  18                  19
2                  20                  21
2                  22                  23
2                  24                  25
2                  26                  27
2                  28                  29
2                  30                  31
2                  32                  33
2                  34                  35
2                  36                  37
2                  38                  39
2                  40                  41
2                  42                  43
2                  44                  45
2                  46                  47
2                  48                  49
2                  50                  51
2                  52                  53
2                  54                  55
2                  56                  57
2                  58                  59
2                  60                  61
2                  62                  63
2                  64                  65
2                  66                  67
2                  68                  69
2                  70                  71
2                  72                  73
2                  74                  75
2                  76                  77
2                  78                  79
2                  80                  81
2                  82                  83
2                  84                  85
2                  86                  87
2                  88                  89
2                  90                  91
2                  92                  93
2                  94                  95
2                  96                  97
2                  98                  99
2                 100                 101
2                 102                 103
2                 104                 105
2                 106                 107
2                 108                 109
2                 110                 111
2                 112                 113
2                 114                 115
2                 116                 117
2                 118                 119
2                 120                 121
2                 122                 123
2                 124                 125
2                 126                 127
2                 128                 129
2                 130                 131
2                 132                 133
2                 134                 135
2                 136                 137
2                 138                 139
2                 140                 141
2                 142                 143
2                 144                 145
2                 146                 147
2                 148                 149
2                 150                 151
2                 152                 153
2                 154                 155
2                 156                 157
2                 158                 159
2                 160                 161
2                 162                 163
2                 164                 165
2                 166                 167
2                 168                 169
2                 170                 171
2                 172                 173
2                 174                 175
2                 176                 177
2                 178                 179
2                 180                 181
2                 182                 183
2                 184                 185
2                 186                 187
2                 188                 189
2                 190                 191
2                 192                 193
2                 194                 195
2                 196                 197
2                 198                 199
2                 200                 201
2                 202                 203
2                 204                 205
2                 206                 207
2                 208                 209
2                 210                 211
2                 212                 213
2                 214                 215
2                 216                 217
2                 218                 219
2                 220                 221
2                 222                 223
2                 224                 225
2                 226                 227
2                 228                 229
2                 230                 231
2                 232                 233
2                 234                 235
2                 236                 237
2                 238                 239
2                 240                 241
2                 242                 243
2                 244                 245
2                 246                 247
2                 248                 249
2                 250                 251
2                 252                 253
2                 254                 255
2                 256                 257
2                 258                 259
2                 260                 261
2                 262                 263
2                 264                 265
2                 266                 267
2                 268                 269
2                 270                 271
POINT_DATA                 272
SCALARS Gamma float 1
LOOKUP_TABLE default
 -0.523058306016E-02
 -0.523058306016E-02
 -0.454450156377E-02
 -0.454450156377E-02
 -0.369090124771E-02
 -0.369090124771E-02
 -0.335411566014E-02
 -0.335411566014E-02
 -0.136521248145E-02
 -0.136521248145E-02
 -0.772669241533E-04
 -0.772669241533E-04
  0.190454844591E-02
  0.190454844591E-02
  0.122973321447E-02
  0.122973321447E-02
  0.243318421654E-02
  0.243318421654E-02
  0.548528967209E-02
  0.548528967209E-02
  0.596628069141E-02
  0.596628069141E-02
  0.905443166389E-02
  0.905443166389E-02
  0.113711142635E-01
  0.113711142635E-01
  0.139672683947E-01
  0.139672683947E-01
  0.140298244548E-01
  0.140298244548E-01
  0.110513670704E-01
  0.110513670704E-01
  0.128031825028E-01
  0.128031825028E-01
  0.119959240751E-01
  0.119959240751E-01
  0.106177114118E-01
  0.106177114118E-01
  0.142529792208E-01
  0.142529792208E-01
  0.128565495087E-01
  0.128565495087E-01
  0.110317069567E-01
  0.110317069567E-01
  0.109472575901E-01
  0.109472575901E-01
  0.106492501179E-01
  0.106492501179E-01
  0.134583323200E-01
  0.134583323200E-01
  0.124592939793E-01
  0.124592939793E-01
  0.128472750640E-01
  0.128472750640E-01
  0.127607039735E-01
  0.127607039735E-01
  0.113818086029E-01
  0.113818086029E-01
  0.134553289764E-01
  0.134553289764E-01
  0.112827034183E-01
  0.112827034183E-01
  0.220641564201E-01
  0.220641564201E-01
  0.170260034464E-01
  0.170260034464E-01
  0.129361630870E+00
  0.129361630870E+00
  0.523058305998E-02
  0.523058305998E-02
  0.454450156398E-02
  0.454450156398E-02
  0.369090124788E-02
  0.369090124788E-02
  0.335411565952E-02
  0.335411565952E-02
  0.136521248160E-02
  0.136521248160E-02
  0.772669252578E-04
  0.772669252578E-04
 -0.190454844646E-02
 -0.190454844646E-02
 -0.122973321348E-02
 -0.122973321348E-02
 -0.243318421879E-02
 -0.243318421879E-02
 -0.548528967337E-02
 -0.548528967337E-02
 -0.596628068893E-02
 -0.596628068893E-02
 -0.905443167042E-02
 -0.905443167042E-02
 -0.113711142536E-01
 -0.113711142536E-01
 -0.139672683975E-01
 -0.139672683975E-01
 -0.140298244553E-01
 -0.140298244553E-01
 -0.110513670704E-01
 -0.110513670704E-01
 -0.128031825134E-01
 -0.128031825134E-01
 -0.119959240664E-01
 -0.119959240664E-01
 -0.106177113974E-01
 -0.106177113974E-01
 -0.142529792143E-01
 -0.142529792143E-01
 -0.128565495266E-01
 -0.128565495266E-01
 -0.110317069586E-01
 -0.110317069586E-01
 -0.109472576017E-01
 -0.109472576017E-01
 -0.106492501203E-01
 -0.106492501203E-01
 -0.134583323244E-01
 -0.134583323244E-01
 -0.124592939848E-01
 -0.124592939848E-01
 -0.128472750575E-01
 -0.128472750575E-01
 -0.127607038211E-01
 -0.127607038211E-01
 -0.113818081065E-01
 -0.113818081065E-01
 -0.134553297273E-01
 -0.134553297273E-01
 -0.112827052635E-01
 -0.112827052635E-01
 -0.220641974410E-01
 -0.220641974410E-01
 -0.170259596464E-01
 -0.170259596464E-01
 -0.129361631684E+00
 -0.129361631684E+00
 -0.615398266745E-02
 -0.615398266745E-02
 -0.718681302777E-02
 -0.718681302777E-02
  0.289393361671E-02
  0.289393361671E-02
 -0.729408926927E-02
 -0.729408926927E-02
  0.525857987240E-03
  0.525857987240E-03
 -0.580122097232E-02
 -0.580122097232E-02
  0.964156833375E-02
  0.964156833375E-02
 -0.655705840768E-02
 -0.655705840768E-02
  0.117008736862E-01
  0.117008736862E-01
 -0.271834090366E-02
 -0.271834090366E-02
  0.156787896388E-01
  0.156787896388E-01
  0.200584123348E-01
  0.200584123348E-01
  0.298012528354E-01
  0.298012528354E-01
  0.368417470415E-01
  0.368417470415E-01
  0.149986587118E-01
  0.149986587118E-01
  0.347923449674E-02
  0.347923449674E-02
  0.298655662817E-02
  0.298655662817E-02
 -0.138880916096E-01
 -0.138880916096E-01
 -0.191616150696E-02
 -0.191616150696E-02
 -0.376605114016E-03
 -0.376605114016E-03
 -0.176727011575E-01
 -0.176727011575E-01
  0.509555988470E-03
  0.509555988470E-03
 -0.326223273099E-01
 -0.326223273099E-01
  0.529189635175E-01
  0.529189635175E-01
 -0.362198588538E-01
 -0.362198588538E-01
  0.122503689021E-01
  0.122503689021E-01
 -0.450352101919E-02
 -0.450352101919E-02
  0.272120756772E-01
  0.272120756772E-01
 -0.637493914391E-01
 -0.637493914391E-01
 -0.105372702801E-01
 -0.105372702801E-01
 -0.585000667711E-01
 -0.585000667711E-01
  0.105591374777E-01
  0.105591374777E-01
 -0.164939342930E-01
 -0.164939342930E-01
  0.122301054637E+00
  0.122301054637E+00
  0.615398266369E-02
  0.615398266369E-02
  0.718681303335E-02
  0.718681303335E-02
 -0.289393360915E-02
 -0.289393360915E-02
  0.729408925155E-02
  0.729408925155E-02
 -0.525857979045E-03
 -0.525857979045E-03
  0.580122098146E-02
  0.580122098146E-02
 -0.964156835498E-02
 -0.964156835498E-02
  0.655705841400E-02
  0.655705841400E-02
 -0.117008736208E-01
 -0.117008736208E-01
  0.271834078182E-02
  0.271834078182E-02
 -0.156787895246E-01
 -0.156787895246E-01
 -0.200584123879E-01
 -0.200584123879E-01
 -0.298012532428E-01
 -0.298012532428E-01
 -0.368417464973E-01
 -0.368417464973E-01
 -0.149986587320E-01
 -0.149986587320E-01
 -0.347923491720E-02
 -0.347923491720E-02
 -0.298655693597E-02
 -0.298655693597E-02
  0.138880922657E-01
  0.138880922657E-01
  0.191616120617E-02
  0.191616120617E-02
  0.376606537585E-03
  0.376606537585E-03
  0.176727017758E-01
  0.176727017758E-01
 -0.509555946755E-03
 -0.509555946755E-03
  0.326223285855E-01
  0.326223285855E-01
 -0.529189640746E-01
 -0.529189640746E-01
  0.362198516447E-01
  0.362198516447E-01
 -0.122503666920E-01
 -0.122503666920E-01
  0.450352939373E-02
  0.450352939373E-02
 -0.272120751589E-01
 -0.272120751589E-01
  0.637493709194E-01
  0.637493709194E-01
  0.105372968407E-01
  0.105372968407E-01
  0.585000441696E-01
  0.585000441696E-01
 -0.105591580763E-01
 -0.105591580763E-01
  0.164939840308E-01
  0.164939840308E-01
 -0.122301073654E+00
 -0.122301073654E+00
