# vtk DataFile Version 3.0
MachLine results file. Generated by MachLine, USU AeroLab (c) 2023.
ASCII
DATASET POLYDATA
POINTS                 368 float
  0.403014676840E+01  0.108695652175E+00  0.000000000000E+00
  0.598022953781E+02  0.108695652175E+00  0.487943074383E+01
  0.409044030520E+01  0.326086956525E+00  0.000000000000E+00
  0.598027533752E+02  0.326086956525E+00  0.487419581243E+01
  0.415073384195E+01  0.543478260870E+00  0.000000000000E+00
  0.598032113724E+02  0.543478260870E+00  0.486896088104E+01
  0.421102737870E+01  0.760869565215E+00  0.000000000000E+00
  0.598036693695E+02  0.760869565215E+00  0.486372594965E+01
  0.427132091550E+01  0.978260869545E+00  0.000000000000E+00
  0.598041273667E+02  0.978260869545E+00  0.485849101826E+01
  0.433161445230E+01  0.119565217390E+01  0.000000000000E+00
  0.598045853638E+02  0.119565217390E+01  0.485325608686E+01
  0.439190798910E+01  0.141304347825E+01  0.000000000000E+00
  0.598050433610E+02  0.141304347825E+01  0.484802115547E+01
  0.445220152585E+01  0.163043478260E+01  0.000000000000E+00
  0.598055013581E+02  0.163043478260E+01  0.484278622407E+01
  0.451249506260E+01  0.184782608695E+01  0.000000000000E+00
  0.598059593553E+02  0.184782608695E+01  0.483755129268E+01
  0.457278859940E+01  0.206521739130E+01  0.000000000000E+00
  0.598064173524E+02  0.206521739130E+01  0.483231636129E+01
  0.463308213620E+01  0.228260869565E+01  0.000000000000E+00
  0.598068753496E+02  0.228260869565E+01  0.482708142989E+01
  0.469337567300E+01  0.250000000000E+01  0.000000000000E+00
  0.598073333467E+02  0.250000000000E+01  0.482184649850E+01
  0.475366920975E+01  0.271739130435E+01  0.000000000000E+00
  0.598077913439E+02  0.271739130435E+01  0.481661156711E+01
  0.481396274650E+01  0.293478260870E+01  0.000000000000E+00
  0.598082493410E+02  0.293478260870E+01  0.481137663572E+01
  0.487425628330E+01  0.315217391305E+01  0.000000000000E+00
  0.598087073382E+02  0.315217391305E+01  0.480614170432E+01
  0.493454982010E+01  0.336956521740E+01  0.000000000000E+00
  0.598091653353E+02  0.336956521740E+01  0.480090677293E+01
  0.499484335690E+01  0.358695652175E+01  0.000000000000E+00
  0.598096233325E+02  0.358695652175E+01  0.479567184153E+01
  0.505513689365E+01  0.380434782610E+01  0.000000000000E+00
  0.598100813296E+02  0.380434782610E+01  0.479043691014E+01
  0.511543043040E+01  0.402173913045E+01  0.000000000000E+00
  0.598105393268E+02  0.402173913045E+01  0.478520197875E+01
  0.517572396720E+01  0.423913043480E+01  0.000000000000E+00
  0.598109973239E+02  0.423913043480E+01  0.477996704735E+01
  0.523601750400E+01  0.445652173915E+01  0.000000000000E+00
  0.598114553211E+02  0.445652173915E+01  0.477473211596E+01
  0.529631104080E+01  0.467391304350E+01  0.000000000000E+00
  0.598119133182E+02  0.467391304350E+01  0.476949718456E+01
  0.535660457755E+01  0.489130434785E+01  0.000000000000E+00
  0.598123713154E+02  0.489130434785E+01  0.476426225317E+01
  0.541689811430E+01  0.510869565215E+01  0.000000000000E+00
  0.598128293125E+02  0.510869565215E+01  0.475902732178E+01
  0.547719165110E+01  0.532608695650E+01  0.000000000000E+00
  0.598132873097E+02  0.532608695650E+01  0.475379239039E+01
  0.553748518790E+01  0.554347826085E+01  0.000000000000E+00
  0.598137453068E+02  0.554347826085E+01  0.474855745899E+01
  0.559777872470E+01  0.576086956520E+01  0.000000000000E+00
  0.598142033040E+02  0.576086956520E+01  0.474332252760E+01
  0.565807226145E+01  0.597826086955E+01  0.000000000000E+00
  0.598146613011E+02  0.597826086955E+01  0.473808759621E+01
  0.571836579820E+01  0.619565217390E+01  0.000000000000E+00
  0.598151192983E+02  0.619565217390E+01  0.473285266481E+01
  0.577865933500E+01  0.641304347825E+01  0.000000000000E+00
  0.598155772954E+02  0.641304347825E+01  0.472761773342E+01
  0.583895287180E+01  0.663043478260E+01  0.000000000000E+00
  0.598160352926E+02  0.663043478260E+01  0.472238280202E+01
  0.589924640860E+01  0.684782608695E+01  0.000000000000E+00
  0.598164932897E+02  0.684782608695E+01  0.471714787063E+01
  0.595953994540E+01  0.706521739130E+01  0.000000000000E+00
  0.598169512869E+02  0.706521739130E+01  0.471191293923E+01
  0.601983348215E+01  0.728260869565E+01  0.000000000000E+00
  0.598174092840E+02  0.728260869565E+01  0.470667800784E+01
  0.608012701890E+01  0.750000000000E+01  0.000000000000E+00
  0.598178672812E+02  0.750000000000E+01  0.470144307645E+01
  0.614042055570E+01  0.771739130435E+01  0.000000000000E+00
  0.598183252784E+02  0.771739130435E+01  0.469620814506E+01
  0.620071409250E+01  0.793478260870E+01  0.000000000000E+00
  0.598187832755E+02  0.793478260870E+01  0.469097321366E+01
  0.626100762930E+01  0.815217391305E+01  0.000000000000E+00
  0.598192412727E+02  0.815217391305E+01  0.468573828227E+01
  0.632130116605E+01  0.836956521740E+01  0.000000000000E+00
  0.598196992698E+02  0.836956521740E+01  0.468050335088E+01
  0.638159470280E+01  0.858695652175E+01  0.000000000000E+00
  0.598201572670E+02  0.858695652175E+01  0.467526841948E+01
  0.644188823960E+01  0.880434782610E+01  0.000000000000E+00
  0.598206152641E+02  0.880434782610E+01  0.467003348809E+01
  0.650218177640E+01  0.902173913045E+01  0.000000000000E+00
  0.598210732613E+02  0.902173913045E+01  0.466479855669E+01
  0.656247531320E+01  0.923913043480E+01  0.000000000000E+00
  0.598215312584E+02  0.923913043480E+01  0.465956362530E+01
  0.662276884995E+01  0.945652173915E+01  0.000000000000E+00
  0.598219892556E+02  0.945652173915E+01  0.465432869391E+01
  0.668306238670E+01  0.967391304350E+01  0.000000000000E+00
  0.598224472527E+02  0.967391304350E+01  0.464909376252E+01
  0.674335592350E+01  0.989130434785E+01  0.000000000000E+00
  0.598229052499E+02  0.989130434785E+01  0.464385883112E+01
  0.403014676840E+01 -0.108695652175E+00  0.000000000000E+00
  0.598022953781E+02 -0.108695652175E+00  0.487943074383E+01
  0.409044030520E+01 -0.326086956525E+00  0.000000000000E+00
  0.598027533752E+02 -0.326086956525E+00  0.487419581243E+01
  0.415073384195E+01 -0.543478260870E+00  0.000000000000E+00
  0.598032113724E+02 -0.543478260870E+00  0.486896088104E+01
  0.421102737870E+01 -0.760869565215E+00  0.000000000000E+00
  0.598036693695E+02 -0.760869565215E+00  0.486372594965E+01
  0.427132091550E+01 -0.978260869545E+00  0.000000000000E+00
  0.598041273667E+02 -0.978260869545E+00  0.485849101826E+01
  0.433161445230E+01 -0.119565217390E+01  0.000000000000E+00
  0.598045853638E+02 -0.119565217390E+01  0.485325608686E+01
  0.439190798910E+01 -0.141304347825E+01  0.000000000000E+00
  0.598050433610E+02 -0.141304347825E+01  0.484802115547E+01
  0.445220152585E+01 -0.163043478260E+01  0.000000000000E+00
  0.598055013581E+02 -0.163043478260E+01  0.484278622407E+01
  0.451249506260E+01 -0.184782608695E+01  0.000000000000E+00
  0.598059593553E+02 -0.184782608695E+01  0.483755129268E+01
  0.457278859940E+01 -0.206521739130E+01  0.000000000000E+00
  0.598064173524E+02 -0.206521739130E+01  0.483231636129E+01
  0.463308213620E+01 -0.228260869565E+01  0.000000000000E+00
  0.598068753496E+02 -0.228260869565E+01  0.482708142989E+01
  0.469337567300E+01 -0.250000000000E+01  0.000000000000E+00
  0.598073333467E+02 -0.250000000000E+01  0.482184649850E+01
  0.475366920975E+01 -0.271739130435E+01  0.000000000000E+00
  0.598077913439E+02 -0.271739130435E+01  0.481661156711E+01
  0.481396274650E+01 -0.293478260870E+01  0.000000000000E+00
  0.598082493410E+02 -0.293478260870E+01  0.481137663572E+01
  0.487425628330E+01 -0.315217391305E+01  0.000000000000E+00
  0.598087073382E+02 -0.315217391305E+01  0.480614170432E+01
  0.493454982010E+01 -0.336956521740E+01  0.000000000000E+00
  0.598091653353E+02 -0.336956521740E+01  0.480090677293E+01
  0.499484335690E+01 -0.358695652175E+01  0.000000000000E+00
  0.598096233325E+02 -0.358695652175E+01  0.479567184153E+01
  0.505513689365E+01 -0.380434782610E+01  0.000000000000E+00
  0.598100813296E+02 -0.380434782610E+01  0.479043691014E+01
  0.511543043040E+01 -0.402173913045E+01  0.000000000000E+00
  0.598105393268E+02 -0.402173913045E+01  0.478520197875E+01
  0.517572396720E+01 -0.423913043480E+01  0.000000000000E+00
  0.598109973239E+02 -0.423913043480E+01  0.477996704735E+01
  0.523601750400E+01 -0.445652173915E+01  0.000000000000E+00
  0.598114553211E+02 -0.445652173915E+01  0.477473211596E+01
  0.529631104080E+01 -0.467391304350E+01  0.000000000000E+00
  0.598119133182E+02 -0.467391304350E+01  0.476949718456E+01
  0.535660457755E+01 -0.489130434785E+01  0.000000000000E+00
  0.598123713154E+02 -0.489130434785E+01  0.476426225317E+01
  0.541689811430E+01 -0.510869565215E+01  0.000000000000E+00
  0.598128293125E+02 -0.510869565215E+01  0.475902732178E+01
  0.547719165110E+01 -0.532608695650E+01  0.000000000000E+00
  0.598132873097E+02 -0.532608695650E+01  0.475379239039E+01
  0.553748518790E+01 -0.554347826085E+01  0.000000000000E+00
  0.598137453068E+02 -0.554347826085E+01  0.474855745899E+01
  0.559777872470E+01 -0.576086956520E+01  0.000000000000E+00
  0.598142033040E+02 -0.576086956520E+01  0.474332252760E+01
  0.565807226145E+01 -0.597826086955E+01  0.000000000000E+00
  0.598146613011E+02 -0.597826086955E+01  0.473808759621E+01
  0.571836579820E+01 -0.619565217390E+01  0.000000000000E+00
  0.598151192983E+02 -0.619565217390E+01  0.473285266481E+01
  0.577865933500E+01 -0.641304347825E+01  0.000000000000E+00
  0.598155772954E+02 -0.641304347825E+01  0.472761773342E+01
  0.583895287180E+01 -0.663043478260E+01  0.000000000000E+00
  0.598160352926E+02 -0.663043478260E+01  0.472238280202E+01
  0.589924640860E+01 -0.684782608695E+01  0.000000000000E+00
  0.598164932897E+02 -0.684782608695E+01  0.471714787063E+01
  0.595953994540E+01 -0.706521739130E+01  0.000000000000E+00
  0.598169512869E+02 -0.706521739130E+01  0.471191293923E+01
  0.601983348215E+01 -0.728260869565E+01  0.000000000000E+00
  0.598174092840E+02 -0.728260869565E+01  0.470667800784E+01
  0.608012701890E+01 -0.750000000000E+01  0.000000000000E+00
[...]
POINT_DATA                 368
SCALARS Gamma float 1
LOOKUP_TABLE default
 -0.376852236671E-02
 -0.376852236671E-02
 -0.449243992589E-02
 -0.449243992589E-02
 -0.271052185019E-02
 -0.271052185019E-02
 -0.342327192579E-02
 -0.342327192579E-02
 -0.778456254145E-03
 -0.778456254145E-03
 -0.104690807841E-02
 -0.104690807841E-02
 -0.107610776244E-02
 -0.107610776244E-02
 -0.181865890414E-04
 -0.181865890414E-04
  0.785075116920E-03
  0.785075116920E-03
  0.321796695706E-02
  0.321796695706E-02
  0.259193518853E-02
  0.259193518853E-02
  0.241568911077E-02
  0.241568911077E-02
  0.183270486070E-02
  0.183270486070E-02
  0.501478985535E-02
  0.501478985535E-02
  0.609522579177E-02
  0.609522579177E-02
  0.658303198608E-02
  0.658303198608E-02
  0.881499612532E-02
  0.881499612532E-02
  0.875358565821E-02
  0.875358565821E-02
  0.891174354654E-02
  0.891174354654E-02
  0.900433303268E-02
  0.900433303268E-02
  0.878614449800E-02
  0.878614449800E-02
  0.820299814300E-02
  0.820299814300E-02
  0.875227905982E-02
  0.875227905982E-02
  0.814581466598E-02
  0.814581466598E-02
  0.792983015085E-02
  0.792983015085E-02
  0.835524296908E-02
  0.835524296908E-02
  0.813565752610E-02
  0.813565752610E-02
  0.850657344478E-02
  0.850657344478E-02
  0.864457953934E-02
  0.864457953934E-02
  0.895571043623E-02
  0.895571043623E-02
  0.912551640840E-02
  0.912551640840E-02
  0.898758126992E-02
  0.898758126992E-02
  0.909821651046E-02
  0.909821651046E-02
  0.968604434593E-02
  0.968604434593E-02
  0.825053286948E-02
  0.825053286948E-02
  0.842438626996E-02
  0.842438626996E-02
  0.896492106012E-02
  0.896492106012E-02
  0.930183804714E-02
  0.930183804714E-02
  0.895340655830E-02
  0.895340655830E-02
  0.101113847507E-01
  0.101113847507E-01
  0.865582562265E-02
  0.865582562265E-02
  0.118403721323E-01
  0.118403721323E-01
  0.736678494776E-02
  0.736678494776E-02
  0.233052774003E-01
  0.233052774003E-01
  0.176889192295E-01
  0.176889192295E-01
  0.119244624445E+00
  0.119244624445E+00
  0.376852236670E-02
  0.376852236670E-02
  0.449243992588E-02
  0.449243992588E-02
  0.271052185020E-02
  0.271052185020E-02
  0.342327192577E-02
  0.342327192577E-02
  0.778456254171E-03
  0.778456254171E-03
  0.104690807845E-02
  0.104690807845E-02
  0.107610776237E-02
  0.107610776237E-02
  0.181865890756E-04
  0.181865890756E-04
 -0.785075116911E-03
 -0.785075116911E-03
 -0.321796695703E-02
 -0.321796695703E-02
 -0.259193518840E-02
 -0.259193518840E-02
 -0.241568911082E-02
 -0.241568911082E-02
 -0.183270486097E-02
 -0.183270486097E-02
 -0.501478985550E-02
 -0.501478985550E-02
 -0.609522579340E-02
 -0.609522579340E-02
 -0.658303198274E-02
 -0.658303198274E-02
 -0.881499612883E-02
 -0.881499612883E-02
 -0.875358565743E-02
 -0.875358565743E-02
 -0.891174354547E-02
 -0.891174354547E-02
 -0.900433303383E-02
 -0.900433303383E-02
 -0.878614449487E-02
 -0.878614449487E-02
 -0.820299814415E-02
 -0.820299814415E-02
 -0.875227905999E-02
 -0.875227905999E-02
 -0.814581466679E-02
 -0.814581466679E-02
 -0.792983015367E-02
 -0.792983015367E-02
 -0.835524296531E-02
 -0.835524296531E-02
 -0.813565752298E-02
 -0.813565752298E-02
 -0.850657344592E-02
 -0.850657344592E-02
 -0.864457952983E-02
 -0.864457952983E-02
 -0.895571045342E-02
 -0.895571045342E-02
 -0.912551639922E-02
 -0.912551639922E-02
 -0.898758127218E-02
 -0.898758127218E-02
 -0.909821651575E-02
 -0.909821651575E-02
 -0.968604434786E-02
 -0.968604434786E-02
 -0.825053285748E-02
 -0.825053285748E-02
 -0.842438627106E-02
 -0.842438627106E-02
 -0.896492104986E-02
 -0.896492104986E-02
 -0.930183806190E-02
 -0.930183806190E-02
 -0.895340655982E-02
 -0.895340655982E-02
 -0.101113847499E-01
 -0.101113847499E-01
 -0.865582563298E-02
 -0.865582563298E-02
 -0.118403721077E-01
 -0.118403721077E-01
 -0.736678511544E-02
 -0.736678511544E-02
 -0.233052774865E-01
 -0.233052774865E-01
 -0.176889176912E-01
 -0.176889176912E-01
 -0.119244625744E+00
 -0.119244625744E+00
 -0.350723963574E-02
 -0.350723963574E-02
  0.204992211049E-02
  0.204992211049E-02
  0.876599660699E-03
  0.876599660699E-03
 -0.399173852814E-02
 -0.399173852814E-02
 -0.239541579448E-02
 -0.239541579448E-02
 -0.119087747056E-01
 -0.119087747056E-01
  0.334173496052E-02
  0.334173496052E-02
 -0.140454154233E-03
 -0.140454154233E-03
  0.719182306541E-02
  0.719182306541E-02
 -0.152778388765E-02
 -0.152778388765E-02
  0.926687592780E-02
  0.926687592780E-02
 -0.134634657106E-02
 -0.134634657106E-02
  0.706015410632E-02
  0.706015410632E-02
  0.289579894537E-02
  0.289579894537E-02
  0.121527014328E-01
  0.121527014328E-01
  0.632710415036E-02
  0.632710415036E-02
  0.237712797630E-01
  0.237712797630E-01
  0.457061071487E-02
  0.457061071487E-02
  0.156624563777E-01
  0.156624563777E-01
  0.900300988225E-02
  0.900300988225E-02
  0.115943174602E-01
  0.115943174602E-01
 -0.236059780051E-02
 -0.236059780051E-02
 -0.325810235688E-02
 -0.325810235688E-02
  0.151122622388E-02
  0.151122622388E-02
  0.271765144555E-02
  0.271765144555E-02
  0.663280274056E-02
  0.663280274056E-02
 -0.275616306184E-02
 -0.275616306184E-02
  0.601505439903E-02
  0.601505439903E-02
  0.455721195309E-02
  0.455721195309E-02
  0.217600719125E-02
  0.217600719125E-02
  0.156596386046E-02
  0.156596386046E-02
 -0.586452359050E-02
 -0.586452359050E-02
  0.150863685427E-01
  0.150863685427E-01
 -0.128381866232E-01
 -0.128381866232E-01
  0.177551003581E-01
  0.177551003581E-01
 -0.167220316057E-01
 -0.167220316057E-01
 -0.125660942494E-01
 -0.125660942494E-01
  0.684511631093E-02
  0.684511631093E-02
 -0.149904075863E-01
 -0.149904075863E-01
  0.166936069744E-01
  0.166936069744E-01
 -0.580677578801E-01
 -0.580677578801E-01
 -0.219682352963E-01
 -0.219682352963E-01
 -0.283291601727E-01
 -0.283291601727E-01
 -0.193773722254E-01
 -0.193773722254E-01
  0.140819760641E-01
  0.140819760641E-01
  0.116800189980E+00
  0.116800189980E+00
  0.350723963573E-02
  0.350723963573E-02
 -0.204992211057E-02
 -0.204992211057E-02
 -0.876599660395E-03
 -0.876599660395E-03
  0.399173852776E-02
  0.399173852776E-02
  0.239541579501E-02
  0.239541579501E-02
  0.119087747054E-01
  0.119087747054E-01
 -0.334173496155E-02
 -0.334173496155E-02
  0.140454156070E-03
  0.140454156070E-03
 -0.719182306438E-02
 -0.719182306438E-02
  0.152778388641E-02
  0.152778388641E-02
 -0.926687592496E-02
 -0.926687592496E-02
  0.134634656262E-02
  0.134634656262E-02
 -0.706015411060E-02
 -0.706015411060E-02
 -0.289579891277E-02
 -0.289579891277E-02
 -0.121527014871E-01
 -0.121527014871E-01
 -0.632710413672E-02
 -0.632710413672E-02
 -0.237712797308E-01
 -0.237712797308E-01
 -0.457061071895E-02
 -0.457061071895E-02
 -0.156624564979E-01
 -0.156624564979E-01
 -0.900300984059E-02
 -0.900300984059E-02
 -0.115943173085E-01
 -0.115943173085E-01
  0.236059784025E-02
  0.236059784025E-02
  0.325810228361E-02
  0.325810228361E-02
 -0.151122632321E-02
 -0.151122632321E-02
 -0.271765156664E-02
 -0.271765156664E-02
 -0.663280215286E-02
 -0.663280215286E-02
  0.275616302266E-02
  0.275616302266E-02
 -0.601505486712E-02
 -0.601505486712E-02
 -0.455721272211E-02
 -0.455721272211E-02
 -0.217600623168E-02
 -0.217600623168E-02
 -0.156596189855E-02
 -0.156596189855E-02
  0.586452173111E-02
  0.586452173111E-02
 -0.150863676933E-01
 -0.150863676933E-01
  0.128381841843E-01
  0.128381841843E-01
 -0.177551098173E-01
 -0.177551098173E-01
  0.167220416460E-01
  0.167220416460E-01
  0.125661241318E-01
  0.125661241318E-01
 -0.684512869314E-02
 -0.684512869314E-02
  0.149903959387E-01
  0.149903959387E-01
 -0.166936109746E-01
 -0.166936109746E-01
  0.580677624879E-01
  0.580677624879E-01
  0.219682216081E-01
  0.219682216081E-01
  0.283291737312E-01
  0.283291737312E-01
  0.193773423792E-01
  0.193773423792E-01
 -0.140819549849E-01
 -0.140819549849E-01
 -0.116800186739E+00
 -0.116800186739E+00
