# vtk DataFile Version 3.0
MachLine results file. Generated by MachLine, USU AeroLab (c) 2023.
ASCII
DATASET POLYDATA
POINTS                 248 float
  0.408946782880E+01  0.322580645160E+00  0.000000000000E+00
  0.400000000000E+01  0.000000000000E+00  0.000000000000E+00
  0.598027459882E+02  0.322580645160E+00  0.487428024681E+01
  0.598020663795E+02  0.000000000000E+00  0.488204820953E+01
  0.417893565750E+01  0.645161290320E+00  0.000000000000E+00
  0.408946782880E+01  0.322580645160E+00  0.000000000000E+00
  0.598034255968E+02  0.645161290320E+00  0.486651228410E+01
  0.598027459882E+02  0.322580645160E+00  0.487428024681E+01
  0.426840348630E+01  0.967741935480E+00  0.000000000000E+00
  0.417893565750E+01  0.645161290320E+00  0.000000000000E+00
  0.598041052055E+02  0.967741935480E+00  0.485874432139E+01
  0.598034255968E+02  0.645161290320E+00  0.486651228410E+01
  0.435787131510E+01  0.129032258060E+01  0.000000000000E+00
  0.426840348630E+01  0.967741935480E+00  0.000000000000E+00
  0.598047848142E+02  0.129032258060E+01  0.485097635867E+01
  0.598041052055E+02  0.967741935480E+00  0.485874432139E+01
  0.444733914390E+01  0.161290322580E+01  0.000000000000E+00
  0.435787131510E+01  0.129032258060E+01  0.000000000000E+00
  0.598054644229E+02  0.161290322580E+01  0.484320839596E+01
  0.598047848142E+02  0.129032258060E+01  0.485097635867E+01
  0.453680697260E+01  0.193548387100E+01  0.000000000000E+00
  0.444733914390E+01  0.161290322580E+01  0.000000000000E+00
  0.598061440315E+02  0.193548387100E+01  0.483544043325E+01
  0.598054644229E+02  0.161290322580E+01  0.484320839596E+01
  0.462627480140E+01  0.225806451610E+01  0.000000000000E+00
  0.453680697260E+01  0.193548387100E+01  0.000000000000E+00
  0.598068236402E+02  0.225806451610E+01  0.482767247053E+01
  0.598061440315E+02  0.193548387100E+01  0.483544043325E+01
  0.471574263020E+01  0.258064516130E+01  0.000000000000E+00
  0.462627480140E+01  0.225806451610E+01  0.000000000000E+00
  0.598075032489E+02  0.258064516130E+01  0.481990450782E+01
  0.598068236402E+02  0.225806451610E+01  0.482767247053E+01
  0.480521045890E+01  0.290322580650E+01  0.000000000000E+00
  0.471574263020E+01  0.258064516130E+01  0.000000000000E+00
  0.598081828576E+02  0.290322580650E+01  0.481213654511E+01
  0.598075032489E+02  0.258064516130E+01  0.481990450782E+01
  0.489467828770E+01  0.322580645160E+01  0.000000000000E+00
  0.480521045890E+01  0.290322580650E+01  0.000000000000E+00
  0.598088624662E+02  0.322580645160E+01  0.480436858240E+01
  0.598081828576E+02  0.290322580650E+01  0.481213654511E+01
  0.498414611650E+01  0.354838709680E+01  0.000000000000E+00
  0.489467828770E+01  0.322580645160E+01  0.000000000000E+00
  0.598095420749E+02  0.354838709680E+01  0.479660061968E+01
  0.598088624662E+02  0.322580645160E+01  0.480436858240E+01
  0.507361394530E+01  0.387096774190E+01  0.000000000000E+00
  0.498414611650E+01  0.354838709680E+01  0.000000000000E+00
  0.598102216836E+02  0.387096774190E+01  0.478883265697E+01
  0.598095420749E+02  0.354838709680E+01  0.479660061968E+01
  0.516308177400E+01  0.419354838710E+01  0.000000000000E+00
  0.507361394530E+01  0.387096774190E+01  0.000000000000E+00
  0.598109012923E+02  0.419354838710E+01  0.478106469426E+01
  0.598102216836E+02  0.387096774190E+01  0.478883265697E+01
  0.525254960280E+01  0.451612903230E+01  0.000000000000E+00
  0.516308177400E+01  0.419354838710E+01  0.000000000000E+00
  0.598115809009E+02  0.451612903230E+01  0.477329673154E+01
  0.598109012923E+02  0.419354838710E+01  0.478106469426E+01
  0.534201743160E+01  0.483870967740E+01  0.000000000000E+00
  0.525254960280E+01  0.451612903230E+01  0.000000000000E+00
  0.598122605096E+02  0.483870967740E+01  0.476552876883E+01
  0.598115809009E+02  0.451612903230E+01  0.477329673154E+01
  0.543148526030E+01  0.516129032260E+01  0.000000000000E+00
  0.534201743160E+01  0.483870967740E+01  0.000000000000E+00
  0.598129401183E+02  0.516129032260E+01  0.475776080612E+01
  0.598122605096E+02  0.483870967740E+01  0.476552876883E+01
  0.552095308910E+01  0.548387096770E+01  0.000000000000E+00
  0.543148526030E+01  0.516129032260E+01  0.000000000000E+00
  0.598136197270E+02  0.548387096770E+01  0.474999284341E+01
  0.598129401183E+02  0.516129032260E+01  0.475776080612E+01
  0.561042091790E+01  0.580645161290E+01  0.000000000000E+00
  0.552095308910E+01  0.548387096770E+01  0.000000000000E+00
  0.598142993356E+02  0.580645161290E+01  0.474222488069E+01
  0.598136197270E+02  0.548387096770E+01  0.474999284341E+01
  0.569988874660E+01  0.612903225810E+01  0.000000000000E+00
  0.561042091790E+01  0.580645161290E+01  0.000000000000E+00
  0.598149789443E+02  0.612903225810E+01  0.473445691798E+01
  0.598142993356E+02  0.580645161290E+01  0.474222488069E+01
  0.578935657540E+01  0.645161290320E+01  0.000000000000E+00
  0.569988874660E+01  0.612903225810E+01  0.000000000000E+00
  0.598156585530E+02  0.645161290320E+01  0.472668895527E+01
  0.598149789443E+02  0.612903225810E+01  0.473445691798E+01
  0.587882440420E+01  0.677419354840E+01  0.000000000000E+00
  0.578935657540E+01  0.645161290320E+01  0.000000000000E+00
  0.598163381617E+02  0.677419354840E+01  0.471892099255E+01
  0.598156585530E+02  0.645161290320E+01  0.472668895527E+01
  0.596829223300E+01  0.709677419350E+01  0.000000000000E+00
  0.587882440420E+01  0.677419354840E+01  0.000000000000E+00
  0.598170177704E+02  0.709677419350E+01  0.471115302984E+01
  0.598163381617E+02  0.677419354840E+01  0.471892099255E+01
  0.605776006170E+01  0.741935483870E+01  0.000000000000E+00
  0.596829223300E+01  0.709677419350E+01  0.000000000000E+00
  0.598176973790E+02  0.741935483870E+01  0.470338506713E+01
  0.598170177704E+02  0.709677419350E+01  0.471115302984E+01
  0.614722789050E+01  0.774193548390E+01  0.000000000000E+00
  0.605776006170E+01  0.741935483870E+01  0.000000000000E+00
  0.598183769877E+02  0.774193548390E+01  0.469561710442E+01
  0.598176973790E+02  0.741935483870E+01  0.470338506713E+01
  0.623669571930E+01  0.806451612900E+01  0.000000000000E+00
  0.614722789050E+01  0.774193548390E+01  0.000000000000E+00
  0.598190565964E+02  0.806451612900E+01  0.468784914170E+01
  0.598183769877E+02  0.774193548390E+01  0.469561710442E+01
  0.632616354800E+01  0.838709677420E+01  0.000000000000E+00
  0.623669571930E+01  0.806451612900E+01  0.000000000000E+00
  0.598197362051E+02  0.838709677420E+01  0.468008117899E+01
  0.598190565964E+02  0.806451612900E+01  0.468784914170E+01
  0.641563137680E+01  0.870967741940E+01  0.000000000000E+00
  0.632616354800E+01  0.838709677420E+01  0.000000000000E+00
  0.598204158137E+02  0.870967741940E+01  0.467231321628E+01
  0.598197362051E+02  0.838709677420E+01  0.468008117899E+01
  0.650509920560E+01  0.903225806450E+01  0.000000000000E+00
  0.641563137680E+01  0.870967741940E+01  0.000000000000E+00
  0.598210954224E+02  0.903225806450E+01  0.466454525356E+01
  0.598204158137E+02  0.870967741940E+01  0.467231321628E+01
  0.659456703440E+01  0.935483870970E+01  0.000000000000E+00
  0.650509920560E+01  0.903225806450E+01  0.000000000000E+00
  0.598217750311E+02  0.935483870970E+01  0.465677729085E+01
  0.598210954224E+02  0.903225806450E+01  0.466454525356E+01
  0.668403486310E+01  0.967741935480E+01  0.000000000000E+00
  0.659456703440E+01  0.935483870970E+01  0.000000000000E+00
  0.598224546398E+02  0.967741935480E+01  0.464900932814E+01
  0.598217750311E+02  0.935483870970E+01  0.465677729085E+01
  0.677350269190E+01  0.100000000000E+02  0.000000000000E+00
  0.668403486310E+01  0.967741935480E+01  0.000000000000E+00
  0.598231342484E+02  0.100000000000E+02  0.464124136542E+01
  0.598224546398E+02  0.967741935480E+01  0.464900932814E+01
  0.400000000000E+01  0.000000000000E+00  0.000000000000E+00
  0.408946782880E+01 -0.322580645160E+00  0.000000000000E+00
  0.598020663795E+02  0.000000000000E+00  0.488204820953E+01
  0.598027459882E+02 -0.322580645160E+00  0.487428024681E+01
  0.408946782880E+01 -0.322580645160E+00  0.000000000000E+00
  0.417893565750E+01 -0.645161290320E+00  0.000000000000E+00
  0.598027459882E+02 -0.322580645160E+00  0.487428024681E+01
  0.598034255968E+02 -0.645161290320E+00  0.486651228410E+01
  0.417893565750E+01 -0.645161290320E+00  0.000000000000E+00
  0.426840348630E+01 -0.967741935480E+00  0.000000000000E+00
  0.598034255968E+02 -0.645161290320E+00  0.486651228410E+01
  0.598041052055E+02 -0.967741935480E+00  0.485874432139E+01
  0.426840348630E+01 -0.967741935480E+00  0.000000000000E+00
  0.435787131510E+01 -0.129032258060E+01  0.000000000000E+00
  0.598041052055E+02 -0.967741935480E+00  0.485874432139E+01
  0.598047848142E+02 -0.129032258060E+01  0.485097635867E+01
  0.435787131510E+01 -0.129032258060E+01  0.000000000000E+00
  0.444733914390E+01 -0.161290322580E+01  0.000000000000E+00
  0.598047848142E+02 -0.129032258060E+01  0.485097635867E+01
  0.598054644229E+02 -0.161290322580E+01  0.484320839596E+01
  0.444733914390E+01 -0.161290322580E+01  0.000000000000E+00
  0.453680697260E+01 -0.193548387100E+01  0.000000000000E+00
  0.598054644229E+02 -0.161290322580E+01  0.484320839596E+01
  0.598061440315E+02 -0.193548387100E+01  0.483544043325E+01
  0.453680697260E+01 -0.193548387100E+01  0.000000000000E+00
  0.462627480140E+01 -0.225806451610E+01  0.000000000000E+00
  0.598061440315E+02 -0.193548387100E+01  0.483544043325E+01
  0.598068236402E+02 -0.225806451610E+01  0.482767247053E+01
  0.462627480140E+01 -0.225806451610E+01  0.000000000000E+00
  0.471574263020E+01 -0.258064516130E+01  0.000000000000E+00
  0.598068236402E+02 -0.225806451610E+01  0.482767247053E+01
  0.598075032489E+02 -0.258064516130E+01  0.481990450782E+01
  0.471574263020E+01 -0.258064516130E+01  0.000000000000E+00
  0.480521045890E+01 -0.290322580650E+01  0.000000000000E+00
  0.598075032489E+02 -0.258064516130E+01  0.481990450782E+01
  0.598081828576E+02 -0.290322580650E+01  0.481213654511E+01
  0.480521045890E+01 -0.290322580650E+01  0.000000000000E+00
  0.489467828770E+01 -0.322580645160E+01  0.000000000000E+00
  0.598081828576E+02 -0.290322580650E+01  0.481213654511E+01
  0.598088624662E+02 -0.322580645160E+01  0.480436858240E+01
  0.489467828770E+01 -0.322580645160E+01  0.000000000000E+00
  0.498414611650E+01 -0.354838709680E+01  0.000000000000E+00
  0.598088624662E+02 -0.322580645160E+01  0.480436858240E+01
  0.598095420749E+02 -0.354838709680E+01  0.479660061968E+01
  0.498414611650E+01 -0.354838709680E+01  0.000000000000E+00
  0.507361394530E+01 -0.387096774190E+01  0.000000000000E+00
  0.598095420749E+02 -0.354838709680E+01  0.479660061968E+01
  0.598102216836E+02 -0.387096774190E+01  0.478883265697E+01
  0.507361394530E+01 -0.387096774190E+01  0.000000000000E+00
  0.516308177400E+01 -0.419354838710E+01  0.000000000000E+00
  0.598102216836E+02 -0.387096774190E+01  0.478883265697E+01
  0.598109012923E+02 -0.419354838710E+01  0.478106469426E+01
  0.516308177400E+01 -0.419354838710E+01  0.000000000000E+00
  0.525254960280E+01 -0.451612903230E+01  0.000000000000E+00
  0.598109012923E+02 -0.419354838710E+01  0.478106469426E+01
  0.598115809009E+02 -0.451612903230E+01  0.477329673154E+01
  0.525254960280E+01 -0.451612903230E+01  0.000000000000E+00
  0.534201743160E+01 -0.483870967740E+01  0.000000000000E+00
  0.598115809009E+02 -0.451612903230E+01  0.477329673154E+01
  0.598122605096E+02 -0.483870967740E+01  0.476552876883E+01
  0.534201743160E+01 -0.483870967740E+01  0.000000000000E+00
  0.543148526030E+01 -0.516129032260E+01  0.000000000000E+00
  0.598122605096E+02 -0.483870967740E+01  0.476552876883E+01
  0.598129401183E+02 -0.516129032260E+01  0.475776080612E+01
  0.543148526030E+01 -0.516129032260E+01  0.000000000000E+00
  0.552095308910E+01 -0.548387096770E+01  0.000000000000E+00
  0.598129401183E+02 -0.516129032260E+01  0.475776080612E+01
  0.598136197270E+02 -0.548387096770E+01  0.474999284341E+01
  0.552095308910E+01 -0.548387096770E+01  0.000000000000E+00
  0.561042091790E+01 -0.580645161290E+01  0.000000000000E+00
  0.598136197270E+02 -0.548387096770E+01  0.474999284341E+01
  0.598142993356E+02 -0.580645161290E+01  0.474222488069E+01
  0.561042091790E+01 -0.580645161290E+01  0.000000000000E+00
  0.569988874660E+01 -0.612903225810E+01  0.000000000000E+00
  0.598142993356E+02 -0.580645161290E+01  0.474222488069E+01
  0.598149789443E+02 -0.612903225810E+01  0.473445691798E+01
  0.569988874660E+01 -0.612903225810E+01  0.000000000000E+00
  0.578935657540E+01 -0.645161290320E+01  0.000000000000E+00
  0.598149789443E+02 -0.612903225810E+01  0.473445691798E+01
  0.598156585530E+02 -0.645161290320E+01  0.472668895527E+01
  0.578935657540E+01 -0.645161290320E+01  0.000000000000E+00
  0.587882440420E+01 -0.677419354840E+01  0.000000000000E+00
  0.598156585530E+02 -0.645161290320E+01  0.472668895527E+01
  0.598163381617E+02 -0.677419354840E+01  0.471892099255E+01
  0.587882440420E+01 -0.677419354840E+01  0.000000000000E+00
  0.596829223300E+01 -0.709677419350E+01  0.000000000000E+00
  0.598163381617E+02 -0.677419354840E+01  0.471892099255E+01
  0.598170177704E+02 -0.709677419350E+01  0.471115302984E+01
  0.596829223300E+01 -0.709677419350E+01  0.000000000000E+00
  0.605776006170E+01 -0.741935483870E+01  0.000000000000E+00
  0.598170177704E+02 -0.709677419350E+01  0.471115302984E+01
  0.598176973790E+02 -0.741935483870E+01  0.470338506713E+01
  0.605776006170E+01 -0.741935483870E+01  0.000000000000E+00
  0.614722789050E+01 -0.774193548390E+01  0.000000000000E+00
  0.598176973790E+02 -0.741935483870E+01  0.470338506713E+01
  0.598183769877E+02 -0.774193548390E+01  0.469561710442E+01
  0.614722789050E+01 -0.774193548390E+01  0.000000000000E+00
  0.623669571930E+01 -0.806451612900E+01  0.000000000000E+00
  0.598183769877E+02 -0.774193548390E+01  0.469561710442E+01
  0.598190565964E+02 -0.806451612900E+01  0.468784914170E+01
  0.623669571930E+01 -0.806451612900E+01  0.000000000000E+00
  0.632616354800E+01 -0.838709677420E+01  0.000000000000E+00
  0.598190565964E+02 -0.806451612900E+01  0.468784914170E+01
  0.598197362051E+02 -0.838709677420E+01  0.468008117899E+01
  0.632616354800E+01 -0.838709677420E+01  0.000000000000E+00
  0.641563137680E+01 -0.870967741940E+01  0.000000000000E+00
  0.598197362051E+02 -0.838709677420E+01  0.468008117899E+01
  0.598204158137E+02 -0.870967741940E+01  0.467231321628E+01
  0.641563137680E+01 -0.870967741940E+01  0.000000000000E+00
  0.650509920560E+01 -0.903225806450E+01  0.000000000000E+00
  0.598204158137E+02 -0.870967741940E+01  0.467231321628E+01
  0.598210954224E+02 -0.903225806450E+01  0.466454525356E+01
  0.650509920560E+01 -0.903225806450E+01  0.000000000000E+00
  0.659456703440E+01 -0.935483870970E+01  0.000000000000E+00
  0.598210954224E+02 -0.903225806450E+01  0.466454525356E+01
  0.598217750311E+02 -0.935483870970E+01  0.465677729085E+01
  0.659456703440E+01 -0.935483870970E+01  0.000000000000E+00
  0.668403486310E+01 -0.967741935480E+01  0.000000000000E+00
  0.598217750311E+02 -0.935483870970E+01  0.465677729085E+01
  0.598224546398E+02 -0.967741935480E+01  0.464900932814E+01
  0.668403486310E+01 -0.967741935480E+01  0.000000000000E+00
  0.677350269190E+01 -0.100000000000E+02  0.000000000000E+00
  0.598224546398E+02 -0.967741935480E+01  0.464900932814E+01
  0.598231342484E+02 -0.100000000000E+02  0.464124136542E+01
POLYGONS                 124                 496
3                   0                   3                   1
3                   0                   2                   3
3                   4                   7                   5
3                   4                   6                   7
3                   8                  11                   9
3                   8                  10                  11
3                  12                  15                  13
3                  12                  14                  15
3                  16                  19                  17
3                  16                  18                  19
3                  20                  23                  21
3                  20                  22                  23
3                  24                  27                  25
3                  24                  26                  27
3                  28                  31                  29
3                  28                  30                  31
3                  32                  35                  33
3                  32                  34                  35
3                  36                  39                  37
3                  36                  38                  39
3                  40                  43                  41
3                  40                  42                  43
3                  44                  47                  45
3                  44                  46                  47
3                  48                  51                  49
3                  48                  50                  51
3                  52                  55                  53
3                  52                  54                  55
3                  56                  59                  57
3                  56                  58                  59
3                  60                  63                  61
3                  60                  62                  63
3                  64                  67                  65
3                  64                  66                  67
3                  68                  71                  69
3                  68                  70                  71
3                  72                  75                  73
3                  72                  74                  75
3                  76                  79                  77
3                  76                  78                  79
3                  80                  83                  81
3                  80                  82                  83
3                  84                  87                  85
3                  84                  86                  87
3                  88                  91                  89
3                  88                  90                  91
3                  92                  95                  93
3                  92                  94                  95
3                  96                  99                  97
3                  96                  98                  99
3                 100                 103                 101
3                 100                 102                 103
3                 104                 107                 105
3                 104                 106                 107
3                 108                 111                 109
3                 108                 110                 111
3                 112                 115                 113
3                 112                 114                 115
3                 116                 119                 117
3                 116                 118                 119
3                 120                 123                 121
3                 120                 122                 123
3                 124                 126                 125
3                 126                 127                 125
3                 128                 130                 129
3                 130                 131                 129
3                 132                 134                 133
3                 134                 135                 133
3                 136                 138                 137
3                 138                 139                 137
3                 140                 142                 141
3                 142                 143                 141
3                 144                 146                 145
3                 146                 147                 145
3                 148                 150                 149
3                 150                 151                 149
3                 152                 154                 153
3                 154                 155                 153
3                 156                 158                 157
3                 158                 159                 157
3                 160                 162                 161
3                 162                 163                 161
3                 164                 166                 165
3                 166                 167                 165
3                 168                 170                 169
3                 170                 171                 169
3                 172                 174                 173
3                 174                 175                 173
3                 176                 178                 177
3                 178                 179                 177
3                 180                 182                 181
3                 182                 183                 181
3                 184                 186                 185
3                 186                 187                 185
3                 188                 190                 189
3                 190                 191                 189
3                 192                 194                 193
3                 194                 195                 193
3                 196                 198                 197
3                 198                 199                 197
3                 200                 202                 201
3                 202                 203                 201
3                 204                 206                 205
3                 206                 207                 205
3                 208                 210                 209
3                 210                 211                 209
3                 212                 214                 213
3                 214                 215                 213
3                 216                 218                 217
3                 218                 219                 217
3                 220                 222                 221
3                 222                 223                 221
3                 224                 226                 225
3                 226                 227                 225
3                 228                 230                 229
3                 230                 231                 229
3                 232                 234                 233
3                 234                 235                 233
3                 236                 238                 237
3                 238                 239                 237
3                 240                 242                 241
3                 242                 243                 241
3                 244                 246                 245
3                 246                 247                 245
POINT_DATA                 248
SCALARS mu float 1
LOOKUP_TABLE default
 -0.419884743268E+00
 -0.412733196221E+00
 -0.419884743268E+00
 -0.412733196221E+00
 -0.425431729652E+00
 -0.419884743268E+00
 -0.425431729652E+00
 -0.419884743268E+00
 -0.429252817572E+00
 -0.425431729652E+00
 -0.429252817572E+00
 -0.425431729652E+00
 -0.431920006934E+00
 -0.429252817572E+00
 -0.431920006934E+00
 -0.429252817572E+00
 -0.433096618795E+00
 -0.431920006934E+00
 -0.433096618795E+00
 -0.431920006934E+00
 -0.433035293271E+00
 -0.433096618795E+00
 -0.433035293271E+00
 -0.433096618795E+00
 -0.431524388708E+00
 -0.433035293271E+00
 -0.431524388708E+00
 -0.433035293271E+00
 -0.429073690609E+00
 -0.431524388708E+00
 -0.429073690609E+00
 -0.431524388708E+00
 -0.424647415492E+00
 -0.429073690609E+00
 -0.424647415492E+00
 -0.429073690609E+00
 -0.417244864020E+00
 -0.424647415492E+00
 -0.417244864020E+00
 -0.424647415492E+00
 -0.406225222441E+00
 -0.417244864020E+00
 -0.406225222441E+00
 -0.417244864020E+00
 -0.393290014137E+00
 -0.406225222441E+00
 -0.393290014137E+00
 -0.406225222441E+00
 -0.379853530676E+00
 -0.393290014137E+00
 -0.379853530676E+00
 -0.393290014137E+00
 -0.366497811302E+00
 -0.379853530676E+00
 -0.366497811302E+00
 -0.379853530676E+00
 -0.353189223805E+00
 -0.366497811302E+00
 -0.353189223805E+00
 -0.366497811302E+00
 -0.339907926743E+00
 -0.353189223805E+00
 -0.339907926743E+00
 -0.353189223805E+00
 -0.326600412530E+00
 -0.339907926743E+00
 -0.326600412530E+00
 -0.339907926743E+00
 -0.313388791114E+00
 -0.326600412530E+00
 -0.313388791114E+00
 -0.326600412530E+00
 -0.300227281135E+00
 -0.313388791114E+00
 -0.300227281135E+00
 -0.313388791114E+00
 -0.286995827109E+00
 -0.300227281135E+00
 -0.286995827109E+00
 -0.300227281135E+00
 -0.273826675651E+00
 -0.286995827109E+00
 -0.273826675651E+00
 -0.286995827109E+00
 -0.260650604186E+00
 -0.273826675651E+00
 -0.260650604186E+00
 -0.273826675651E+00
 -0.247472515254E+00
 -0.260650604186E+00
 -0.247472515254E+00
 -0.260650604186E+00
 -0.234189325760E+00
 -0.247472515254E+00
 -0.234189325760E+00
 -0.247472515254E+00
 -0.220537848543E+00
 -0.234189325760E+00
 -0.220537848543E+00
 -0.234189325760E+00
 -0.206763912809E+00
 -0.220537848543E+00
 -0.206763912809E+00
 -0.220537848543E+00
 -0.191249645656E+00
 -0.206763912809E+00
 -0.191249645656E+00
 -0.206763912809E+00
 -0.177238289089E+00
 -0.191249645656E+00
 -0.177238289089E+00
 -0.191249645656E+00
 -0.154300680011E+00
 -0.177238289089E+00
 -0.154300680011E+00
 -0.177238289089E+00
 -0.134224413104E+00
 -0.154300680011E+00
 -0.134224413104E+00
 -0.154300680011E+00
  0.000000000000E+00
 -0.134224413104E+00
  0.000000000000E+00
 -0.134224413104E+00
 -0.412733196221E+00
 -0.419884743246E+00
 -0.412733196221E+00
 -0.419884743246E+00
 -0.419884743246E+00
 -0.425431729636E+00
 -0.419884743246E+00
 -0.425431729636E+00
 -0.425431729636E+00
 -0.429252817590E+00
 -0.425431729636E+00
 -0.429252817590E+00
 -0.429252817590E+00
 -0.431920006957E+00
 -0.429252817590E+00
 -0.431920006957E+00
 -0.431920006957E+00
 -0.433096618775E+00
 -0.431920006957E+00
 -0.433096618775E+00
 -0.433096618775E+00
 -0.433035293279E+00
 -0.433096618775E+00
 -0.433035293279E+00
 -0.433035293279E+00
 -0.431524388725E+00
 -0.433035293279E+00
 -0.431524388725E+00
 -0.431524388725E+00
 -0.429073690623E+00
 -0.431524388725E+00
 -0.429073690623E+00
 -0.429073690623E+00
 -0.424647415498E+00
 -0.429073690623E+00
 -0.424647415498E+00
 -0.424647415498E+00
 -0.417244864024E+00
 -0.424647415498E+00
 -0.417244864024E+00
 -0.417244864024E+00
 -0.406225222391E+00
 -0.417244864024E+00
 -0.406225222391E+00
 -0.406225222391E+00
 -0.393290014145E+00
 -0.406225222391E+00
 -0.393290014145E+00
 -0.393290014145E+00
 -0.379853530578E+00
 -0.393290014145E+00
 -0.379853530578E+00
 -0.379853530578E+00
 -0.366497810985E+00
 -0.379853530578E+00
 -0.366497810985E+00
 -0.366497810985E+00
 -0.353189222728E+00
 -0.366497810985E+00
 -0.353189222728E+00
 -0.353189222728E+00
 -0.339907918817E+00
 -0.353189222728E+00
 -0.339907918817E+00
 -0.339907918817E+00
 -0.326600394250E+00
 -0.339907918817E+00
 -0.326600394250E+00
 -0.326600394250E+00
 -0.313388806407E+00
 -0.326600394250E+00
 -0.313388806407E+00
 -0.313388806407E+00
 -0.300227264619E+00
 -0.313388806407E+00
 -0.300227264619E+00
 -0.300227264619E+00
 -0.286995838643E+00
 -0.300227264619E+00
 -0.286995838643E+00
 -0.286995838643E+00
 -0.273826660384E+00
 -0.286995838643E+00
 -0.273826660384E+00
 -0.273826660384E+00
 -0.260650629705E+00
 -0.273826660384E+00
 -0.260650629705E+00
 -0.260650629705E+00
 -0.247472521447E+00
 -0.260650629705E+00
 -0.247472521447E+00
 -0.247472521447E+00
 -0.234189301382E+00
 -0.247472521447E+00
 -0.234189301382E+00
 -0.234189301382E+00
 -0.220537869117E+00
 -0.234189301382E+00
 -0.220537869117E+00
 -0.220537869117E+00
 -0.206763913939E+00
 -0.220537869117E+00
 -0.206763913939E+00
 -0.206763913939E+00
 -0.191249630199E+00
 -0.206763913939E+00
 -0.191249630199E+00
 -0.191249630199E+00
 -0.177238293046E+00
 -0.191249630199E+00
 -0.177238293046E+00
 -0.177238293046E+00
 -0.154300684496E+00
 -0.177238293046E+00
 -0.154300684496E+00
 -0.154300684496E+00
 -0.134224421276E+00
 -0.154300684496E+00
 -0.134224421276E+00
 -0.134224421276E+00
  0.000000000000E+00
 -0.134224421276E+00
  0.000000000000E+00
