# vtk DataFile Version 3.0
MachLine results file. Generated by MachLine, USU AeroLab (c) 2023.
ASCII
DATASET POLYDATA
POINTS                 496 float
  0.408946782880E+01  0.322580645160E+00  0.000000000000E+00
  0.400000000000E+01  0.000000000000E+00  0.000000000000E+00
  0.598027459882E+02  0.322580645160E+00  0.487428024681E+01
  0.598020663795E+02  0.000000000000E+00  0.488204820953E+01
  0.417893565750E+01  0.645161290320E+00  0.000000000000E+00
  0.408946782880E+01  0.322580645160E+00  0.000000000000E+00
  0.598034255968E+02  0.645161290320E+00  0.486651228410E+01
  0.598027459882E+02  0.322580645160E+00  0.487428024681E+01
  0.426840348630E+01  0.967741935480E+00  0.000000000000E+00
  0.417893565750E+01  0.645161290320E+00  0.000000000000E+00
  0.598041052055E+02  0.967741935480E+00  0.485874432139E+01
  0.598034255968E+02  0.645161290320E+00  0.486651228410E+01
  0.435787131510E+01  0.129032258060E+01  0.000000000000E+00
  0.426840348630E+01  0.967741935480E+00  0.000000000000E+00
  0.598047848142E+02  0.129032258060E+01  0.485097635867E+01
  0.598041052055E+02  0.967741935480E+00  0.485874432139E+01
  0.444733914390E+01  0.161290322580E+01  0.000000000000E+00
  0.435787131510E+01  0.129032258060E+01  0.000000000000E+00
  0.598054644229E+02  0.161290322580E+01  0.484320839596E+01
  0.598047848142E+02  0.129032258060E+01  0.485097635867E+01
  0.453680697260E+01  0.193548387100E+01  0.000000000000E+00
  0.444733914390E+01  0.161290322580E+01  0.000000000000E+00
  0.598061440315E+02  0.193548387100E+01  0.483544043325E+01
  0.598054644229E+02  0.161290322580E+01  0.484320839596E+01
  0.462627480140E+01  0.225806451610E+01  0.000000000000E+00
  0.453680697260E+01  0.193548387100E+01  0.000000000000E+00
  0.598068236402E+02  0.225806451610E+01  0.482767247053E+01
  0.598061440315E+02  0.193548387100E+01  0.483544043325E+01
  0.471574263020E+01  0.258064516130E+01  0.000000000000E+00
  0.462627480140E+01  0.225806451610E+01  0.000000000000E+00
  0.598075032489E+02  0.258064516130E+01  0.481990450782E+01
  0.598068236402E+02  0.225806451610E+01  0.482767247053E+01
  0.480521045890E+01  0.290322580650E+01  0.000000000000E+00
  0.471574263020E+01  0.258064516130E+01  0.000000000000E+00
  0.598081828576E+02  0.290322580650E+01  0.481213654511E+01
  0.598075032489E+02  0.258064516130E+01  0.481990450782E+01
  0.489467828770E+01  0.322580645160E+01  0.000000000000E+00
  0.480521045890E+01  0.290322580650E+01  0.000000000000E+00
  0.598088624662E+02  0.322580645160E+01  0.480436858240E+01
  0.598081828576E+02  0.290322580650E+01  0.481213654511E+01
  0.498414611650E+01  0.354838709680E+01  0.000000000000E+00
  0.489467828770E+01  0.322580645160E+01  0.000000000000E+00
  0.598095420749E+02  0.354838709680E+01  0.479660061968E+01
  0.598088624662E+02  0.322580645160E+01  0.480436858240E+01
  0.507361394530E+01  0.387096774190E+01  0.000000000000E+00
  0.498414611650E+01  0.354838709680E+01  0.000000000000E+00
  0.598102216836E+02  0.387096774190E+01  0.478883265697E+01
  0.598095420749E+02  0.354838709680E+01  0.479660061968E+01
  0.516308177400E+01  0.419354838710E+01  0.000000000000E+00
  0.507361394530E+01  0.387096774190E+01  0.000000000000E+00
  0.598109012923E+02  0.419354838710E+01  0.478106469426E+01
  0.598102216836E+02  0.387096774190E+01  0.478883265697E+01
  0.525254960280E+01  0.451612903230E+01  0.000000000000E+00
  0.516308177400E+01  0.419354838710E+01  0.000000000000E+00
  0.598115809009E+02  0.451612903230E+01  0.477329673154E+01
  0.598109012923E+02  0.419354838710E+01  0.478106469426E+01
  0.534201743160E+01  0.483870967740E+01  0.000000000000E+00
  0.525254960280E+01  0.451612903230E+01  0.000000000000E+00
  0.598122605096E+02  0.483870967740E+01  0.476552876883E+01
  0.598115809009E+02  0.451612903230E+01  0.477329673154E+01
  0.543148526030E+01  0.516129032260E+01  0.000000000000E+00
  0.534201743160E+01  0.483870967740E+01  0.000000000000E+00
  0.598129401183E+02  0.516129032260E+01  0.475776080612E+01
  0.598122605096E+02  0.483870967740E+01  0.476552876883E+01
  0.552095308910E+01  0.548387096770E+01  0.000000000000E+00
  0.543148526030E+01  0.516129032260E+01  0.000000000000E+00
  0.598136197270E+02  0.548387096770E+01  0.474999284341E+01
  0.598129401183E+02  0.516129032260E+01  0.475776080612E+01
  0.561042091790E+01  0.580645161290E+01  0.000000000000E+00
  0.552095308910E+01  0.548387096770E+01  0.000000000000E+00
  0.598142993356E+02  0.580645161290E+01  0.474222488069E+01
  0.598136197270E+02  0.548387096770E+01  0.474999284341E+01
  0.569988874660E+01  0.612903225810E+01  0.000000000000E+00
  0.561042091790E+01  0.580645161290E+01  0.000000000000E+00
  0.598149789443E+02  0.612903225810E+01  0.473445691798E+01
  0.598142993356E+02  0.580645161290E+01  0.474222488069E+01
  0.578935657540E+01  0.645161290320E+01  0.000000000000E+00
  0.569988874660E+01  0.612903225810E+01  0.000000000000E+00
  0.598156585530E+02  0.645161290320E+01  0.472668895527E+01
  0.598149789443E+02  0.612903225810E+01  0.473445691798E+01
  0.587882440420E+01  0.677419354840E+01  0.000000000000E+00
  0.578935657540E+01  0.645161290320E+01  0.000000000000E+00
  0.598163381617E+02  0.677419354840E+01  0.471892099255E+01
  0.598156585530E+02  0.645161290320E+01  0.472668895527E+01
  0.596829223300E+01  0.709677419350E+01  0.000000000000E+00
  0.587882440420E+01  0.677419354840E+01  0.000000000000E+00
  0.598170177704E+02  0.709677419350E+01  0.471115302984E+01
  0.598163381617E+02  0.677419354840E+01  0.471892099255E+01
  0.605776006170E+01  0.741935483870E+01  0.000000000000E+00
  0.596829223300E+01  0.709677419350E+01  0.000000000000E+00
  0.598176973790E+02  0.741935483870E+01  0.470338506713E+01
  0.598170177704E+02  0.709677419350E+01  0.471115302984E+01
  0.614722789050E+01  0.774193548390E+01  0.000000000000E+00
  0.605776006170E+01  0.741935483870E+01  0.000000000000E+00
  0.598183769877E+02  0.774193548390E+01  0.469561710442E+01
  0.598176973790E+02  0.741935483870E+01  0.470338506713E+01
  0.623669571930E+01  0.806451612900E+01  0.000000000000E+00
  0.614722789050E+01  0.774193548390E+01  0.000000000000E+00
  0.598190565964E+02  0.806451612900E+01  0.468784914170E+01
  0.598183769877E+02  0.774193548390E+01  0.469561710442E+01
  0.632616354800E+01  0.838709677420E+01  0.000000000000E+00
  0.623669571930E+01  0.806451612900E+01  0.000000000000E+00
  0.598197362051E+02  0.838709677420E+01  0.468008117899E+01
  0.598190565964E+02  0.806451612900E+01  0.468784914170E+01
  0.641563137680E+01  0.870967741940E+01  0.000000000000E+00
  0.632616354800E+01  0.838709677420E+01  0.000000000000E+00
  0.598204158137E+02  0.870967741940E+01  0.467231321628E+01
  0.598197362051E+02  0.838709677420E+01  0.468008117899E+01
  0.650509920560E+01  0.903225806450E+01  0.000000000000E+00
  0.641563137680E+01  0.870967741940E+01  0.000000000000E+00
  0.598210954224E+02  0.903225806450E+01  0.466454525356E+01
  0.598204158137E+02  0.870967741940E+01  0.467231321628E+01
  0.659456703440E+01  0.935483870970E+01  0.000000000000E+00
  0.650509920560E+01  0.903225806450E+01  0.000000000000E+00
  0.598217750311E+02  0.935483870970E+01  0.465677729085E+01
  0.598210954224E+02  0.903225806450E+01  0.466454525356E+01
  0.668403486310E+01  0.967741935480E+01  0.000000000000E+00
  0.659456703440E+01  0.935483870970E+01  0.000000000000E+00
  0.598224546398E+02  0.967741935480E+01  0.464900932814E+01
  0.598217750311E+02  0.935483870970E+01  0.465677729085E+01
  0.677350269190E+01  0.100000000000E+02  0.000000000000E+00
  0.668403486310E+01  0.967741935480E+01  0.000000000000E+00
  0.598231342484E+02  0.100000000000E+02  0.464124136542E+01
  0.598224546398E+02  0.967741935480E+01  0.464900932814E+01
  0.400000000000E+01  0.000000000000E+00  0.000000000000E+00
  0.408946782880E+01 -0.322580645160E+00  0.000000000000E+00
  0.598020663795E+02  0.000000000000E+00  0.488204820953E+01
  0.598027459882E+02 -0.322580645160E+00  0.487428024681E+01
  0.408946782880E+01 -0.322580645160E+00  0.000000000000E+00
  0.417893565750E+01 -0.645161290320E+00  0.000000000000E+00
  0.598027459882E+02 -0.322580645160E+00  0.487428024681E+01
  0.598034255968E+02 -0.645161290320E+00  0.486651228410E+01
  0.417893565750E+01 -0.645161290320E+00  0.000000000000E+00
  0.426840348630E+01 -0.967741935480E+00  0.000000000000E+00
  0.598034255968E+02 -0.645161290320E+00  0.486651228410E+01
  0.598041052055E+02 -0.967741935480E+00  0.485874432139E+01
  0.426840348630E+01 -0.967741935480E+00  0.000000000000E+00
  0.435787131510E+01 -0.129032258060E+01  0.000000000000E+00
  0.598041052055E+02 -0.967741935480E+00  0.485874432139E+01
  0.598047848142E+02 -0.129032258060E+01  0.485097635867E+01
  0.435787131510E+01 -0.129032258060E+01  0.000000000000E+00
  0.444733914390E+01 -0.161290322580E+01  0.000000000000E+00
  0.598047848142E+02 -0.129032258060E+01  0.485097635867E+01
  0.598054644229E+02 -0.161290322580E+01  0.484320839596E+01
  0.444733914390E+01 -0.161290322580E+01  0.000000000000E+00
  0.453680697260E+01 -0.193548387100E+01  0.000000000000E+00
  0.598054644229E+02 -0.161290322580E+01  0.484320839596E+01
  0.598061440315E+02 -0.193548387100E+01  0.483544043325E+01
  0.453680697260E+01 -0.193548387100E+01  0.000000000000E+00
  0.462627480140E+01 -0.225806451610E+01  0.000000000000E+00
  0.598061440315E+02 -0.193548387100E+01  0.483544043325E+01
  0.598068236402E+02 -0.225806451610E+01  0.482767247053E+01
  0.462627480140E+01 -0.225806451610E+01  0.000000000000E+00
  0.471574263020E+01 -0.258064516130E+01  0.000000000000E+00
  0.598068236402E+02 -0.225806451610E+01  0.482767247053E+01
  0.598075032489E+02 -0.258064516130E+01  0.481990450782E+01
  0.471574263020E+01 -0.258064516130E+01  0.000000000000E+00
  0.480521045890E+01 -0.290322580650E+01  0.000000000000E+00
  0.598075032489E+02 -0.258064516130E+01  0.481990450782E+01
  0.598081828576E+02 -0.290322580650E+01  0.481213654511E+01
  0.480521045890E+01 -0.290322580650E+01  0.000000000000E+00
[...]
POINT_DATA                 496
SCALARS mu float 1
LOOKUP_TABLE default
 -0.985219030044E-01
 -0.196838922645E+00
 -0.985219030044E-01
 -0.196838922645E+00
 -0.264555811599E+00
 -0.985219030044E-01
 -0.264555811599E+00
 -0.985219030044E-01
 -0.236184133368E+00
 -0.264555811599E+00
 -0.236184133368E+00
 -0.264555811599E+00
 -0.162563492031E+00
 -0.236184133368E+00
 -0.162563492031E+00
 -0.236184133368E+00
 -0.251294846742E+00
 -0.162563492031E+00
 -0.251294846742E+00
 -0.162563492031E+00
 -0.244562848804E+00
 -0.251294846742E+00
 -0.244562848804E+00
 -0.251294846742E+00
 -0.196308604166E+00
 -0.244562848804E+00
 -0.196308604166E+00
 -0.244562848804E+00
 -0.245927176550E+00
 -0.196308604166E+00
 -0.245927176550E+00
 -0.196308604166E+00
 -0.240793790025E+00
 -0.245927176550E+00
 -0.240793790025E+00
 -0.245927176550E+00
 -0.210935535558E+00
 -0.240793790025E+00
 -0.210935535558E+00
 -0.240793790025E+00
 -0.238591350866E+00
 -0.210935535558E+00
 -0.238591350866E+00
 -0.210935535558E+00
 -0.230232662344E+00
 -0.238591350866E+00
 -0.230232662344E+00
 -0.238591350866E+00
 -0.212227890234E+00
 -0.230232662344E+00
 -0.212227890234E+00
 -0.230232662344E+00
 -0.226334482283E+00
 -0.212227890234E+00
 -0.226334482283E+00
 -0.212227890234E+00
 -0.214886893575E+00
 -0.226334482283E+00
 -0.214886893575E+00
 -0.226334482283E+00
 -0.204094174842E+00
 -0.214886893575E+00
 -0.204094174842E+00
 -0.214886893575E+00
 -0.208900021056E+00
 -0.204094174842E+00
 -0.208900021056E+00
 -0.204094174842E+00
 -0.195858423992E+00
 -0.208900021056E+00
 -0.195858423992E+00
 -0.208900021056E+00
 -0.189203062398E+00
 -0.195858423992E+00
 -0.189203062398E+00
 -0.195858423992E+00
 -0.187080742254E+00
 -0.189203062398E+00
 -0.187080742254E+00
 -0.189203062398E+00
 -0.174043959716E+00
 -0.187080742254E+00
 -0.174043959716E+00
 -0.187080742254E+00
 -0.169423721960E+00
 -0.174043959716E+00
 -0.169423721960E+00
 -0.174043959716E+00
 -0.161944298509E+00
 -0.169423721960E+00
 -0.161944298509E+00
 -0.169423721960E+00
 -0.149926705133E+00
 -0.161944298509E+00
 -0.149926705133E+00
 -0.161944298509E+00
 -0.146267429373E+00
 -0.149926705133E+00
 -0.146267429373E+00
 -0.149926705133E+00
 -0.133263003436E+00
 -0.146267429373E+00
 -0.133263003436E+00
 -0.146267429373E+00
 -0.121252685103E+00
 -0.133263003436E+00
 -0.121252685103E+00
 -0.133263003436E+00
 -0.122564498389E+00
 -0.121252685103E+00
 -0.122564498389E+00
 -0.121252685103E+00
 -0.780246841550E-01
 -0.122564498389E+00
 -0.780246841550E-01
 -0.122564498389E+00
 -0.104636335990E+00
 -0.780246841550E-01
 -0.104636335990E+00
 -0.780246841550E-01
  0.000000000000E+00
 -0.104636335990E+00
  0.000000000000E+00
 -0.104636335990E+00
 -0.196838922645E+00
 -0.985219030034E-01
 -0.196838922645E+00
 -0.985219030034E-01
 -0.985219030034E-01
 -0.264555811594E+00
 -0.985219030034E-01
 -0.264555811594E+00
 -0.264555811594E+00
 -0.236184133357E+00
 -0.264555811594E+00
 -0.236184133357E+00
 -0.236184133357E+00
 -0.162563492014E+00
 -0.236184133357E+00
 -0.162563492014E+00
 -0.162563492014E+00
 -0.251294846718E+00
 -0.162563492014E+00
 -0.251294846718E+00
 -0.251294846718E+00
 -0.244562848769E+00
 -0.251294846718E+00
 -0.244562848769E+00
 -0.244562848769E+00
 -0.196308604117E+00
 -0.244562848769E+00
 -0.196308604117E+00
 -0.196308604117E+00
 -0.245927176483E+00
 -0.196308604117E+00
 -0.245927176483E+00
 -0.245927176483E+00
 -0.240793789935E+00
 -0.245927176483E+00
 -0.240793789935E+00
 -0.240793789935E+00
 -0.210935535440E+00
 -0.240793789935E+00
 -0.210935535440E+00
 -0.210935535440E+00
 -0.238591350718E+00
 -0.210935535440E+00
 -0.238591350718E+00
 -0.238591350718E+00
 -0.230232662162E+00
 -0.238591350718E+00
 -0.230232662162E+00
 -0.230232662162E+00
 -0.212227890014E+00
 -0.230232662162E+00
 -0.212227890014E+00
 -0.212227890014E+00
 -0.226334482017E+00
 -0.212227890014E+00
 -0.226334482017E+00
 -0.226334482017E+00
 -0.214886893250E+00
 -0.226334482017E+00
 -0.214886893250E+00
 -0.214886893250E+00
 -0.204094174442E+00
 -0.214886893250E+00
 -0.204094174442E+00
 -0.204094174442E+00
 -0.208900020563E+00
 -0.204094174442E+00
 -0.208900020563E+00
 -0.208900020563E+00
 -0.195858423388E+00
 -0.208900020563E+00
 -0.195858423388E+00
 -0.195858423388E+00
 -0.189203061657E+00
 -0.195858423388E+00
 -0.189203061657E+00
 -0.189203061657E+00
 -0.187080741343E+00
 -0.189203061657E+00
 -0.187080741343E+00
 -0.187080741343E+00
 -0.174043958594E+00
 -0.187080741343E+00
 -0.174043958594E+00
 -0.174043958594E+00
 -0.169423720529E+00
 -0.174043958594E+00
 -0.169423720529E+00
 -0.169423720529E+00
 -0.161944296577E+00
 -0.169423720529E+00
 -0.161944296577E+00
 -0.161944296577E+00
 -0.149926703184E+00
 -0.161944296577E+00
 -0.149926703184E+00
 -0.149926703184E+00
 -0.146267429839E+00
 -0.149926703184E+00
 -0.146267429839E+00
 -0.146267429839E+00
 -0.133263007401E+00
 -0.146267429839E+00
 -0.133263007401E+00
 -0.133263007401E+00
 -0.121252687339E+00
 -0.133263007401E+00
 -0.121252687339E+00
 -0.121252687339E+00
 -0.122564492934E+00
 -0.121252687339E+00
 -0.122564492934E+00
 -0.122564492934E+00
 -0.780246693310E-01
 -0.122564492934E+00
 -0.780246693310E-01
 -0.780246693310E-01
 -0.104636334062E+00
 -0.780246693310E-01
 -0.104636334062E+00
 -0.104636334062E+00
  0.000000000000E+00
 -0.104636334062E+00
  0.000000000000E+00
  0.429961623487E+00
  0.238113132338E+00
  0.429961623487E+00
  0.238113132338E+00
  0.102327114828E+00
  0.429961623487E+00
  0.102327114828E+00
  0.429961623487E+00
  0.160590451048E+00
  0.102327114828E+00
  0.160590451048E+00
  0.102327114828E+00
  0.298351595875E+00
  0.160590451048E+00
  0.298351595875E+00
  0.160590451048E+00
  0.119126011980E+00
  0.298351595875E+00
  0.119126011980E+00
  0.298351595875E+00
  0.128841223312E+00
  0.119126011980E+00
  0.128841223312E+00
  0.119126011980E+00
  0.212301594922E+00
  0.128841223312E+00
  0.212301594922E+00
  0.128841223312E+00
  0.105865589500E+00
  0.212301594922E+00
  0.105865589500E+00
  0.212301594922E+00
  0.106616032665E+00
  0.105865589500E+00
  0.106616032665E+00
  0.105865589500E+00
  0.150097993437E+00
  0.106616032665E+00
  0.150097993437E+00
  0.106616032665E+00
  0.829696896629E-01
  0.150097993437E+00
  0.829696896629E-01
  0.150097993437E+00
  0.847659137446E-01
  0.829696896629E-01
  0.847659137446E-01
  0.829696896629E-01
  0.101910938376E+00
  0.847659137446E-01
  0.101910938376E+00
  0.847659137446E-01
  0.581170882620E-01
  0.101910938376E+00
  0.581170882620E-01
  0.101910938376E+00
  0.615616134608E-01
  0.581170882620E-01
  0.615616134608E-01
  0.581170882620E-01
  0.624032584757E-01
  0.615616134608E-01
  0.624032584757E-01
  0.615616134608E-01
  0.341059986369E-01
  0.624032584757E-01
  0.341059986369E-01
  0.624032584757E-01
  0.372166447602E-01
  0.341059986369E-01
  0.372166447602E-01
  0.341059986369E-01
  0.288568235140E-01
  0.372166447602E-01
  0.288568235140E-01
  0.372166447602E-01
  0.116344636315E-01
  0.288568235140E-01
  0.116344636315E-01
  0.288568235140E-01
  0.123158668246E-01
  0.116344636315E-01
  0.123158668246E-01
  0.116344636315E-01
 -0.121718278195E-03
  0.123158668246E-01
 -0.121718278195E-03
  0.123158668246E-01
 -0.953223819696E-02
 -0.121718278195E-03
 -0.953223819696E-02
 -0.121718278195E-03
 -0.122757374646E-01
 -0.953223819696E-02
 -0.122757374646E-01
 -0.953223819696E-02
 -0.256265698293E-01
 -0.122757374646E-01
 -0.256265698293E-01
 -0.122757374646E-01
 -0.288710373378E-01
 -0.256265698293E-01
 -0.288710373378E-01
 -0.256265698293E-01
 -0.336402272385E-01
 -0.288710373378E-01
 -0.336402272385E-01
 -0.288710373378E-01
 -0.498109932557E-01
 -0.336402272385E-01
 -0.498109932557E-01
 -0.336402272385E-01
 -0.273085125316E-01
 -0.498109932557E-01
 -0.273085125316E-01
 -0.498109932557E-01
 -0.626526772452E-01
 -0.273085125316E-01
 -0.626526772452E-01
 -0.273085125316E-01
  0.000000000000E+00
 -0.626526772452E-01
  0.000000000000E+00
 -0.626526772452E-01
  0.238113132338E+00
  0.429961623478E+00
  0.238113132338E+00
  0.429961623478E+00
  0.429961623478E+00
  0.102327114811E+00
  0.429961623478E+00
  0.102327114811E+00
  0.102327114811E+00
  0.160590451023E+00
  0.102327114811E+00
  0.160590451023E+00
  0.160590451023E+00
  0.298351595842E+00
  0.160590451023E+00
  0.298351595842E+00
  0.298351595842E+00
  0.119126011939E+00
  0.298351595842E+00
  0.119126011939E+00
  0.119126011939E+00
  0.128841223261E+00
  0.119126011939E+00
  0.128841223261E+00
  0.128841223261E+00
  0.212301594861E+00
  0.128841223261E+00
  0.212301594861E+00
  0.212301594861E+00
  0.105865589428E+00
  0.212301594861E+00
  0.105865589428E+00
  0.105865589428E+00
  0.106616032579E+00
  0.105865589428E+00
  0.106616032579E+00
  0.106616032579E+00
  0.150097993336E+00
  0.106616032579E+00
  0.150097993336E+00
  0.150097993336E+00
  0.829696895427E-01
  0.150097993336E+00
  0.829696895427E-01
  0.829696895427E-01
  0.847659136011E-01
  0.829696895427E-01
  0.847659136011E-01
  0.847659136011E-01
  0.101910938205E+00
  0.847659136011E-01
  0.101910938205E+00
  0.101910938205E+00
  0.581170880596E-01
  0.101910938205E+00
  0.581170880596E-01
  0.581170880596E-01
  0.615616132243E-01
  0.581170880596E-01
  0.615616132243E-01
  0.615616132243E-01
  0.624032582028E-01
  0.615616132243E-01
  0.624032582028E-01
  0.624032582028E-01
  0.341059983236E-01
  0.624032582028E-01
  0.341059983236E-01
  0.341059983236E-01
  0.372166443990E-01
  0.341059983236E-01
  0.372166443990E-01
  0.372166443990E-01
  0.288568230927E-01
  0.372166443990E-01
  0.288568230927E-01
  0.288568230927E-01
  0.116344631342E-01
  0.288568230927E-01
  0.116344631342E-01
  0.116344631342E-01
  0.123158662310E-01
  0.116344631342E-01
  0.123158662310E-01
  0.123158662310E-01
 -0.121719040792E-03
  0.123158662310E-01
 -0.121719040792E-03
 -0.121719040792E-03
 -0.953223930260E-02
 -0.121719040792E-03
 -0.953223930260E-02
 -0.953223930260E-02
 -0.122757386941E-01
 -0.953223930260E-02
 -0.122757386941E-01
 -0.122757386941E-01
 -0.256265696835E-01
 -0.122757386941E-01
 -0.256265696835E-01
 -0.256265696835E-01
 -0.288710346489E-01
 -0.256265696835E-01
 -0.288710346489E-01
 -0.288710346489E-01
 -0.336402243439E-01
 -0.288710346489E-01
 -0.336402243439E-01
 -0.336402243439E-01
 -0.498109989531E-01
 -0.336402243439E-01
 -0.498109989531E-01
 -0.498109989531E-01
 -0.273085349136E-01
 -0.498109989531E-01
 -0.273085349136E-01
 -0.273085349136E-01
 -0.626526805050E-01
 -0.273085349136E-01
 -0.626526805050E-01
 -0.626526805050E-01
  0.000000000000E+00
 -0.626526805050E-01
  0.000000000000E+00
