# vtk DataFile Version 3.0
MachLine results file. Generated by MachLine, USU AeroLab (c) 2023.
ASCII
DATASET POLYDATA
POINTS                 256 float
  0.417334391820E+01  0.625000000000E+00  0.000000000000E+00
  0.400000000000E+01  0.000000000000E+00  0.000000000000E+00
  0.598033831213E+02  0.625000000000E+00  0.486699778177E+01
  0.598020663795E+02  0.000000000000E+00  0.488204820953E+01
  0.434668783650E+01  0.125000000000E+01  0.000000000000E+00
  0.417334391820E+01  0.625000000000E+00  0.000000000000E+00
  0.598046998631E+02  0.125000000000E+01  0.485194735401E+01
  0.598033831213E+02  0.625000000000E+00  0.486699778177E+01
  0.452003175470E+01  0.187500000000E+01  0.000000000000E+00
  0.434668783650E+01  0.125000000000E+01  0.000000000000E+00
  0.598060166049E+02  0.187500000000E+01  0.483689692626E+01
  0.598046998631E+02  0.125000000000E+01  0.485194735401E+01
  0.469337567300E+01  0.250000000000E+01  0.000000000000E+00
  0.452003175470E+01  0.187500000000E+01  0.000000000000E+00
  0.598073333467E+02  0.250000000000E+01  0.482184649850E+01
  0.598060166049E+02  0.187500000000E+01  0.483689692626E+01
  0.486671959120E+01  0.312500000000E+01  0.000000000000E+00
  0.469337567300E+01  0.250000000000E+01  0.000000000000E+00
  0.598086500885E+02  0.312500000000E+01  0.480679607075E+01
  0.598073333467E+02  0.250000000000E+01  0.482184649850E+01
  0.504006350950E+01  0.375000000000E+01  0.000000000000E+00
  0.486671959120E+01  0.312500000000E+01  0.000000000000E+00
  0.598099668303E+02  0.375000000000E+01  0.479174564298E+01
  0.598086500885E+02  0.312500000000E+01  0.480679607075E+01
  0.521340742770E+01  0.437500000000E+01  0.000000000000E+00
  0.504006350950E+01  0.375000000000E+01  0.000000000000E+00
  0.598112835721E+02  0.437500000000E+01  0.477669521523E+01
  0.598099668303E+02  0.375000000000E+01  0.479174564298E+01
  0.538675134590E+01  0.500000000000E+01  0.000000000000E+00
  0.521340742770E+01  0.437500000000E+01  0.000000000000E+00
  0.598126003140E+02  0.500000000000E+01  0.476164478748E+01
  0.598112835721E+02  0.437500000000E+01  0.477669521523E+01
  0.556009526420E+01  0.562500000000E+01  0.000000000000E+00
  0.538675134590E+01  0.500000000000E+01  0.000000000000E+00
  0.598139170558E+02  0.562500000000E+01  0.474659435972E+01
  0.598126003140E+02  0.500000000000E+01  0.476164478748E+01
  0.573343918240E+01  0.625000000000E+01  0.000000000000E+00
  0.556009526420E+01  0.562500000000E+01  0.000000000000E+00
  0.598152337976E+02  0.625000000000E+01  0.473154393197E+01
  0.598139170558E+02  0.562500000000E+01  0.474659435972E+01
  0.608012701890E+01  0.750000000000E+01  0.000000000000E+00
  0.590678310070E+01  0.687500000000E+01  0.000000000000E+00
  0.598178672812E+02  0.750000000000E+01  0.470144307645E+01
  0.598165505394E+02  0.687500000000E+01  0.471649350420E+01
  0.590678310070E+01  0.687500000000E+01  0.000000000000E+00
  0.573343918240E+01  0.625000000000E+01  0.000000000000E+00
  0.598165505394E+02  0.687500000000E+01  0.471649350420E+01
  0.598152337976E+02  0.625000000000E+01  0.473154393197E+01
  0.625347093720E+01  0.812500000000E+01  0.000000000000E+00
  0.608012701890E+01  0.750000000000E+01  0.000000000000E+00
  0.598191840230E+02  0.812500000000E+01  0.468639264869E+01
  0.598178672812E+02  0.750000000000E+01  0.470144307645E+01
  0.642681485540E+01  0.875000000000E+01  0.000000000000E+00
  0.625347093720E+01  0.812500000000E+01  0.000000000000E+00
  0.598205007648E+02  0.875000000000E+01  0.467134222094E+01
  0.598191840230E+02  0.812500000000E+01  0.468639264869E+01
  0.660015877370E+01  0.937500000000E+01  0.000000000000E+00
  0.642681485540E+01  0.875000000000E+01  0.000000000000E+00
  0.598218175066E+02  0.937500000000E+01  0.465629179318E+01
  0.598205007648E+02  0.875000000000E+01  0.467134222094E+01
  0.677350269190E+01  0.100000000000E+02  0.000000000000E+00
  0.660015877370E+01  0.937500000000E+01  0.000000000000E+00
  0.598231342484E+02  0.100000000000E+02  0.464124136542E+01
  0.598218175066E+02  0.937500000000E+01  0.465629179318E+01
  0.400000000000E+01  0.000000000000E+00  0.000000000000E+00
  0.417334391820E+01 -0.625000000000E+00  0.000000000000E+00
  0.598020663795E+02  0.000000000000E+00  0.488204820953E+01
  0.598033831213E+02 -0.625000000000E+00  0.486699778177E+01
  0.417334391820E+01 -0.625000000000E+00  0.000000000000E+00
  0.434668783650E+01 -0.125000000000E+01  0.000000000000E+00
  0.598033831213E+02 -0.625000000000E+00  0.486699778177E+01
  0.598046998631E+02 -0.125000000000E+01  0.485194735401E+01
  0.434668783650E+01 -0.125000000000E+01  0.000000000000E+00
  0.452003175470E+01 -0.187500000000E+01  0.000000000000E+00
  0.598046998631E+02 -0.125000000000E+01  0.485194735401E+01
  0.598060166049E+02 -0.187500000000E+01  0.483689692626E+01
  0.452003175470E+01 -0.187500000000E+01  0.000000000000E+00
  0.469337567300E+01 -0.250000000000E+01  0.000000000000E+00
  0.598060166049E+02 -0.187500000000E+01  0.483689692626E+01
  0.598073333467E+02 -0.250000000000E+01  0.482184649850E+01
  0.469337567300E+01 -0.250000000000E+01  0.000000000000E+00
  0.486671959120E+01 -0.312500000000E+01  0.000000000000E+00
  0.598073333467E+02 -0.250000000000E+01  0.482184649850E+01
  0.598086500885E+02 -0.312500000000E+01  0.480679607075E+01
  0.504006350950E+01 -0.375000000000E+01  0.000000000000E+00
  0.521340742770E+01 -0.437500000000E+01  0.000000000000E+00
  0.598099668303E+02 -0.375000000000E+01  0.479174564298E+01
  0.598112835721E+02 -0.437500000000E+01  0.477669521523E+01
  0.486671959120E+01 -0.312500000000E+01  0.000000000000E+00
  0.504006350950E+01 -0.375000000000E+01  0.000000000000E+00
  0.598086500885E+02 -0.312500000000E+01  0.480679607075E+01
  0.598099668303E+02 -0.375000000000E+01  0.479174564298E+01
  0.521340742770E+01 -0.437500000000E+01  0.000000000000E+00
  0.538675134590E+01 -0.500000000000E+01  0.000000000000E+00
  0.598112835721E+02 -0.437500000000E+01  0.477669521523E+01
  0.598126003140E+02 -0.500000000000E+01  0.476164478748E+01
  0.538675134590E+01 -0.500000000000E+01  0.000000000000E+00
  0.556009526420E+01 -0.562500000000E+01  0.000000000000E+00
  0.598126003140E+02 -0.500000000000E+01  0.476164478748E+01
  0.598139170558E+02 -0.562500000000E+01  0.474659435972E+01
  0.556009526420E+01 -0.562500000000E+01  0.000000000000E+00
  0.573343918240E+01 -0.625000000000E+01  0.000000000000E+00
  0.598139170558E+02 -0.562500000000E+01  0.474659435972E+01
  0.598152337976E+02 -0.625000000000E+01  0.473154393197E+01
  0.573343918240E+01 -0.625000000000E+01  0.000000000000E+00
  0.590678310070E+01 -0.687500000000E+01  0.000000000000E+00
  0.598152337976E+02 -0.625000000000E+01  0.473154393197E+01
  0.598165505394E+02 -0.687500000000E+01  0.471649350420E+01
  0.590678310070E+01 -0.687500000000E+01  0.000000000000E+00
  0.608012701890E+01 -0.750000000000E+01  0.000000000000E+00
  0.598165505394E+02 -0.687500000000E+01  0.471649350420E+01
  0.598178672812E+02 -0.750000000000E+01  0.470144307645E+01
  0.608012701890E+01 -0.750000000000E+01  0.000000000000E+00
  0.625347093720E+01 -0.812500000000E+01  0.000000000000E+00
  0.598178672812E+02 -0.750000000000E+01  0.470144307645E+01
  0.598191840230E+02 -0.812500000000E+01  0.468639264869E+01
  0.625347093720E+01 -0.812500000000E+01  0.000000000000E+00
  0.642681485540E+01 -0.875000000000E+01  0.000000000000E+00
  0.598191840230E+02 -0.812500000000E+01  0.468639264869E+01
  0.598205007648E+02 -0.875000000000E+01  0.467134222094E+01
  0.642681485540E+01 -0.875000000000E+01  0.000000000000E+00
  0.660015877370E+01 -0.937500000000E+01  0.000000000000E+00
  0.598205007648E+02 -0.875000000000E+01  0.467134222094E+01
  0.598218175066E+02 -0.937500000000E+01  0.465629179318E+01
  0.660015877370E+01 -0.937500000000E+01  0.000000000000E+00
  0.677350269190E+01 -0.100000000000E+02  0.000000000000E+00
  0.598218175066E+02 -0.937500000000E+01  0.465629179318E+01
  0.598231342484E+02 -0.100000000000E+02  0.464124136542E+01
  0.692334391820E+01  0.625000000000E+00 -0.250000000000E+01
  0.675000000000E+01  0.000000000000E+00 -0.250000000000E+01
  0.600413326830E+02  0.625000000000E+00  0.214722184622E+01
  0.600400159412E+02  0.000000000000E+00  0.216227227397E+01
  0.709668783650E+01  0.125000000000E+01 -0.250000000000E+01
  0.692334391820E+01  0.625000000000E+00 -0.250000000000E+01
  0.600426494248E+02  0.125000000000E+01  0.213217141845E+01
  0.600413326830E+02  0.625000000000E+00  0.214722184622E+01
  0.727003175470E+01  0.187500000000E+01 -0.250000000000E+01
  0.709668783650E+01  0.125000000000E+01 -0.250000000000E+01
  0.600439661666E+02  0.187500000000E+01  0.211712099070E+01
  0.600426494248E+02  0.125000000000E+01  0.213217141845E+01
  0.744337567300E+01  0.250000000000E+01 -0.250000000000E+01
  0.727003175470E+01  0.187500000000E+01 -0.250000000000E+01
  0.600452829084E+02  0.250000000000E+01  0.210207056294E+01
  0.600439661666E+02  0.187500000000E+01  0.211712099070E+01
  0.761671959120E+01  0.312500000000E+01 -0.250000000000E+01
  0.744337567300E+01  0.250000000000E+01 -0.250000000000E+01
  0.600465996502E+02  0.312500000000E+01  0.208702013519E+01
  0.600452829084E+02  0.250000000000E+01  0.210207056294E+01
  0.779006350950E+01  0.375000000000E+01 -0.250000000000E+01
  0.761671959120E+01  0.312500000000E+01 -0.250000000000E+01
  0.600479163920E+02  0.375000000000E+01  0.207196970743E+01
  0.600465996502E+02  0.312500000000E+01  0.208702013519E+01
  0.796340742770E+01  0.437500000000E+01 -0.250000000000E+01
  0.779006350950E+01  0.375000000000E+01 -0.250000000000E+01
  0.600492331338E+02  0.437500000000E+01  0.205691927967E+01
  0.600479163920E+02  0.375000000000E+01  0.207196970743E+01
  0.813675134590E+01  0.500000000000E+01 -0.250000000000E+01
  0.796340742770E+01  0.437500000000E+01 -0.250000000000E+01
  0.600505498757E+02  0.500000000000E+01  0.204186885192E+01
  0.600492331338E+02  0.437500000000E+01  0.205691927967E+01
  0.831009526420E+01  0.562500000000E+01 -0.250000000000E+01
[...]
POINT_DATA                 496
SCALARS mu float 1
LOOKUP_TABLE default
 -0.985219030044E-01
 -0.196838922645E+00
 -0.985219030044E-01
 -0.196838922645E+00
 -0.264555811599E+00
 -0.985219030044E-01
 -0.264555811599E+00
 -0.985219030044E-01
 -0.236184133368E+00
 -0.264555811599E+00
 -0.236184133368E+00
 -0.264555811599E+00
 -0.162563492031E+00
 -0.236184133368E+00
 -0.162563492031E+00
 -0.236184133368E+00
 -0.251294846742E+00
 -0.162563492031E+00
 -0.251294846742E+00
 -0.162563492031E+00
 -0.244562848804E+00
 -0.251294846742E+00
 -0.244562848804E+00
 -0.251294846742E+00
 -0.196308604166E+00
 -0.244562848804E+00
 -0.196308604166E+00
 -0.244562848804E+00
 -0.245927176550E+00
 -0.196308604166E+00
 -0.245927176550E+00
 -0.196308604166E+00
 -0.240793790025E+00
 -0.245927176550E+00
 -0.240793790025E+00
 -0.245927176550E+00
 -0.210935535558E+00
 -0.240793790025E+00
 -0.210935535558E+00
 -0.240793790025E+00
 -0.238591350866E+00
 -0.210935535558E+00
 -0.238591350866E+00
 -0.210935535558E+00
 -0.230232662344E+00
 -0.238591350866E+00
 -0.230232662344E+00
 -0.238591350866E+00
 -0.212227890234E+00
 -0.230232662344E+00
 -0.212227890234E+00
 -0.230232662344E+00
 -0.226334482283E+00
 -0.212227890234E+00
 -0.226334482283E+00
 -0.212227890234E+00
 -0.214886893575E+00
 -0.226334482283E+00
 -0.214886893575E+00
 -0.226334482283E+00
 -0.204094174842E+00
 -0.214886893575E+00
 -0.204094174842E+00
 -0.214886893575E+00
 -0.208900021056E+00
 -0.204094174842E+00
 -0.208900021056E+00
 -0.204094174842E+00
 -0.195858423992E+00
 -0.208900021056E+00
 -0.195858423992E+00
 -0.208900021056E+00
 -0.189203062398E+00
 -0.195858423992E+00
 -0.189203062398E+00
 -0.195858423992E+00
 -0.187080742254E+00
 -0.189203062398E+00
 -0.187080742254E+00
 -0.189203062398E+00
 -0.174043959716E+00
 -0.187080742254E+00
 -0.174043959716E+00
 -0.187080742254E+00
 -0.169423721960E+00
 -0.174043959716E+00
 -0.169423721960E+00
 -0.174043959716E+00
 -0.161944298509E+00
 -0.169423721960E+00
 -0.161944298509E+00
 -0.169423721960E+00
 -0.149926705133E+00
 -0.161944298509E+00
 -0.149926705133E+00
 -0.161944298509E+00
 -0.146267429373E+00
 -0.149926705133E+00
 -0.146267429373E+00
 -0.149926705133E+00
 -0.133263003436E+00
 -0.146267429373E+00
 -0.133263003436E+00
 -0.146267429373E+00
 -0.121252685103E+00
 -0.133263003436E+00
 -0.121252685103E+00
 -0.133263003436E+00
 -0.122564498389E+00
 -0.121252685103E+00
 -0.122564498389E+00
 -0.121252685103E+00
 -0.780246841550E-01
 -0.122564498389E+00
 -0.780246841550E-01
 -0.122564498389E+00
 -0.104636335990E+00
 -0.780246841550E-01
 -0.104636335990E+00
 -0.780246841550E-01
  0.000000000000E+00
 -0.104636335990E+00
  0.000000000000E+00
 -0.104636335990E+00
 -0.196838922645E+00
 -0.985219030034E-01
 -0.196838922645E+00
 -0.985219030034E-01
 -0.985219030034E-01
 -0.264555811594E+00
 -0.985219030034E-01
 -0.264555811594E+00
 -0.264555811594E+00
 -0.236184133357E+00
 -0.264555811594E+00
 -0.236184133357E+00
 -0.236184133357E+00
 -0.162563492014E+00
 -0.236184133357E+00
 -0.162563492014E+00
 -0.162563492014E+00
 -0.251294846718E+00
 -0.162563492014E+00
 -0.251294846718E+00
 -0.251294846718E+00
 -0.244562848769E+00
 -0.251294846718E+00
 -0.244562848769E+00
 -0.244562848769E+00
 -0.196308604117E+00
 -0.244562848769E+00
 -0.196308604117E+00
 -0.196308604117E+00
 -0.245927176483E+00
 -0.196308604117E+00
 -0.245927176483E+00
 -0.245927176483E+00
 -0.240793789935E+00
 -0.245927176483E+00
 -0.240793789935E+00
 -0.240793789935E+00
 -0.210935535440E+00
 -0.240793789935E+00
 -0.210935535440E+00
 -0.210935535440E+00
 -0.238591350718E+00
 -0.210935535440E+00
 -0.238591350718E+00
 -0.238591350718E+00
 -0.230232662162E+00
 -0.238591350718E+00
 -0.230232662162E+00
 -0.230232662162E+00
 -0.212227890014E+00
 -0.230232662162E+00
 -0.212227890014E+00
 -0.212227890014E+00
 -0.226334482017E+00
 -0.212227890014E+00
 -0.226334482017E+00
 -0.226334482017E+00
 -0.214886893250E+00
 -0.226334482017E+00
 -0.214886893250E+00
 -0.214886893250E+00
 -0.204094174442E+00
 -0.214886893250E+00
 -0.204094174442E+00
 -0.204094174442E+00
 -0.208900020563E+00
 -0.204094174442E+00
 -0.208900020563E+00
 -0.208900020563E+00
 -0.195858423388E+00
 -0.208900020563E+00
 -0.195858423388E+00
 -0.195858423388E+00
 -0.189203061657E+00
 -0.195858423388E+00
 -0.189203061657E+00
 -0.189203061657E+00
 -0.187080741343E+00
 -0.189203061657E+00
 -0.187080741343E+00
 -0.187080741343E+00
 -0.174043958594E+00
 -0.187080741343E+00
 -0.174043958594E+00
 -0.174043958594E+00
 -0.169423720529E+00
 -0.174043958594E+00
 -0.169423720529E+00
 -0.169423720529E+00
 -0.161944296577E+00
 -0.169423720529E+00
 -0.161944296577E+00
 -0.161944296577E+00
 -0.149926703184E+00
 -0.161944296577E+00
 -0.149926703184E+00
 -0.149926703184E+00
 -0.146267429839E+00
 -0.149926703184E+00
 -0.146267429839E+00
 -0.146267429839E+00
 -0.133263007401E+00
 -0.146267429839E+00
 -0.133263007401E+00
 -0.133263007401E+00
 -0.121252687339E+00
 -0.133263007401E+00
 -0.121252687339E+00
 -0.121252687339E+00
 -0.122564492934E+00
 -0.121252687339E+00
 -0.122564492934E+00
 -0.122564492934E+00
 -0.780246693310E-01
 -0.122564492934E+00
 -0.780246693310E-01
 -0.780246693310E-01
 -0.104636334062E+00
 -0.780246693310E-01
 -0.104636334062E+00
 -0.104636334062E+00
  0.000000000000E+00
 -0.104636334062E+00
  0.000000000000E+00
  0.429961623487E+00
  0.238113132338E+00
  0.429961623487E+00
  0.238113132338E+00
  0.102327114828E+00
  0.429961623487E+00
  0.102327114828E+00
  0.429961623487E+00
  0.160590451048E+00
  0.102327114828E+00
  0.160590451048E+00
  0.102327114828E+00
  0.298351595875E+00
  0.160590451048E+00
  0.298351595875E+00
  0.160590451048E+00
  0.119126011980E+00
  0.298351595875E+00
  0.119126011980E+00
  0.298351595875E+00
  0.128841223312E+00
  0.119126011980E+00
  0.128841223312E+00
  0.119126011980E+00
  0.212301594922E+00
  0.128841223312E+00
  0.212301594922E+00
  0.128841223312E+00
  0.105865589500E+00
  0.212301594922E+00
  0.105865589500E+00
  0.212301594922E+00
  0.106616032665E+00
  0.105865589500E+00
  0.106616032665E+00
  0.105865589500E+00
  0.150097993437E+00
  0.106616032665E+00
  0.150097993437E+00
  0.106616032665E+00
  0.829696896629E-01
  0.150097993437E+00
  0.829696896629E-01
  0.150097993437E+00
  0.847659137446E-01
  0.829696896629E-01
  0.847659137446E-01
  0.829696896629E-01
  0.101910938376E+00
  0.847659137446E-01
  0.101910938376E+00
  0.847659137446E-01
  0.581170882620E-01
  0.101910938376E+00
  0.581170882620E-01
  0.101910938376E+00
  0.615616134608E-01
  0.581170882620E-01
  0.615616134608E-01
  0.581170882620E-01
  0.624032584757E-01
  0.615616134608E-01
  0.624032584757E-01
  0.615616134608E-01
  0.341059986369E-01
  0.624032584757E-01
  0.341059986369E-01
  0.624032584757E-01
  0.372166447602E-01
  0.341059986369E-01
  0.372166447602E-01
  0.341059986369E-01
  0.288568235140E-01
  0.372166447602E-01
  0.288568235140E-01
  0.372166447602E-01
  0.116344636315E-01
  0.288568235140E-01
  0.116344636315E-01
  0.288568235140E-01
  0.123158668246E-01
  0.116344636315E-01
  0.123158668246E-01
  0.116344636315E-01
 -0.121718278195E-03
  0.123158668246E-01
 -0.121718278195E-03
  0.123158668246E-01
 -0.953223819696E-02
 -0.121718278195E-03
 -0.953223819696E-02
 -0.121718278195E-03
 -0.122757374646E-01
 -0.953223819696E-02
 -0.122757374646E-01
 -0.953223819696E-02
 -0.256265698293E-01
 -0.122757374646E-01
 -0.256265698293E-01
 -0.122757374646E-01
 -0.288710373378E-01
 -0.256265698293E-01
 -0.288710373378E-01
 -0.256265698293E-01
 -0.336402272385E-01
 -0.288710373378E-01
 -0.336402272385E-01
 -0.288710373378E-01
 -0.498109932557E-01
 -0.336402272385E-01
 -0.498109932557E-01
 -0.336402272385E-01
 -0.273085125316E-01
 -0.498109932557E-01
 -0.273085125316E-01
 -0.498109932557E-01
 -0.626526772452E-01
 -0.273085125316E-01
 -0.626526772452E-01
 -0.273085125316E-01
  0.000000000000E+00
 -0.626526772452E-01
  0.000000000000E+00
 -0.626526772452E-01
  0.238113132338E+00
  0.429961623478E+00
  0.238113132338E+00
  0.429961623478E+00
  0.429961623478E+00
  0.102327114811E+00
  0.429961623478E+00
  0.102327114811E+00
  0.102327114811E+00
  0.160590451023E+00
  0.102327114811E+00
  0.160590451023E+00
  0.160590451023E+00
  0.298351595842E+00
  0.160590451023E+00
  0.298351595842E+00
  0.298351595842E+00
  0.119126011939E+00
  0.298351595842E+00
  0.119126011939E+00
  0.119126011939E+00
  0.128841223261E+00
  0.119126011939E+00
  0.128841223261E+00
  0.128841223261E+00
  0.212301594861E+00
  0.128841223261E+00
  0.212301594861E+00
  0.212301594861E+00
  0.105865589428E+00
  0.212301594861E+00
  0.105865589428E+00
  0.105865589428E+00
  0.106616032579E+00
  0.105865589428E+00
  0.106616032579E+00
  0.106616032579E+00
  0.150097993336E+00
  0.106616032579E+00
  0.150097993336E+00
  0.150097993336E+00
  0.829696895427E-01
  0.150097993336E+00
  0.829696895427E-01
  0.829696895427E-01
  0.847659136011E-01
  0.829696895427E-01
  0.847659136011E-01
  0.847659136011E-01
  0.101910938205E+00
  0.847659136011E-01
  0.101910938205E+00
  0.101910938205E+00
  0.581170880596E-01
  0.101910938205E+00
  0.581170880596E-01
  0.581170880596E-01
  0.615616132243E-01
  0.581170880596E-01
  0.615616132243E-01
  0.615616132243E-01
  0.624032582028E-01
  0.615616132243E-01
  0.624032582028E-01
  0.624032582028E-01
  0.341059983236E-01
  0.624032582028E-01
  0.341059983236E-01
  0.341059983236E-01
  0.372166443990E-01
  0.341059983236E-01
  0.372166443990E-01
  0.372166443990E-01
  0.288568230927E-01
  0.372166443990E-01
  0.288568230927E-01
  0.288568230927E-01
  0.116344631342E-01
  0.288568230927E-01
  0.116344631342E-01
  0.116344631342E-01
  0.123158662310E-01
  0.116344631342E-01
  0.123158662310E-01
  0.123158662310E-01
 -0.121719040792E-03
  0.123158662310E-01
 -0.121719040792E-03
 -0.121719040792E-03
 -0.953223930260E-02
 -0.121719040792E-03
 -0.953223930260E-02
 -0.953223930260E-02
 -0.122757386941E-01
 -0.953223930260E-02
 -0.122757386941E-01
 -0.122757386941E-01
 -0.256265696835E-01
 -0.122757386941E-01
 -0.256265696835E-01
 -0.256265696835E-01
 -0.288710346489E-01
 -0.256265696835E-01
 -0.288710346489E-01
 -0.288710346489E-01
 -0.336402243439E-01
 -0.288710346489E-01
 -0.336402243439E-01
 -0.336402243439E-01
 -0.498109989531E-01
 -0.336402243439E-01
 -0.498109989531E-01
 -0.498109989531E-01
 -0.273085349136E-01
 -0.498109989531E-01
 -0.273085349136E-01
 -0.273085349136E-01
 -0.626526805050E-01
 -0.273085349136E-01
 -0.626526805050E-01
 -0.626526805050E-01
  0.000000000000E+00
 -0.626526805050E-01
  0.000000000000E+00
