# vtk DataFile Version 3.0
MachLine results file. Generated by MachLine, USU AeroLab (c) 2023.
ASCII
DATASET POLYDATA
POINTS                 560 float
  0.407924293410E+01  0.285714285710E+00  0.000000000000E+00
  0.400000000000E+01  0.000000000000E+00  0.000000000000E+00
  0.598026683186E+02  0.285714285710E+00  0.487516801398E+01
  0.598020663795E+02  0.000000000000E+00  0.488204820953E+01
  0.415848586810E+01  0.571428571430E+00  0.000000000000E+00
  0.407924293410E+01  0.285714285710E+00  0.000000000000E+00
  0.598032702577E+02  0.571428571430E+00  0.486828781843E+01
  0.598026683186E+02  0.285714285710E+00  0.487516801398E+01
  0.423772880220E+01  0.857142857140E+00  0.000000000000E+00
  0.415848586810E+01  0.571428571430E+00  0.000000000000E+00
  0.598038721968E+02  0.857142857140E+00  0.486140762289E+01
  0.598032702577E+02  0.571428571430E+00  0.486828781843E+01
  0.431697173620E+01  0.114285714290E+01  0.000000000000E+00
  0.423772880220E+01  0.857142857140E+00  0.000000000000E+00
  0.598044741359E+02  0.114285714290E+01  0.485452742734E+01
  0.598038721968E+02  0.857142857140E+00  0.486140762289E+01
  0.439621467030E+01  0.142857142860E+01  0.000000000000E+00
  0.431697173620E+01  0.114285714290E+01  0.000000000000E+00
  0.598050760750E+02  0.142857142860E+01  0.484764723179E+01
  0.598044741359E+02  0.114285714290E+01  0.485452742734E+01
  0.447545760430E+01  0.171428571430E+01  0.000000000000E+00
  0.439621467030E+01  0.142857142860E+01  0.000000000000E+00
  0.598056780142E+02  0.171428571430E+01  0.484076703625E+01
  0.598050760750E+02  0.142857142860E+01  0.484764723179E+01
  0.455470053840E+01  0.200000000000E+01  0.000000000000E+00
  0.447545760430E+01  0.171428571430E+01  0.000000000000E+00
  0.598062799533E+02  0.200000000000E+01  0.483388684070E+01
  0.598056780142E+02  0.171428571430E+01  0.484076703625E+01
  0.463394347240E+01  0.228571428570E+01  0.000000000000E+00
  0.455470053840E+01  0.200000000000E+01  0.000000000000E+00
  0.598068818924E+02  0.228571428570E+01  0.482700664516E+01
  0.598062799533E+02  0.200000000000E+01  0.483388684070E+01
  0.471318640650E+01  0.257142857140E+01  0.000000000000E+00
  0.463394347240E+01  0.228571428570E+01  0.000000000000E+00
  0.598074838315E+02  0.257142857140E+01  0.482012644961E+01
  0.598068818924E+02  0.228571428570E+01  0.482700664516E+01
  0.479242934050E+01  0.285714285710E+01  0.000000000000E+00
  0.471318640650E+01  0.257142857140E+01  0.000000000000E+00
  0.598080857706E+02  0.285714285710E+01  0.481324625407E+01
  0.598074838315E+02  0.257142857140E+01  0.482012644961E+01
  0.487167227460E+01  0.314285714290E+01  0.000000000000E+00
  0.479242934050E+01  0.285714285710E+01  0.000000000000E+00
  0.598086877097E+02  0.314285714290E+01  0.480636605852E+01
  0.598080857706E+02  0.285714285710E+01  0.481324625407E+01
  0.495091520870E+01  0.342857142860E+01  0.000000000000E+00
  0.487167227460E+01  0.314285714290E+01  0.000000000000E+00
  0.598092896488E+02  0.342857142860E+01  0.479948586297E+01
  0.598086877097E+02  0.314285714290E+01  0.480636605852E+01
  0.503015814270E+01  0.371428571430E+01  0.000000000000E+00
  0.495091520870E+01  0.342857142860E+01  0.000000000000E+00
  0.598098915880E+02  0.371428571430E+01  0.479260566743E+01
  0.598092896488E+02  0.342857142860E+01  0.479948586297E+01
  0.510940107680E+01  0.400000000000E+01  0.000000000000E+00
  0.503015814270E+01  0.371428571430E+01  0.000000000000E+00
  0.598104935271E+02  0.400000000000E+01  0.478572547188E+01
  0.598098915880E+02  0.371428571430E+01  0.479260566743E+01
  0.518864401080E+01  0.428571428570E+01  0.000000000000E+00
  0.510940107680E+01  0.400000000000E+01  0.000000000000E+00
  0.598110954662E+02  0.428571428570E+01  0.477884527634E+01
  0.598104935271E+02  0.400000000000E+01  0.478572547188E+01
  0.526788694490E+01  0.457142857140E+01  0.000000000000E+00
  0.518864401080E+01  0.428571428570E+01  0.000000000000E+00
  0.598116974053E+02  0.457142857140E+01  0.477196508079E+01
  0.598110954662E+02  0.428571428570E+01  0.477884527634E+01
  0.534712987890E+01  0.485714285710E+01  0.000000000000E+00
  0.526788694490E+01  0.457142857140E+01  0.000000000000E+00
  0.598122993444E+02  0.485714285710E+01  0.476508488525E+01
  0.598116974053E+02  0.457142857140E+01  0.477196508079E+01
  0.542637281300E+01  0.514285714290E+01  0.000000000000E+00
  0.534712987890E+01  0.485714285710E+01  0.000000000000E+00
  0.598129012835E+02  0.514285714290E+01  0.475820468970E+01
  0.598122993444E+02  0.485714285710E+01  0.476508488525E+01
  0.550561574700E+01  0.542857142860E+01  0.000000000000E+00
  0.542637281300E+01  0.514285714290E+01  0.000000000000E+00
  0.598135032226E+02  0.542857142860E+01  0.475132449416E+01
  0.598129012835E+02  0.514285714290E+01  0.475820468970E+01
  0.558485868110E+01  0.571428571430E+01  0.000000000000E+00
  0.550561574700E+01  0.542857142860E+01  0.000000000000E+00
  0.598141051617E+02  0.571428571430E+01  0.474444429861E+01
  0.598135032226E+02  0.542857142860E+01  0.475132449416E+01
  0.566410161510E+01  0.600000000000E+01  0.000000000000E+00
  0.558485868110E+01  0.571428571430E+01  0.000000000000E+00
  0.598147071009E+02  0.600000000000E+01  0.473756410307E+01
  0.598141051617E+02  0.571428571430E+01  0.474444429861E+01
  0.574334454920E+01  0.628571428570E+01  0.000000000000E+00
  0.566410161510E+01  0.600000000000E+01  0.000000000000E+00
  0.598153090400E+02  0.628571428570E+01  0.473068390752E+01
  0.598147071009E+02  0.600000000000E+01  0.473756410307E+01
  0.582258748320E+01  0.657142857140E+01  0.000000000000E+00
  0.574334454920E+01  0.628571428570E+01  0.000000000000E+00
  0.598159109791E+02  0.657142857140E+01  0.472380371198E+01
  0.598153090400E+02  0.628571428570E+01  0.473068390752E+01
  0.590183041730E+01  0.685714285710E+01  0.000000000000E+00
  0.582258748320E+01  0.657142857140E+01  0.000000000000E+00
  0.598165129182E+02  0.685714285710E+01  0.471692351643E+01
  0.598159109791E+02  0.657142857140E+01  0.472380371198E+01
  0.598107335140E+01  0.714285714290E+01  0.000000000000E+00
  0.590183041730E+01  0.685714285710E+01  0.000000000000E+00
  0.598171148573E+02  0.714285714290E+01  0.471004332088E+01
  0.598165129182E+02  0.685714285710E+01  0.471692351643E+01
  0.606031628540E+01  0.742857142860E+01  0.000000000000E+00
  0.598107335140E+01  0.714285714290E+01  0.000000000000E+00
  0.598177167964E+02  0.742857142860E+01  0.470316312534E+01
  0.598171148573E+02  0.714285714290E+01  0.471004332088E+01
  0.613955921950E+01  0.771428571430E+01  0.000000000000E+00
  0.606031628540E+01  0.742857142860E+01  0.000000000000E+00
  0.598183187355E+02  0.771428571430E+01  0.469628292979E+01
  0.598177167964E+02  0.742857142860E+01  0.470316312534E+01
  0.621880215350E+01  0.800000000000E+01  0.000000000000E+00
  0.613955921950E+01  0.771428571430E+01  0.000000000000E+00
  0.598189206746E+02  0.800000000000E+01  0.468940273425E+01
  0.598183187355E+02  0.771428571430E+01  0.469628292979E+01
  0.629804508760E+01  0.828571428570E+01  0.000000000000E+00
  0.621880215350E+01  0.800000000000E+01  0.000000000000E+00
  0.598195226138E+02  0.828571428570E+01  0.468252253870E+01
  0.598189206746E+02  0.800000000000E+01  0.468940273425E+01
  0.637728802160E+01  0.857142857140E+01  0.000000000000E+00
  0.629804508760E+01  0.828571428570E+01  0.000000000000E+00
  0.598201245529E+02  0.857142857140E+01  0.467564234316E+01
  0.598195226138E+02  0.828571428570E+01  0.468252253870E+01
  0.645653095570E+01  0.885714285710E+01  0.000000000000E+00
  0.637728802160E+01  0.857142857140E+01  0.000000000000E+00
  0.598207264920E+02  0.885714285710E+01  0.466876214761E+01
  0.598201245529E+02  0.857142857140E+01  0.467564234316E+01
  0.653577388970E+01  0.914285714290E+01  0.000000000000E+00
  0.645653095570E+01  0.885714285710E+01  0.000000000000E+00
  0.598213284311E+02  0.914285714290E+01  0.466188195206E+01
  0.598207264920E+02  0.885714285710E+01  0.466876214761E+01
  0.661501682380E+01  0.942857142860E+01  0.000000000000E+00
  0.653577388970E+01  0.914285714290E+01  0.000000000000E+00
  0.598219303702E+02  0.942857142860E+01  0.465500175652E+01
  0.598213284311E+02  0.914285714290E+01  0.466188195206E+01
  0.669425975780E+01  0.971428571430E+01  0.000000000000E+00
  0.661501682380E+01  0.942857142860E+01  0.000000000000E+00
  0.598225323093E+02  0.971428571430E+01  0.464812156097E+01
  0.598219303702E+02  0.942857142860E+01  0.465500175652E+01
  0.677350269190E+01  0.100000000000E+02  0.000000000000E+00
  0.669425975780E+01  0.971428571430E+01  0.000000000000E+00
  0.598231342484E+02  0.100000000000E+02  0.464124136542E+01
  0.598225323093E+02  0.971428571430E+01  0.464812156097E+01
  0.400000000000E+01  0.000000000000E+00  0.000000000000E+00
  0.407924293410E+01 -0.285714285710E+00  0.000000000000E+00
  0.598020663795E+02  0.000000000000E+00  0.488204820953E+01
  0.598026683186E+02 -0.285714285710E+00  0.487516801398E+01
  0.407924293410E+01 -0.285714285710E+00  0.000000000000E+00
  0.415848586810E+01 -0.571428571430E+00  0.000000000000E+00
  0.598026683186E+02 -0.285714285710E+00  0.487516801398E+01
  0.598032702577E+02 -0.571428571430E+00  0.486828781843E+01
  0.415848586810E+01 -0.571428571430E+00  0.000000000000E+00
  0.423772880220E+01 -0.857142857140E+00  0.000000000000E+00
  0.598032702577E+02 -0.571428571430E+00  0.486828781843E+01
  0.598038721968E+02 -0.857142857140E+00  0.486140762289E+01
  0.423772880220E+01 -0.857142857140E+00  0.000000000000E+00
  0.431697173620E+01 -0.114285714290E+01  0.000000000000E+00
  0.598038721968E+02 -0.857142857140E+00  0.486140762289E+01
  0.598044741359E+02 -0.114285714290E+01  0.485452742734E+01
  0.431697173620E+01 -0.114285714290E+01  0.000000000000E+00
  0.439621467030E+01 -0.142857142860E+01  0.000000000000E+00
  0.598044741359E+02 -0.114285714290E+01  0.485452742734E+01
  0.598050760750E+02 -0.142857142860E+01  0.484764723179E+01
  0.439621467030E+01 -0.142857142860E+01  0.000000000000E+00
[...]
POINT_DATA                 560
SCALARS mu float 1
LOOKUP_TABLE default
 -0.988336559183E-01
 -0.196543729718E+00
 -0.988336559183E-01
 -0.196543729718E+00
 -0.262693007135E+00
 -0.988336559183E-01
 -0.262693007135E+00
 -0.988336559183E-01
 -0.236775979359E+00
 -0.262693007135E+00
 -0.236775979359E+00
 -0.262693007135E+00
 -0.160051934683E+00
 -0.236775979359E+00
 -0.160051934683E+00
 -0.236775979359E+00
 -0.249232206084E+00
 -0.160051934683E+00
 -0.249232206084E+00
 -0.160051934683E+00
 -0.246941700205E+00
 -0.249232206084E+00
 -0.246941700205E+00
 -0.249232206084E+00
 -0.194667698845E+00
 -0.246941700205E+00
 -0.194667698845E+00
 -0.246941700205E+00
 -0.245527484319E+00
 -0.194667698845E+00
 -0.245527484319E+00
 -0.194667698845E+00
 -0.246040818776E+00
 -0.245527484319E+00
 -0.246040818776E+00
 -0.245527484319E+00
 -0.212344075236E+00
 -0.246040818776E+00
 -0.212344075236E+00
 -0.246040818776E+00
 -0.241731939545E+00
 -0.212344075236E+00
 -0.241731939545E+00
 -0.212344075236E+00
 -0.239191808526E+00
 -0.241731939545E+00
 -0.239191808526E+00
 -0.241731939545E+00
 -0.217763896265E+00
 -0.239191808526E+00
 -0.217763896265E+00
 -0.239191808526E+00
 -0.234166704818E+00
 -0.217763896265E+00
 -0.234166704818E+00
 -0.217763896265E+00
 -0.228031068994E+00
 -0.234166704818E+00
 -0.228031068994E+00
 -0.234166704818E+00
 -0.214137450663E+00
 -0.228031068994E+00
 -0.214137450663E+00
 -0.228031068994E+00
 -0.221928955058E+00
 -0.214137450663E+00
 -0.221928955058E+00
 -0.214137450663E+00
 -0.213377416198E+00
 -0.221928955058E+00
 -0.213377416198E+00
 -0.221928955058E+00
 -0.203664796000E+00
 -0.213377416198E+00
 -0.203664796000E+00
 -0.213377416198E+00
 -0.205515161471E+00
 -0.203664796000E+00
 -0.205515161471E+00
 -0.203664796000E+00
 -0.195937272919E+00
 -0.205515161471E+00
 -0.195937272919E+00
 -0.205515161471E+00
 -0.188023077421E+00
 -0.195937272919E+00
 -0.188023077421E+00
 -0.195937272919E+00
 -0.186139334327E+00
 -0.188023077421E+00
 -0.186139334327E+00
 -0.188023077421E+00
 -0.176258871774E+00
 -0.186139334327E+00
 -0.176258871774E+00
 -0.186139334327E+00
 -0.168635925955E+00
 -0.176258871774E+00
 -0.168635925955E+00
 -0.176258871774E+00
 -0.165144528780E+00
 -0.168635925955E+00
 -0.165144528780E+00
 -0.168635925955E+00
 -0.154416389819E+00
 -0.165144528780E+00
 -0.154416389819E+00
 -0.165144528780E+00
 -0.146585593581E+00
 -0.154416389819E+00
 -0.146585593581E+00
 -0.154416389819E+00
 -0.142913535941E+00
 -0.146585593581E+00
 -0.142913535941E+00
 -0.146585593581E+00
 -0.129228386247E+00
 -0.142913535941E+00
 -0.129228386247E+00
 -0.142913535941E+00
 -0.119520912175E+00
 -0.129228386247E+00
 -0.119520912175E+00
 -0.129228386247E+00
 -0.119836904499E+00
 -0.119520912175E+00
 -0.119836904499E+00
 -0.119520912175E+00
 -0.772298006350E-01
 -0.119836904499E+00
 -0.772298006350E-01
 -0.119836904499E+00
 -0.100574548041E+00
 -0.772298006350E-01
 -0.100574548041E+00
 -0.772298006350E-01
  0.000000000000E+00
 -0.100574548041E+00
  0.000000000000E+00
 -0.100574548041E+00
 -0.196543729718E+00
 -0.988336559006E-01
 -0.196543729718E+00
 -0.988336559006E-01
 -0.988336559006E-01
 -0.262693007102E+00
 -0.988336559006E-01
 -0.262693007102E+00
 -0.262693007102E+00
 -0.236775979310E+00
 -0.262693007102E+00
 -0.236775979310E+00
 -0.236775979310E+00
 -0.160051934619E+00
 -0.236775979310E+00
 -0.160051934619E+00
 -0.160051934619E+00
 -0.249232206003E+00
 -0.160051934619E+00
 -0.249232206003E+00
 -0.249232206003E+00
 -0.246941700106E+00
 -0.249232206003E+00
 -0.246941700106E+00
 -0.246941700106E+00
 -0.194667698727E+00
 -0.246941700106E+00
 -0.194667698727E+00
 -0.194667698727E+00
 -0.245527484180E+00
 -0.194667698727E+00
 -0.245527484180E+00
 -0.245527484180E+00
 -0.246040818612E+00
 -0.245527484180E+00
 -0.246040818612E+00
 -0.246040818612E+00
 -0.212344075045E+00
 -0.246040818612E+00
 -0.212344075045E+00
 -0.212344075045E+00
 -0.241731939323E+00
 -0.212344075045E+00
 -0.241731939323E+00
 -0.241731939323E+00
 -0.239191808267E+00
 -0.241731939323E+00
 -0.239191808267E+00
 -0.239191808267E+00
 -0.217763895965E+00
 -0.239191808267E+00
 -0.217763895965E+00
 -0.217763895965E+00
 -0.234166704468E+00
 -0.217763895965E+00
 -0.234166704468E+00
 -0.234166704468E+00
 -0.228031068588E+00
 -0.234166704468E+00
 -0.228031068588E+00
 -0.228031068588E+00
 -0.214137450197E+00
 -0.228031068588E+00
 -0.214137450197E+00
 -0.214137450197E+00
 -0.221928954533E+00
 -0.214137450197E+00
 -0.221928954533E+00
 -0.221928954533E+00
 -0.213377415621E+00
 -0.221928954533E+00
 -0.213377415621E+00
 -0.213377415621E+00
 -0.203664795390E+00
 -0.213377415621E+00
 -0.203664795390E+00
 -0.203664795390E+00
 -0.205515160845E+00
 -0.203664795390E+00
 -0.205515160845E+00
 -0.205515160845E+00
 -0.195937272293E+00
 -0.205515160845E+00
 -0.195937272293E+00
 -0.195937272293E+00
 -0.188023076797E+00
 -0.195937272293E+00
 -0.188023076797E+00
 -0.188023076797E+00
 -0.186139333687E+00
 -0.188023076797E+00
 -0.186139333687E+00
 -0.186139333687E+00
 -0.176258871059E+00
 -0.186139333687E+00
 -0.176258871059E+00
 -0.176258871059E+00
 -0.168635925032E+00
 -0.176258871059E+00
 -0.168635925032E+00
 -0.168635925032E+00
 -0.165144527540E+00
 -0.168635925032E+00
 -0.165144527540E+00
 -0.165144527540E+00
 -0.154416388645E+00
 -0.165144527540E+00
 -0.154416388645E+00
 -0.154416388645E+00
 -0.146585591321E+00
 -0.154416388645E+00
 -0.146585591321E+00
 -0.146585591321E+00
 -0.142913518950E+00
 -0.146585591321E+00
 -0.142913518950E+00
 -0.142913518950E+00
 -0.129228333125E+00
 -0.142913518950E+00
 -0.129228333125E+00
 -0.129228333125E+00
 -0.119520855031E+00
 -0.129228333125E+00
 -0.119520855031E+00
 -0.119520855031E+00
 -0.119836882072E+00
 -0.119520855031E+00
 -0.119836882072E+00
 -0.119836882072E+00
 -0.772297177173E-01
 -0.119836882072E+00
 -0.772297177173E-01
 -0.772297177173E-01
 -0.100574511406E+00
 -0.772297177173E-01
 -0.100574511406E+00
 -0.100574511406E+00
  0.000000000000E+00
 -0.100574511406E+00
  0.000000000000E+00
  0.425183483587E+00
  0.235350907913E+00
  0.425183483587E+00
  0.235350907913E+00
  0.101123241062E+00
  0.425183483587E+00
  0.101123241062E+00
  0.425183483587E+00
  0.156828824451E+00
  0.101123241062E+00
  0.156828824451E+00
  0.101123241062E+00
  0.302114300746E+00
  0.156828824451E+00
  0.302114300746E+00
  0.156828824451E+00
  0.122089517095E+00
  0.302114300746E+00
  0.122089517095E+00
  0.302114300746E+00
  0.126647249733E+00
  0.122089517095E+00
  0.126647249733E+00
  0.122089517095E+00
  0.220797559912E+00
  0.126647249733E+00
  0.220797559912E+00
  0.126647249733E+00
  0.113037387737E+00
  0.220797559912E+00
  0.113037387737E+00
  0.220797559912E+00
  0.107354775520E+00
  0.113037387737E+00
  0.107354775520E+00
  0.113037387737E+00
  0.161899058184E+00
  0.107354775520E+00
  0.161899058184E+00
  0.107354775520E+00
  0.932866372380E-01
  0.161899058184E+00
  0.932866372380E-01
  0.161899058184E+00
  0.890963066432E-01
  0.932866372380E-01
  0.890963066432E-01
  0.932866372380E-01
  0.116508721128E+00
  0.890963066432E-01
  0.116508721128E+00
  0.890963066432E-01
  0.705808670955E-01
  0.116508721128E+00
  0.705808670955E-01
  0.116508721128E+00
  0.695311979372E-01
  0.705808670955E-01
  0.695311979372E-01
  0.705808670955E-01
  0.794184889633E-01
  0.695311979372E-01
  0.794184889633E-01
  0.695311979372E-01
  0.480100452918E-01
  0.794184889633E-01
  0.480100452918E-01
  0.794184889633E-01
  0.485674992980E-01
  0.480100452918E-01
  0.485674992980E-01
  0.480100452918E-01
  0.479143059555E-01
  0.485674992980E-01
  0.479143059555E-01
  0.485674992980E-01
  0.265462984796E-01
  0.479143059555E-01
  0.265462984796E-01
  0.479143059555E-01
  0.267376163431E-01
  0.265462984796E-01
  0.267376163431E-01
  0.265462984796E-01
  0.206951801816E-01
  0.267376163431E-01
  0.206951801816E-01
  0.267376163431E-01
  0.606960657566E-02
  0.206951801816E-01
  0.606960657566E-02
  0.206951801816E-01
  0.478203623107E-02
  0.606960657566E-02
  0.478203623107E-02
  0.606960657566E-02
 -0.303458495555E-02
  0.478203623107E-02
 -0.303458495555E-02
  0.478203623107E-02
 -0.140368021351E-01
 -0.303458495555E-02
 -0.140368021351E-01
 -0.303458495555E-02
 -0.163094528128E-01
 -0.140368021351E-01
 -0.163094528128E-01
 -0.140368021351E-01
 -0.240062729509E-01
 -0.163094528128E-01
 -0.240062729509E-01
 -0.163094528128E-01
 -0.338804882899E-01
 -0.240062729509E-01
 -0.338804882899E-01
 -0.240062729509E-01
 -0.346990184818E-01
 -0.338804882899E-01
 -0.346990184818E-01
 -0.338804882899E-01
 -0.404661801451E-01
 -0.346990184818E-01
 -0.404661801451E-01
 -0.346990184818E-01
 -0.531148164142E-01
 -0.404661801451E-01
 -0.531148164142E-01
 -0.404661801451E-01
 -0.308329040414E-01
 -0.531148164142E-01
 -0.308329040414E-01
 -0.531148164142E-01
 -0.615821909573E-01
 -0.308329040414E-01
 -0.615821909573E-01
 -0.308329040414E-01
  0.000000000000E+00
 -0.615821909573E-01
  0.000000000000E+00
 -0.615821909573E-01
  0.235350907913E+00
  0.425183483596E+00
  0.235350907913E+00
  0.425183483596E+00
  0.425183483596E+00
  0.101123241081E+00
  0.425183483596E+00
  0.101123241081E+00
  0.101123241081E+00
  0.156828824480E+00
  0.101123241081E+00
  0.156828824480E+00
  0.156828824480E+00
  0.302114300784E+00
  0.156828824480E+00
  0.302114300784E+00
  0.302114300784E+00
  0.122089517143E+00
  0.302114300784E+00
  0.122089517143E+00
  0.122089517143E+00
  0.126647249791E+00
  0.122089517143E+00
  0.126647249791E+00
  0.126647249791E+00
  0.220797559981E+00
  0.126647249791E+00
  0.220797559981E+00
  0.220797559981E+00
  0.113037387817E+00
  0.220797559981E+00
  0.113037387817E+00
  0.113037387817E+00
  0.107354775613E+00
  0.113037387817E+00
  0.107354775613E+00
  0.107354775613E+00
  0.161899058291E+00
  0.107354775613E+00
  0.161899058291E+00
  0.161899058291E+00
  0.932866373615E-01
  0.161899058291E+00
  0.932866373615E-01
  0.932866373615E-01
  0.890963067859E-01
  0.932866373615E-01
  0.890963067859E-01
  0.890963067859E-01
  0.116508721294E+00
  0.890963067859E-01
  0.116508721294E+00
  0.116508721294E+00
  0.705808672912E-01
  0.116508721294E+00
  0.705808672912E-01
  0.705808672912E-01
  0.695311981711E-01
  0.705808672912E-01
  0.695311981711E-01
  0.695311981711E-01
  0.794184892465E-01
  0.695311981711E-01
  0.794184892465E-01
  0.794184892465E-01
  0.480100456382E-01
  0.794184892465E-01
  0.480100456382E-01
  0.480100456382E-01
  0.485674997241E-01
  0.480100456382E-01
  0.485674997241E-01
  0.485674997241E-01
  0.479143064802E-01
  0.485674997241E-01
  0.479143064802E-01
  0.479143064802E-01
  0.265462991252E-01
  0.479143064802E-01
  0.265462991252E-01
  0.265462991252E-01
  0.267376171371E-01
  0.265462991252E-01
  0.267376171371E-01
  0.267376171371E-01
  0.206951811574E-01
  0.267376171371E-01
  0.206951811574E-01
  0.206951811574E-01
  0.606960777628E-02
  0.206951811574E-01
  0.606960777628E-02
  0.606960777628E-02
  0.478203772274E-02
  0.606960777628E-02
  0.478203772274E-02
  0.478203772274E-02
 -0.303458305452E-02
  0.478203772274E-02
 -0.303458305452E-02
 -0.303458305452E-02
 -0.140367997315E-01
 -0.303458305452E-02
 -0.140367997315E-01
 -0.140367997315E-01
 -0.163094502457E-01
 -0.140367997315E-01
 -0.163094502457E-01
 -0.163094502457E-01
 -0.240062694405E-01
 -0.163094502457E-01
 -0.240062694405E-01
 -0.240062694405E-01
 -0.338804729235E-01
 -0.240062694405E-01
 -0.338804729235E-01
 -0.338804729235E-01
 -0.346989729432E-01
 -0.338804729235E-01
 -0.346989729432E-01
 -0.346989729432E-01
 -0.404661273828E-01
 -0.346989729432E-01
 -0.404661273828E-01
 -0.404661273828E-01
 -0.531147866270E-01
 -0.404661273828E-01
 -0.531147866270E-01
 -0.531147866270E-01
 -0.308328248051E-01
 -0.531147866270E-01
 -0.308328248051E-01
 -0.308328248051E-01
 -0.615821518225E-01
 -0.308328248051E-01
 -0.615821518225E-01
 -0.615821518225E-01
  0.000000000000E+00
 -0.615821518225E-01
  0.000000000000E+00
