# vtk DataFile Version 3.0
MachLine results file. Generated by MachLine, USU AeroLab (c) 2023.
ASCII
DATASET POLYDATA
POINTS                 464 float
  0.409563802390E+01  0.344827586210E+00  0.000000000000E+00
  0.400000000000E+01  0.000000000000E+00  0.000000000000E+00
  0.598027928577E+02  0.344827586210E+00  0.487374452524E+01
  0.598020663795E+02  0.000000000000E+00  0.488204820953E+01
  0.419127604770E+01  0.689655172410E+00  0.000000000000E+00
  0.409563802390E+01  0.344827586210E+00  0.000000000000E+00
  0.598035193360E+02  0.689655172410E+00  0.486544084097E+01
  0.598027928577E+02  0.344827586210E+00  0.487374452524E+01
  0.428691407160E+01  0.103448275860E+01  0.000000000000E+00
  0.419127604770E+01  0.689655172410E+00  0.000000000000E+00
  0.598042458142E+02  0.103448275860E+01  0.485713715669E+01
  0.598035193360E+02  0.689655172410E+00  0.486544084097E+01
  0.438255209540E+01  0.137931034480E+01  0.000000000000E+00
  0.428691407160E+01  0.103448275860E+01  0.000000000000E+00
  0.598049722924E+02  0.137931034480E+01  0.484883347241E+01
  0.598042458142E+02  0.103448275860E+01  0.485713715669E+01
  0.447819011930E+01  0.172413793100E+01  0.000000000000E+00
  0.438255209540E+01  0.137931034480E+01  0.000000000000E+00
  0.598056987707E+02  0.172413793100E+01  0.484052978813E+01
  0.598049722924E+02  0.137931034480E+01  0.484883347241E+01
  0.457382814320E+01  0.206896551720E+01  0.000000000000E+00
  0.447819011930E+01  0.172413793100E+01  0.000000000000E+00
  0.598064252489E+02  0.206896551720E+01  0.483222610385E+01
  0.598056987707E+02  0.172413793100E+01  0.484052978813E+01
  0.466946616700E+01  0.241379310340E+01  0.000000000000E+00
  0.457382814320E+01  0.206896551720E+01  0.000000000000E+00
  0.598071517272E+02  0.241379310340E+01  0.482392241957E+01
  0.598064252489E+02  0.206896551720E+01  0.483222610385E+01
  0.476510419090E+01  0.275862068970E+01  0.000000000000E+00
  0.466946616700E+01  0.241379310340E+01  0.000000000000E+00
  0.598078782054E+02  0.275862068970E+01  0.481561873529E+01
  0.598071517272E+02  0.241379310340E+01  0.482392241957E+01
  0.486074221470E+01  0.310344827590E+01  0.000000000000E+00
  0.476510419090E+01  0.275862068970E+01  0.000000000000E+00
  0.598086046836E+02  0.310344827590E+01  0.480731505101E+01
  0.598078782054E+02  0.275862068970E+01  0.481561873529E+01
  0.495638023860E+01  0.344827586210E+01  0.000000000000E+00
  0.486074221470E+01  0.310344827590E+01  0.000000000000E+00
  0.598093311619E+02  0.344827586210E+01  0.479901136673E+01
  0.598086046836E+02  0.310344827590E+01  0.480731505101E+01
  0.505201826240E+01  0.379310344830E+01  0.000000000000E+00
  0.495638023860E+01  0.344827586210E+01  0.000000000000E+00
  0.598100576401E+02  0.379310344830E+01  0.479070768246E+01
  0.598093311619E+02  0.344827586210E+01  0.479901136673E+01
  0.514765628630E+01  0.413793103450E+01  0.000000000000E+00
  0.505201826240E+01  0.379310344830E+01  0.000000000000E+00
  0.598107841184E+02  0.413793103450E+01  0.478240399817E+01
  0.598100576401E+02  0.379310344830E+01  0.479070768246E+01
  0.524329431020E+01  0.448275862070E+01  0.000000000000E+00
  0.514765628630E+01  0.413793103450E+01  0.000000000000E+00
  0.598115105966E+02  0.448275862070E+01  0.477410031389E+01
  0.598107841184E+02  0.413793103450E+01  0.478240399817E+01
  0.533893233400E+01  0.482758620690E+01  0.000000000000E+00
  0.524329431020E+01  0.448275862070E+01  0.000000000000E+00
  0.598122370748E+02  0.482758620690E+01  0.476579662962E+01
  0.598115105966E+02  0.448275862070E+01  0.477410031389E+01
  0.543457035790E+01  0.517241379310E+01  0.000000000000E+00
  0.533893233400E+01  0.482758620690E+01  0.000000000000E+00
  0.598129635531E+02  0.517241379310E+01  0.475749294533E+01
  0.598122370748E+02  0.482758620690E+01  0.476579662962E+01
  0.553020838170E+01  0.551724137930E+01  0.000000000000E+00
  0.543457035790E+01  0.517241379310E+01  0.000000000000E+00
  0.598136900313E+02  0.551724137930E+01  0.474918926106E+01
  0.598129635531E+02  0.517241379310E+01  0.475749294533E+01
  0.562584640560E+01  0.586206896550E+01  0.000000000000E+00
  0.553020838170E+01  0.551724137930E+01  0.000000000000E+00
  0.598144165096E+02  0.586206896550E+01  0.474088557678E+01
  0.598136900313E+02  0.551724137930E+01  0.474918926106E+01
  0.572148442950E+01  0.620689655170E+01  0.000000000000E+00
  0.562584640560E+01  0.586206896550E+01  0.000000000000E+00
  0.598151429878E+02  0.620689655170E+01  0.473258189249E+01
  0.598144165096E+02  0.586206896550E+01  0.474088557678E+01
  0.581712245330E+01  0.655172413790E+01  0.000000000000E+00
  0.572148442950E+01  0.620689655170E+01  0.000000000000E+00
  0.598158694660E+02  0.655172413790E+01  0.472427820822E+01
  0.598151429878E+02  0.620689655170E+01  0.473258189249E+01
  0.591276047720E+01  0.689655172410E+01  0.000000000000E+00
  0.581712245330E+01  0.655172413790E+01  0.000000000000E+00
  0.598165959443E+02  0.689655172410E+01  0.471597452394E+01
  0.598158694660E+02  0.655172413790E+01  0.472427820822E+01
  0.600839850100E+01  0.724137931030E+01  0.000000000000E+00
  0.591276047720E+01  0.689655172410E+01  0.000000000000E+00
  0.598173224225E+02  0.724137931030E+01  0.470767083966E+01
  0.598165959443E+02  0.689655172410E+01  0.471597452394E+01
  0.610403652490E+01  0.758620689660E+01  0.000000000000E+00
  0.600839850100E+01  0.724137931030E+01  0.000000000000E+00
  0.598180489008E+02  0.758620689660E+01  0.469936715538E+01
  0.598173224225E+02  0.724137931030E+01  0.470767083966E+01
  0.619967454870E+01  0.793103448280E+01  0.000000000000E+00
  0.610403652490E+01  0.758620689660E+01  0.000000000000E+00
  0.598187753790E+02  0.793103448280E+01  0.469106347110E+01
  0.598180489008E+02  0.758620689660E+01  0.469936715538E+01
  0.629531257260E+01  0.827586206900E+01  0.000000000000E+00
  0.619967454870E+01  0.793103448280E+01  0.000000000000E+00
  0.598195018572E+02  0.827586206900E+01  0.468275978682E+01
  0.598187753790E+02  0.793103448280E+01  0.469106347110E+01
  0.639095059650E+01  0.862068965520E+01  0.000000000000E+00
  0.629531257260E+01  0.827586206900E+01  0.000000000000E+00
  0.598202283355E+02  0.862068965520E+01  0.467445610254E+01
  0.598195018572E+02  0.827586206900E+01  0.468275978682E+01
  0.648658862030E+01  0.896551724140E+01  0.000000000000E+00
  0.639095059650E+01  0.862068965520E+01  0.000000000000E+00
  0.598209548137E+02  0.896551724140E+01  0.466615241826E+01
  0.598202283355E+02  0.862068965520E+01  0.467445610254E+01
  0.658222664420E+01  0.931034482760E+01  0.000000000000E+00
  0.648658862030E+01  0.896551724140E+01  0.000000000000E+00
  0.598216812920E+02  0.931034482760E+01  0.465784873398E+01
  0.598209548137E+02  0.896551724140E+01  0.466615241826E+01
  0.667786466800E+01  0.965517241380E+01  0.000000000000E+00
  0.658222664420E+01  0.931034482760E+01  0.000000000000E+00
  0.598224077702E+02  0.965517241380E+01  0.464954504971E+01
  0.598216812920E+02  0.931034482760E+01  0.465784873398E+01
  0.677350269190E+01  0.100000000000E+02  0.000000000000E+00
  0.667786466800E+01  0.965517241380E+01  0.000000000000E+00
  0.598231342484E+02  0.100000000000E+02  0.464124136542E+01
  0.598224077702E+02  0.965517241380E+01  0.464954504971E+01
  0.400000000000E+01  0.000000000000E+00  0.000000000000E+00
  0.409563802390E+01 -0.344827586210E+00  0.000000000000E+00
  0.598020663795E+02  0.000000000000E+00  0.488204820953E+01
  0.598027928577E+02 -0.344827586210E+00  0.487374452524E+01
  0.409563802390E+01 -0.344827586210E+00  0.000000000000E+00
  0.419127604770E+01 -0.689655172410E+00  0.000000000000E+00
  0.598027928577E+02 -0.344827586210E+00  0.487374452524E+01
  0.598035193360E+02 -0.689655172410E+00  0.486544084097E+01
  0.419127604770E+01 -0.689655172410E+00  0.000000000000E+00
  0.428691407160E+01 -0.103448275860E+01  0.000000000000E+00
  0.598035193360E+02 -0.689655172410E+00  0.486544084097E+01
  0.598042458142E+02 -0.103448275860E+01  0.485713715669E+01
  0.428691407160E+01 -0.103448275860E+01  0.000000000000E+00
  0.438255209540E+01 -0.137931034480E+01  0.000000000000E+00
  0.598042458142E+02 -0.103448275860E+01  0.485713715669E+01
  0.598049722924E+02 -0.137931034480E+01  0.484883347241E+01
  0.438255209540E+01 -0.137931034480E+01  0.000000000000E+00
  0.447819011930E+01 -0.172413793100E+01  0.000000000000E+00
  0.598049722924E+02 -0.137931034480E+01  0.484883347241E+01
  0.598056987707E+02 -0.172413793100E+01  0.484052978813E+01
  0.447819011930E+01 -0.172413793100E+01  0.000000000000E+00
  0.457382814320E+01 -0.206896551720E+01  0.000000000000E+00
  0.598056987707E+02 -0.172413793100E+01  0.484052978813E+01
  0.598064252489E+02 -0.206896551720E+01  0.483222610385E+01
  0.457382814320E+01 -0.206896551720E+01  0.000000000000E+00
  0.466946616700E+01 -0.241379310340E+01  0.000000000000E+00
  0.598064252489E+02 -0.206896551720E+01  0.483222610385E+01
  0.598071517272E+02 -0.241379310340E+01  0.482392241957E+01
  0.466946616700E+01 -0.241379310340E+01  0.000000000000E+00
  0.476510419090E+01 -0.275862068970E+01  0.000000000000E+00
  0.598071517272E+02 -0.241379310340E+01  0.482392241957E+01
  0.598078782054E+02 -0.275862068970E+01  0.481561873529E+01
  0.476510419090E+01 -0.275862068970E+01  0.000000000000E+00
  0.486074221470E+01 -0.310344827590E+01  0.000000000000E+00
  0.598078782054E+02 -0.275862068970E+01  0.481561873529E+01
  0.598086046836E+02 -0.310344827590E+01  0.480731505101E+01
  0.486074221470E+01 -0.310344827590E+01  0.000000000000E+00
  0.495638023860E+01 -0.344827586210E+01  0.000000000000E+00
  0.598086046836E+02 -0.310344827590E+01  0.480731505101E+01
  0.598093311619E+02 -0.344827586210E+01  0.479901136673E+01
  0.495638023860E+01 -0.344827586210E+01  0.000000000000E+00
  0.505201826240E+01 -0.379310344830E+01  0.000000000000E+00
  0.598093311619E+02 -0.344827586210E+01  0.479901136673E+01
  0.598100576401E+02 -0.379310344830E+01  0.479070768246E+01
  0.505201826240E+01 -0.379310344830E+01  0.000000000000E+00
[...]
POINT_DATA                 464
SCALARS mu float 1
LOOKUP_TABLE default
 -0.404319067520E+00
 -0.394872871109E+00
 -0.404319067520E+00
 -0.394872871109E+00
 -0.411708677213E+00
 -0.404319067520E+00
 -0.411708677213E+00
 -0.404319067520E+00
 -0.416897306490E+00
 -0.411708677213E+00
 -0.416897306490E+00
 -0.411708677213E+00
 -0.419657654039E+00
 -0.416897306490E+00
 -0.419657654039E+00
 -0.416897306490E+00
 -0.421214760702E+00
 -0.419657654039E+00
 -0.421214760702E+00
 -0.419657654039E+00
 -0.420329751981E+00
 -0.421214760702E+00
 -0.420329751981E+00
 -0.421214760702E+00
 -0.418436848695E+00
 -0.420329751981E+00
 -0.418436848695E+00
 -0.420329751981E+00
 -0.414594340915E+00
 -0.418436848695E+00
 -0.414594340915E+00
 -0.418436848695E+00
 -0.408158405060E+00
 -0.414594340915E+00
 -0.408158405060E+00
 -0.414594340915E+00
 -0.399752898967E+00
 -0.408158405060E+00
 -0.399752898967E+00
 -0.408158405060E+00
 -0.389741086039E+00
 -0.399752898967E+00
 -0.389741086039E+00
 -0.399752898967E+00
 -0.378189188960E+00
 -0.389741086039E+00
 -0.378189188960E+00
 -0.389741086039E+00
 -0.365935975752E+00
 -0.378189188960E+00
 -0.365935975752E+00
 -0.378189188960E+00
 -0.352771852332E+00
 -0.365935975752E+00
 -0.352771852332E+00
 -0.365935975752E+00
 -0.339248358487E+00
 -0.352771852332E+00
 -0.339248358487E+00
 -0.352771852332E+00
 -0.325768558970E+00
 -0.339248358487E+00
 -0.325768558970E+00
 -0.339248358487E+00
 -0.311612525269E+00
 -0.325768558970E+00
 -0.311612525269E+00
 -0.325768558970E+00
 -0.297264609409E+00
 -0.311612525269E+00
 -0.297264609409E+00
 -0.311612525269E+00
 -0.283054303465E+00
 -0.297264609409E+00
 -0.283054303465E+00
 -0.297264609409E+00
 -0.268859962579E+00
 -0.283054303465E+00
 -0.268859962579E+00
 -0.283054303465E+00
 -0.254571881074E+00
 -0.268859962579E+00
 -0.254571881074E+00
 -0.268859962579E+00
 -0.240427060378E+00
 -0.254571881074E+00
 -0.240427060378E+00
 -0.254571881074E+00
 -0.225847502272E+00
 -0.240427060378E+00
 -0.225847502272E+00
 -0.240427060378E+00
 -0.211422717931E+00
 -0.225847502272E+00
 -0.211422717931E+00
 -0.225847502272E+00
 -0.196633738788E+00
 -0.211422717931E+00
 -0.196633738788E+00
 -0.211422717931E+00
 -0.179846429061E+00
 -0.196633738788E+00
 -0.179846429061E+00
 -0.196633738788E+00
 -0.151772238389E+00
 -0.179846429061E+00
 -0.151772238389E+00
 -0.179846429061E+00
 -0.895273235957E-01
 -0.151772238389E+00
 -0.895273235957E-01
 -0.151772238389E+00
  0.000000000000E+00
 -0.895273235957E-01
  0.000000000000E+00
 -0.895273235957E-01
 -0.394872871109E+00
 -0.404440337154E+00
 -0.394872871109E+00
 -0.404440337154E+00
 -0.404440337154E+00
 -0.411864669977E+00
 -0.404440337154E+00
 -0.411864669977E+00
 -0.411864669977E+00
 -0.417170714073E+00
 -0.411864669977E+00
 -0.417170714073E+00
 -0.417170714073E+00
 -0.420343004280E+00
 -0.417170714073E+00
 -0.420343004280E+00
 -0.420343004280E+00
 -0.421245478102E+00
 -0.420343004280E+00
 -0.421245478102E+00
 -0.421245478102E+00
 -0.420464194918E+00
 -0.421245478102E+00
 -0.420464194918E+00
 -0.420464194918E+00
 -0.418095224481E+00
 -0.420464194918E+00
 -0.418095224481E+00
 -0.418095224481E+00
 -0.414356517175E+00
 -0.418095224481E+00
 -0.414356517175E+00
 -0.414356517175E+00
 -0.407942532096E+00
 -0.414356517175E+00
 -0.407942532096E+00
 -0.407942532096E+00
 -0.399649555607E+00
 -0.407942532096E+00
 -0.399649555607E+00
 -0.399649555607E+00
 -0.389627049639E+00
 -0.399649555607E+00
 -0.389627049639E+00
 -0.389627049639E+00
 -0.378187492648E+00
 -0.389627049639E+00
 -0.378187492648E+00
 -0.378187492648E+00
 -0.365866282030E+00
 -0.378187492648E+00
 -0.365866282030E+00
 -0.365866282030E+00
 -0.352521896698E+00
 -0.365866282030E+00
 -0.352521896698E+00
 -0.352521896698E+00
 -0.339184130772E+00
 -0.352521896698E+00
 -0.339184130772E+00
 -0.339184130772E+00
 -0.325701981826E+00
 -0.339184130772E+00
 -0.325701981826E+00
 -0.325701981826E+00
 -0.311515038689E+00
 -0.325701981826E+00
 -0.311515038689E+00
 -0.311515038689E+00
 -0.297428728186E+00
 -0.311515038689E+00
 -0.297428728186E+00
 -0.297428728186E+00
 -0.283191786321E+00
 -0.297428728186E+00
 -0.283191786321E+00
 -0.283191786321E+00
 -0.268949596324E+00
 -0.283191786321E+00
 -0.268949596324E+00
 -0.268949596324E+00
 -0.254582765916E+00
 -0.268949596324E+00
 -0.254582765916E+00
 -0.254582765916E+00
 -0.240245411129E+00
 -0.254582765916E+00
 -0.240245411129E+00
 -0.240245411129E+00
 -0.225790992481E+00
 -0.240245411129E+00
 -0.225790992481E+00
 -0.225790992481E+00
 -0.211461522690E+00
 -0.225790992481E+00
 -0.211461522690E+00
 -0.211461522690E+00
 -0.196642848511E+00
 -0.211461522690E+00
 -0.196642848511E+00
 -0.196642848511E+00
 -0.179851424869E+00
 -0.196642848511E+00
 -0.179851424869E+00
 -0.179851424869E+00
 -0.151841977824E+00
 -0.179851424869E+00
 -0.151841977824E+00
 -0.151841977824E+00
 -0.895973977019E-01
 -0.151841977824E+00
 -0.895973977019E-01
 -0.895973977019E-01
  0.000000000000E+00
 -0.895973977019E-01
  0.000000000000E+00
 -0.876563240768E-01
 -0.778213862390E-01
 -0.876563240768E-01
 -0.778213862390E-01
 -0.989529535109E-01
 -0.876563240768E-01
 -0.989529535109E-01
 -0.876563240768E-01
 -0.103241005866E+00
 -0.989529535109E-01
 -0.103241005866E+00
 -0.989529535109E-01
 -0.106341503164E+00
 -0.103241005866E+00
 -0.106341503164E+00
 -0.103241005866E+00
 -0.103775330770E+00
 -0.106341503164E+00
 -0.103775330770E+00
 -0.106341503164E+00
 -0.999806252914E-01
 -0.103775330770E+00
 -0.999806252914E-01
 -0.103775330770E+00
 -0.912676240138E-01
 -0.999806252914E-01
 -0.912676240138E-01
 -0.999806252914E-01
 -0.815601184139E-01
 -0.912676240138E-01
 -0.815601184139E-01
 -0.912676240138E-01
 -0.689887874292E-01
 -0.815601184139E-01
 -0.689887874292E-01
 -0.815601184139E-01
 -0.524450470899E-01
 -0.689887874292E-01
 -0.524450470899E-01
 -0.689887874292E-01
 -0.330575371389E-01
 -0.524450470899E-01
 -0.330575371389E-01
 -0.524450470899E-01
 -0.166919422129E-01
 -0.330575371389E-01
 -0.166919422129E-01
 -0.330575371389E-01
 -0.589363200120E-02
 -0.166919422129E-01
 -0.589363200120E-02
 -0.166919422129E-01
  0.323676986044E-02
 -0.589363200120E-02
  0.323676986044E-02
 -0.589363200120E-02
  0.942087019271E-02
  0.323676986044E-02
  0.942087019271E-02
  0.323676986044E-02
  0.889352527699E-02
  0.942087019271E-02
  0.889352527699E-02
  0.942087019271E-02
  0.580165592117E-02
  0.889352527699E-02
  0.580165592117E-02
  0.889352527699E-02
  0.483009088692E-02
  0.580165592117E-02
  0.483009088692E-02
  0.580165592117E-02
 -0.146004070799E-03
  0.483009088692E-02
 -0.146004070799E-03
  0.483009088692E-02
 -0.120382964553E-01
 -0.146004070799E-03
 -0.120382964553E-01
 -0.146004070799E-03
 -0.107886177659E-01
 -0.120382964553E-01
 -0.107886177659E-01
 -0.120382964553E-01
 -0.252123809579E-01
 -0.107886177659E-01
 -0.252123809579E-01
 -0.107886177659E-01
 -0.124622144452E-01
 -0.252123809579E-01
 -0.124622144452E-01
 -0.252123809579E-01
 -0.278269873295E-01
 -0.124622144452E-01
 -0.278269873295E-01
 -0.124622144452E-01
 -0.580226630744E-01
 -0.278269873295E-01
 -0.580226630744E-01
 -0.278269873295E-01
 -0.443237121218E-01
 -0.580226630744E-01
 -0.443237121218E-01
 -0.580226630744E-01
 -0.492501350966E-01
 -0.443237121218E-01
 -0.492501350966E-01
 -0.443237121218E-01
 -0.705691903730E-02
 -0.492501350966E-01
 -0.705691903730E-02
 -0.492501350966E-01
  0.000000000000E+00
 -0.705691903730E-02
  0.000000000000E+00
 -0.705691903730E-02
 -0.778213862390E-01
 -0.875475121997E-01
 -0.778213862390E-01
 -0.875475121997E-01
 -0.875475121997E-01
 -0.988735285631E-01
 -0.875475121997E-01
 -0.988735285631E-01
 -0.988735285631E-01
 -0.103291760230E+00
 -0.988735285631E-01
 -0.103291760230E+00
 -0.103291760230E+00
 -0.106768326073E+00
 -0.103291760230E+00
 -0.106768326073E+00
 -0.106768326073E+00
 -0.104036671073E+00
 -0.106768326073E+00
 -0.104036671073E+00
 -0.104036671073E+00
 -0.100529170615E+00
 -0.104036671073E+00
 -0.100529170615E+00
 -0.100529170615E+00
 -0.920885471397E-01
 -0.100529170615E+00
 -0.920885471397E-01
 -0.920885471397E-01
 -0.821286454187E-01
 -0.920885471397E-01
 -0.821286454187E-01
 -0.821286454187E-01
 -0.693988947023E-01
 -0.821286454187E-01
 -0.693988947023E-01
 -0.693988947023E-01
 -0.527341803544E-01
 -0.693988947023E-01
 -0.527341803544E-01
 -0.527341803544E-01
 -0.332586142462E-01
 -0.527341803544E-01
 -0.332586142462E-01
 -0.332586142462E-01
 -0.169392070656E-01
 -0.332586142462E-01
 -0.169392070656E-01
 -0.169392070656E-01
 -0.603609515409E-02
 -0.169392070656E-01
 -0.603609515409E-02
 -0.603609515409E-02
  0.379062540226E-02
 -0.603609515409E-02
  0.379062540226E-02
  0.379062540226E-02
  0.105921582205E-01
  0.379062540226E-02
  0.105921582205E-01
  0.105921582205E-01
  0.968344047314E-02
  0.105921582205E-01
  0.968344047314E-02
  0.968344047314E-02
  0.696866768782E-02
  0.968344047314E-02
  0.696866768782E-02
  0.696866768782E-02
  0.554216083212E-02
  0.696866768782E-02
  0.554216083212E-02
  0.554216083212E-02
  0.291773178822E-03
  0.554216083212E-02
  0.291773178822E-03
  0.291773178822E-03
 -0.117766151833E-01
  0.291773178822E-03
 -0.117766151833E-01
 -0.117766151833E-01
 -0.106340618587E-01
 -0.117766151833E-01
 -0.106340618587E-01
 -0.106340618587E-01
 -0.251368332560E-01
 -0.106340618587E-01
 -0.251368332560E-01
 -0.251368332560E-01
 -0.124357431773E-01
 -0.251368332560E-01
 -0.124357431773E-01
 -0.124357431773E-01
 -0.279649987300E-01
 -0.124357431773E-01
 -0.279649987300E-01
 -0.279649987300E-01
 -0.580837301816E-01
 -0.279649987300E-01
 -0.580837301816E-01
 -0.580837301816E-01
 -0.445366332698E-01
 -0.580837301816E-01
 -0.445366332698E-01
 -0.445366332698E-01
 -0.493526990553E-01
 -0.445366332698E-01
 -0.493526990553E-01
 -0.493526990553E-01
 -0.710540816536E-02
 -0.493526990553E-01
 -0.710540816536E-02
 -0.710540816536E-02
  0.000000000000E+00
 -0.710540816536E-02
  0.000000000000E+00
