# vtk DataFile Version 3.0
MachLine results file. Generated by MachLine, USU AeroLab (c) 2023.
ASCII
DATASET POLYDATA
POINTS                  74 float
  0.400000000000E+01  0.000000000000E+00  0.000000000000E+00
  0.258438382930E+01  0.317110120940E+01 -0.103002803560E+00
  0.420285608720E+01  0.317110120940E+01  0.000000000000E+00
  0.162996596140E+01  0.000000000000E+00 -0.150833694730E+00
  0.000000000000E+00  0.000000000000E+00  0.000000000000E+00
  0.147129657100E+01  0.317110120940E+01  0.000000000000E+00
  0.257331768900E+01  0.317110120940E+01  0.212716702140E+00
  0.161376109350E+01  0.000000000000E+00  0.311494881770E+00
  0.363645688220E+01  0.666666666670E+01 -0.502778982450E-01
  0.442646822840E+01  0.666666666670E+01  0.000000000000E+00
  0.309313489510E+01  0.666666666670E+01  0.000000000000E+00
  0.363105525960E+01  0.666666666670E+01  0.103831627260E+00
  0.432664189940E+01  0.895984098420E+01 -0.156891027470E-01
  0.457316312670E+01  0.895984098420E+01  0.000000000000E+00
  0.415709952040E+01  0.895984098420E+01  0.000000000000E+00
  0.432495633550E+01  0.895984098420E+01  0.324004209660E-01
  0.463970234270E+01  0.100000000000E+02  0.000000000000E+00
  0.420285608720E+01 -0.317110120940E+01  0.000000000000E+00
  0.258438382930E+01 -0.317110120940E+01 -0.103002803560E+00
  0.147129657100E+01 -0.317110120940E+01  0.000000000000E+00
  0.257331768900E+01 -0.317110120940E+01  0.212716702140E+00
  0.442646822840E+01 -0.666666666670E+01  0.000000000000E+00
  0.363645688220E+01 -0.666666666670E+01 -0.502778982450E-01
  0.309313489510E+01 -0.666666666670E+01  0.000000000000E+00
  0.363105525960E+01 -0.666666666670E+01  0.103831627260E+00
  0.457316312670E+01 -0.895984098420E+01  0.000000000000E+00
  0.432664189940E+01 -0.895984098420E+01 -0.156891027470E-01
  0.415709952040E+01 -0.895984098420E+01  0.000000000000E+00
  0.432495633550E+01 -0.895984098420E+01  0.324004209660E-01
  0.463970234270E+01 -0.100000000000E+02  0.000000000000E+00
  0.120000000000E+02  0.000000000000E+00  0.200000000000E+01
  0.112921919150E+02  0.158555060470E+01  0.194849859820E+01
  0.121014280440E+02  0.158555060470E+01  0.200000000000E+01
  0.108149829810E+02  0.000000000000E+00  0.192458315260E+01
  0.100000000000E+02  0.000000000000E+00  0.200000000000E+01
  0.107356482850E+02  0.158555060470E+01  0.200000000000E+01
  0.112866588440E+02  0.158555060470E+01  0.210635835110E+01
  0.108068805470E+02  0.000000000000E+00  0.215574744090E+01
  0.118182284410E+02  0.333333333330E+01  0.197486105090E+01
  0.122132341140E+02  0.333333333330E+01  0.200000000000E+01
  0.115465674480E+02  0.333333333330E+01  0.200000000000E+01
  0.118155276300E+02  0.333333333330E+01  0.205191581360E+01
  0.121633209500E+02  0.447992049210E+01  0.199215544860E+01
  0.122865815630E+02  0.447992049210E+01  0.200000000000E+01
  0.120785497600E+02  0.447992049210E+01  0.200000000000E+01
  0.121624781680E+02  0.447992049210E+01  0.201620021050E+01
  0.123198511710E+02  0.500000000000E+01  0.200000000000E+01
  0.121014280440E+02 -0.158555060470E+01  0.200000000000E+01
  0.112921919150E+02 -0.158555060470E+01  0.194849859820E+01
  0.107356482850E+02 -0.158555060470E+01  0.200000000000E+01
  0.112866588440E+02 -0.158555060470E+01  0.210635835110E+01
  0.122132341140E+02 -0.333333333330E+01  0.200000000000E+01
  0.118182284410E+02 -0.333333333330E+01  0.197486105090E+01
  0.115465674480E+02 -0.333333333330E+01  0.200000000000E+01
  0.118155276300E+02 -0.333333333330E+01  0.205191581360E+01
  0.122865815630E+02 -0.447992049210E+01  0.200000000000E+01
  0.121633209500E+02 -0.447992049210E+01  0.199215544860E+01
  0.120785497600E+02 -0.447992049210E+01  0.200000000000E+01
  0.121624781680E+02 -0.447992049210E+01  0.201620021050E+01
  0.123198511710E+02 -0.500000000000E+01  0.200000000000E+01
  0.400000000000E+01  0.000000000000E+00  0.000000000000E+00
  0.420285608720E+01  0.317110120940E+01  0.000000000000E+00
  0.442646822840E+01  0.666666666670E+01  0.000000000000E+00
  0.457316312670E+01  0.895984098420E+01  0.000000000000E+00
  0.420285608720E+01 -0.317110120940E+01  0.000000000000E+00
  0.442646822840E+01 -0.666666666670E+01  0.000000000000E+00
  0.457316312670E+01 -0.895984098420E+01  0.000000000000E+00
  0.120000000000E+02  0.000000000000E+00  0.200000000000E+01
  0.121014280440E+02  0.158555060470E+01  0.200000000000E+01
  0.122132341140E+02  0.333333333330E+01  0.200000000000E+01
  0.122865815630E+02  0.447992049210E+01  0.200000000000E+01
  0.121014280440E+02 -0.158555060470E+01  0.200000000000E+01
  0.122132341140E+02 -0.333333333330E+01  0.200000000000E+01
  0.122865815630E+02 -0.447992049210E+01  0.200000000000E+01
POLYGONS                 112                 448
3                   0                   1                   2
3                   0                   3                   1
3                   3                   4                   1
3                   1                   4                   5
3                   4                   6                   5
3                   4                   7                   6
3                   7                  60                   6
3                   6                  60                  61
3                   2                   8                   9
3                   2                   1                   8
3                   1                   5                   8
3                   8                   5                  10
3                   5                  11                  10
3                   5                   6                  11
3                   6                  61                  11
3                  11                  61                  62
3                   9                  12                  13
3                   9                   8                  12
3                   8                  10                  12
3                  12                  10                  14
3                  10                  15                  14
3                  10                  11                  15
3                  11                  62                  15
3                  15                  62                  63
3                  13                  12                  16
3                  12                  14                  16
3                  14                  15                  16
3                  15                  63                  16
3                   0                  17                  18
3                   0                  18                   3
3                   3                  18                   4
3                  18                  19                   4
3                   4                  19                  20
3                   4                  20                   7
3                   7                  20                  60
3                  20                  64                  60
3                  17                  21                  22
3                  17                  22                  18
3                  18                  22                  19
3                  22                  23                  19
3                  19                  23                  24
3                  19                  24                  20
3                  20                  24                  64
3                  24                  65                  64
3                  21                  25                  26
3                  21                  26                  22
3                  22                  26                  23
3                  26                  27                  23
3                  23                  27                  28
3                  23                  28                  24
3                  24                  28                  65
3                  28                  66                  65
3                  25                  29                  26
3                  26                  29                  27
3                  27                  29                  28
3                  28                  29                  66
3                  30                  31                  32
3                  30                  33                  31
3                  33                  34                  31
3                  31                  34                  35
3                  34                  36                  35
3                  34                  37                  36
3                  37                  67                  36
3                  36                  67                  68
3                  32                  38                  39
3                  32                  31                  38
3                  31                  35                  38
3                  38                  35                  40
3                  35                  41                  40
3                  35                  36                  41
3                  36                  68                  41
3                  41                  68                  69
3                  39                  42                  43
3                  39                  38                  42
3                  38                  40                  42
3                  42                  40                  44
3                  40                  45                  44
3                  40                  41                  45
3                  41                  69                  45
3                  45                  69                  70
3                  43                  42                  46
3                  42                  44                  46
3                  44                  45                  46
3                  45                  70                  46
3                  30                  47                  48
3                  30                  48                  33
3                  33                  48                  34
3                  48                  49                  34
3                  34                  49                  50
3                  34                  50                  37
3                  37                  50                  67
3                  50                  71                  67
3                  47                  51                  52
3                  47                  52                  48
3                  48                  52                  49
3                  52                  53                  49
3                  49                  53                  54
3                  49                  54                  50
3                  50                  54                  71
3                  54                  72                  71
3                  51                  55                  56
3                  51                  56                  52
3                  52                  56                  53
3                  56                  57                  53
3                  53                  57                  58
3                  53                  58                  54
3                  54                  58                  72
3                  58                  73                  72
3                  55                  59                  56
3                  56                  59                  57
3                  57                  59                  58
3                  58                  59                  73
CELL_DATA                 112
NORMALS normals float
  0.635129764074E-01 -0.406293997878E-02 -0.997972742286E+00
  0.635129763992E-01 -0.406293998242E-02 -0.997972742287E+00
 -0.920601613245E-01  0.427131746151E-01 -0.994836927044E+00
 -0.920601613274E-01  0.427131746174E-01 -0.994836927044E+00
 -0.188797217501E+00  0.875962892321E-01  0.978101477750E+00
 -0.188797217505E+00  0.875962892357E-01  0.978101477749E+00
  0.129435394304E+00 -0.828001249691E-02  0.991553286563E+00
  0.129435394310E+00 -0.828001249440E-02  0.991553286563E+00
  0.635129764013E-01 -0.406293997940E-02 -0.997972742287E+00
  0.635129764074E-01 -0.406293997842E-02 -0.997972742286E+00
 -0.920601613274E-01  0.427131746163E-01 -0.994836927044E+00
 -0.920601613331E-01  0.427131746199E-01 -0.994836927043E+00
 -0.188797217511E+00  0.875962892364E-01  0.978101477748E+00
 -0.188797217501E+00  0.875962892300E-01  0.978101477750E+00
  0.129435394310E+00 -0.828001249737E-02  0.991553286563E+00
  0.129435394314E+00 -0.828001249671E-02  0.991553286562E+00
  0.635129764034E-01 -0.406293997937E-02 -0.997972742287E+00
  0.635129764013E-01 -0.406293997946E-02 -0.997972742287E+00
 -0.920601613331E-01  0.427131746196E-01 -0.994836927043E+00
 -0.920601613410E-01  0.427131746238E-01 -0.994836927043E+00
 -0.188797217484E+00  0.875962892248E-01  0.978101477754E+00
 -0.188797217511E+00  0.875962892389E-01  0.978101477747E+00
  0.129435394314E+00 -0.828001249835E-02  0.991553286562E+00
  0.129435394332E+00 -0.828001249752E-02  0.991553286560E+00
  0.635129764034E-01 -0.406293998467E-02 -0.997972742287E+00
 -0.920601613410E-01  0.427131746297E-01 -0.994836927042E+00
 -0.188797217484E+00  0.875962892368E-01  0.978101477753E+00
  0.129435394332E+00 -0.828001250833E-02  0.991553286560E+00
  0.635129764074E-01  0.406293997878E-02 -0.997972742286E+00
  0.635129763992E-01  0.406293998242E-02 -0.997972742287E+00
 -0.920601613245E-01 -0.427131746151E-01 -0.994836927044E+00
 -0.920601613274E-01 -0.427131746174E-01 -0.994836927044E+00
 -0.188797217501E+00 -0.875962892321E-01  0.978101477750E+00
 -0.188797217505E+00 -0.875962892357E-01  0.978101477749E+00
  0.129435394304E+00  0.828001249691E-02  0.991553286563E+00
  0.129435394310E+00  0.828001249440E-02  0.991553286563E+00
  0.635129764013E-01  0.406293997940E-02 -0.997972742287E+00
  0.635129764074E-01  0.406293997842E-02 -0.997972742286E+00
 -0.920601613274E-01 -0.427131746163E-01 -0.994836927044E+00
 -0.920601613331E-01 -0.427131746199E-01 -0.994836927043E+00
 -0.188797217511E+00 -0.875962892364E-01  0.978101477748E+00
 -0.188797217501E+00 -0.875962892300E-01  0.978101477750E+00
  0.129435394310E+00  0.828001249737E-02  0.991553286563E+00
  0.129435394314E+00  0.828001249671E-02  0.991553286562E+00
  0.635129764034E-01  0.406293997937E-02 -0.997972742287E+00
  0.635129764013E-01  0.406293997946E-02 -0.997972742287E+00
 -0.920601613331E-01 -0.427131746196E-01 -0.994836927043E+00
 -0.920601613410E-01 -0.427131746238E-01 -0.994836927043E+00
 -0.188797217484E+00 -0.875962892248E-01  0.978101477754E+00
 -0.188797217511E+00 -0.875962892389E-01  0.978101477747E+00
  0.129435394314E+00  0.828001249835E-02  0.991553286562E+00
  0.129435394332E+00  0.828001249752E-02  0.991553286560E+00
  0.635129764034E-01  0.406293998467E-02 -0.997972742287E+00
 -0.920601613410E-01 -0.427131746297E-01 -0.994836927042E+00
 -0.188797217484E+00 -0.875962892368E-01  0.978101477753E+00
  0.129435394332E+00  0.828001250833E-02  0.991553286560E+00
  0.635129764280E-01 -0.406293999612E-02 -0.997972742285E+00
  0.635129764446E-01 -0.406293998868E-02 -0.997972742284E+00
 -0.920601613332E-01  0.427131746300E-01 -0.994836927043E+00
 -0.920601612237E-01  0.427131745403E-01 -0.994836927057E+00
 -0.188797217552E+00  0.875962891967E-01  0.978101477743E+00
 -0.188797217468E+00  0.875962891265E-01  0.978101477766E+00
  0.129435394343E+00 -0.828001245701E-02  0.991553286558E+00
  0.129435394205E+00 -0.828001252035E-02  0.991553286576E+00
  0.635129763607E-01 -0.406293995512E-02 -0.997972742289E+00
  0.635129764280E-01 -0.406293994415E-02 -0.997972742285E+00
 -0.920601612235E-01  0.427131745869E-01 -0.994836927055E+00
 -0.920601614358E-01  0.427131747188E-01 -0.994836927030E+00
 -0.188797217572E+00  0.875962893702E-01  0.978101477724E+00
 -0.188797217550E+00  0.875962893560E-01  0.978101477729E+00
  0.129435394205E+00 -0.828001248331E-02  0.991553286576E+00
  0.129435394368E+00 -0.828001245600E-02  0.991553286555E+00
  0.635129769507E-01 -0.406294000589E-02 -0.997972742252E+00
  0.635129763607E-01 -0.406294003183E-02 -0.997972742289E+00
 -0.920601614362E-01  0.427131746382E-01 -0.994836927033E+00
 -0.920601611116E-01  0.427131744633E-01 -0.994836927071E+00
 -0.188797216707E+00  0.875962887534E-01  0.978101477946E+00
 -0.188797217575E+00  0.875962892224E-01  0.978101477737E+00
  0.129435394368E+00 -0.828001256098E-02  0.991553286554E+00
  0.129435395080E+00 -0.828001252813E-02  0.991553286462E+00
  0.635129769506E-01 -0.406294001968E-02 -0.997972742252E+00
 -0.920601611115E-01  0.427131744967E-01 -0.994836927069E+00
 -0.188797216706E+00  0.875962888214E-01  0.978101477940E+00
  0.129435395080E+00 -0.828001255623E-02  0.991553286461E+00
  0.635129764280E-01  0.406293999612E-02 -0.997972742285E+00
  0.635129764446E-01  0.406293998868E-02 -0.997972742284E+00
 -0.920601613332E-01 -0.427131746300E-01 -0.994836927043E+00
 -0.920601612237E-01 -0.427131745403E-01 -0.994836927057E+00
 -0.188797217552E+00 -0.875962891967E-01  0.978101477743E+00
 -0.188797217468E+00 -0.875962891265E-01  0.978101477766E+00
  0.129435394343E+00  0.828001245701E-02  0.991553286558E+00
  0.129435394205E+00  0.828001252035E-02  0.991553286576E+00
  0.635129763607E-01  0.406293995512E-02 -0.997972742289E+00
  0.635129764280E-01  0.406293994415E-02 -0.997972742285E+00
 -0.920601612235E-01 -0.427131745869E-01 -0.994836927055E+00
 -0.920601614358E-01 -0.427131747188E-01 -0.994836927030E+00
 -0.188797217572E+00 -0.875962893702E-01  0.978101477724E+00
 -0.188797217550E+00 -0.875962893560E-01  0.978101477729E+00
  0.129435394205E+00  0.828001248331E-02  0.991553286576E+00
  0.129435394368E+00  0.828001245600E-02  0.991553286555E+00
  0.635129769507E-01  0.406294000589E-02 -0.997972742252E+00
  0.635129763607E-01  0.406294003183E-02 -0.997972742289E+00
 -0.920601614362E-01 -0.427131746382E-01 -0.994836927033E+00
 -0.920601611116E-01 -0.427131744633E-01 -0.994836927071E+00
 -0.188797216707E+00 -0.875962887534E-01  0.978101477946E+00
 -0.188797217575E+00 -0.875962892224E-01  0.978101477737E+00
  0.129435394368E+00  0.828001256098E-02  0.991553286554E+00
  0.129435395080E+00  0.828001252813E-02  0.991553286462E+00
  0.635129769506E-01  0.406294001968E-02 -0.997972742252E+00
 -0.920601611115E-01 -0.427131744967E-01 -0.994836927069E+00
 -0.188797216706E+00 -0.875962888214E-01  0.978101477940E+00
  0.129435395080E+00  0.828001255623E-02  0.991553286461E+00
SCALARS inclination float 1
LOOKUP_TABLE default
  0.100000000000E+01
  0.100000000000E+01
  0.100000000000E+01
  0.100000000000E+01
  0.100000000000E+01
  0.100000000000E+01
  0.100000000000E+01
  0.100000000000E+01
  0.100000000000E+01
  0.100000000000E+01
  0.100000000000E+01
  0.100000000000E+01
  0.100000000000E+01
  0.100000000000E+01
  0.100000000000E+01
  0.100000000000E+01
  0.100000000000E+01
  0.100000000000E+01
  0.100000000000E+01
  0.100000000000E+01
  0.100000000000E+01
  0.100000000000E+01
  0.100000000000E+01
  0.100000000000E+01
  0.100000000000E+01
  0.100000000000E+01
  0.100000000000E+01
  0.100000000000E+01
  0.100000000000E+01
  0.100000000000E+01
  0.100000000000E+01
  0.100000000000E+01
  0.100000000000E+01
  0.100000000000E+01
  0.100000000000E+01
  0.100000000000E+01
  0.100000000000E+01
  0.100000000000E+01
  0.100000000000E+01
  0.100000000000E+01
  0.100000000000E+01
  0.100000000000E+01
  0.100000000000E+01
  0.100000000000E+01
  0.100000000000E+01
  0.100000000000E+01
  0.100000000000E+01
  0.100000000000E+01
  0.100000000000E+01
  0.100000000000E+01
  0.100000000000E+01
  0.100000000000E+01
  0.100000000000E+01
  0.100000000000E+01
  0.100000000000E+01
  0.100000000000E+01
  0.100000000000E+01
  0.100000000000E+01
  0.100000000000E+01
  0.100000000000E+01
  0.100000000000E+01
  0.100000000000E+01
  0.100000000000E+01
  0.100000000000E+01
  0.100000000000E+01
  0.100000000000E+01
  0.100000000000E+01
  0.100000000000E+01
  0.100000000000E+01
  0.100000000000E+01
  0.100000000000E+01
  0.100000000000E+01
  0.100000000000E+01
  0.100000000000E+01
  0.100000000000E+01
  0.100000000000E+01
  0.100000000000E+01
  0.100000000000E+01
  0.100000000000E+01
  0.100000000000E+01
  0.100000000000E+01
  0.100000000000E+01
  0.100000000000E+01
  0.100000000000E+01
  0.100000000000E+01
  0.100000000000E+01
  0.100000000000E+01
  0.100000000000E+01
  0.100000000000E+01
  0.100000000000E+01
  0.100000000000E+01
  0.100000000000E+01
  0.100000000000E+01
  0.100000000000E+01
  0.100000000000E+01
  0.100000000000E+01
  0.100000000000E+01
  0.100000000000E+01
  0.100000000000E+01
  0.100000000000E+01
  0.100000000000E+01
  0.100000000000E+01
  0.100000000000E+01
  0.100000000000E+01
  0.100000000000E+01
  0.100000000000E+01
  0.100000000000E+01
  0.100000000000E+01
  0.100000000000E+01
  0.100000000000E+01
  0.100000000000E+01
  0.100000000000E+01
SCALARS distribution_order float 1
LOOKUP_TABLE default
  0.100000000000E+01
  0.100000000000E+01
  0.100000000000E+01
  0.100000000000E+01
  0.100000000000E+01
  0.100000000000E+01
  0.100000000000E+01
  0.100000000000E+01
  0.100000000000E+01
  0.100000000000E+01
  0.100000000000E+01
  0.100000000000E+01
  0.100000000000E+01
  0.100000000000E+01
  0.100000000000E+01
  0.100000000000E+01
  0.100000000000E+01
  0.100000000000E+01
  0.100000000000E+01
  0.100000000000E+01
  0.100000000000E+01
  0.100000000000E+01
  0.100000000000E+01
  0.100000000000E+01
  0.100000000000E+01
  0.100000000000E+01
  0.100000000000E+01
  0.100000000000E+01
  0.100000000000E+01
  0.100000000000E+01
  0.100000000000E+01
  0.100000000000E+01
  0.100000000000E+01
  0.100000000000E+01
  0.100000000000E+01
  0.100000000000E+01
  0.100000000000E+01
  0.100000000000E+01
  0.100000000000E+01
  0.100000000000E+01
  0.100000000000E+01
  0.100000000000E+01
  0.100000000000E+01
  0.100000000000E+01
  0.100000000000E+01
  0.100000000000E+01
  0.100000000000E+01
  0.100000000000E+01
  0.100000000000E+01
  0.100000000000E+01
  0.100000000000E+01
  0.100000000000E+01
  0.100000000000E+01
  0.100000000000E+01
  0.100000000000E+01
  0.100000000000E+01
  0.100000000000E+01
  0.100000000000E+01
  0.100000000000E+01
  0.100000000000E+01
  0.100000000000E+01
  0.100000000000E+01
  0.100000000000E+01
  0.100000000000E+01
  0.100000000000E+01
  0.100000000000E+01
  0.100000000000E+01
  0.100000000000E+01
  0.100000000000E+01
  0.100000000000E+01
  0.100000000000E+01
  0.100000000000E+01
  0.100000000000E+01
  0.100000000000E+01
  0.100000000000E+01
  0.100000000000E+01
  0.100000000000E+01
  0.100000000000E+01
  0.100000000000E+01
  0.100000000000E+01
  0.100000000000E+01
  0.100000000000E+01
  0.100000000000E+01
  0.100000000000E+01
  0.100000000000E+01
  0.100000000000E+01
  0.100000000000E+01
  0.100000000000E+01
  0.100000000000E+01
  0.100000000000E+01
  0.100000000000E+01
  0.100000000000E+01
  0.100000000000E+01
  0.100000000000E+01
  0.100000000000E+01
  0.100000000000E+01
  0.100000000000E+01
  0.100000000000E+01
  0.100000000000E+01
  0.100000000000E+01
  0.100000000000E+01
  0.100000000000E+01
  0.100000000000E+01
  0.100000000000E+01
  0.100000000000E+01
  0.100000000000E+01
  0.100000000000E+01
  0.100000000000E+01
  0.100000000000E+01
  0.100000000000E+01
  0.100000000000E+01
  0.100000000000E+01
SCALARS N_discontinuous_edges float 1
LOOKUP_TABLE default
  0.100000000000E+01
  0.100000000000E+01
  0.100000000000E+01
  0.100000000000E+01
  0.100000000000E+01
  0.200000000000E+01
  0.100000000000E+01
  0.100000000000E+01
  0.100000000000E+01
  0.100000000000E+01
  0.100000000000E+01
  0.100000000000E+01
  0.100000000000E+01
  0.100000000000E+01
  0.100000000000E+01
  0.100000000000E+01
  0.100000000000E+01
  0.100000000000E+01
  0.100000000000E+01
  0.100000000000E+01
  0.100000000000E+01
  0.100000000000E+01
  0.100000000000E+01
  0.100000000000E+01
  0.200000000000E+01
  0.200000000000E+01
  0.200000000000E+01
  0.200000000000E+01
  0.100000000000E+01
  0.100000000000E+01
  0.100000000000E+01
  0.100000000000E+01
  0.100000000000E+01
  0.200000000000E+01
  0.100000000000E+01
  0.100000000000E+01
  0.100000000000E+01
  0.100000000000E+01
  0.100000000000E+01
  0.100000000000E+01
  0.100000000000E+01
  0.100000000000E+01
  0.100000000000E+01
  0.100000000000E+01
  0.100000000000E+01
  0.100000000000E+01
  0.100000000000E+01
  0.100000000000E+01
  0.100000000000E+01
  0.100000000000E+01
  0.100000000000E+01
  0.100000000000E+01
  0.200000000000E+01
  0.200000000000E+01
  0.200000000000E+01
  0.200000000000E+01
  0.100000000000E+01
  0.100000000000E+01
  0.100000000000E+01
  0.100000000000E+01
  0.100000000000E+01
  0.200000000000E+01
  0.100000000000E+01
  0.100000000000E+01
  0.100000000000E+01
  0.100000000000E+01
  0.100000000000E+01
  0.100000000000E+01
  0.100000000000E+01
  0.100000000000E+01
  0.100000000000E+01
  0.100000000000E+01
  0.100000000000E+01
  0.100000000000E+01
  0.100000000000E+01
  0.100000000000E+01
  0.100000000000E+01
  0.100000000000E+01
  0.100000000000E+01
  0.100000000000E+01
  0.200000000000E+01
  0.200000000000E+01
  0.200000000000E+01
  0.200000000000E+01
  0.100000000000E+01
  0.100000000000E+01
  0.100000000000E+01
  0.100000000000E+01
  0.100000000000E+01
  0.200000000000E+01
  0.100000000000E+01
  0.100000000000E+01
  0.100000000000E+01
  0.100000000000E+01
  0.100000000000E+01
  0.100000000000E+01
  0.100000000000E+01
  0.100000000000E+01
  0.100000000000E+01
  0.100000000000E+01
  0.100000000000E+01
  0.100000000000E+01
  0.100000000000E+01
  0.100000000000E+01
  0.100000000000E+01
  0.100000000000E+01
  0.100000000000E+01
  0.100000000000E+01
  0.200000000000E+01
  0.200000000000E+01
  0.200000000000E+01
  0.200000000000E+01
VECTORS centroid float
  0.359574663883E+01  0.211406747293E+01 -0.343342678533E-01
  0.273811659690E+01  0.105703373647E+01 -0.846121660967E-01
  0.140478326357E+01  0.105703373647E+01 -0.846121660967E-01
  0.135189346677E+01  0.211406747293E+01 -0.343342678533E-01
  0.134820475333E+01  0.211406747293E+01  0.709055673800E-01
  0.139569292750E+01  0.105703373647E+01  0.174737194637E+00
  0.272902626083E+01  0.105703373647E+01  0.174737194637E+00
  0.359205792540E+01  0.211406747293E+01  0.709055673800E-01
  0.408859373260E+01  0.550147818093E+01 -0.167592994150E-01
  0.347456559957E+01  0.433628969517E+01 -0.510935672683E-01
  0.256404576083E+01  0.433628969517E+01 -0.510935672683E-01
  0.273362944943E+01  0.550147818093E+01 -0.167592994150E-01
  0.273182890857E+01  0.550147818093E+01  0.346105424200E-01
  0.255855650653E+01  0.433628969517E+01  0.105516109800E+00
  0.346907634527E+01  0.433628969517E+01  0.105516109800E+00
  0.408679319173E+01  0.550147818093E+01  0.346105424200E-01
  0.444209108483E+01  0.819544954503E+01 -0.522970091567E-02
  0.412985567000E+01  0.743105810587E+01 -0.219890003307E-01
  0.368541122557E+01  0.743105810587E+01 -0.219890003307E-01
  0.385895877163E+01  0.819544954503E+01 -0.522970091567E-02
  0.385839691700E+01  0.819544954503E+01  0.108001403220E-01
  0.368304883007E+01  0.743105810587E+01  0.454106827420E-01
  0.412749327450E+01  0.743105810587E+01  0.454106827420E-01
  0.444152923020E+01  0.819544954503E+01  0.108001403220E-01
  0.451316912293E+01  0.930656065613E+01 -0.522970091567E-02
  0.437448125417E+01  0.930656065613E+01 -0.522970091567E-02
  0.437391939953E+01  0.930656065613E+01  0.108001403220E-01
  0.451260726830E+01  0.930656065613E+01  0.108001403220E-01
  0.359574663883E+01 -0.211406747293E+01 -0.343342678533E-01
  0.273811659690E+01 -0.105703373647E+01 -0.846121660967E-01
  0.140478326357E+01 -0.105703373647E+01 -0.846121660967E-01
  0.135189346677E+01 -0.211406747293E+01 -0.343342678533E-01
  0.134820475333E+01 -0.211406747293E+01  0.709055673800E-01
  0.139569292750E+01 -0.105703373647E+01  0.174737194637E+00
  0.272902626083E+01 -0.105703373647E+01  0.174737194637E+00
  0.359205792540E+01 -0.211406747293E+01  0.709055673800E-01
  0.408859373260E+01 -0.550147818093E+01 -0.167592994150E-01
  0.347456559957E+01 -0.433628969517E+01 -0.510935672683E-01
  0.256404576083E+01 -0.433628969517E+01 -0.510935672683E-01
  0.273362944943E+01 -0.550147818093E+01 -0.167592994150E-01
  0.273182890857E+01 -0.550147818093E+01  0.346105424200E-01
  0.255855650653E+01 -0.433628969517E+01  0.105516109800E+00
  0.346907634527E+01 -0.433628969517E+01  0.105516109800E+00
  0.408679319173E+01 -0.550147818093E+01  0.346105424200E-01
  0.444209108483E+01 -0.819544954503E+01 -0.522970091567E-02
  0.412985567000E+01 -0.743105810587E+01 -0.219890003307E-01
  0.368541122557E+01 -0.743105810587E+01 -0.219890003307E-01
  0.385895877163E+01 -0.819544954503E+01 -0.522970091567E-02
  0.385839691700E+01 -0.819544954503E+01  0.108001403220E-01
  0.368304883007E+01 -0.743105810587E+01  0.454106827420E-01
  0.412749327450E+01 -0.743105810587E+01  0.454106827420E-01
  0.444152923020E+01 -0.819544954503E+01  0.108001403220E-01
  0.451316912293E+01 -0.930656065613E+01 -0.522970091567E-02
  0.437448125417E+01 -0.930656065613E+01 -0.522970091567E-02
  0.437391939953E+01 -0.930656065613E+01  0.108001403220E-01
  0.451260726830E+01 -0.930656065613E+01  0.108001403220E-01
  0.117978733197E+02  0.105703373647E+01  0.198283286607E+01
  0.113690582987E+02  0.528516868233E+00  0.195769391693E+01
  0.107023916320E+02  0.528516868233E+00  0.195769391693E+01
  0.106759467333E+02  0.105703373647E+01  0.198283286607E+01
  0.106741023763E+02  0.105703373647E+01  0.203545278370E+01
  0.106978464637E+02  0.528516868233E+00  0.208736859733E+01
  0.113645131303E+02  0.528516868233E+00  0.208736859733E+01
  0.117960289627E+02  0.105703373647E+01  0.203545278370E+01
  0.120442968663E+02  0.275073909043E+01  0.199162035030E+01
  0.117372828000E+02  0.216814484757E+01  0.197445321637E+01
  0.112820228803E+02  0.216814484757E+01  0.197445321637E+01
  0.113668147247E+02  0.275073909043E+01  0.199162035030E+01
  0.113659144543E+02  0.275073909043E+01  0.201730527120E+01