# vtk DataFile Version 3.0
MachLine results file. Generated by MachLine, USU AeroLab (c) 2023.
ASCII
DATASET POLYDATA
POINTS                 144 float
  0.408055781640E+01  0.125930157000E+01  0.000000000000E+00
  0.400000000000E+01  0.000000000000E+00  0.000000000000E+00
  0.597747815276E+03  0.125930157000E+01  0.519391549343E+02
  0.597747203349E+03  0.000000000000E+00  0.519461492933E+02
  0.417711398590E+01  0.276869372040E+01  0.000000000000E+00
  0.408055781640E+01  0.125930157000E+01  0.000000000000E+00
  0.597748548729E+03  0.276869372040E+01  0.519307715328E+02
  0.597747815276E+03  0.125930157000E+01  0.519391549343E+02
  0.428117065600E+01  0.439533572420E+01  0.000000000000E+00
  0.417711398590E+01  0.276869372040E+01  0.000000000000E+00
  0.597749339156E+03  0.439533572420E+01  0.519217369072E+02
  0.597748548729E+03  0.276869372040E+01  0.519307715328E+02
  0.438121380090E+01  0.595923721800E+01  0.000000000000E+00
  0.428117065600E+01  0.439533572420E+01  0.000000000000E+00
  0.597750099096E+03  0.595923721800E+01  0.519130507523E+02
  0.597749339156E+03  0.439533572420E+01  0.519217369072E+02
  0.446738119990E+01  0.730622929920E+01  0.000000000000E+00
  0.438121380090E+01  0.595923721800E+01  0.000000000000E+00
  0.597750753634E+03  0.730622929920E+01  0.519055693464E+02
  0.597750099096E+03  0.595923721800E+01  0.519130507523E+02
  0.453484266820E+01  0.836080521370E+01  0.000000000000E+00
  0.446738119990E+01  0.730622929920E+01  0.000000000000E+00
  0.597751266080E+03  0.836080521370E+01  0.518997120659E+02
  0.597750753634E+03  0.730622929920E+01  0.519055693464E+02
  0.400000000000E+01  0.000000000000E+00  0.000000000000E+00
  0.408055781640E+01 -0.125930157000E+01  0.000000000000E+00
  0.597747203349E+03  0.000000000000E+00  0.519461492933E+02
  0.597747815276E+03 -0.125930157000E+01  0.519391549343E+02
  0.408055781640E+01 -0.125930157000E+01  0.000000000000E+00
  0.417711398590E+01 -0.276869372040E+01  0.000000000000E+00
  0.597747815276E+03 -0.125930157000E+01  0.519391549343E+02
  0.597748548729E+03 -0.276869372040E+01  0.519307715328E+02
  0.463970234270E+01  0.100000000000E+02  0.000000000000E+00
  0.461746237680E+01  0.965233883910E+01  0.000000000000E+00
  0.597752062607E+03  0.100000000000E+02  0.518906077202E+02
  0.597751893669E+03  0.965233883910E+01  0.518925386850E+02
  0.461746237680E+01  0.965233883910E+01  0.000000000000E+00
  0.458381970260E+01  0.912642745930E+01  0.000000000000E+00
  0.597751893669E+03  0.965233883910E+01  0.518925386850E+02
  0.597751638116E+03  0.912642745930E+01  0.518954596795E+02
  0.417711398590E+01 -0.276869372040E+01  0.000000000000E+00
  0.428117065600E+01 -0.439533572420E+01  0.000000000000E+00
  0.597748548729E+03 -0.276869372040E+01  0.519307715328E+02
  0.597749339156E+03 -0.439533572420E+01  0.519217369072E+02
  0.458381970260E+01  0.912642745930E+01  0.000000000000E+00
  0.453484266820E+01  0.836080521370E+01  0.000000000000E+00
  0.597751638116E+03  0.912642745930E+01  0.518954596795E+02
  0.597751266080E+03  0.836080521370E+01  0.518997120659E+02
  0.438121380090E+01 -0.595923721800E+01  0.000000000000E+00
  0.446738119990E+01 -0.730622929920E+01  0.000000000000E+00
  0.597750099096E+03 -0.595923721800E+01  0.519130507523E+02
  0.597750753634E+03 -0.730622929920E+01  0.519055693464E+02
  0.428117065600E+01 -0.439533572420E+01  0.000000000000E+00
  0.438121380090E+01 -0.595923721800E+01  0.000000000000E+00
  0.597749339156E+03 -0.439533572420E+01  0.519217369072E+02
  0.597750099096E+03 -0.595923721800E+01  0.519130507523E+02
  0.446738119990E+01 -0.730622929920E+01  0.000000000000E+00
  0.453484266820E+01 -0.836080521370E+01  0.000000000000E+00
  0.597750753634E+03 -0.730622929920E+01  0.519055693464E+02
  0.597751266080E+03 -0.836080521370E+01  0.518997120659E+02
  0.453484266820E+01 -0.836080521370E+01  0.000000000000E+00
  0.458381970260E+01 -0.912642745930E+01  0.000000000000E+00
  0.597751266080E+03 -0.836080521370E+01  0.518997120659E+02
  0.597751638116E+03 -0.912642745930E+01  0.518954596795E+02
  0.458381970260E+01 -0.912642745930E+01  0.000000000000E+00
  0.461746237680E+01 -0.965233883910E+01  0.000000000000E+00
  0.597751638116E+03 -0.912642745930E+01  0.518954596795E+02
  0.597751893669E+03 -0.965233883910E+01  0.518925386850E+02
  0.461746237680E+01 -0.965233883910E+01  0.000000000000E+00
  0.463970234270E+01 -0.100000000000E+02  0.000000000000E+00
  0.597751893669E+03 -0.965233883910E+01  0.518925386850E+02
  0.597752062607E+03 -0.100000000000E+02  0.518906077202E+02
  0.120402789080E+02  0.629650784990E+00  0.200000000000E+01
  0.120000000000E+02  0.000000000000E+00  0.200000000000E+01
  0.597634630123E+03  0.629650784990E+00  0.532328671561E+02
  0.597634324159E+03  0.000000000000E+00  0.532363643356E+02
  0.120885569930E+02  0.138434686020E+01  0.200000000000E+01
  0.120402789080E+02  0.629650784990E+00  0.200000000000E+01
  0.597634996849E+03  0.138434686020E+01  0.532286754554E+02
  0.597634630123E+03  0.629650784990E+00  0.532328671561E+02
  0.121405853280E+02  0.219766786210E+01  0.200000000000E+01
  0.120885569930E+02  0.138434686020E+01  0.200000000000E+01
  0.597635392063E+03  0.219766786210E+01  0.532241581426E+02
  0.597634996849E+03  0.138434686020E+01  0.532286754554E+02
  0.121906069000E+02  0.297961860900E+01  0.200000000000E+01
  0.121405853280E+02  0.219766786210E+01  0.200000000000E+01
  0.597635772033E+03  0.297961860900E+01  0.532198150652E+02
  0.597635392063E+03  0.219766786210E+01  0.532241581426E+02
  0.122336906000E+02  0.365311464960E+01  0.200000000000E+01
  0.121906069000E+02  0.297961860900E+01  0.200000000000E+01
  0.597636099302E+03  0.365311464960E+01  0.532160743622E+02
  0.597635772033E+03  0.297961860900E+01  0.532198150652E+02
  0.122674213340E+02  0.418040260690E+01  0.200000000000E+01
  0.122336906000E+02  0.365311464960E+01  0.200000000000E+01
  0.597636355525E+03  0.418040260690E+01  0.532131457219E+02
  0.597636099302E+03  0.365311464960E+01  0.532160743622E+02
  0.122919098510E+02  0.456321372970E+01  0.200000000000E+01
  0.122674213340E+02  0.418040260690E+01  0.200000000000E+01
  0.597636541543E+03  0.456321372970E+01  0.532110195288E+02
  0.597636355525E+03  0.418040260690E+01  0.532131457219E+02
  0.123087311880E+02  0.482616941950E+01  0.200000000000E+01
  0.122919098510E+02  0.456321372970E+01  0.200000000000E+01
  0.597636669320E+03  0.482616941950E+01  0.532095590315E+02
  0.597636541543E+03  0.456321372970E+01  0.532110195288E+02
  0.123198511710E+02  0.500000000000E+01  0.200000000000E+01
  0.123087311880E+02  0.482616941950E+01  0.200000000000E+01
  0.597636753788E+03  0.500000000000E+01  0.532085935491E+02
  0.597636669320E+03  0.482616941950E+01  0.532095590315E+02
  0.120000000000E+02  0.000000000000E+00  0.200000000000E+01
  0.120402789080E+02 -0.629650784990E+00  0.200000000000E+01
  0.597634324159E+03  0.000000000000E+00  0.532363643356E+02
  0.597634630123E+03 -0.629650784990E+00  0.532328671561E+02
  0.120402789080E+02 -0.629650784990E+00  0.200000000000E+01
  0.120885569930E+02 -0.138434686020E+01  0.200000000000E+01
  0.597634630123E+03 -0.629650784990E+00  0.532328671561E+02
  0.597634996849E+03 -0.138434686020E+01  0.532286754554E+02
  0.120885569930E+02 -0.138434686020E+01  0.200000000000E+01
  0.121405853280E+02 -0.219766786210E+01  0.200000000000E+01
  0.597634996849E+03 -0.138434686020E+01  0.532286754554E+02
  0.597635392063E+03 -0.219766786210E+01  0.532241581426E+02
  0.121405853280E+02 -0.219766786210E+01  0.200000000000E+01
  0.121906069000E+02 -0.297961860900E+01  0.200000000000E+01
  0.597635392063E+03 -0.219766786210E+01  0.532241581426E+02
  0.597635772033E+03 -0.297961860900E+01  0.532198150652E+02
  0.121906069000E+02 -0.297961860900E+01  0.200000000000E+01
  0.122336906000E+02 -0.365311464960E+01  0.200000000000E+01
  0.597635772033E+03 -0.297961860900E+01  0.532198150652E+02
  0.597636099302E+03 -0.365311464960E+01  0.532160743622E+02
  0.122336906000E+02 -0.365311464960E+01  0.200000000000E+01
  0.122674213340E+02 -0.418040260690E+01  0.200000000000E+01
  0.597636099302E+03 -0.365311464960E+01  0.532160743622E+02
  0.597636355525E+03 -0.418040260690E+01  0.532131457219E+02
  0.122674213340E+02 -0.418040260690E+01  0.200000000000E+01
  0.122919098510E+02 -0.456321372970E+01  0.200000000000E+01
  0.597636355525E+03 -0.418040260690E+01  0.532131457219E+02
  0.597636541543E+03 -0.456321372970E+01  0.532110195288E+02
  0.122919098510E+02 -0.456321372970E+01  0.200000000000E+01
  0.123087311880E+02 -0.482616941950E+01  0.200000000000E+01
  0.597636541543E+03 -0.456321372970E+01  0.532110195288E+02
  0.597636669320E+03 -0.482616941950E+01  0.532095590315E+02
  0.123087311880E+02 -0.482616941950E+01  0.200000000000E+01
  0.123198511710E+02 -0.500000000000E+01  0.200000000000E+01
  0.597636669320E+03 -0.482616941950E+01  0.532095590315E+02
  0.597636753788E+03 -0.500000000000E+01  0.532085935491E+02
POLYGONS                  72                 288
3                   0                   3                   1
3                   0                   2                   3
3                   4                   7                   5
3                   4                   6                   7
3                   8                  11                   9
3                   8                  10                  11
3                  12                  15                  13
3                  12                  14                  15
3                  16                  19                  17
3                  16                  18                  19
3                  20                  23                  21
3                  20                  22                  23
3                  24                  26                  25
3                  26                  27                  25
3                  28                  30                  29
3                  30                  31                  29
3                  32                  35                  33
3                  32                  34                  35
3                  36                  39                  37
3                  36                  38                  39
3                  40                  42                  41
3                  42                  43                  41
3                  44                  47                  45
3                  44                  46                  47
3                  48                  50                  49
3                  50                  51                  49
3                  52                  54                  53
3                  54                  55                  53
3                  56                  58                  57
3                  58                  59                  57
3                  60                  62                  61
3                  62                  63                  61
3                  64                  66                  65
3                  66                  67                  65
3                  68                  70                  69
3                  70                  71                  69
3                  72                  75                  73
3                  72                  74                  75
3                  76                  79                  77
3                  76                  78                  79
3                  80                  83                  81
3                  80                  82                  83
3                  84                  87                  85
3                  84                  86                  87
3                  88                  91                  89
3                  88                  90                  91
3                  92                  95                  93
3                  92                  94                  95
3                  96                  99                  97
3                  96                  98                  99
3                 100                 103                 101
3                 100                 102                 103
3                 104                 107                 105
3                 104                 106                 107
3                 108                 110                 109
3                 110                 111                 109
3                 112                 114                 113
3                 114                 115                 113
3                 116                 118                 117
3                 118                 119                 117
3                 120                 122                 121
3                 122                 123                 121
3                 124                 126                 125
3                 126                 127                 125
3                 128                 130                 129
3                 130                 131                 129
3                 132                 134                 133
3                 134                 135                 133
3                 136                 138                 137
3                 138                 139                 137
3                 140                 142                 141
3                 142                 143                 141
POINT_DATA                 144
SCALARS mu float 1
LOOKUP_TABLE default
 -0.832817377902E+00
 -0.820716440878E+00
 -0.832817377902E+00
 -0.820716440878E+00
 -0.656911050835E+00
 -0.832817377902E+00
 -0.656911050835E+00
 -0.832817377902E+00
 -0.622854685549E+00
 -0.656911050835E+00
 -0.622854685549E+00
 -0.656911050835E+00
 -0.492667981813E+00
 -0.622854685549E+00
 -0.492667981813E+00
 -0.622854685549E+00
 -0.392713213625E+00
 -0.492667981813E+00
 -0.392713213625E+00
 -0.492667981813E+00
 -0.246148169051E+00
 -0.392713213625E+00
 -0.246148169051E+00
 -0.392713213625E+00
 -0.820716440878E+00
 -0.814850007962E+00
 -0.820716440878E+00
 -0.814850007962E+00
 -0.814850007962E+00
 -0.648723402027E+00
 -0.814850007962E+00
 -0.648723402027E+00
  0.000000000000E+00
 -0.573289919258E-01
  0.000000000000E+00
 -0.573289919258E-01
 -0.573289919258E-01
 -0.135132834739E+00
 -0.573289919258E-01
 -0.135132834739E+00
 -0.648723402027E+00
 -0.615269516174E+00
 -0.648723402027E+00
 -0.615269516174E+00
 -0.135132834739E+00
 -0.246148169051E+00
 -0.135132834739E+00
 -0.246148169051E+00
 -0.477208332464E+00
 -0.385192023659E+00
 -0.477208332464E+00
 -0.385192023659E+00
 -0.615269516174E+00
 -0.477208332464E+00
 -0.615269516174E+00
 -0.477208332464E+00
 -0.385192023659E+00
 -0.241978856298E+00
 -0.385192023659E+00
 -0.241978856298E+00
 -0.241978856298E+00
 -0.133644038111E+00
 -0.241978856298E+00
 -0.133644038111E+00
 -0.133644038111E+00
 -0.568100070602E-01
 -0.133644038111E+00
 -0.568100070602E-01
 -0.568100070602E-01
  0.000000000000E+00
 -0.568100070602E-01
  0.000000000000E+00
 -0.190646597720E+00
 -0.181715999043E+00
 -0.190646597720E+00
 -0.181715999043E+00
 -0.175572834944E+00
 -0.190646597720E+00
 -0.175572834944E+00
 -0.190646597720E+00
 -0.173149028686E+00
 -0.175572834944E+00
 -0.173149028686E+00
 -0.175572834944E+00
 -0.135396864556E+00
 -0.173149028686E+00
 -0.135396864556E+00
 -0.173149028686E+00
 -0.968951780125E-01
 -0.135396864556E+00
 -0.968951780125E-01
 -0.135396864556E+00
 -0.629049802886E-01
 -0.968951780125E-01
 -0.629049802886E-01
 -0.968951780125E-01
 -0.380348745204E-01
 -0.629049802886E-01
 -0.380348745204E-01
 -0.629049802886E-01
 -0.189223415928E-01
 -0.380348745204E-01
 -0.189223415928E-01
 -0.380348745204E-01
  0.000000000000E+00
 -0.189223415928E-01
  0.000000000000E+00
 -0.189223415928E-01
 -0.181715999043E+00
 -0.181523450740E+00
 -0.181715999043E+00
 -0.181523450740E+00
 -0.181523450740E+00
 -0.172678069173E+00
 -0.181523450740E+00
 -0.172678069173E+00
 -0.172678069173E+00
 -0.167547135528E+00
 -0.172678069173E+00
 -0.167547135528E+00
 -0.167547135528E+00
 -0.148222820470E+00
 -0.167547135528E+00
 -0.148222820470E+00
 -0.148222820470E+00
 -0.112116989544E+00
 -0.148222820470E+00
 -0.112116989544E+00
 -0.112116989544E+00
 -0.737517105641E-01
 -0.112116989544E+00
 -0.737517105641E-01
 -0.737517105641E-01
 -0.431941962790E-01
 -0.737517105641E-01
 -0.431941962790E-01
 -0.431941962790E-01
 -0.191767672494E-01
 -0.431941962790E-01
 -0.191767672494E-01
 -0.191767672494E-01
  0.000000000000E+00
 -0.191767672494E-01
  0.000000000000E+00
