# vtk DataFile Version 3.0
MachLine results file. Generated by MachLine, USU AeroLab (c) 2023.
ASCII
DATASET POLYDATA
POINTS                  96 float
  0.412725081190E+01  0.198921910030E+01  0.000000000000E+00
  0.400000000000E+01  0.000000000000E+00  0.000000000000E+00
  0.597748169962E+03  0.198921910030E+01  0.519351008575E+02
  0.597747203349E+03  0.000000000000E+00  0.519461492933E+02
  0.428117065600E+01  0.439533572420E+01  0.000000000000E+00
  0.412725081190E+01  0.198921910030E+01  0.000000000000E+00
  0.597749339156E+03  0.439533572420E+01  0.519217369072E+02
  0.597748169962E+03  0.198921910030E+01  0.519351008575E+02
  0.442646822840E+01  0.666666666670E+01  0.000000000000E+00
  0.428117065600E+01  0.439533572420E+01  0.000000000000E+00
  0.597750442854E+03  0.666666666670E+01  0.519091215779E+02
  0.597749339156E+03  0.439533572420E+01  0.519217369072E+02
  0.453484266820E+01  0.836080521370E+01  0.000000000000E+00
  0.442646822840E+01  0.666666666670E+01  0.000000000000E+00
  0.597751266080E+03  0.836080521370E+01  0.518997120659E+02
  0.597750442854E+03  0.666666666670E+01  0.519091215779E+02
  0.460231120180E+01  0.941549157580E+01  0.000000000000E+00
  0.453484266820E+01  0.836080521370E+01  0.000000000000E+00
  0.597751778579E+03  0.941549157580E+01  0.518938541720E+02
  0.597751266080E+03  0.836080521370E+01  0.518997120659E+02
  0.400000000000E+01  0.000000000000E+00  0.000000000000E+00
  0.412725081190E+01 -0.198921910030E+01  0.000000000000E+00
  0.597747203349E+03  0.000000000000E+00  0.519461492933E+02
  0.597748169962E+03 -0.198921910030E+01  0.519351008575E+02
  0.412725081190E+01 -0.198921910030E+01  0.000000000000E+00
  0.428117065600E+01 -0.439533572420E+01  0.000000000000E+00
  0.597748169962E+03 -0.198921910030E+01  0.519351008575E+02
  0.597749339156E+03 -0.439533572420E+01  0.519217369072E+02
  0.463970234270E+01  0.100000000000E+02  0.000000000000E+00
  0.460231120180E+01  0.941549157580E+01  0.000000000000E+00
  0.597752062607E+03  0.100000000000E+02  0.518906077202E+02
  0.597751778579E+03  0.941549157580E+01  0.518938541720E+02
  0.442646822840E+01 -0.666666666670E+01  0.000000000000E+00
  0.453484266820E+01 -0.836080521370E+01  0.000000000000E+00
  0.597750442854E+03 -0.666666666670E+01  0.519091215779E+02
  0.597751266080E+03 -0.836080521370E+01  0.518997120659E+02
  0.428117065600E+01 -0.439533572420E+01  0.000000000000E+00
  0.442646822840E+01 -0.666666666670E+01  0.000000000000E+00
  0.597749339156E+03 -0.439533572420E+01  0.519217369072E+02
  0.597750442854E+03 -0.666666666670E+01  0.519091215779E+02
  0.453484266820E+01 -0.836080521370E+01  0.000000000000E+00
  0.460231120180E+01 -0.941549157580E+01  0.000000000000E+00
  0.597751266080E+03 -0.836080521370E+01  0.518997120659E+02
  0.597751778579E+03 -0.941549157580E+01  0.518938541720E+02
  0.460231120180E+01 -0.941549157580E+01  0.000000000000E+00
  0.463970234270E+01 -0.100000000000E+02  0.000000000000E+00
  0.597751778579E+03 -0.941549157580E+01  0.518938541720E+02
  0.597752062607E+03 -0.100000000000E+02  0.518906077202E+02
  0.120636254060E+02  0.994609550170E+00  0.200000000000E+01
  0.120000000000E+02  0.000000000000E+00  0.200000000000E+01
  0.597634807466E+03  0.994609550170E+00  0.532308401177E+02
  0.597634324159E+03  0.000000000000E+00  0.532363643356E+02
  0.121405853280E+02  0.219766786210E+01  0.200000000000E+01
  0.120636254060E+02  0.994609550170E+00  0.200000000000E+01
  0.597635392063E+03  0.219766786210E+01  0.532241581426E+02
  0.597634807466E+03  0.994609550170E+00  0.532308401177E+02
  0.122674213340E+02  0.418040260690E+01  0.200000000000E+01
  0.122132341140E+02  0.333333333330E+01  0.200000000000E+01
  0.597636355525E+03  0.418040260690E+01  0.532131457219E+02
  0.597635943912E+03  0.333333333330E+01  0.532178504779E+02
  0.122132341140E+02  0.333333333330E+01  0.200000000000E+01
  0.121405853280E+02  0.219766786210E+01  0.200000000000E+01
  0.597635943912E+03  0.333333333330E+01  0.532178504779E+02
  0.597635392063E+03  0.219766786210E+01  0.532241581426E+02
  0.123198511710E+02  0.500000000000E+01  0.200000000000E+01
  0.123011556010E+02  0.470774578790E+01  0.200000000000E+01
  0.597636753788E+03  0.500000000000E+01  0.532085935491E+02
  0.597636611774E+03  0.470774578790E+01  0.532102167750E+02
  0.123011556010E+02  0.470774578790E+01  0.200000000000E+01
  0.122674213340E+02  0.418040260690E+01  0.200000000000E+01
  0.597636611774E+03  0.470774578790E+01  0.532102167750E+02
  0.597636355525E+03  0.418040260690E+01  0.532131457219E+02
  0.120000000000E+02  0.000000000000E+00  0.200000000000E+01
  0.120636254060E+02 -0.994609550170E+00  0.200000000000E+01
  0.597634324159E+03  0.000000000000E+00  0.532363643356E+02
  0.597634807466E+03 -0.994609550170E+00  0.532308401177E+02
  0.120636254060E+02 -0.994609550170E+00  0.200000000000E+01
  0.121405853280E+02 -0.219766786210E+01  0.200000000000E+01
  0.597634807466E+03 -0.994609550170E+00  0.532308401177E+02
  0.597635392063E+03 -0.219766786210E+01  0.532241581426E+02
  0.121405853280E+02 -0.219766786210E+01  0.200000000000E+01
  0.122132341140E+02 -0.333333333330E+01  0.200000000000E+01
  0.597635392063E+03 -0.219766786210E+01  0.532241581426E+02
  0.597635943912E+03 -0.333333333330E+01  0.532178504779E+02
  0.122132341140E+02 -0.333333333330E+01  0.200000000000E+01
  0.122674213340E+02 -0.418040260690E+01  0.200000000000E+01
  0.597635943912E+03 -0.333333333330E+01  0.532178504779E+02
  0.597636355525E+03 -0.418040260690E+01  0.532131457219E+02
  0.122674213340E+02 -0.418040260690E+01  0.200000000000E+01
  0.123011556010E+02 -0.470774578790E+01  0.200000000000E+01
  0.597636355525E+03 -0.418040260690E+01  0.532131457219E+02
  0.597636611774E+03 -0.470774578790E+01  0.532102167750E+02
  0.123011556010E+02 -0.470774578790E+01  0.200000000000E+01
  0.123198511710E+02 -0.500000000000E+01  0.200000000000E+01
  0.597636611774E+03 -0.470774578790E+01  0.532102167750E+02
  0.597636753788E+03 -0.500000000000E+01  0.532085935491E+02
POLYGONS                  48                 192
3                   0                   3                   1
3                   0                   2                   3
3                   4                   7                   5
3                   4                   6                   7
3                   8                  11                   9
3                   8                  10                  11
3                  12                  15                  13
3                  12                  14                  15
3                  16                  19                  17
3                  16                  18                  19
3                  20                  22                  21
3                  22                  23                  21
3                  24                  26                  25
3                  26                  27                  25
3                  28                  31                  29
3                  28                  30                  31
3                  32                  34                  33
3                  34                  35                  33
3                  36                  38                  37
3                  38                  39                  37
3                  40                  42                  41
3                  42                  43                  41
3                  44                  46                  45
3                  46                  47                  45
3                  48                  51                  49
3                  48                  50                  51
3                  52                  55                  53
3                  52                  54                  55
3                  56                  59                  57
3                  56                  58                  59
3                  60                  63                  61
3                  60                  62                  63
3                  64                  67                  65
3                  64                  66                  67
3                  68                  71                  69
3                  68                  70                  71
3                  72                  74                  73
3                  74                  75                  73
3                  76                  78                  77
3                  78                  79                  77
3                  80                  82                  81
3                  82                  83                  81
3                  84                  86                  85
3                  86                  87                  85
3                  88                  90                  89
3                  90                  91                  89
3                  92                  94                  93
3                  94                  95                  93
POINT_DATA                  96
SCALARS mu float 1
LOOKUP_TABLE default
 -0.501051876560E+00
 -0.517720273001E+00
 -0.501051876560E+00
 -0.517720273001E+00
 -0.422406632717E+00
 -0.501051876560E+00
 -0.422406632717E+00
 -0.501051876560E+00
 -0.295597907246E+00
 -0.422406632717E+00
 -0.295597907246E+00
 -0.422406632717E+00
 -0.163729735942E+00
 -0.295597907246E+00
 -0.163729735942E+00
 -0.295597907246E+00
 -0.653195179723E-01
 -0.163729735942E+00
 -0.653195179723E-01
 -0.163729735942E+00
 -0.517720273001E+00
 -0.490771451861E+00
 -0.517720273001E+00
 -0.490771451861E+00
 -0.490771451861E+00
 -0.416561015775E+00
 -0.490771451861E+00
 -0.416561015775E+00
  0.000000000000E+00
 -0.653195179723E-01
  0.000000000000E+00
 -0.653195179723E-01
 -0.297720897542E+00
 -0.165593263953E+00
 -0.297720897542E+00
 -0.165593263953E+00
 -0.416561015775E+00
 -0.297720897542E+00
 -0.416561015775E+00
 -0.297720897542E+00
 -0.165593263953E+00
 -0.654919095409E-01
 -0.165593263953E+00
 -0.654919095409E-01
 -0.654919095409E-01
  0.000000000000E+00
 -0.654919095409E-01
  0.000000000000E+00
 -0.180942167365E+00
 -0.201810593051E+00
 -0.180942167365E+00
 -0.201810593051E+00
 -0.153059616927E+00
 -0.180942167365E+00
 -0.153059616927E+00
 -0.180942167365E+00
 -0.605021853111E-01
 -0.108038670434E+00
 -0.605021853111E-01
 -0.108038670434E+00
 -0.108038670434E+00
 -0.153059616927E+00
 -0.108038670434E+00
 -0.153059616927E+00
  0.000000000000E+00
 -0.263016105044E-01
  0.000000000000E+00
 -0.263016105044E-01
 -0.263016105044E-01
 -0.605021853111E-01
 -0.263016105044E-01
 -0.605021853111E-01
 -0.201810593051E+00
 -0.181699948692E+00
 -0.201810593051E+00
 -0.181699948692E+00
 -0.181699948692E+00
 -0.153872468808E+00
 -0.181699948692E+00
 -0.153872468808E+00
 -0.153872468808E+00
 -0.109005185649E+00
 -0.153872468808E+00
 -0.109005185649E+00
 -0.109005185649E+00
 -0.605029180300E-01
 -0.109005185649E+00
 -0.605029180300E-01
 -0.605029180300E-01
 -0.241368597913E-01
 -0.605029180300E-01
 -0.241368597913E-01
 -0.241368597913E-01
  0.000000000000E+00
 -0.241368597913E-01
  0.000000000000E+00
