# vtk DataFile Version 3.0
MachLine results file. Generated by MachLine, USU AeroLab (c) 2023.
ASCII
DATASET POLYDATA
POINTS                 312 float
  0.401692042340E+01  0.264504634760E+00  0.000000000000E+00
  0.400000000000E+01  0.000000000000E+00  0.000000000000E+00
  0.597747331879E+03  0.264504634760E+00  0.519446801929E+02
  0.597747203349E+03  0.000000000000E+00  0.519461492933E+02
  0.403486690140E+01  0.545048831540E+00  0.000000000000E+00
  0.401692042340E+01  0.264504634760E+00  0.000000000000E+00
  0.597747468202E+03  0.545048831540E+00  0.519431220063E+02
  0.597747331879E+03  0.264504634760E+00  0.519446801929E+02
  0.405381375380E+01  0.841231150700E+00  0.000000000000E+00
  0.403486690140E+01  0.545048831540E+00  0.000000000000E+00
  0.597747612125E+03  0.841231150700E+00  0.519414769631E+02
  0.597747468202E+03  0.545048831540E+00  0.519431220063E+02
  0.407371924820E+01  0.115239922240E+01  0.000000000000E+00
  0.405381375380E+01  0.841231150700E+00  0.000000000000E+00
  0.597747763330E+03  0.115239922240E+01  0.519397486867E+02
  0.597747612125E+03  0.841231150700E+00  0.519414769631E+02
  0.409452482890E+01  0.147763768510E+01  0.000000000000E+00
  0.407371924820E+01  0.115239922240E+01  0.000000000000E+00
  0.597747921371E+03  0.147763768510E+01  0.519379422611E+02
  0.597747763330E+03  0.115239922240E+01  0.519397486867E+02
  0.411615486080E+01  0.181576419370E+01  0.000000000000E+00
  0.409452482890E+01  0.147763768510E+01  0.000000000000E+00
  0.597748085676E+03  0.181576419370E+01  0.519360642533E+02
  0.597747921371E+03  0.147763768510E+01  0.519379422611E+02
  0.413851697580E+01  0.216533482230E+01  0.000000000000E+00
  0.411615486080E+01  0.181576419370E+01  0.000000000000E+00
  0.597748255541E+03  0.216533482230E+01  0.519341226830E+02
  0.597748085676E+03  0.181576419370E+01  0.519360642533E+02
  0.416150307420E+01  0.252465972780E+01  0.000000000000E+00
  0.413851697580E+01  0.216533482230E+01  0.000000000000E+00
  0.597748430146E+03  0.252465972780E+01  0.519321269360E+02
  0.597748255541E+03  0.216533482230E+01  0.519341226830E+02
  0.418499100020E+01  0.289182933850E+01  0.000000000000E+00
  0.416150307420E+01  0.252465972780E+01  0.000000000000E+00
  0.597748608564E+03  0.289182933850E+01  0.519300876182E+02
  0.597748430146E+03  0.252465972780E+01  0.519321269360E+02
  0.420884686150E+01  0.326475061230E+01  0.000000000000E+00
  0.418499100020E+01  0.289182933850E+01  0.000000000000E+00
  0.597748789776E+03  0.326475061230E+01  0.519280163548E+02
  0.597748608564E+03  0.289182933850E+01  0.519300876182E+02
  0.423292791570E+01  0.364119216300E+01  0.000000000000E+00
  0.420884686150E+01  0.326475061230E+01  0.000000000000E+00
  0.597748972698E+03  0.364119216300E+01  0.519259255392E+02
  0.597748789776E+03  0.326475061230E+01  0.519280163548E+02
  0.425708590190E+01  0.401883633540E+01  0.000000000000E+00
  0.423292791570E+01  0.364119216300E+01  0.000000000000E+00
  0.597749156205E+03  0.401883633540E+01  0.519238280441E+02
  0.597748972698E+03  0.364119216300E+01  0.519259255392E+02
  0.428117065600E+01  0.439533572420E+01  0.000000000000E+00
  0.425708590190E+01  0.401883633540E+01  0.000000000000E+00
  0.597749339156E+03  0.439533572420E+01  0.519217369072E+02
  0.597749156205E+03  0.401883633540E+01  0.519238280441E+02
  0.430503382570E+01  0.476837124670E+01  0.000000000000E+00
  0.428117065600E+01  0.439533572420E+01  0.000000000000E+00
  0.597749520424E+03  0.476837124670E+01  0.519196650093E+02
  0.597749339156E+03  0.439533572420E+01  0.519217369072E+02
  0.432853249100E+01  0.513570873580E+01  0.000000000000E+00
  0.430503382570E+01  0.476837124670E+01  0.000000000000E+00
  0.597749698922E+03  0.513570873580E+01  0.519176247591E+02
  0.597749520424E+03  0.476837124670E+01  0.519196650093E+02
  0.435153250390E+01  0.549525115750E+01  0.000000000000E+00
  0.432853249100E+01  0.513570873580E+01  0.000000000000E+00
  0.597749873633E+03  0.549525115750E+01  0.519156278039E+02
  0.597749698922E+03  0.513570873580E+01  0.519176247591E+02
  0.437391138860E+01  0.584508393390E+01  0.000000000000E+00
  0.435153250390E+01  0.549525115750E+01  0.000000000000E+00
  0.597750043626E+03  0.584508393390E+01  0.519136847776E+02
  0.597749873633E+03  0.549525115750E+01  0.519156278039E+02
  0.439556067530E+01  0.618351143850E+01  0.000000000000E+00
  0.437391138860E+01  0.584508393390E+01  0.000000000000E+00
  0.597750208077E+03  0.618351143850E+01  0.519118050980E+02
  0.597750043626E+03  0.584508393390E+01  0.519136847776E+02
  0.441638759260E+01  0.650908344170E+01  0.000000000000E+00
  0.439556067530E+01  0.618351143850E+01  0.000000000000E+00
  0.597750366281E+03  0.650908344170E+01  0.519099968199E+02
  0.597750208077E+03  0.618351143850E+01  0.519118050980E+02
  0.443631608570E+01  0.682061103410E+01  0.000000000000E+00
  0.441638759260E+01  0.650908344170E+01  0.000000000000E+00
  0.597750517660E+03  0.682061103410E+01  0.519082665467E+02
  0.597750366281E+03  0.650908344170E+01  0.519099968199E+02
  0.445528717770E+01  0.711717227390E+01  0.000000000000E+00
  0.443631608570E+01  0.682061103410E+01  0.000000000000E+00
  0.597750661767E+03  0.711717227390E+01  0.519066193989E+02
  0.597750517660E+03  0.682061103410E+01  0.519082665467E+02
  0.447325872830E+01  0.739810841310E+01  0.000000000000E+00
  0.445528717770E+01  0.711717227390E+01  0.000000000000E+00
  0.597750798281E+03  0.739810841310E+01  0.519050590354E+02
  0.597750661767E+03  0.711717227390E+01  0.519066193989E+02
  0.449020467390E+01  0.766301201650E+01  0.000000000000E+00
  0.447325872830E+01  0.739810841310E+01  0.000000000000E+00
  0.597750927004E+03  0.766301201650E+01  0.519035877191E+02
  0.597750798281E+03  0.739810841310E+01  0.519050590354E+02
  0.450611385120E+01  0.791170857900E+01  0.000000000000E+00
  0.449020467390E+01  0.766301201650E+01  0.000000000000E+00
  0.597751047852E+03  0.791170857900E+01  0.519022064193E+02
  0.597750927004E+03  0.766301201650E+01  0.519035877191E+02
  0.452098851660E+01  0.814423337060E+01  0.000000000000E+00
  0.450611385120E+01  0.791170857900E+01  0.000000000000E+00
  0.597751160842E+03  0.814423337060E+01  0.519009149400E+02
  0.597751047852E+03  0.791170857900E+01  0.519022064193E+02
  0.453484266820E+01  0.836080521370E+01  0.000000000000E+00
  0.452098851660E+01  0.814423337060E+01  0.000000000000E+00
  0.597751266080E+03  0.836080521370E+01  0.518997120659E+02
  0.597751160842E+03  0.814423337060E+01  0.519009149400E+02
  0.454770027250E+01  0.856179876160E+01  0.000000000000E+00
  0.453484266820E+01  0.836080521370E+01  0.000000000000E+00
  0.597751363748E+03  0.856179876160E+01  0.518985957161E+02
  0.597751266080E+03  0.836080521370E+01  0.518997120659E+02
  0.455959348210E+01  0.874771662970E+01  0.000000000000E+00
  0.454770027250E+01  0.856179876160E+01  0.000000000000E+00
  0.597751454090E+03  0.874771662970E+01  0.518975630991E+02
  0.597751363748E+03  0.856179876160E+01  0.518985957161E+02
  0.457056091290E+01  0.891916247380E+01  0.000000000000E+00
  0.455959348210E+01  0.874771662970E+01  0.000000000000E+00
  0.597751537400E+03  0.891916247380E+01  0.518966108619E+02
  0.597751454090E+03  0.874771662970E+01  0.518975630991E+02
  0.458064603550E+01  0.907681583680E+01  0.000000000000E+00
  0.457056091290E+01  0.891916247380E+01  0.000000000000E+00
  0.597751614008E+03  0.907681583680E+01  0.518957352303E+02
  0.597751537400E+03  0.891916247380E+01  0.518966108619E+02
  0.458989571510E+01  0.922140932980E+01  0.000000000000E+00
  0.458064603550E+01  0.907681583680E+01  0.000000000000E+00
  0.597751684270E+03  0.922140932980E+01  0.518949321353E+02
  0.597751614008E+03  0.907681583680E+01  0.518957352303E+02
  0.459835892270E+01  0.935370847930E+01  0.000000000000E+00
  0.458989571510E+01  0.922140932980E+01  0.000000000000E+00
  0.597751748557E+03  0.935370847930E+01  0.518941973250E+02
  0.597751684270E+03  0.922140932980E+01  0.518949321353E+02
  0.460608562500E+01  0.947449437990E+01  0.000000000000E+00
  0.459835892270E+01  0.935370847930E+01  0.000000000000E+00
  0.597751807250E+03  0.947449437990E+01  0.518935264611E+02
  0.597751748557E+03  0.935370847930E+01  0.518941973250E+02
  0.461312585380E+01  0.958454914020E+01  0.000000000000E+00
  0.460608562500E+01  0.947449437990E+01  0.000000000000E+00
  0.597751860729E+03  0.958454914020E+01  0.518929151997E+02
  0.597751807250E+03  0.947449437990E+01  0.518935264611E+02
  0.461952894500E+01  0.968464399310E+01  0.000000000000E+00
  0.461312585380E+01  0.958454914020E+01  0.000000000000E+00
  0.597751909367E+03  0.968464399310E+01  0.518923592571E+02
  0.597751860729E+03  0.958454914020E+01  0.518929151997E+02
  0.462534293570E+01  0.977552986720E+01  0.000000000000E+00
  0.461952894500E+01  0.968464399310E+01  0.000000000000E+00
  0.597751953531E+03  0.977552986720E+01  0.518918544627E+02
  0.597751909367E+03  0.968464399310E+01  0.518923592571E+02
  0.463061410220E+01  0.985793016740E+01  0.000000000000E+00
  0.462534293570E+01  0.977552986720E+01  0.000000000000E+00
  0.597751993572E+03  0.985793016740E+01  0.518913967984E+02
  0.597751953531E+03  0.977552986720E+01  0.518918544627E+02
  0.463538662220E+01  0.993253549070E+01  0.000000000000E+00
  0.463061410220E+01  0.985793016740E+01  0.000000000000E+00
  0.597752029824E+03  0.993253549070E+01  0.518909824287E+02
  0.597751993572E+03  0.985793016740E+01  0.518913967984E+02
  0.463970234270E+01  0.100000000000E+02  0.000000000000E+00
  0.463538662220E+01  0.993253549070E+01  0.000000000000E+00
  0.597752062607E+03  0.100000000000E+02  0.518906077202E+02
  0.597752029824E+03  0.993253549070E+01  0.518909824287E+02
  0.400000000000E+01  0.000000000000E+00  0.000000000000E+00
  0.401692042340E+01 -0.264504634760E+00  0.000000000000E+00
  0.597747203349E+03  0.000000000000E+00  0.519461492933E+02
  0.597747331879E+03 -0.264504634760E+00  0.519446801929E+02
  0.401692042340E+01 -0.264504634760E+00  0.000000000000E+00
[...]
POINT_DATA                 312
SCALARS mu float 1
LOOKUP_TABLE default
 -0.940247923906E+00
 -0.950280246091E+00
 -0.940247923906E+00
 -0.950280246091E+00
 -0.932778039515E+00
 -0.940247923906E+00
 -0.932778039515E+00
 -0.940247923906E+00
 -0.898369288431E+00
 -0.932778039515E+00
 -0.898369288431E+00
 -0.932778039515E+00
 -0.872781248070E+00
 -0.898369288431E+00
 -0.872781248070E+00
 -0.898369288431E+00
 -0.868416163520E+00
 -0.872781248070E+00
 -0.868416163520E+00
 -0.872781248070E+00
 -0.839058330781E+00
 -0.868416163520E+00
 -0.839058330781E+00
 -0.868416163520E+00
 -0.835870758453E+00
 -0.839058330781E+00
 -0.835870758453E+00
 -0.839058330781E+00
 -0.835348626314E+00
 -0.835870758453E+00
 -0.835348626314E+00
 -0.835870758453E+00
 -0.829374416355E+00
 -0.835348626314E+00
 -0.829374416355E+00
 -0.835348626314E+00
 -0.834014249676E+00
 -0.829374416355E+00
 -0.834014249676E+00
 -0.829374416355E+00
 -0.801881211190E+00
 -0.834014249676E+00
 -0.801881211190E+00
 -0.834014249676E+00
 -0.784113350515E+00
 -0.801881211190E+00
 -0.784113350515E+00
 -0.801881211190E+00
 -0.750193877031E+00
 -0.784113350515E+00
 -0.750193877031E+00
 -0.784113350515E+00
 -0.718598401857E+00
 -0.750193877031E+00
 -0.718598401857E+00
 -0.750193877031E+00
 -0.686082019714E+00
 -0.718598401857E+00
 -0.686082019714E+00
 -0.718598401857E+00
 -0.671001786566E+00
 -0.686082019714E+00
 -0.671001786566E+00
 -0.686082019714E+00
 -0.633368645778E+00
 -0.671001786566E+00
 -0.633368645778E+00
 -0.671001786566E+00
 -0.581464376288E+00
 -0.633368645778E+00
 -0.581464376288E+00
 -0.633368645778E+00
 -0.543575055890E+00
 -0.581464376288E+00
 -0.543575055890E+00
 -0.581464376288E+00
 -0.515879270226E+00
 -0.543575055890E+00
 -0.515879270226E+00
 -0.543575055890E+00
 -0.477252678762E+00
 -0.515879270226E+00
 -0.477252678762E+00
 -0.515879270226E+00
 -0.439819026870E+00
 -0.477252678762E+00
 -0.439819026870E+00
 -0.477252678762E+00
 -0.402300065554E+00
 -0.439819026870E+00
 -0.402300065554E+00
 -0.439819026870E+00
 -0.359372006216E+00
 -0.402300065554E+00
 -0.359372006216E+00
 -0.402300065554E+00
 -0.323333394225E+00
 -0.359372006216E+00
 -0.323333394225E+00
 -0.359372006216E+00
 -0.290784388464E+00
 -0.323333394225E+00
 -0.290784388464E+00
 -0.323333394225E+00
 -0.260407543458E+00
 -0.290784388464E+00
 -0.260407543458E+00
 -0.290784388464E+00
 -0.230284658981E+00
 -0.260407543458E+00
 -0.230284658981E+00
 -0.260407543458E+00
 -0.205595067264E+00
 -0.230284658981E+00
 -0.205595067264E+00
 -0.230284658981E+00
 -0.180331210509E+00
 -0.205595067264E+00
 -0.180331210509E+00
 -0.205595067264E+00
 -0.154261248763E+00
 -0.180331210509E+00
 -0.154261248763E+00
 -0.180331210509E+00
 -0.131520542881E+00
 -0.154261248763E+00
 -0.131520542881E+00
 -0.154261248763E+00
 -0.109885146633E+00
 -0.131520542881E+00
 -0.109885146633E+00
 -0.131520542881E+00
 -0.891442372391E-01
 -0.109885146633E+00
 -0.891442372391E-01
 -0.109885146633E+00
 -0.698730984434E-01
 -0.891442372391E-01
 -0.698730984434E-01
 -0.891442372391E-01
 -0.519454527945E-01
 -0.698730984434E-01
 -0.519454527945E-01
 -0.698730984434E-01
 -0.344192838337E-01
 -0.519454527945E-01
 -0.344192838337E-01
 -0.519454527945E-01
 -0.174040524645E-01
 -0.344192838337E-01
 -0.174040524645E-01
 -0.344192838337E-01
  0.000000000000E+00
 -0.174040524645E-01
  0.000000000000E+00
 -0.174040524645E-01
 -0.950280246091E+00
 -0.941166134854E+00
 -0.950280246091E+00
 -0.941166134854E+00
 -0.941166134854E+00
 -0.936827409710E+00
 -0.941166134854E+00
 -0.936827409710E+00
 -0.936827409710E+00
 -0.901161915977E+00
 -0.936827409710E+00
 -0.901161915977E+00
 -0.901161915977E+00
 -0.875652702594E+00
 -0.901161915977E+00
 -0.875652702594E+00
 -0.875652702594E+00
 -0.872578191716E+00
 -0.875652702594E+00
 -0.872578191716E+00
 -0.872578191716E+00
 -0.845197992396E+00
 -0.872578191716E+00
 -0.845197992396E+00
 -0.845197992396E+00
 -0.838857425907E+00
 -0.845197992396E+00
 -0.838857425907E+00
 -0.838857425907E+00
 -0.836707068566E+00
 -0.838857425907E+00
 -0.836707068566E+00
 -0.836707068566E+00
 -0.831066156577E+00
 -0.836707068566E+00
 -0.831066156577E+00
 -0.831066156577E+00
 -0.835457643985E+00
 -0.831066156577E+00
 -0.835457643985E+00
 -0.835457643985E+00
 -0.803467186671E+00
 -0.835457643985E+00
 -0.803467186671E+00
 -0.803467186671E+00
 -0.784875895034E+00
 -0.803467186671E+00
 -0.784875895034E+00
 -0.784875895034E+00
 -0.751898914484E+00
 -0.784875895034E+00
 -0.751898914484E+00
 -0.751898914484E+00
 -0.721917635721E+00
 -0.751898914484E+00
 -0.721917635721E+00
 -0.721917635721E+00
 -0.686877300491E+00
 -0.721917635721E+00
 -0.686877300491E+00
 -0.686877300491E+00
 -0.668692204382E+00
 -0.686877300491E+00
 -0.668692204382E+00
 -0.668692204382E+00
 -0.632011553514E+00
 -0.668692204382E+00
 -0.632011553514E+00
 -0.632011553514E+00
 -0.584934847392E+00
 -0.632011553514E+00
 -0.584934847392E+00
 -0.584934847392E+00
 -0.545266680830E+00
 -0.584934847392E+00
 -0.545266680830E+00
 -0.545266680830E+00
 -0.517886717974E+00
 -0.545266680830E+00
 -0.517886717974E+00
 -0.517886717974E+00
 -0.481310806264E+00
 -0.517886717974E+00
 -0.481310806264E+00
 -0.481310806264E+00
 -0.442837411973E+00
 -0.481310806264E+00
 -0.442837411973E+00
 -0.442837411973E+00
 -0.404025083263E+00
 -0.442837411973E+00
 -0.404025083263E+00
 -0.404025083263E+00
 -0.360610093438E+00
 -0.404025083263E+00
 -0.360610093438E+00
 -0.360610093438E+00
 -0.324069769177E+00
 -0.360610093438E+00
 -0.324069769177E+00
 -0.324069769177E+00
 -0.291167716717E+00
 -0.324069769177E+00
 -0.291167716717E+00
 -0.291167716717E+00
 -0.261150168304E+00
 -0.291167716717E+00
 -0.261150168304E+00
 -0.261150168304E+00
 -0.230454451892E+00
 -0.261150168304E+00
 -0.230454451892E+00
 -0.230454451892E+00
 -0.204969990761E+00
 -0.230454451892E+00
 -0.204969990761E+00
 -0.204969990761E+00
 -0.180127118712E+00
 -0.204969990761E+00
 -0.180127118712E+00
 -0.180127118712E+00
 -0.154155255398E+00
 -0.180127118712E+00
 -0.154155255398E+00
 -0.154155255398E+00
 -0.131751839412E+00
 -0.154155255398E+00
 -0.131751839412E+00
 -0.131751839412E+00
 -0.109951260770E+00
 -0.131751839412E+00
 -0.109951260770E+00
 -0.109951260770E+00
 -0.892588553462E-01
 -0.109951260770E+00
 -0.892588553462E-01
 -0.892588553462E-01
 -0.699400271708E-01
 -0.892588553462E-01
 -0.699400271708E-01
 -0.699400271708E-01
 -0.519816415811E-01
 -0.699400271708E-01
 -0.519816415811E-01
 -0.519816415811E-01
 -0.344432342957E-01
 -0.519816415811E-01
 -0.344432342957E-01
 -0.344432342957E-01
 -0.174156179320E-01
 -0.344432342957E-01
 -0.174156179320E-01
 -0.174156179320E-01
  0.000000000000E+00
 -0.174156179320E-01
  0.000000000000E+00
