# vtk DataFile Version 3.0
MachLine results file. Generated by MachLine, USU AeroLab (c) 2023.
ASCII
DATASET POLYDATA
POINTS                  48 float
  0.412725081190E+01  0.198921910030E+01  0.000000000000E+00
  0.400000000000E+01  0.000000000000E+00  0.000000000000E+00
  0.597748169962E+03  0.198921910030E+01  0.519351008575E+02
  0.597747203349E+03  0.000000000000E+00  0.519461492933E+02
  0.442646822840E+01  0.666666666670E+01  0.000000000000E+00
  0.428117065600E+01  0.439533572420E+01  0.000000000000E+00
  0.597750442854E+03  0.666666666670E+01  0.519091215779E+02
  0.597749339156E+03  0.439533572420E+01  0.519217369072E+02
  0.428117065600E+01  0.439533572420E+01  0.000000000000E+00
  0.412725081190E+01  0.198921910030E+01  0.000000000000E+00
  0.597749339156E+03  0.439533572420E+01  0.519217369072E+02
  0.597748169962E+03  0.198921910030E+01  0.519351008575E+02
  0.453484266820E+01  0.836080521370E+01  0.000000000000E+00
  0.442646822840E+01  0.666666666670E+01  0.000000000000E+00
  0.597751266080E+03  0.836080521370E+01  0.518997120659E+02
  0.597750442854E+03  0.666666666670E+01  0.519091215779E+02
  0.463970234270E+01  0.100000000000E+02  0.000000000000E+00
  0.460231120180E+01  0.941549157580E+01  0.000000000000E+00
  0.597752062607E+03  0.100000000000E+02  0.518906077202E+02
  0.597751778579E+03  0.941549157580E+01  0.518938541720E+02
  0.460231120180E+01  0.941549157580E+01  0.000000000000E+00
  0.453484266820E+01  0.836080521370E+01  0.000000000000E+00
  0.597751778579E+03  0.941549157580E+01  0.518938541720E+02
  0.597751266080E+03  0.836080521370E+01  0.518997120659E+02
  0.400000000000E+01  0.000000000000E+00  0.000000000000E+00
  0.412725081190E+01 -0.198921910030E+01  0.000000000000E+00
  0.597747203349E+03  0.000000000000E+00  0.519461492933E+02
  0.597748169962E+03 -0.198921910030E+01  0.519351008575E+02
  0.428117065600E+01 -0.439533572420E+01  0.000000000000E+00
  0.442646822840E+01 -0.666666666670E+01  0.000000000000E+00
  0.597749339156E+03 -0.439533572420E+01  0.519217369072E+02
  0.597750442854E+03 -0.666666666670E+01  0.519091215779E+02
  0.442646822840E+01 -0.666666666670E+01  0.000000000000E+00
  0.453484266820E+01 -0.836080521370E+01  0.000000000000E+00
  0.597750442854E+03 -0.666666666670E+01  0.519091215779E+02
  0.597751266080E+03 -0.836080521370E+01  0.518997120659E+02
  0.453484266820E+01 -0.836080521370E+01  0.000000000000E+00
  0.460231120180E+01 -0.941549157580E+01  0.000000000000E+00
  0.597751266080E+03 -0.836080521370E+01  0.518997120659E+02
  0.597751778579E+03 -0.941549157580E+01  0.518938541720E+02
  0.460231120180E+01 -0.941549157580E+01  0.000000000000E+00
  0.463970234270E+01 -0.100000000000E+02  0.000000000000E+00
  0.597751778579E+03 -0.941549157580E+01  0.518938541720E+02
  0.597752062607E+03 -0.100000000000E+02  0.518906077202E+02
  0.412725081190E+01 -0.198921910030E+01  0.000000000000E+00
  0.428117065600E+01 -0.439533572420E+01  0.000000000000E+00
  0.597748169962E+03 -0.198921910030E+01  0.519351008575E+02
  0.597749339156E+03 -0.439533572420E+01  0.519217369072E+02
POLYGONS                  24                  96
3                   0                   3                   1
3                   0                   2                   3
3                   4                   7                   5
3                   4                   6                   7
3                   8                  11                   9
3                   8                  10                  11
3                  12                  15                  13
3                  12                  14                  15
3                  16                  19                  17
3                  16                  18                  19
3                  20                  23                  21
3                  20                  22                  23
3                  24                  26                  25
3                  26                  27                  25
3                  28                  30                  29
3                  30                  31                  29
3                  32                  34                  33
3                  34                  35                  33
3                  36                  38                  37
3                  38                  39                  37
3                  40                  42                  41
3                  42                  43                  41
3                  44                  46                  45
3                  46                  47                  45
POINT_DATA                  48
SCALARS mu float 1
LOOKUP_TABLE default
 -0.498738898391E+00
 -0.515667903954E+00
 -0.498738898391E+00
 -0.515667903954E+00
 -0.294240840030E+00
 -0.420469301668E+00
 -0.294240840030E+00
 -0.420469301668E+00
 -0.420469301668E+00
 -0.498738898391E+00
 -0.420469301668E+00
 -0.498738898391E+00
 -0.162989299079E+00
 -0.294240840030E+00
 -0.162989299079E+00
 -0.294240840030E+00
  0.000000000000E+00
 -0.650420636887E-01
  0.000000000000E+00
 -0.650420636887E-01
 -0.650420636887E-01
 -0.162989299079E+00
 -0.650420636887E-01
 -0.162989299079E+00
 -0.515667903954E+00
 -0.488430725864E+00
 -0.515667903954E+00
 -0.488430725864E+00
 -0.414623432618E+00
 -0.296350682731E+00
 -0.414623432618E+00
 -0.296350682731E+00
 -0.296350682731E+00
 -0.164858475133E+00
 -0.296350682731E+00
 -0.164858475133E+00
 -0.164858475133E+00
 -0.652093869639E-01
 -0.164858475133E+00
 -0.652093869639E-01
 -0.652093869639E-01
  0.000000000000E+00
 -0.652093869639E-01
  0.000000000000E+00
 -0.488430725864E+00
 -0.414623432618E+00
 -0.488430725864E+00
 -0.414623432618E+00
