# vtk DataFile Version 3.0
MachLine results file. Generated by MachLine, USU AeroLab (c) 2023.
ASCII
DATASET POLYDATA
POINTS                  37 float
  0.400000000000E+01  0.000000000000E+00  0.000000000000E+00
  0.258438382930E+01  0.317110120940E+01 -0.103002803560E+00
  0.420285608720E+01  0.317110120940E+01  0.000000000000E+00
  0.162996596140E+01  0.000000000000E+00 -0.150833694730E+00
  0.000000000000E+00  0.000000000000E+00  0.000000000000E+00
  0.147129657100E+01  0.317110120940E+01  0.000000000000E+00
  0.257331768900E+01  0.317110120940E+01  0.212716702140E+00
  0.161376109350E+01  0.000000000000E+00  0.311494881770E+00
  0.363645688220E+01  0.666666666670E+01 -0.502778982450E-01
  0.442646822840E+01  0.666666666670E+01  0.000000000000E+00
  0.309313489510E+01  0.666666666670E+01  0.000000000000E+00
  0.363105525960E+01  0.666666666670E+01  0.103831627260E+00
  0.432664189940E+01  0.895984098420E+01 -0.156891027470E-01
  0.457316312670E+01  0.895984098420E+01  0.000000000000E+00
  0.415709952040E+01  0.895984098420E+01  0.000000000000E+00
  0.432495633550E+01  0.895984098420E+01  0.324004209660E-01
  0.463970234270E+01  0.100000000000E+02  0.000000000000E+00
  0.420285608720E+01 -0.317110120940E+01  0.000000000000E+00
  0.258438382930E+01 -0.317110120940E+01 -0.103002803560E+00
  0.147129657100E+01 -0.317110120940E+01  0.000000000000E+00
  0.257331768900E+01 -0.317110120940E+01  0.212716702140E+00
  0.442646822840E+01 -0.666666666670E+01  0.000000000000E+00
  0.363645688220E+01 -0.666666666670E+01 -0.502778982450E-01
  0.309313489510E+01 -0.666666666670E+01  0.000000000000E+00
  0.363105525960E+01 -0.666666666670E+01  0.103831627260E+00
  0.457316312670E+01 -0.895984098420E+01  0.000000000000E+00
  0.432664189940E+01 -0.895984098420E+01 -0.156891027470E-01
  0.415709952040E+01 -0.895984098420E+01  0.000000000000E+00
  0.432495633550E+01 -0.895984098420E+01  0.324004209660E-01
  0.463970234270E+01 -0.100000000000E+02  0.000000000000E+00
  0.400000000000E+01  0.000000000000E+00  0.000000000000E+00
  0.420285608720E+01  0.317110120940E+01  0.000000000000E+00
  0.442646822840E+01  0.666666666670E+01  0.000000000000E+00
  0.457316312670E+01  0.895984098420E+01  0.000000000000E+00
  0.420285608720E+01 -0.317110120940E+01  0.000000000000E+00
  0.442646822840E+01 -0.666666666670E+01  0.000000000000E+00
  0.457316312670E+01 -0.895984098420E+01  0.000000000000E+00
POLYGONS                  56                 224
3                   0                   1                   2
3                   0                   3                   1
3                   3                   4                   1
3                   1                   4                   5
3                   4                   6                   5
3                   4                   7                   6
3                   7                  30                   6
3                   6                  30                  31
3                   2                   8                   9
3                   2                   1                   8
3                   1                   5                   8
3                   8                   5                  10
3                   5                  11                  10
3                   5                   6                  11
3                   6                  31                  11
3                  11                  31                  32
3                   9                  12                  13
3                   9                   8                  12
3                   8                  10                  12
3                  12                  10                  14
3                  10                  15                  14
3                  10                  11                  15
3                  11                  32                  15
3                  15                  32                  33
3                  13                  12                  16
3                  12                  14                  16
3                  14                  15                  16
3                  15                  33                  16
3                   0                  17                  18
3                   0                  18                   3
3                   3                  18                   4
3                  18                  19                   4
3                   4                  19                  20
3                   4                  20                   7
3                   7                  20                  30
3                  20                  34                  30
3                  17                  21                  22
3                  17                  22                  18
3                  18                  22                  19
3                  22                  23                  19
3                  19                  23                  24
3                  19                  24                  20
3                  20                  24                  34
3                  24                  35                  34
3                  21                  25                  26
3                  21                  26                  22
3                  22                  26                  23
3                  26                  27                  23
3                  23                  27                  28
3                  23                  28                  24
3                  24                  28                  35
3                  28                  36                  35
3                  25                  29                  26
3                  26                  29                  27
3                  27                  29                  28
3                  28                  29                  36
CELL_DATA                  56
NORMALS normals float
  0.635129764074E-01 -0.406293997878E-02 -0.997972742286E+00
  0.635129763992E-01 -0.406293998242E-02 -0.997972742287E+00
 -0.920601613245E-01  0.427131746151E-01 -0.994836927044E+00
 -0.920601613274E-01  0.427131746174E-01 -0.994836927044E+00
 -0.188797217501E+00  0.875962892321E-01  0.978101477750E+00
 -0.188797217505E+00  0.875962892357E-01  0.978101477749E+00
  0.129435394304E+00 -0.828001249691E-02  0.991553286563E+00
  0.129435394310E+00 -0.828001249440E-02  0.991553286563E+00
  0.635129764013E-01 -0.406293997940E-02 -0.997972742287E+00
  0.635129764074E-01 -0.406293997842E-02 -0.997972742286E+00
 -0.920601613274E-01  0.427131746163E-01 -0.994836927044E+00
 -0.920601613331E-01  0.427131746199E-01 -0.994836927043E+00
 -0.188797217511E+00  0.875962892364E-01  0.978101477748E+00
 -0.188797217501E+00  0.875962892300E-01  0.978101477750E+00
  0.129435394310E+00 -0.828001249737E-02  0.991553286563E+00
  0.129435394314E+00 -0.828001249671E-02  0.991553286562E+00
  0.635129764034E-01 -0.406293997937E-02 -0.997972742287E+00
  0.635129764013E-01 -0.406293997946E-02 -0.997972742287E+00
 -0.920601613331E-01  0.427131746196E-01 -0.994836927043E+00
 -0.920601613410E-01  0.427131746238E-01 -0.994836927043E+00
 -0.188797217484E+00  0.875962892248E-01  0.978101477754E+00
 -0.188797217511E+00  0.875962892389E-01  0.978101477747E+00
  0.129435394314E+00 -0.828001249835E-02  0.991553286562E+00
  0.129435394332E+00 -0.828001249752E-02  0.991553286560E+00
  0.635129764034E-01 -0.406293998467E-02 -0.997972742287E+00
 -0.920601613410E-01  0.427131746297E-01 -0.994836927042E+00
 -0.188797217484E+00  0.875962892368E-01  0.978101477753E+00
  0.129435394332E+00 -0.828001250833E-02  0.991553286560E+00
  0.635129764074E-01  0.406293997878E-02 -0.997972742286E+00
  0.635129763992E-01  0.406293998242E-02 -0.997972742287E+00
 -0.920601613245E-01 -0.427131746151E-01 -0.994836927044E+00
 -0.920601613274E-01 -0.427131746174E-01 -0.994836927044E+00
 -0.188797217501E+00 -0.875962892321E-01  0.978101477750E+00
 -0.188797217505E+00 -0.875962892357E-01  0.978101477749E+00
  0.129435394304E+00  0.828001249691E-02  0.991553286563E+00
  0.129435394310E+00  0.828001249440E-02  0.991553286563E+00
  0.635129764013E-01  0.406293997940E-02 -0.997972742287E+00
  0.635129764074E-01  0.406293997842E-02 -0.997972742286E+00
 -0.920601613274E-01 -0.427131746163E-01 -0.994836927044E+00
 -0.920601613331E-01 -0.427131746199E-01 -0.994836927043E+00
 -0.188797217511E+00 -0.875962892364E-01  0.978101477748E+00
 -0.188797217501E+00 -0.875962892300E-01  0.978101477750E+00
  0.129435394310E+00  0.828001249737E-02  0.991553286563E+00
  0.129435394314E+00  0.828001249671E-02  0.991553286562E+00
  0.635129764034E-01  0.406293997937E-02 -0.997972742287E+00
  0.635129764013E-01  0.406293997946E-02 -0.997972742287E+00
 -0.920601613331E-01 -0.427131746196E-01 -0.994836927043E+00
 -0.920601613410E-01 -0.427131746238E-01 -0.994836927043E+00
 -0.188797217484E+00 -0.875962892248E-01  0.978101477754E+00
 -0.188797217511E+00 -0.875962892389E-01  0.978101477747E+00
  0.129435394314E+00  0.828001249835E-02  0.991553286562E+00
  0.129435394332E+00  0.828001249752E-02  0.991553286560E+00
  0.635129764034E-01  0.406293998467E-02 -0.997972742287E+00
 -0.920601613410E-01 -0.427131746297E-01 -0.994836927042E+00
 -0.188797217484E+00 -0.875962892368E-01  0.978101477753E+00
  0.129435394332E+00  0.828001250833E-02  0.991553286560E+00
SCALARS inclination float 1
LOOKUP_TABLE default
  0.100000000000E+01
  0.100000000000E+01
  0.100000000000E+01
  0.100000000000E+01
  0.100000000000E+01
  0.100000000000E+01
  0.100000000000E+01
  0.100000000000E+01
  0.100000000000E+01
  0.100000000000E+01
  0.100000000000E+01
  0.100000000000E+01
  0.100000000000E+01
  0.100000000000E+01
  0.100000000000E+01
  0.100000000000E+01
  0.100000000000E+01
  0.100000000000E+01
  0.100000000000E+01
  0.100000000000E+01
  0.100000000000E+01
  0.100000000000E+01
  0.100000000000E+01
  0.100000000000E+01
  0.100000000000E+01
  0.100000000000E+01
  0.100000000000E+01
  0.100000000000E+01
  0.100000000000E+01
  0.100000000000E+01
  0.100000000000E+01
  0.100000000000E+01
  0.100000000000E+01
  0.100000000000E+01
  0.100000000000E+01
  0.100000000000E+01
  0.100000000000E+01
  0.100000000000E+01
  0.100000000000E+01
  0.100000000000E+01
  0.100000000000E+01
  0.100000000000E+01
  0.100000000000E+01
  0.100000000000E+01
  0.100000000000E+01
  0.100000000000E+01
  0.100000000000E+01
  0.100000000000E+01
  0.100000000000E+01
  0.100000000000E+01
  0.100000000000E+01
  0.100000000000E+01
  0.100000000000E+01
  0.100000000000E+01
  0.100000000000E+01
  0.100000000000E+01
SCALARS distribution_order float 1
LOOKUP_TABLE default
  0.100000000000E+01
  0.100000000000E+01
  0.100000000000E+01
  0.100000000000E+01
  0.100000000000E+01
  0.100000000000E+01
  0.100000000000E+01
  0.100000000000E+01
  0.100000000000E+01
  0.100000000000E+01
  0.100000000000E+01
  0.100000000000E+01
  0.100000000000E+01
  0.100000000000E+01
  0.100000000000E+01
  0.100000000000E+01
  0.100000000000E+01
  0.100000000000E+01
  0.100000000000E+01
  0.100000000000E+01
  0.100000000000E+01
  0.100000000000E+01
  0.100000000000E+01
  0.100000000000E+01
  0.100000000000E+01
  0.100000000000E+01
  0.100000000000E+01
  0.100000000000E+01
  0.100000000000E+01
  0.100000000000E+01
  0.100000000000E+01
  0.100000000000E+01
  0.100000000000E+01
  0.100000000000E+01
  0.100000000000E+01
  0.100000000000E+01
  0.100000000000E+01
  0.100000000000E+01
  0.100000000000E+01
  0.100000000000E+01
  0.100000000000E+01
  0.100000000000E+01
  0.100000000000E+01
  0.100000000000E+01
  0.100000000000E+01
  0.100000000000E+01
  0.100000000000E+01
  0.100000000000E+01
  0.100000000000E+01
  0.100000000000E+01
  0.100000000000E+01
  0.100000000000E+01
  0.100000000000E+01
  0.100000000000E+01
  0.100000000000E+01
  0.100000000000E+01
SCALARS N_discontinuous_edges float 1
LOOKUP_TABLE default
  0.100000000000E+01
  0.100000000000E+01
  0.100000000000E+01
  0.100000000000E+01
  0.100000000000E+01
  0.200000000000E+01
  0.100000000000E+01
  0.100000000000E+01
  0.100000000000E+01
  0.100000000000E+01
  0.100000000000E+01
  0.100000000000E+01
  0.100000000000E+01
  0.100000000000E+01
  0.100000000000E+01
  0.100000000000E+01
  0.100000000000E+01
  0.100000000000E+01
  0.100000000000E+01
  0.100000000000E+01
  0.100000000000E+01
  0.100000000000E+01
  0.100000000000E+01
  0.100000000000E+01
  0.200000000000E+01
  0.200000000000E+01
  0.200000000000E+01
  0.200000000000E+01
  0.100000000000E+01
  0.100000000000E+01
  0.100000000000E+01
  0.100000000000E+01
  0.100000000000E+01
  0.200000000000E+01
  0.100000000000E+01
  0.100000000000E+01
  0.100000000000E+01
  0.100000000000E+01
  0.100000000000E+01
  0.100000000000E+01
  0.100000000000E+01
  0.100000000000E+01
  0.100000000000E+01
  0.100000000000E+01
  0.100000000000E+01
  0.100000000000E+01
  0.100000000000E+01
  0.100000000000E+01
  0.100000000000E+01
  0.100000000000E+01
  0.100000000000E+01
  0.100000000000E+01
  0.200000000000E+01
  0.200000000000E+01
  0.200000000000E+01
  0.200000000000E+01
VECTORS centroid float
  0.359574663883E+01  0.211406747293E+01 -0.343342678533E-01
  0.273811659690E+01  0.105703373647E+01 -0.846121660967E-01
  0.140478326357E+01  0.105703373647E+01 -0.846121660967E-01
  0.135189346677E+01  0.211406747293E+01 -0.343342678533E-01
  0.134820475333E+01  0.211406747293E+01  0.709055673800E-01
  0.139569292750E+01  0.105703373647E+01  0.174737194637E+00
  0.272902626083E+01  0.105703373647E+01  0.174737194637E+00
  0.359205792540E+01  0.211406747293E+01  0.709055673800E-01
  0.408859373260E+01  0.550147818093E+01 -0.167592994150E-01
  0.347456559957E+01  0.433628969517E+01 -0.510935672683E-01
  0.256404576083E+01  0.433628969517E+01 -0.510935672683E-01
  0.273362944943E+01  0.550147818093E+01 -0.167592994150E-01
  0.273182890857E+01  0.550147818093E+01  0.346105424200E-01
  0.255855650653E+01  0.433628969517E+01  0.105516109800E+00
  0.346907634527E+01  0.433628969517E+01  0.105516109800E+00
  0.408679319173E+01  0.550147818093E+01  0.346105424200E-01
  0.444209108483E+01  0.819544954503E+01 -0.522970091567E-02
  0.412985567000E+01  0.743105810587E+01 -0.219890003307E-01
  0.368541122557E+01  0.743105810587E+01 -0.219890003307E-01
  0.385895877163E+01  0.819544954503E+01 -0.522970091567E-02
  0.385839691700E+01  0.819544954503E+01  0.108001403220E-01
  0.368304883007E+01  0.743105810587E+01  0.454106827420E-01
  0.412749327450E+01  0.743105810587E+01  0.454106827420E-01
  0.444152923020E+01  0.819544954503E+01  0.108001403220E-01
  0.451316912293E+01  0.930656065613E+01 -0.522970091567E-02
  0.437448125417E+01  0.930656065613E+01 -0.522970091567E-02
  0.437391939953E+01  0.930656065613E+01  0.108001403220E-01
  0.451260726830E+01  0.930656065613E+01  0.108001403220E-01
  0.359574663883E+01 -0.211406747293E+01 -0.343342678533E-01
  0.273811659690E+01 -0.105703373647E+01 -0.846121660967E-01
  0.140478326357E+01 -0.105703373647E+01 -0.846121660967E-01
  0.135189346677E+01 -0.211406747293E+01 -0.343342678533E-01
  0.134820475333E+01 -0.211406747293E+01  0.709055673800E-01
  0.139569292750E+01 -0.105703373647E+01  0.174737194637E+00
  0.272902626083E+01 -0.105703373647E+01  0.174737194637E+00
  0.359205792540E+01 -0.211406747293E+01  0.709055673800E-01
  0.408859373260E+01 -0.550147818093E+01 -0.167592994150E-01
  0.347456559957E+01 -0.433628969517E+01 -0.510935672683E-01
  0.256404576083E+01 -0.433628969517E+01 -0.510935672683E-01
  0.273362944943E+01 -0.550147818093E+01 -0.167592994150E-01
  0.273182890857E+01 -0.550147818093E+01  0.346105424200E-01
  0.255855650653E+01 -0.433628969517E+01  0.105516109800E+00
  0.346907634527E+01 -0.433628969517E+01  0.105516109800E+00
  0.408679319173E+01 -0.550147818093E+01  0.346105424200E-01
  0.444209108483E+01 -0.819544954503E+01 -0.522970091567E-02
  0.412985567000E+01 -0.743105810587E+01 -0.219890003307E-01
  0.368541122557E+01 -0.743105810587E+01 -0.219890003307E-01
  0.385895877163E+01 -0.819544954503E+01 -0.522970091567E-02
  0.385839691700E+01 -0.819544954503E+01  0.108001403220E-01
  0.368304883007E+01 -0.743105810587E+01  0.454106827420E-01
  0.412749327450E+01 -0.743105810587E+01  0.454106827420E-01
  0.444152923020E+01 -0.819544954503E+01  0.108001403220E-01
  0.451316912293E+01 -0.930656065613E+01 -0.522970091567E-02
  0.437448125417E+01 -0.930656065613E+01 -0.522970091567E-02
  0.437391939953E+01 -0.930656065613E+01  0.108001403220E-01
  0.451260726830E+01 -0.930656065613E+01  0.108001403220E-01
SCALARS C_p_inc float 1
LOOKUP_TABLE default
 -0.440787915167E-01
  0.119862989244E-01
  0.141519762339E+00
  0.119436824269E+00
 -0.340512230627E+00
 -0.189414594857E+00
 -0.208318780086E+00
 -0.112182296835E+00
 -0.870074958490E-01
 -0.433615511853E-01
  0.118701505297E+00
  0.109417994071E+00
 -0.340059222039E+00
 -0.339424988505E+00
 -0.111355078788E+00
 -0.686990627920E-01
 -0.547060469336E-01
 -0.867502149579E-01
  0.109496678230E+00
  0.127326886480E+00
 -0.369056589927E+00
 -0.339998494962E+00
 -0.679865083981E-01
 -0.105088210489E+00
 -0.548024031306E-01
  0.127383507942E+00
 -0.369136592388E+00
 -0.105757900218E+00
 -0.456935954933E-01
  0.119817037413E-01
  0.141509080155E+00
  0.118740357073E+00
 -0.339582335598E+00
 -0.189417256892E+00
 -0.208326142551E+00
 -0.110486422494E+00
 -0.896160895364E-01
 -0.449425094168E-01
  0.118000286175E+00
  0.107512714463E+00
 -0.337513598114E+00
 -0.338509677467E+00
 -0.109595466754E+00
 -0.659676727759E-01
 -0.580044973417E-01
 -0.893588886054E-01
  0.107586694352E+00
  0.124259641003E+00
 -0.364869849088E+00
 -0.337458348038E+00
 -0.652337706251E-01
 -0.101581709359E+00
 -0.580888955638E-01
  0.124314549713E+00
 -0.364947817229E+00
 -0.102219285691E+00
SCALARS sigma float 1
LOOKUP_TABLE default
  0.237077652389E-01
  0.237077652470E-01
  0.178415595906E+00
  0.178415595909E+00
  0.102831626313E+00
  0.102831626317E+00
 -0.215362416715E+00
 -0.215362416721E+00
  0.237077652449E-01
  0.237077652389E-01
  0.178415595909E+00
  0.178415595915E+00
  0.102831626323E+00
  0.102831626313E+00
 -0.215362416721E+00
 -0.215362416725E+00
  0.237077652428E-01
  0.237077652449E-01
  0.178415595915E+00
  0.178415595923E+00
  0.102831626296E+00
  0.102831626323E+00
 -0.215362416725E+00
 -0.215362416743E+00
  0.237077652428E-01
  0.178415595923E+00
  0.102831626296E+00
 -0.215362416743E+00
  0.237077652389E-01
  0.237077652470E-01
  0.178415595906E+00
  0.178415595909E+00
  0.102831626313E+00
  0.102831626317E+00
 -0.215362416715E+00
 -0.215362416721E+00
  0.237077652449E-01
  0.237077652389E-01
  0.178415595909E+00
  0.178415595915E+00
  0.102831626323E+00
  0.102831626313E+00
 -0.215362416721E+00
 -0.215362416725E+00
  0.237077652428E-01
  0.237077652449E-01
  0.178415595915E+00
  0.178415595923E+00
  0.102831626296E+00
  0.102831626323E+00
 -0.215362416725E+00
 -0.215362416743E+00
  0.237077652428E-01
  0.178415595923E+00
  0.102831626296E+00
 -0.215362416743E+00
VECTORS v float
  0.101931194597E+01  0.298233774583E-01  0.647496291687E-01
  0.991832641379E+00  0.175011230475E-01  0.630509576716E-01
  0.921865611269E+00  0.407706975801E-01 -0.835570621760E-01
  0.934007322738E+00  0.308250808850E-01 -0.851076447286E-01
  0.113414137897E+01 -0.620311640688E-01  0.224472042406E+00
  0.107064070673E+01 -0.936237316572E-02  0.207497994986E+00
  0.108965473637E+01 -0.260168761948E-01 -0.142458617638E+00
  0.104465504657E+01 -0.466447747852E-01 -0.136756701859E+00
  0.104036460420E+01  0.165537151865E-01  0.661434856953E-01
  0.101930763630E+01  0.131227036633E-01  0.648173465646E-01
  0.934047557382E+00  0.410385557269E-01 -0.846728539456E-01
  0.939081045575E+00  0.379121726822E-01 -0.852728733749E-01
  0.113455748404E+01 -0.527830762653E-01  0.223724125448E+00
  0.113429820764E+01 -0.526209627613E-01  0.223659560350E+00
  0.104466568080E+01 -0.367229312561E-01 -0.136675237209E+00
  0.102426610224E+01 -0.401381240949E-01 -0.134040835521E+00
  0.102491053371E+01  0.341322062797E-02  0.652134553127E-01
  0.104036138854E+01  0.409253496321E-02  0.661940129187E-01
  0.939076907766E+00  0.368617990862E-01 -0.853175881038E-01
  0.929415887165E+00  0.420661433058E-01 -0.842001294117E-01
  0.114642939675E+01 -0.586216655728E-01  0.226538580669E+00
  0.113456704952E+01 -0.522091182576E-01  0.223674569592E+00
  0.102427699396E+01 -0.299760481664E-01 -0.133957398410E+00
  0.104195562183E+01 -0.291609588151E-01 -0.136258324915E+00
  0.102491233474E+01  0.103925300783E-01  0.651851558161E-01
  0.929413219311E+00  0.413889145978E-01 -0.842289592470E-01
  0.114641817631E+01 -0.592949261511E-01  0.226596710365E+00
  0.104194509001E+01 -0.389872457967E-01 -0.136339004986E+00
  0.102008664463E+01 -0.303015438962E-01  0.647969858292E-01
  0.991832675130E+00 -0.176319146783E-01  0.630504273415E-01
  0.921866125574E+00 -0.409012527478E-01 -0.835515044021E-01
  0.934382027327E+00 -0.306491262866E-01 -0.851498737044E-01
  0.113375866971E+01  0.618557011879E-01  0.224382456262E+00
  0.107063837304E+01  0.950240176538E-02  0.207510085134E+00
  0.108965458514E+01  0.261579778830E-01 -0.142459776172E+00
  0.104383325874E+01  0.471625154345E-01 -0.136653750728E+00
  0.104161432901E+01 -0.164355392109E-01  0.662235017931E-01
  0.102008216109E+01 -0.129270988408E-01  0.648674352128E-01
  0.934422663359E+00 -0.409644924748E-01 -0.847107453752E-01
  0.940103575218E+00 -0.374359838472E-01 -0.853879412596E-01
  0.113350621491E+01  0.522970841981E-01  0.223477680888E+00
  0.113391372544E+01  0.525518816224E-01  0.223579159265E+00
  0.104384466982E+01  0.365158623685E-01 -0.136566334929E+00
  0.102295929528E+01  0.400123846796E-01 -0.133869197546E+00
  0.102651329038E+01 -0.293207902281E-02  0.653174167654E-01
  0.104161101568E+01 -0.359586761837E-02  0.662755637120E-01
  0.940099637312E+00 -0.364363550253E-01 -0.854304957678E-01
  0.931082120847E+00 -0.412940467360E-01 -0.843874690974E-01
  0.114472153929E+01  0.578282842869E-01  0.226137869698E+00
  0.113351499502E+01  0.517702509141E-01  0.223432193807E+00
  0.102297061902E+01  0.294472255447E-01 -0.133782450865E+00
  0.104031447044E+01  0.286475713687E-01 -0.136039805211E+00
  0.102651502224E+01 -0.964333532736E-02  0.652902041627E-01
  0.931079485183E+00 -0.406249893822E-01 -0.844159510756E-01
  0.114471045424E+01  0.584934213899E-01  0.226195298009E+00
  0.104030424652E+01  0.381865940631E-01 -0.136118126659E+00
VECTORS v_inner float
  0.996194698092E+00  0.000000000000E+00  0.871557427477E-01
  0.996194698092E+00  0.000000000000E+00  0.871557427477E-01
  0.996194698092E+00  0.000000000000E+00  0.871557427477E-01
  0.996194698092E+00  0.000000000000E+00  0.871557427477E-01
  0.996194698092E+00  0.000000000000E+00  0.871557427477E-01
  0.996194698092E+00  0.000000000000E+00  0.871557427477E-01
  0.996194698092E+00  0.000000000000E+00  0.871557427477E-01
  0.996194698092E+00  0.000000000000E+00  0.871557427477E-01
  0.996194698092E+00  0.000000000000E+00  0.871557427477E-01
  0.996194698092E+00  0.000000000000E+00  0.871557427477E-01
  0.996194698092E+00  0.000000000000E+00  0.871557427477E-01
  0.996194698092E+00  0.000000000000E+00  0.871557427477E-01
  0.996194698092E+00  0.000000000000E+00  0.871557427477E-01
  0.996194698092E+00  0.000000000000E+00  0.871557427477E-01
  0.996194698092E+00  0.000000000000E+00  0.871557427477E-01
  0.996194698092E+00  0.000000000000E+00  0.871557427477E-01
  0.996194698092E+00  0.000000000000E+00  0.871557427477E-01
  0.996194698092E+00  0.000000000000E+00  0.871557427477E-01
  0.996194698092E+00  0.000000000000E+00  0.871557427477E-01
  0.996194698092E+00  0.000000000000E+00  0.871557427477E-01
  0.996194698092E+00  0.000000000000E+00  0.871557427477E-01
  0.996194698092E+00  0.000000000000E+00  0.871557427477E-01
  0.996194698092E+00  0.000000000000E+00  0.871557427477E-01
  0.996194698092E+00  0.000000000000E+00  0.871557427477E-01
  0.996194698092E+00  0.000000000000E+00  0.871557427477E-01
  0.996194698092E+00  0.000000000000E+00  0.871557427477E-01
  0.996194698092E+00  0.000000000000E+00  0.871557427477E-01
  0.996194698092E+00  0.000000000000E+00  0.871557427477E-01
  0.996194698092E+00  0.000000000000E+00  0.871557427477E-01
  0.996194698092E+00  0.000000000000E+00  0.871557427477E-01
  0.996194698092E+00  0.000000000000E+00  0.871557427477E-01
  0.996194698092E+00  0.000000000000E+00  0.871557427477E-01
  0.996194698092E+00  0.000000000000E+00  0.871557427477E-01
  0.996194698092E+00  0.000000000000E+00  0.871557427477E-01
  0.996194698092E+00  0.000000000000E+00  0.871557427477E-01
  0.996194698092E+00  0.000000000000E+00  0.871557427477E-01
  0.996194698092E+00  0.000000000000E+00  0.871557427477E-01
  0.996194698092E+00  0.000000000000E+00  0.871557427477E-01
  0.996194698092E+00  0.000000000000E+00  0.871557427477E-01
  0.996194698092E+00  0.000000000000E+00  0.871557427477E-01
  0.996194698092E+00  0.000000000000E+00  0.871557427477E-01
  0.996194698092E+00  0.000000000000E+00  0.871557427477E-01
  0.996194698092E+00  0.000000000000E+00  0.871557427477E-01
  0.996194698092E+00  0.000000000000E+00  0.871557427477E-01
  0.996194698092E+00  0.000000000000E+00  0.871557427477E-01
  0.996194698092E+00  0.000000000000E+00  0.871557427477E-01
  0.996194698092E+00  0.000000000000E+00  0.871557427477E-01
  0.996194698092E+00  0.000000000000E+00  0.871557427477E-01
  0.996194698092E+00  0.000000000000E+00  0.871557427477E-01
  0.996194698092E+00  0.000000000000E+00  0.871557427477E-01
  0.996194698092E+00  0.000000000000E+00  0.871557427477E-01
  0.996194698092E+00  0.000000000000E+00  0.871557427477E-01
  0.996194698092E+00  0.000000000000E+00  0.871557427477E-01
  0.996194698092E+00  0.000000000000E+00  0.871557427477E-01
  0.996194698092E+00  0.000000000000E+00  0.871557427477E-01
  0.996194698092E+00  0.000000000000E+00  0.871557427477E-01
VECTORS dC_f float
  0.719877885645E-02 -0.460507569770E-03 -0.113113657757E+00
 -0.286657679739E-02  0.183375589416E-03  0.450422208130E-01
  0.338450817596E-01 -0.157031105123E-01  0.365742756137E+00
  0.195059632001E-01 -0.905018631550E-02  0.210788816891E+00
 -0.114845614150E+00  0.532849465014E-01  0.594980510838E+00
 -0.935501443771E-01  0.434044824029E-01  0.484655100685E+00
  0.102886749399E+00 -0.658168946266E-02  0.788174633828E+00
  0.378360705372E-01 -0.242038229542E-02  0.289847149552E+00
  0.764576996668E-02 -0.489101695922E-03 -0.120137182240E+00
  0.780622920786E-02 -0.499366311002E-03 -0.122658461470E+00
  0.213694190438E-01 -0.991477435959E-02  0.230926025631E+00
  0.961508896128E-02 -0.446111507781E-02  0.103904288424E+00
 -0.617122897632E-01  0.286326655382E-01  0.319712772298E+00
 -0.126192297297E+00  0.585494697376E-01  0.653764256171E+00
  0.413998782757E-01 -0.264835991222E-02  0.317148069016E+00
  0.124671709947E-01 -0.797527849180E-03  0.955060587521E-01
  0.984102906516E-03 -0.629532934703E-04 -0.154631058395E-01
  0.500097574098E-02 -0.319913589719E-03 -0.785798077356E-01
  0.631226368499E-02 -0.292870246063E-02  0.682127091255E-01
  0.229047365119E-02 -0.106271159652E-02  0.247517246921E-01
 -0.137104178525E-01  0.636122578287E-02  0.710295423883E-01
 -0.404775043883E-01  0.187803571939E-01  0.209701749738E+00
  0.809393051088E-02 -0.517770631026E-03  0.620043956433E-01
  0.390401720629E-02 -0.249740895260E-03  0.299071294345E-01
  0.447164638354E-03 -0.286052267077E-04 -0.702625110115E-02
  0.103939603023E-02 -0.482248819707E-03  0.112321066750E-01
 -0.622024504228E-02  0.288600854985E-02  0.322252146981E-01
  0.178210469533E-02 -0.114001654993E-03  0.136519981785E-01
  0.746250243698E-02  0.477378028995E-03 -0.117257518740E+00
 -0.286547783886E-02 -0.183305288782E-03  0.450249529928E-01
  0.338425270677E-01  0.157019252113E-01  0.365715149170E+00
  0.193922188539E-01  0.899741232453E-02  0.209559652460E+00
 -0.114531985575E+00 -0.531394321778E-01  0.593355695721E+00
 -0.935514591315E-01 -0.434050924098E-01  0.484661912031E+00
  0.102890385653E+00  0.658192207471E-02  0.788202489732E+00
  0.372640977482E-01  0.238379306212E-02  0.285465492573E+00
  0.787499972528E-02  0.503765577281E-03 -0.123739045415E+00
  0.809084361822E-02  0.517573161503E-03 -0.127130577873E+00
  0.212431810047E-01  0.985620366702E-02  0.229561849628E+00
  0.944766281635E-02  0.438343433013E-02  0.102095018169E+00
 -0.612503223436E-01 -0.284183264064E-01  0.317319458341E+00
 -0.125852000599E+00 -0.583915821991E-01  0.652001281551E+00
  0.407456851772E-01  0.260651102646E-02  0.312136554814E+00
  0.119714916506E-01  0.765819125418E-03  0.917088556354E-01
  0.104343847937E-02  0.667490039663E-04 -0.163954394777E-01
  0.515136053983E-02  0.329533740533E-03 -0.809427883203E-01
  0.620215694874E-02  0.287761621241E-02  0.670228540834E-01
  0.223529720621E-02  0.103711136842E-02  0.241554671560E-01
 -0.135548808212E-01 -0.628906123006E-02  0.702237519105E-01
 -0.401750947900E-01 -0.186400481417E-01  0.208135056760E+00
  0.776621154466E-02  0.496806371980E-03  0.594938704524E-01
  0.377375101676E-02  0.241407736598E-03  0.289092117550E-01
  0.473981039029E-03  0.303206781433E-04 -0.744761439470E-02
  0.101435461748E-02  0.470630349564E-03  0.109614996963E-01
 -0.614966085081E-02 -0.285325958599E-02  0.318595392771E-01
  0.172247622739E-02  0.110187207925E-03  0.131952081045E-01
POINT_DATA                  37
SCALARS mu float 1
LOOKUP_TABLE default
 -0.189811324165E+00
 -0.125655633241E+00
 -0.905489013874E-01
 -0.175837287483E+00
 -0.804326491249E-01
 -0.741792699684E-01
  0.107050355930E+00
  0.771914188115E-01
 -0.566456539714E-01
 -0.228073791109E-01
 -0.342838992111E-01
  0.543243784475E-01
 -0.175026108785E-01
 -0.107678026416E-01
 -0.886919229177E-02
  0.208647883658E-01
  0.195293024452E-02
 -0.888754348785E-01
 -0.125240872896E+00
 -0.741859382303E-01
  0.106602877517E+00
 -0.212675508187E-01
 -0.560971455030E-01
 -0.342967389520E-01
  0.537204508941E-01
 -0.100961996948E-01
 -0.172277525349E-01
 -0.887977036213E-02
  0.205545515781E-01
  0.195189308619E-02
  0.371733096402E+00