# vtk DataFile Version 3.0
MachLine results file. Generated by MachLine, USU AeroLab (c) 2023.
ASCII
DATASET POLYDATA
POINTS                 104 float
  0.405381375380E+01  0.841231150700E+00  0.000000000000E+00
  0.400000000000E+01  0.000000000000E+00  0.000000000000E+00
  0.597747612125E+03  0.841231150700E+00  0.519414769631E+02
  0.597747203349E+03  0.000000000000E+00  0.519461492933E+02
  0.411615486080E+01  0.181576419370E+01  0.000000000000E+00
  0.405381375380E+01  0.841231150700E+00  0.000000000000E+00
  0.597748085676E+03  0.181576419370E+01  0.519360642533E+02
  0.597747612125E+03  0.841231150700E+00  0.519414769631E+02
  0.418499100020E+01  0.289182933850E+01  0.000000000000E+00
  0.411615486080E+01  0.181576419370E+01  0.000000000000E+00
  0.597748608564E+03  0.289182933850E+01  0.519300876182E+02
  0.597748085676E+03  0.181576419370E+01  0.519360642533E+02
  0.432853249100E+01  0.513570873580E+01  0.000000000000E+00
  0.425708590190E+01  0.401883633540E+01  0.000000000000E+00
  0.597749698922E+03  0.513570873580E+01  0.519176247591E+02
  0.597749156205E+03  0.401883633540E+01  0.519238280441E+02
  0.425708590190E+01  0.401883633540E+01  0.000000000000E+00
  0.418499100020E+01  0.289182933850E+01  0.000000000000E+00
  0.597749156205E+03  0.401883633540E+01  0.519238280441E+02
  0.597748608564E+03  0.289182933850E+01  0.519300876182E+02
  0.439556067530E+01  0.618351143850E+01  0.000000000000E+00
  0.432853249100E+01  0.513570873580E+01  0.000000000000E+00
  0.597750208077E+03  0.618351143850E+01  0.519118050980E+02
  0.597749698922E+03  0.513570873580E+01  0.519176247591E+02
  0.445528717770E+01  0.711717227390E+01  0.000000000000E+00
  0.439556067530E+01  0.618351143850E+01  0.000000000000E+00
  0.597750661767E+03  0.711717227390E+01  0.519066193989E+02
  0.597750208077E+03  0.618351143850E+01  0.519118050980E+02
  0.450611385120E+01  0.791170857900E+01  0.000000000000E+00
  0.445528717770E+01  0.711717227390E+01  0.000000000000E+00
  0.597751047852E+03  0.791170857900E+01  0.519022064193E+02
  0.597750661767E+03  0.711717227390E+01  0.519066193989E+02
  0.454770027250E+01  0.856179876160E+01  0.000000000000E+00
  0.450611385120E+01  0.791170857900E+01  0.000000000000E+00
  0.597751363748E+03  0.856179876160E+01  0.518985957161E+02
  0.597751047852E+03  0.791170857900E+01  0.519022064193E+02
  0.458064603550E+01  0.907681583680E+01  0.000000000000E+00
  0.454770027250E+01  0.856179876160E+01  0.000000000000E+00
  0.597751614008E+03  0.907681583680E+01  0.518957352303E+02
  0.597751363748E+03  0.856179876160E+01  0.518985957161E+02
  0.460608562500E+01  0.947449437990E+01  0.000000000000E+00
  0.458064603550E+01  0.907681583680E+01  0.000000000000E+00
  0.597751807250E+03  0.947449437990E+01  0.518935264611E+02
  0.597751614008E+03  0.907681583680E+01  0.518957352303E+02
  0.462534293570E+01  0.977552986720E+01  0.000000000000E+00
  0.460608562500E+01  0.947449437990E+01  0.000000000000E+00
  0.597751953531E+03  0.977552986720E+01  0.518918544627E+02
  0.597751807250E+03  0.947449437990E+01  0.518935264611E+02
  0.463970234270E+01  0.100000000000E+02  0.000000000000E+00
  0.462534293570E+01  0.977552986720E+01  0.000000000000E+00
  0.597752062607E+03  0.100000000000E+02  0.518906077202E+02
  0.597751953531E+03  0.977552986720E+01  0.518918544627E+02
  0.400000000000E+01  0.000000000000E+00  0.000000000000E+00
  0.405381375380E+01 -0.841231150700E+00  0.000000000000E+00
  0.597747203349E+03  0.000000000000E+00  0.519461492933E+02
  0.597747612125E+03 -0.841231150700E+00  0.519414769631E+02
  0.405381375380E+01 -0.841231150700E+00  0.000000000000E+00
  0.411615486080E+01 -0.181576419370E+01  0.000000000000E+00
  0.597747612125E+03 -0.841231150700E+00  0.519414769631E+02
  0.597748085676E+03 -0.181576419370E+01  0.519360642533E+02
  0.411615486080E+01 -0.181576419370E+01  0.000000000000E+00
  0.418499100020E+01 -0.289182933850E+01  0.000000000000E+00
  0.597748085676E+03 -0.181576419370E+01  0.519360642533E+02
  0.597748608564E+03 -0.289182933850E+01  0.519300876182E+02
  0.418499100020E+01 -0.289182933850E+01  0.000000000000E+00
  0.425708590190E+01 -0.401883633540E+01  0.000000000000E+00
  0.597748608564E+03 -0.289182933850E+01  0.519300876182E+02
  0.597749156205E+03 -0.401883633540E+01  0.519238280441E+02
  0.432853249100E+01 -0.513570873580E+01  0.000000000000E+00
  0.439556067530E+01 -0.618351143850E+01  0.000000000000E+00
  0.597749698922E+03 -0.513570873580E+01  0.519176247591E+02
  0.597750208077E+03 -0.618351143850E+01  0.519118050980E+02
  0.425708590190E+01 -0.401883633540E+01  0.000000000000E+00
  0.432853249100E+01 -0.513570873580E+01  0.000000000000E+00
  0.597749156205E+03 -0.401883633540E+01  0.519238280441E+02
  0.597749698922E+03 -0.513570873580E+01  0.519176247591E+02
  0.439556067530E+01 -0.618351143850E+01  0.000000000000E+00
  0.445528717770E+01 -0.711717227390E+01  0.000000000000E+00
  0.597750208077E+03 -0.618351143850E+01  0.519118050980E+02
  0.597750661767E+03 -0.711717227390E+01  0.519066193989E+02
  0.445528717770E+01 -0.711717227390E+01  0.000000000000E+00
  0.450611385120E+01 -0.791170857900E+01  0.000000000000E+00
  0.597750661767E+03 -0.711717227390E+01  0.519066193989E+02
  0.597751047852E+03 -0.791170857900E+01  0.519022064193E+02
  0.450611385120E+01 -0.791170857900E+01  0.000000000000E+00
  0.454770027250E+01 -0.856179876160E+01  0.000000000000E+00
  0.597751047852E+03 -0.791170857900E+01  0.519022064193E+02
  0.597751363748E+03 -0.856179876160E+01  0.518985957161E+02
  0.454770027250E+01 -0.856179876160E+01  0.000000000000E+00
  0.458064603550E+01 -0.907681583680E+01  0.000000000000E+00
  0.597751363748E+03 -0.856179876160E+01  0.518985957161E+02
  0.597751614008E+03 -0.907681583680E+01  0.518957352303E+02
  0.458064603550E+01 -0.907681583680E+01  0.000000000000E+00
  0.460608562500E+01 -0.947449437990E+01  0.000000000000E+00
  0.597751614008E+03 -0.907681583680E+01  0.518957352303E+02
  0.597751807250E+03 -0.947449437990E+01  0.518935264611E+02
  0.460608562500E+01 -0.947449437990E+01  0.000000000000E+00
  0.462534293570E+01 -0.977552986720E+01  0.000000000000E+00
  0.597751807250E+03 -0.947449437990E+01  0.518935264611E+02
  0.597751953531E+03 -0.977552986720E+01  0.518918544627E+02
  0.462534293570E+01 -0.977552986720E+01  0.000000000000E+00
  0.463970234270E+01 -0.100000000000E+02  0.000000000000E+00
  0.597751953531E+03 -0.977552986720E+01  0.518918544627E+02
  0.597752062607E+03 -0.100000000000E+02  0.518906077202E+02
POLYGONS                  52                 208
3                   0                   3                   1
3                   0                   2                   3
3                   4                   7                   5
3                   4                   6                   7
3                   8                  11                   9
3                   8                  10                  11
3                  12                  15                  13
3                  12                  14                  15
3                  16                  19                  17
3                  16                  18                  19
3                  20                  23                  21
3                  20                  22                  23
3                  24                  27                  25
3                  24                  26                  27
3                  28                  31                  29
3                  28                  30                  31
3                  32                  35                  33
3                  32                  34                  35
3                  36                  39                  37
3                  36                  38                  39
3                  40                  43                  41
3                  40                  42                  43
3                  44                  47                  45
3                  44                  46                  47
3                  48                  51                  49
3                  48                  50                  51
3                  52                  54                  53
3                  54                  55                  53
3                  56                  58                  57
3                  58                  59                  57
3                  60                  62                  61
3                  62                  63                  61
3                  64                  66                  65
3                  66                  67                  65
3                  68                  70                  69
3                  70                  71                  69
3                  72                  74                  73
3                  74                  75                  73
3                  76                  78                  77
3                  78                  79                  77
3                  80                  82                  81
3                  82                  83                  81
3                  84                  86                  85
3                  86                  87                  85
3                  88                  90                  89
3                  90                  91                  89
3                  92                  94                  93
3                  94                  95                  93
3                  96                  98                  97
3                  98                  99                  97
3                 100                 102                 101
3                 102                 103                 101
POINT_DATA                 104
SCALARS mu float 1
LOOKUP_TABLE default
 -0.770793941610E+00
 -0.809261881200E+00
 -0.770793941610E+00
 -0.809261881200E+00
 -0.706502842953E+00
 -0.770793941610E+00
 -0.706502842953E+00
 -0.770793941610E+00
 -0.645510947836E+00
 -0.706502842953E+00
 -0.645510947836E+00
 -0.706502842953E+00
 -0.491209796935E+00
 -0.563572519685E+00
 -0.491209796935E+00
 -0.563572519685E+00
 -0.563572519685E+00
 -0.645510947836E+00
 -0.563572519685E+00
 -0.645510947836E+00
 -0.403948117526E+00
 -0.491209796935E+00
 -0.403948117526E+00
 -0.491209796935E+00
 -0.329597388974E+00
 -0.403948117526E+00
 -0.329597388974E+00
 -0.403948117526E+00
 -0.256658982193E+00
 -0.329597388974E+00
 -0.256658982193E+00
 -0.329597388974E+00
 -0.196487547251E+00
 -0.256658982193E+00
 -0.196487547251E+00
 -0.256658982193E+00
 -0.141275703819E+00
 -0.196487547251E+00
 -0.141275703819E+00
 -0.196487547251E+00
 -0.875840587967E-01
 -0.141275703819E+00
 -0.875840587967E-01
 -0.141275703819E+00
 -0.404828338079E-01
 -0.875840587967E-01
 -0.404828338079E-01
 -0.875840587967E-01
  0.000000000000E+00
 -0.404828338079E-01
  0.000000000000E+00
 -0.404828338079E-01
 -0.809261881200E+00
 -0.770887107939E+00
 -0.809261881200E+00
 -0.770887107939E+00
 -0.770887107939E+00
 -0.704582042803E+00
 -0.770887107939E+00
 -0.704582042803E+00
 -0.704582042803E+00
 -0.643680648746E+00
 -0.704582042803E+00
 -0.643680648746E+00
 -0.643680648746E+00
 -0.563539358098E+00
 -0.643680648746E+00
 -0.563539358098E+00
 -0.491341711395E+00
 -0.403099131618E+00
 -0.491341711395E+00
 -0.403099131618E+00
 -0.563539358098E+00
 -0.491341711395E+00
 -0.563539358098E+00
 -0.491341711395E+00
 -0.403099131618E+00
 -0.328593194424E+00
 -0.403099131618E+00
 -0.328593194424E+00
 -0.328593194424E+00
 -0.253574909447E+00
 -0.328593194424E+00
 -0.253574909447E+00
 -0.253574909447E+00
 -0.195242964252E+00
 -0.253574909447E+00
 -0.195242964252E+00
 -0.195242964252E+00
 -0.140106621885E+00
 -0.195242964252E+00
 -0.140106621885E+00
 -0.140106621885E+00
 -0.870589498875E-01
 -0.140106621885E+00
 -0.870589498875E-01
 -0.870589498875E-01
 -0.400488818501E-01
 -0.870589498875E-01
 -0.400488818501E-01
 -0.400488818501E-01
  0.000000000000E+00
 -0.400488818501E-01
  0.000000000000E+00
