# vtk DataFile Version 3.0
MachLine results file. Generated by MachLine, USU AeroLab (c) 2022.
ASCII
DATASET POLYDATA
POINTS                1848 float
  0.559710450636E-05  0.000000000000E+00 -0.120211578351E-21
  0.147669420356E+00  0.000000000000E+00 -0.234916154167E+00
  0.147669420356E+00  0.000000000000E+00  0.234916154167E+00
  0.339643488108E+00  0.339635660470E+00  0.560392593885E-22
  0.473468632512E+00  0.000000000000E+00 -0.436287762525E+00
  0.473468632512E+00  0.000000000000E+00  0.436287762525E+00
  0.487308608206E+00  0.339636249629E+00 -0.234917183841E+00
  0.487308608206E+00  0.339636249629E+00  0.234917183841E+00
  0.735369269503E+00  0.735360558377E+00  0.000000000000E+00
  0.813108237056E+00  0.339636920424E+00 -0.436288359745E+00
  0.813108237056E+00  0.339636920424E+00  0.436288359745E+00
  0.883034320569E+00  0.735361246371E+00 -0.234916856065E+00
  0.883034320569E+00  0.735361246371E+00  0.234916856065E+00
  0.944066647098E+00  0.000000000000E+00 -0.604286064991E+00
  0.944066647098E+00  0.000000000000E+00  0.604286064991E+00
  0.119528541420E+01  0.119527568962E+01  0.139239588662E-21
  0.120883396323E+01  0.735362022563E+00 -0.436287920848E+00
  0.120883396323E+01  0.735362022563E+00  0.436287920848E+00
  0.128370629013E+01  0.339637445796E+00 -0.604286441728E+00
  0.128370629013E+01  0.339637445796E+00  0.604286441728E+00
  0.134295035247E+01  0.119527649041E+01 -0.234916489990E+00
  0.134295035247E+01  0.119527649041E+01  0.234916489990E+00
  0.157642143906E+01  0.000000000000E+00 -0.760511625665E+00
  0.157642143906E+01  0.000000000000E+00  0.760511625665E+00
  0.166874987392E+01  0.119527738781E+01 -0.436287408051E+00
  0.166874987392E+01  0.119527738781E+01  0.436287408051E+00
  0.167943194385E+01  0.735362620399E+00 -0.604285952066E+00
  0.167943194385E+01  0.735362620399E+00  0.604285952066E+00
  0.172824569053E+01  0.172823481255E+01  0.389385905703E-21
  0.187591062046E+01  0.172823574089E+01 -0.234916066324E+00
  0.187591062046E+01  0.172823574089E+01  0.234916066324E+00
  0.191606115975E+01  0.339637789350E+00 -0.760511930360E+00
  0.191606115975E+01  0.339637789350E+00  0.760511930360E+00
  0.213934789061E+01  0.119527806879E+01 -0.604285440358E+00
  0.213934789061E+01  0.119527806879E+01  0.604285440358E+00
  0.220170988446E+01  0.172823677653E+01 -0.436286844900E+00
  0.220170988446E+01  0.172823677653E+01  0.436286844900E+00
  0.231178688624E+01  0.735363010380E+00 -0.760511482838E+00
  0.231178688624E+01  0.735363010380E+00  0.760511482838E+00
  0.234376538790E+01  0.234375320874E+01  0.697539761548E-21
  0.239635655070E+01  0.000000000000E+00 -0.902050767795E+00
  0.239635655070E+01  0.000000000000E+00  0.902050767795E+00
  0.249143005586E+01  0.234375427984E+01 -0.234915581477E+00
  0.249143005586E+01  0.234375427984E+01  0.234915581477E+00
  0.267230804490E+01  0.172823755218E+01 -0.604284839933E+00
  0.267230804490E+01  0.172823755218E+01  0.604284839933E+00
  0.273599651581E+01  0.339638112717E+00 -0.902051094889E+00
  0.273599651581E+01  0.339638112717E+00  0.902051094889E+00
  0.277170289895E+01  0.119527851203E+01 -0.760510950761E+00
  0.277170289895E+01  0.119527851203E+01  0.760510950761E+00
  0.281722952122E+01  0.234375547176E+01 -0.436286196457E+00
  0.281722952122E+01  0.234375547176E+01  0.436286196457E+00
  0.305186238041E+01  0.305184874783E+01  0.487988659489E-21
  0.313172232612E+01  0.735363369156E+00 -0.902050640810E+00
  0.313172232612E+01  0.735363369156E+00  0.902050640810E+00
  0.319952712879E+01  0.305184997693E+01 -0.234915033141E+00
  0.319952712879E+01  0.305184997693E+01  0.234915033141E+00
  0.328782757476E+01  0.234375635430E+01 -0.604284144956E+00
  0.328782757476E+01  0.234375635430E+01  0.604284144956E+00
  0.330466299259E+01  0.172823805608E+01 -0.760510326632E+00
  0.330466299259E+01  0.172823805608E+01  0.760510326632E+00
  0.342464501736E+01  0.000000000000E+00 -0.102347726804E+01
  0.342464501736E+01  0.000000000000E+00  0.102347726804E+01
  0.352532618079E+01  0.305185134378E+01 -0.436285459385E+00
  0.352532618079E+01  0.305185134378E+01  0.436285459385E+00
  0.359163829815E+01  0.119527891148E+01 -0.902050101036E+00
  0.359163829815E+01  0.119527891148E+01  0.902050101036E+00
  0.376428499675E+01  0.339638473036E+00 -0.102347755842E+01
  0.376428499675E+01  0.339638473036E+00  0.102347755842E+01
  0.386281012443E+01  0.386279488655E+01 -0.327271132968E-21
  0.392018245394E+01  0.234375692670E+01 -0.760509663821E+00
  0.392018245394E+01  0.234375692670E+01  0.760509663821E+00
  0.399592435318E+01  0.305185234589E+01 -0.604283351599E+00
  0.399592435318E+01  0.305185234589E+01  0.604283351599E+00
  0.401047470017E+01  0.386279628829E+01 -0.234914435781E+00
  0.401047470017E+01  0.386279628829E+01  0.234914435781E+00
  0.412459882225E+01  0.172823850189E+01 -0.902049467796E+00
  0.412459882225E+01  0.172823850189E+01  0.902049467796E+00
  0.416001101646E+01  0.735363758474E+00 -0.102347710272E+01
  0.416001101646E+01  0.735363758474E+00  0.102347710272E+01
  0.433627355849E+01  0.386279784882E+01 -0.436284662791E+00
  0.433627355849E+01  0.386279784882E+01  0.436284662791E+00
  0.461992719359E+01  0.119527933413E+01 -0.102347656107E+01
  0.461992719359E+01  0.119527933413E+01  0.102347656107E+01
  0.462827939417E+01  0.305185299490E+01 -0.760508898570E+00
  0.462827939417E+01  0.305185299490E+01  0.760508898570E+00
  0.466872311975E+01  0.000000000000E+00 -0.111145353779E+01
  0.466872311975E+01  0.000000000000E+00  0.111145353779E+01
  0.474011846960E+01  0.234375742494E+01 -0.902048794181E+00
  0.474011846960E+01  0.234375742494E+01  0.902048794181E+00
  0.478678312943E+01  0.478676614119E+01 -0.851350047090E-21
  0.480687159859E+01  0.386279898322E+01 -0.604282518577E+00
  0.480687159859E+01  0.386279898322E+01  0.604282518577E+00
  0.493444751927E+01  0.478676772883E+01 -0.234913791519E+00
  0.493444751927E+01  0.478676772883E+01  0.234913791519E+00
  0.500836336858E+01  0.339638975791E+00 -0.111145376435E+01
  0.500836336858E+01  0.339638975791E+00  0.111145376435E+01
  0.515288767965E+01  0.172823896258E+01 -0.102347604475E+01
  0.515288767965E+01  0.172823896258E+01  0.102347604475E+01
  0.526024664267E+01  0.478676950112E+01 -0.436283779756E+00
  0.526024664267E+01  0.478676950112E+01  0.436283779756E+00
  0.540408912163E+01  0.735364289471E+00 -0.111145330904E+01
  0.540408912163E+01  0.735364289471E+00  0.111145330904E+01
  0.543922703165E+01  0.386279971700E+01 -0.760508029793E+00
  0.543922703165E+01  0.386279971700E+01  0.760508029793E+00
  0.544821511269E+01  0.305185355186E+01 -0.902048075774E+00
  0.544821511269E+01  0.305185355186E+01  0.902048075774E+00
  0.573084453819E+01  0.478677078010E+01 -0.604281589405E+00
  0.573084453819E+01  0.478677078010E+01  0.604281589405E+00
  0.576840728392E+01  0.234375792871E+01 -0.102347530863E+01
  0.576840728392E+01  0.234375792871E+01  0.102347530863E+01
  0.583338631872E+01  0.583336745020E+01  0.405247960184E-21
  0.586400574314E+01  0.119527989759E+01 -0.111145288712E+01
  0.586400574314E+01  0.119527989759E+01  0.111145288712E+01
  0.598105051178E+01  0.583336923462E+01 -0.234913090871E+00
  0.598105051178E+01  0.583336923462E+01  0.234913090871E+00
  0.611307647464E+01  0.000000000000E+00 -0.114006672374E+01
  0.611307647464E+01  0.000000000000E+00  0.114006672374E+01
  0.625916268514E+01  0.386280033901E+01 -0.902047251677E+00
  0.625916268514E+01  0.386280033901E+01  0.902047251677E+00
  0.630684940695E+01  0.583337123515E+01 -0.436282847598E+00
  0.630684940695E+01  0.583337123515E+01  0.436282847598E+00
  0.636319987860E+01  0.478677160653E+01 -0.760507120199E+00
  0.636319987860E+01  0.478677160653E+01  0.760507120199E+00
  0.639696619211E+01  0.172823956313E+01 -0.111145225217E+01
  0.639696619211E+01  0.172823956313E+01  0.111145225217E+01
  0.645271674047E+01  0.339639661210E+00 -0.114006685712E+01
  0.645271674047E+01  0.339639661210E+00  0.114006685712E+01
  0.647650435555E+01  0.305185410393E+01 -0.102347458652E+01
  0.647650435555E+01  0.305185410393E+01  0.102347458652E+01
  0.677744762352E+01  0.583337266991E+01 -0.604280572342E+00
  0.677744762352E+01  0.583337266991E+01  0.604280572342E+00
  0.684844294097E+01  0.735365004281E+00 -0.114006640392E+01
  0.684844294097E+01  0.735365004281E+00  0.114006640392E+01
  0.701105922061E+01  0.701103836697E+01  0.895766047527E-21
  0.701248623121E+01  0.234375857127E+01 -0.111145163580E+01
  0.701248623121E+01  0.234375857127E+01  0.111145163580E+01
  0.715872320950E+01  0.701104035556E+01 -0.234912358162E+00
  0.715872320950E+01  0.701104035556E+01  0.234912358162E+00
  0.718313593776E+01  0.478677229970E+01 -0.902046324878E+00
  0.718313593776E+01  0.478677229970E+01  0.902046324878E+00
  0.728745235124E+01  0.386280094467E+01 -0.102347387693E+01
  0.728745235124E+01  0.386280094467E+01  0.102347387693E+01
  0.730835952869E+01  0.119528064618E+01 -0.114006598452E+01
  0.730835952869E+01  0.119528064618E+01  0.114006598452E+01
  0.740980286412E+01  0.583337359616E+01 -0.760506118674E+00
  0.740980286412E+01  0.583337359616E+01  0.760506118674E+00
  0.748452186274E+01  0.701104259801E+01 -0.436281879461E+00
  0.748452186274E+01  0.701104259801E+01  0.436281879461E+00
  0.771254505256E+01  0.000000000000E+00 -0.108924206628E+01
  0.771254505256E+01  0.000000000000E+00  0.108924206628E+01
  0.772058373250E+01  0.305185479366E+01 -0.111145091404E+01
  0.772058373250E+01  0.305185479366E+01  0.111145091404E+01
  0.784131993909E+01  0.172824035030E+01 -0.114006535249E+01
  0.784131993909E+01  0.172824035030E+01  0.114006535249E+01
  0.795511991424E+01  0.701104419785E+01 -0.604279541528E+00
  0.795511991424E+01  0.701104419785E+01  0.604279541528E+00
  0.805218527188E+01  0.339640314685E+00 -0.108924208871E+01
  0.805218527188E+01  0.339640314685E+00  0.108924208871E+01
  0.821142554516E+01  0.478677296405E+01 -0.102347294427E+01
  0.821142554516E+01  0.478677296405E+01  0.102347294427E+01
[...]
POINT_DATA                1848
SCALARS phi float 1
LOOKUP_TABLE default
 -0.558207335372E-05
 -0.130068015157E+00
 -0.164477686372E+00
 -0.338731367785E+00
 -0.440244192560E+00
 -0.504150050872E+00
 -0.468795018821E+00
 -0.503204840859E+00
 -0.733394418581E+00
 -0.778971643471E+00
 -0.842877589262E+00
 -0.863458024777E+00
 -0.897867798803E+00
 -0.897274512667E+00
 -0.985788156565E+00
 -0.119207544800E+01
 -0.117363467134E+01
 -0.123754055284E+01
 -0.123600201811E+01
 -0.132451571720E+01
 -0.132213896851E+01
 -0.135654868891E+01
 -0.151648942302E+01
 -0.162788642374E+01
 -0.163231550493E+01
 -0.169622131132E+01
 -0.163066497744E+01
 -0.171917860480E+01
 -0.172360444737E+01
 -0.185366799059E+01
 -0.188807764894E+01
 -0.185521701119E+01
 -0.196661405654E+01
 -0.208934584693E+01
 -0.217785939933E+01
 -0.216384428047E+01
 -0.222775000437E+01
 -0.224988004001E+01
 -0.236127701980E+01
 -0.233747115257E+01
 -0.232385650866E+01
 -0.245598565256E+01
 -0.246753447004E+01
 -0.250194405737E+01
 -0.262087476856E+01
 -0.270938823301E+01
 -0.266258433895E+01
 -0.279471353076E+01
 -0.270856097676E+01
 -0.281995787862E+01
 -0.277771097272E+01
 -0.284161660164E+01
 -0.304366653448E+01
 -0.305724745183E+01
 -0.318937657713E+01
 -0.317372997231E+01
 -0.320813947932E+01
 -0.323474135759E+01
 -0.332325472025E+01
 -0.324008983963E+01
 -0.335148665007E+01
 -0.334049042526E+01
 -0.349040568508E+01
 -0.348390607656E+01
 -0.354781159752E+01
 -0.351592834858E+01
 -0.364805739481E+01
 -0.367921827247E+01
 -0.382913357483E+01
 -0.385243645987E+01
 -0.385395635800E+01
 -0.396535307136E+01
 -0.394093658409E+01
 -0.402944983055E+01
 -0.398249976927E+01
 -0.401690918878E+01
 -0.404745764143E+01
 -0.417958659492E+01
 -0.407388159432E+01
 -0.422379682993E+01
 -0.429267569495E+01
 -0.435658109923E+01
 -0.453256269575E+01
 -0.468247785202E+01
 -0.456015174382E+01
 -0.467154834508E+01
 -0.457478430418E+01
 -0.473758601078E+01
 -0.466132434609E+01
 -0.479345320090E+01
 -0.477392811432E+01
 -0.474970607322E+01
 -0.483821919765E+01
 -0.490399128551E+01
 -0.493840061065E+01
 -0.491351242480E+01
 -0.507631416458E+01
 -0.506409194210E+01
 -0.521400702274E+01
 -0.521416749304E+01
 -0.527807276797E+01
 -0.530817548067E+01
 -0.547097715376E+01
 -0.536892162657E+01
 -0.548031810058E+01
 -0.536751943213E+01
 -0.549964818171E+01
 -0.567119773049E+01
 -0.575971071882E+01
 -0.567795860838E+01
 -0.582787358119E+01
 -0.581772062691E+01
 -0.576685701651E+01
 -0.592965862780E+01
 -0.594778365315E+01
 -0.598219287567E+01
 -0.601316323709E+01
 -0.618015609999E+01
 -0.617628924675E+01
 -0.630841787563E+01
 -0.625795965003E+01
 -0.632186478842E+01
 -0.629041319001E+01
 -0.640180953078E+01
 -0.629838623456E+01
 -0.646118775285E+01
 -0.635189138148E+01
 -0.651888426392E+01
 -0.638415412207E+01
 -0.653406898912E+01
 -0.671499021389E+01
 -0.680350305325E+01
 -0.674655488345E+01
 -0.691354769951E+01
 -0.699223086139E+01
 -0.691225332572E+01
 -0.707505475372E+01
 -0.712229373768E+01
 -0.715670285287E+01
 -0.709778121604E+01
 -0.722990970916E+01
 -0.719292435042E+01
 -0.734283911353E+01
 -0.720523638542E+01
 -0.737222914004E+01
 -0.733420557273E+01
 -0.744560176680E+01
 -0.743246951053E+01
 -0.749637450711E+01
 -0.761205871200E+01
 -0.777160696234E+01
 -0.761844926791E+01
 -0.778125059019E+01
 -0.773676556478E+01
 -0.790375822682E+01
 -0.788949991434E+01
 -0.797801260271E+01
 -0.795078681813E+01
 -0.811033507175E+01
 -0.811441626159E+01
 -0.826433088808E+01
 -0.814157447040E+01
 -0.827370282270E+01
 -0.830400578739E+01
 -0.834545124707E+01
 -0.850499943481E+01
 -0.835063308764E+01
 -0.851762565989E+01
 -0.843406851239E+01
 -0.846847751761E+01
 -0.842721896844E+01
 -0.859002018678E+01
 -0.850871564238E+01
 -0.862011168722E+01
 -0.874424500483E+01
 -0.880814985284E+01
 -0.880413225446E+01
 -0.896368036390E+01
 -0.905682898057E+01
 -0.922382144762E+01
 -0.915820992447E+01
 -0.930812441783E+01
 -0.920127476697E+01
 -0.928978729678E+01
 -0.929802939333E+01
 -0.944168376908E+01
 -0.931608445612E+01
 -0.944821266477E+01
 -0.933566186896E+01
 -0.949520990396E+01
 -0.934871176473E+01
 -0.951151286384E+01
 -0.963675788502E+01
 -0.978041192091E+01
 -0.975693876274E+01
 -0.982049133581E+01
 -0.993188722346E+01
 -0.988700133961E+01
 -0.992141023501E+01
 -0.986559957750E+01
 -0.100325919412E+02
 -0.994952935593E+01
 -0.101090773019E+02
 -0.100314213479E+02
 -0.101750753487E+02
 -0.101971766448E+02
 -0.102610813457E+02
 -0.103327198437E+02
 -0.104826341922E+02
 -0.103925053657E+02
 -0.105553063315E+02
 -0.104901032891E+02
 -0.106337572461E+02
 -0.106278600582E+02
 -0.107599881237E+02
 -0.106542071872E+02
 -0.107427195639E+02
 -0.106557261596E+02
 -0.108152740012E+02
 -0.107870923137E+02
 -0.109540845587E+02
 -0.109838817094E+02
 -0.111063820744E+02
 -0.110216328882E+02
 -0.111652867997E+02
 -0.112734236442E+02
 -0.113848193799E+02
 -0.113514487231E+02
 -0.113226101837E+02
 -0.114451105770E+02
 -0.114815121124E+02
 -0.115159208994E+02
 -0.114644976715E+02
 -0.116240453932E+02
 -0.115670161704E+02
 -0.117298169911E+02
 -0.116355013083E+02
 -0.117791551623E+02
 -0.116444953723E+02
 -0.117944095850E+02
 -0.117172745950E+02
 -0.118397749810E+02
 -0.117916871841E+02
 -0.118555917399E+02
 -0.118308868008E+02
 -0.119978789131E+02
 -0.120807922782E+02
 -0.122129201970E+02
 -0.121759565329E+02
 -0.122984569051E+02
 -0.122487175577E+02
 -0.123372297835E+02
 -0.123416980868E+02
 -0.124853518786E+02
 -0.123859903585E+02
 -0.125455379625E+02
 -0.125833539954E+02
 -0.126826709361E+02
 -0.127074870789E+02
 -0.128299874375E+02
 -0.128679338997E+02
 -0.129793294944E+02
 -0.128787925816E+02
 -0.130415932661E+02
 -0.129220824912E+02
 -0.130213994782E+02
 -0.130837245234E+02
 -0.130053975277E+02
 -0.131723895128E+02
 -0.130974294199E+02
 -0.132473434930E+02
 -0.131504695707E+02
 -0.132941232852E+02
 -0.132137868367E+02
 -0.132481955231E+02
 -0.133167469006E+02
 -0.134160638791E+02
 -0.133213554976E+02
 -0.134438558232E+02
 -0.134297847923E+02
 -0.135893322646E+02
 -0.135239626330E+02
 -0.135878670602E+02
 -0.136753033976E+02
 -0.138074311804E+02
 -0.137754288405E+02
 -0.138747457947E+02
 -0.139809928450E+02
 -0.140695049372E+02
 -0.140273714738E+02
 -0.141044984387E+02
 -0.140275522689E+02
 -0.141500525652E+02
 -0.140719631822E+02
 -0.142156168118E+02
 -0.143069593877E+02
 -0.144062763171E+02
 -0.143171748180E+02
 -0.144841666674E+02
 -0.143660999806E+02
 -0.144432270010E+02
 -0.143317265509E+02
 -0.144945271128E+02
 -0.146002090812E+02
 -0.147116045436E+02
 -0.146042964224E+02
 -0.147638437511E+02
 -0.146919404699E+02
 -0.148418544055E+02
 -0.147607643932E+02
 -0.148378913939E+02
 -0.148363246990E+02
 -0.149588249406E+02
 -0.149451109961E+02
 -0.149208287491E+02
 -0.150201456507E+02
 -0.150751741563E+02
 -0.151095827521E+02
 -0.151157575826E+02
 -0.152594111189E+02
 -0.152194472780E+02
 -0.152965742597E+02
 -0.152737654506E+02
 -0.153313338517E+02
 -0.153853497464E+02
 -0.154492540546E+02
 -0.154075794467E+02
 -0.155397071024E+02
 -0.156124939634E+02
 -0.156700624152E+02
 -0.156270255240E+02
 -0.157263423739E+02
 -0.157509778272E+02
 -0.158281047706E+02
 -0.157578183034E+02
 -0.158803184796E+02
 -0.157701087228E+02
 -0.159371004325E+02
 -0.158423798077E+02
 -0.159308917817E+02
 -0.159160736535E+02
 -0.160756208476E+02
 -0.159262375320E+02
 -0.160890379559E+02
 -0.160071583748E+02
 -0.160647268029E+02
 -0.163085176322E+02
 -0.163497861942E+02
 -0.162902710790E+02
 -0.164339245057E+02
 -0.163648471901E+02
 -0.164419740901E+02
 -0.164357988986E+02
 -0.165351156877E+02
 -0.164658422134E+02
 -0.165234106080E+02
 -0.164242173950E+02
 -0.165741312194E+02
 -0.164615978445E+02
 -0.165729931996E+02
 -0.166472451908E+02
 -0.166885137995E+02
 -0.168016145962E+02
 -0.169241146949E+02
 -0.169217770152E+02
 -0.169973718092E+02
 -0.170549401573E+02
 -0.170419115050E+02
 -0.170831800793E+02
 -0.170518400955E+02
 -0.170862486178E+02
 -0.170710449120E+02
 -0.171481717516E+02
 -0.171401405896E+02
 -0.171683373275E+02
 -0.172689671820E+02
 -0.174010947358E+02
 -0.173620155027E+02
 -0.174259197214E+02
 -0.173572924948E+02
 -0.174566092112E+02
 -0.173646224759E+02
 -0.175316140653E+02
 -0.173690093915E+02
 -0.175285564644E+02
 -0.174788700494E+02
 -0.175070668148E+02
 -0.175005934415E+02
 -0.175418619687E+02
 -0.176112411711E+02
 -0.176688094608E+02
 -0.176020482772E+02
 -0.177457015889E+02
 -0.176585153336E+02
 -0.178213156631E+02
 -0.177912507920E+02
 -0.178092690002E+02
 -0.178190473347E+02
 -0.179075592222E+02
 -0.178735344603E+02
 -0.179017311792E+02
 -0.178798182861E+02
 -0.179569450452E+02
 -0.179761271293E+02
 -0.180986271301E+02
 -0.180321249366E+02
 -0.180733934053E+02
 -0.181299802478E+02
 -0.181479984617E+02
 -0.182906582256E+02
 -0.183008912640E+02
 -0.183174407937E+02
 -0.183750090053E+02
 -0.183322182961E+02
 -0.183604149553E+02
 -0.182856050652E+02
 -0.184355187948E+02
 -0.184010878313E+02
 -0.185004044535E+02
 -0.184382643357E+02
 -0.185496596071E+02
 -0.185246465582E+02
 -0.185426647128E+02
 -0.186293876773E+02
 -0.186396206996E+02
 -0.186459942972E+02
 -0.186872626885E+02
 -0.186676979208E+02
 -0.186720658069E+02
 -0.188013118810E+02
 -0.188784385464E+02
 -0.188637497891E+02
 -0.188919463726E+02
 -0.189489710891E+02
 -0.189833284898E+02
 -0.190013465684E+02
 -0.189947402281E+02
 -0.190064292714E+02
 -0.190107971253E+02
 -0.190240520833E+02
 -0.190342850331E+02
 -0.189635221425E+02
 -0.191230690787E+02
 -0.190549839856E+02
 -0.191986371812E+02
 -0.191248013547E+02
 -0.191592098247E+02
 -0.191262122611E+02
 -0.191837803772E+02
 -0.190969002080E+02
 -0.192638917034E+02
 -0.192877013927E+02
 -0.192456336017E+02
 -0.193777610864E+02
 -0.192879062153E+02
 -0.194104061093E+02
 -0.193521920158E+02
 -0.193934603084E+02
 -0.194010936759E+02
 -0.194054614485E+02
 -0.194349785170E+02
 -0.194988826730E+02
 -0.194827359152E+02
 -0.194929687766E+02
 -0.194776191484E+02
 -0.195058156340E+02
 -0.195148599814E+02
 -0.195328779669E+02
 -0.195199048457E+02
 -0.196827050798E+02
 -0.195756022600E+02
 -0.196749187674E+02
 -0.196823653871E+02
 -0.198597775067E+02
 -0.198641451836E+02
 -0.198451091176E+02
 -0.199222356674E+02
 -0.198920083400E+02
 -0.199805201706E+02
 -0.200142674053E+02
 -0.200245001626E+02
 -0.200477077600E+02
 -0.201052757539E+02
 -0.201287293380E+02
 -0.201467472127E+02
 -0.201410487428E+02
 -0.201609653859E+02
 -0.202022335579E+02
 -0.201838168648E+02
 -0.202120132342E+02
 -0.202622733257E+02
 -0.204121870024E+02
 -0.203913089964E+02
 -0.203956765621E+02
 -0.205112271703E+02
 -0.206226223976E+02
 -0.206281367614E+02
 -0.206383693976E+02
 -0.206725796886E+02
 -0.206494986009E+02
 -0.207931516763E+02
 -0.206958017197E+02
 -0.208553485627E+02
 -0.207408419079E+02
 -0.208633416910E+02
 -0.208349289562E+02
 -0.208529467003E+02
 -0.208873813383E+02
 -0.209866977227E+02
 -0.209925902322E+02
 -0.210207864673E+02
 -0.210051783523E+02
 -0.210095457916E+02
 -0.209582896563E+02
 -0.211252810565E+02
 -0.210196235437E+02
 -0.210967499581E+02
 -0.210824608812E+02
 -0.211237289158E+02
 -0.210915049940E+02
 -0.211490728534E+02
 -0.211403359580E+02
 -0.212864484293E+02
 -0.212703970650E+02
 -0.213048055059E+02
 -0.213343344766E+02
 -0.213445669747E+02
 -0.213185982840E+02
 -0.214507257310E+02
 -0.214965730539E+02
 -0.216593732345E+02
 -0.215805741218E+02
 -0.216444782472E+02
 -0.216437023235E+02
 -0.216617199210E+02
 -0.217113760676E+02
 -0.217157433642E+02
 -0.219140876307E+02
 -0.219422837104E+02
 -0.219926473583E+02
 -0.220376057698E+02
 -0.221261175793E+02
 -0.221262581165E+02
 -0.221675259948E+02
 -0.221431097464E+02
 -0.221533420908E+02
 -0.222660194180E+02
 -0.223235871248E+02
 -0.223314026194E+02
 -0.224085288915E+02
 -0.223403189292E+02
 -0.224396351789E+02
 -0.223353584087E+02
 -0.224578580752E+02
 -0.223352360551E+02
 -0.224851497104E+02
 -0.223817781504E+02
 -0.225254311262E+02
 -0.225201513382E+02
 -0.225245184763E+02
 -0.225651997215E+02
 -0.225832171554E+02
 -0.225571930177E+02
 -0.227167397665E+02
 -0.226568226487E+02
 -0.227682178603E+02
 -0.228014199656E+02
 -0.229578848653E+02
 -0.229860807773E+02
 -0.229349578093E+02
 -0.231019491561E+02
 -0.230646052432E+02
 -0.230748374168E+02
 -0.233007744421E+02
 -0.233420421528E+02
 -0.233311416887E+02
 -0.234416468351E+02
 -0.234460137996E+02
 -0.234612047108E+02
 -0.234956131484E+02
 -0.234641937144E+02
 -0.235963211702E+02
 -0.235778003961E+02
 -0.236353679411E+02
 -0.236089969581E+02
 -0.236270142133E+02
 -0.235695376351E+02
 -0.237323378114E+02
 -0.237229165349E+02
 -0.237713817086E+02
 -0.238352858394E+02
 -0.237843421098E+02
 -0.238614682296E+02
 -0.239348354216E+02
 -0.240341515406E+02
 -0.241084024800E+02
 -0.241186344707E+02
 -0.240676379462E+02
 -0.241901375070E+02
 -0.241323992908E+02
 -0.241605950213E+02
 -0.242284133128E+02
 -0.243169251411E+02
 -0.242431694194E+02
 -0.243868222979E+02
 -0.244854459754E+02
 -0.244898127526E+02
 -0.244808352564E+02
 -0.246307489284E+02
 -0.245338630274E+02
 -0.246934097234E+02
 -0.246125554224E+02
 -0.246538229540E+02
 -0.247667128816E+02
 -0.247835113848E+02
 -0.248015284508E+02
 -0.248476301600E+02
 -0.249590254061E+02
 -0.250307398871E+02
 -0.250883072625E+02
 -0.250079242485E+02
 -0.251749155911E+02
 -0.252829188110E+02
 -0.252931506057E+02
 -0.253788585997E+02
 -0.254559845730E+02
 -0.254441802737E+02
 -0.254723758128E+02
 -0.255373019676E+02
 -0.256599604049E+02
 -0.256643269833E+02
 -0.256673650340E+02
 -0.257017734956E+02
 -0.256671168576E+02
 -0.257664328492E+02
 -0.256550031055E+02
 -0.257871306038E+02
 -0.257151368071E+02
 -0.258779369998E+02
 -0.259412282725E+02
 -0.259290310980E+02
 -0.260515305727E+02
 -0.259775401176E+02
 -0.260414442964E+02
 -0.260654949162E+02
 -0.261067622627E+02
 -0.260952942714E+02
 -0.261133111393E+02
 -0.262198413066E+02
 -0.263634941249E+02
 -0.264345736173E+02
 -0.265230855067E+02
 -0.265947016991E+02
 -0.266049332906E+02
 -0.266252563803E+02
 -0.266828235892E+02
 -0.266068294390E+02
 -0.267663761139E+02
 -0.266716446237E+02
 -0.268215583553E+02
 -0.268971197691E+02
 -0.269253151142E+02
 -0.269717432943E+02
 -0.269761096660E+02
 -0.270537923537E+02
 -0.271651876871E+02
 -0.271111400338E+02
 -0.271882658654E+02
 -0.271535233811E+02
 -0.273205147576E+02
 -0.272530101889E+02
 -0.275482337695E+02
 -0.275662504353E+02
 -0.275285100065E+02
 -0.276278258913E+02
 -0.276600114124E+02
 -0.277012785784E+02
 -0.277281072549E+02
 -0.278581722957E+02
 -0.278925808086E+02
 -0.278611633927E+02
 -0.279932909869E+02
 -0.279057029769E+02
 -0.280282023852E+02
 -0.279059461507E+02
 -0.280687464202E+02
 -0.280476411989E+02
 -0.280578725835E+02
 -0.281683474187E+02
 -0.282322516793E+02
 -0.282928096016E+02
 -0.284364623873E+02
 -0.283575397201E+02
 -0.284151067690E+02
 -0.284246827956E+02
 -0.284290489571E+02
 -0.284916381706E+02
 -0.285198333252E+02
 -0.286253809449E+02
 -0.287138929377E+02
 -0.287059487077E+02
 -0.287524304570E+02
 -0.289119771488E+02
 -0.288778049064E+02
 -0.290277187427E+02
 -0.289725350880E+02
 -0.290496607911E+02
 -0.291427521739E+02
 -0.291607686416E+02
 -0.292445996955E+02
 -0.293559951514E+02
 -0.293922947534E+02
 -0.294335617509E+02
 -0.293443346197E+02
 -0.295113260556E+02
 -0.295051837863E+02
 -0.296044995849E+02
 -0.296421596056E+02
 -0.296523907866E+02
 -0.298737021221E+02
 -0.300037653564E+02
 -0.300381739465E+02
 -0.300192031062E+02
 -0.300235690603E+02
 -0.299786731689E+02
 -0.301011725388E+02
 -0.300519726460E+02
 -0.301841003811E+02
 -0.301121083357E+02
 -0.302749087099E+02
 -0.302239234191E+02
 -0.302521183916E+02
 -0.302189347763E+02
 -0.302765016839E+02
 -0.303004680553E+02
 -0.303139424675E+02
 -0.303778468460E+02
 -0.304384106033E+02
 -0.305820633998E+02
 -0.307709760535E+02
 -0.308594881896E+02
 -0.308750374255E+02
 -0.308930537040E+02
 -0.309492088673E+02
 -0.310263344723E+02
 -0.309432416740E+02
 -0.311027884428E+02
 -0.310686141704E+02
 -0.312185281567E+02
 -0.312536917173E+02
 -0.312949585574E+02
 -0.313744448589E+02
 -0.313846758465E+02
 -0.313901948402E+02
 -0.315015904602E+02
 -0.315781539746E+02
 -0.316774697243E+02
 -0.315504986982E+02
 -0.317174902563E+02
 -0.317514864595E+02
 -0.317558522156E+02
 -0.319466640984E+02
 -0.320327523998E+02
 -0.320767274466E+02
 -0.321111361369E+02
 -0.320853203854E+02
 -0.321135151940E+02
 -0.321242741698E+02
 -0.322467735446E+02
 -0.321956104644E+02
 -0.322531772535E+02
 -0.321975678169E+02
 -0.323296957352E+02
 -0.323029176059E+02
 -0.324657181477E+02
 -0.323869065874E+02
 -0.324508111160E+02
 -0.326292237271E+02
 -0.327728765658E+02
 -0.327364324930E+02
 -0.327544485999E+02
 -0.328439364583E+02
 -0.329324487735E+02
 -0.330221790604E+02
 -0.330993045968E+02
 -0.331494076634E+02
 -0.333089545369E+02
 -0.332358399293E+02
 -0.332460707391E+02
 -0.332303655070E+02
 -0.332716322176E+02
 -0.332142131707E+02
 -0.333641273497E+02
 -0.334631572070E+02
 -0.335745530195E+02
 -0.336128834336E+02
 -0.336172490088E+02
 -0.337237568807E+02
 -0.338230726168E+02
 -0.337413079843E+02
 -0.339082997099E+02
 -0.338941485504E+02
 -0.339233276179E+02
 -0.340533910933E+02
 -0.340877999008E+02
 -0.340619960817E+02
 -0.340901907506E+02
 -0.342685806625E+02
 -0.343261473678E+02
 -0.342705340295E+02
 -0.344026621601E+02
 -0.343150910975E+02
 -0.344375905171E+02
 -0.343635703973E+02
 -0.344274750983E+02
 -0.344485185375E+02
 -0.346113192724E+02
 -0.347131081923E+02
 -0.347311241531E+02
 -0.348206041847E+02
 -0.349091167086E+02
 -0.348353916186E+02
 -0.349790445514E+02
 -0.351677838748E+02
 -0.352449093788E+02
 -0.352125194360E+02
 -0.352227500937E+02
 -0.353033395136E+02
 -0.353446061300E+02
 -0.352871756122E+02
 -0.354370900219E+02
 -0.353402207669E+02
 -0.354997678079E+02
 -0.354398250093E+02
 -0.355512210452E+02
 -0.355895629424E+02
 -0.355939283613E+02
 -0.357847123024E+02
 -0.358708235546E+02
 -0.359147759116E+02
 -0.359491848512E+02
 -0.359145738142E+02
 -0.360138895770E+02
 -0.358869089379E+02
 -0.360539008740E+02
 -0.361349700938E+02
 -0.361631646566E+02
 -0.362249554055E+02
 -0.362888602996E+02
 -0.362471980858E+02
 -0.363793264513E+02
 -0.364141854824E+02
 -0.364717521408E+02
 -0.365212551933E+02
 -0.366437547001E+02
 -0.365214810120E+02
 -0.366842819956E+02
 -0.366819893282E+02
 -0.367705020749E+02
 -0.367860822085E+02
 -0.368040980548E+02
 -0.370262047390E+02
 -0.371698578101E+02
 -0.372854934545E+02
 -0.372957239930E+02
 -0.372638435211E+02
 -0.374137581759E+02
 -0.373012102371E+02
 -0.374126065199E+02
 -0.373586008157E+02
 -0.374357263282E+02
 -0.374489443397E+02
 -0.374902108952E+02
 -0.375169851994E+02
 -0.374858179502E+02
 -0.376453651838E+02
 -0.376470527496E+02
 -0.376814618290E+02
 -0.376625369633E+02
 -0.376669022582E+02
 -0.379437970324E+02
 -0.379572286459E+02
 -0.380211337473E+02
 -0.379598752697E+02
 -0.381268674370E+02
 -0.381207417233E+02
 -0.382200575558E+02
 -0.381085871817E+02
 -0.382407158149E+02
 -0.382805749233E+02
 -0.383087694179E+02
 -0.384142627215E+02
 -0.385027756980E+02
 -0.384981489645E+02
 -0.386609502111E+02
 -0.386050062315E+02
 -0.386625728892E+02
 -0.387120721321E+02
 -0.388345717685E+02
 -0.389316908464E+02
 -0.389497066165E+02
 -0.390334837231E+02
 -0.391448802603E+02
 -0.391114950195E+02
 -0.391252326777E+02
 -0.392751476018E+02
 -0.391718057472E+02
 -0.393154589899E+02
 -0.392415588999E+02
 -0.392759681226E+02
 -0.394311020953E+02
 -0.394413325519E+02
 -0.395517388211E+02
 -0.396156441286E+02
 -0.395647725379E+02
 -0.396418981027E+02
 -0.395587881228E+02
 -0.397183355871E+02
 -0.396397650953E+02
 -0.396810316364E+02
 -0.398081456059E+02
 -0.398125108153E+02
 -0.398408607426E+02
 -0.399729896425E+02
 -0.399365432774E+02
 -0.401035357076E+02
 -0.400087730481E+02
 -0.400972862715E+02
 -0.400894053165E+02
 -0.403115586737E+02
 -0.404108746188E+02
 -0.403595381815E+02
 -0.405223396981E+02
 -0.404713956844E+02
 -0.404995901534E+02
 -0.405644259287E+02
 -0.406279941515E+02
 -0.407393909520E+02
 -0.406944899388E+02
 -0.407288993041E+02
 -0.408111741559E+02
 -0.408687408527E+02
 -0.408576731545E+02
 -0.409801729603E+02
 -0.408575062962E+02
 -0.410074215060E+02
 -0.410046700819E+02
 -0.410685755977E+02