# vtk DataFile Version 3.0
MachLine results file. Generated by MachLine, USU AeroLab (c) 2022.
ASCII
DATASET POLYDATA
POINTS                 114 float
  0.000000000000E+00  0.000000000000E+00  0.000000000000E+00
  0.997314477224E+04  0.000000000000E+00  0.732381971276E+03
  0.113538098335E+01  0.000000000000E+00 -0.658124566078E+00
  0.997319893265E+04  0.000000000000E+00  0.731644446835E+03
  0.113538098335E+01  0.000000000000E+00  0.658124566078E+00
  0.997310279182E+04  0.000000000000E+00  0.732953635825E+03
  0.192375373840E+01  0.192375373840E+01  0.000000000000E+00
  0.997315509094E+04  0.192375373840E+01  0.732241457390E+03
  0.305913543701E+01  0.192375373840E+01 -0.658124983311E+00
  0.997320925138E+04  0.192375373840E+01  0.731503932481E+03
  0.305913543701E+01  0.192375373840E+01  0.658124983311E+00
  0.997311311049E+04  0.192375373840E+01  0.732813122302E+03
  0.423028087616E+01  0.000000000000E+00 -0.108747220039E+01
  0.997324689338E+04  0.000000000000E+00  0.730991345975E+03
  0.423028087616E+01  0.000000000000E+00  0.108747220039E+01
  0.997308803215E+04  0.000000000000E+00  0.733154624336E+03
  0.615403699875E+01  0.192375373840E+01  0.108747279644E+01
  0.997309835081E+04  0.192375373840E+01  0.733014110868E+03
  0.660571479797E+01  0.547033166885E+01 -0.658125698566E+00
  0.997322827470E+04  0.547033166885E+01  0.731244884243E+03
  0.125173873901E+02  0.113820018768E+02 -0.658127009869E+00
  0.997325998402E+04  0.113820018768E+02  0.730813085420E+03
  0.156122989655E+02  0.113820018768E+02 -0.108747613430E+01
  0.997330794492E+04  0.113820018768E+02  0.730159982225E+03
  0.156122989655E+02  0.113820018768E+02  0.108747613430E+01
  0.997314908311E+04  0.113820018768E+02  0.732323268412E+03
  0.164639663696E+02  0.192375373840E+01 -0.479613333941E+00
  0.997326811390E+04  0.192375373840E+01  0.730702377474E+03
  0.176505107880E+02  0.000000000000E+00 -0.144198849797E+00
  0.997324997915E+04  0.000000000000E+00  0.730949325849E+03
  0.176505107880E+02  0.000000000000E+00  0.144198849797E+00
  0.997322891414E+04  0.000000000000E+00  0.731236176632E+03
  0.190000000000E+02  0.000000000000E+00  0.000000000000E+00
  0.997324668508E+04  0.000000000000E+00  0.730994182505E+03
  0.195742740631E+02  0.192375373840E+01 -0.144198939204E+00
  0.997326029790E+04  0.192375373840E+01  0.730808811178E+03
  0.195742740631E+02  0.192375373840E+01  0.144198939204E+00
  0.997323923288E+04  0.192375373840E+01  0.731095662138E+03
  0.197561950684E+02  0.197561950684E+02  0.000000000000E+00
  0.997325074119E+04  0.197561950684E+02  0.730938948872E+03
  0.209237651825E+02  0.192375373840E+01  0.000000000000E+00
  0.997325700384E+04  0.192375373840E+01  0.730853667783E+03
  0.244703655243E+02  0.547033166885E+01  0.000000000000E+00
  0.997327602721E+04  0.547033166885E+01  0.730594618723E+03
  0.292438049316E+02  0.292438049316E+02  0.000000000000E+00
  0.997330163115E+04  0.292438049316E+02  0.730245959481E+03
  0.303791980743E+02  0.292438049316E+02 -0.658130764961E+00
  0.997335579207E+04  0.292438049316E+02  0.729508427985E+03
  0.303820724487E+02  0.113820018768E+02  0.000000000000E+00
  0.997330773662E+04  0.113820018768E+02  0.730162818698E+03
  0.342964897156E+02  0.197561950684E+02 -0.479616105556E+00
  0.997336376479E+04  0.197561950684E+02  0.729399860208E+03
  0.342964897156E+02  0.197561950684E+02  0.479616105556E+00
  0.997329370102E+04  0.197561950684E+02  0.730353947258E+03
  0.386389808655E+02  0.292438049316E+02  0.980755090714E+00
  0.997328038947E+04  0.292438049316E+02  0.730535216087E+03
  0.387533912659E+02  0.376179962158E+02 -0.658132553101E+00
  0.997340070998E+04  0.376179962158E+02  0.728896762455E+03
  0.387563171387E+02  0.197561950684E+02  0.000000000000E+00
  0.997335265468E+04  0.197561950684E+02  0.729551151185E+03
  0.446650657654E+02  0.435296669006E+02  0.658133804798E+00
  0.997333627713E+04  0.435296669006E+02  0.729774170922E+03
  0.477600097656E+02  0.435296669006E+02 -0.108748745918E+01
  0.997348038072E+04  0.435296669006E+02  0.727811853483E+03
  0.477600097656E+02  0.435296669006E+02  0.108748745918E+01
  0.997332151726E+04  0.435296669006E+02  0.729975162198E+03
  0.482116432190E+02  0.470762481689E+02 -0.658134579659E+00
  0.997345144262E+04  0.470762481689E+02  0.728205915394E+03
  0.482439842224E+02  0.292438049316E+02  0.000000000000E+00
  0.997340354494E+04  0.292438049316E+02  0.728858157614E+03
  0.490000000000E+02  0.490000000000E+02  0.000000000000E+00
  0.997340760009E+04  0.490000000000E+02  0.728802937077E+03
  0.501353988647E+02  0.490000000000E+02 -0.658134996891E+00
  0.997346176135E+04  0.490000000000E+02  0.728065400954E+03
  0.501353988647E+02  0.490000000000E+02  0.658134996891E+00
  0.997336561900E+04  0.490000000000E+02  0.729374610694E+03
  0.566182289124E+02  0.376179962158E+02  0.000000000000E+00
  0.997344846300E+04  0.376179962158E+02  0.728246490101E+03
  0.580700759888E+02  0.435296669006E+02  0.479619771242E+00
  0.997342121831E+04  0.435296669006E+02  0.728617492162E+03
  0.583952369690E+02  0.490000000000E+02 -0.980761349201E+00
  0.997352963087E+04  0.490000000000E+02  0.727141194033E+03
  0.611804275513E+02  0.435296669006E+02 -0.144200876355E+00
  0.997348346652E+04  0.435296669006E+02  0.727769832797E+03
  0.611804275513E+02  0.435296669006E+02  0.144200876355E+00
  0.997346240122E+04  0.435296669006E+02  0.728056687610E+03
  0.625299339294E+02  0.435296669006E+02  0.000000000000E+00
  0.997348017240E+04  0.435296669006E+02  0.727814690214E+03
  0.635404319763E+02  0.490000000000E+02  0.479620635509E+00
  0.997345056033E+04  0.490000000000E+02  0.728217929937E+03
  0.638795776367E+02  0.493391418457E+02 -0.339143037796E+00
  0.997351218319E+04  0.493391418457E+02  0.727378786263E+03
  0.660765380859E+02  0.470762481689E+02  0.000000000000E+00
  0.997349919579E+04  0.470762481689E+02  0.727555640876E+03
  0.666507873535E+02  0.490000000000E+02  0.144201144576E+00
  0.997349174330E+04  0.490000000000E+02  0.727657124514E+03
  0.667527542114E+02  0.491019668579E+02 -0.101965606213E+00
  0.997351027063E+04  0.491019668579E+02  0.727404830347E+03
  0.667527542114E+02  0.491019668579E+02  0.101965606213E+00
  0.997349537518E+04  0.491019668579E+02  0.727607667706E+03
  0.680002975464E+02  0.490000000000E+02  0.000000000000E+00
  0.997350951452E+04  0.490000000000E+02  0.727415126572E+03
  0.244703655243E+02  0.547033166885E+01  0.000000000000E+00
  0.997327602721E+04  0.547033166885E+01  0.730594618723E+03
  0.303820724487E+02  0.113820018768E+02  0.000000000000E+00
  0.997330773662E+04  0.113820018768E+02  0.730162818698E+03
  0.387563171387E+02  0.197561950684E+02  0.000000000000E+00
  0.997335265468E+04  0.197561950684E+02  0.729551151185E+03
  0.482439842224E+02  0.292438049316E+02  0.000000000000E+00
  0.997340354494E+04  0.292438049316E+02  0.728858157614E+03
  0.625299339294E+02  0.435296669006E+02  0.000000000000E+00
  0.997348017240E+04  0.435296669006E+02  0.727814690214E+03
  0.660765380859E+02  0.470762481689E+02  0.000000000000E+00
  0.997349919579E+04  0.470762481689E+02  0.727555640876E+03
POLYGONS                  18                  72
3                  40                  41                  33
3                  40                  33                  32
3                  42                  43                  41
3                  42                  41                  40
3                  48                  49                  43
3                  48                  43                  42
3                  58                  59                  49
3                  58                  49                  48
3                  68                  69                  59
3                  68                  59                  58
3                  76                  77                  69
3                  76                  69                  68
3                  86                  87                  77
3                  86                  77                  76
3                  92                  93                  87
3                  92                  87                  86
3                 100                 101                  93
3                 100                  93                  92
CELL_DATA                  18
NORMALS normals float
  0.730425627137E-01 -0.730429972321E-01 -0.994650443416E+00
  0.730425627137E-01 -0.730429972322E-01 -0.994650443416E+00
  0.730425625694E-01 -0.730430241361E-01 -0.994650441451E+00
  0.730425625694E-01 -0.730430241361E-01 -0.994650441451E+00
  0.730425626116E-01 -0.730430162675E-01 -0.994650442026E+00
  0.730425626116E-01 -0.730430162674E-01 -0.994650442026E+00
  0.730425626355E-01 -0.730430118220E-01 -0.994650442350E+00
  0.730425626355E-01 -0.730430118220E-01 -0.994650442350E+00
  0.730425626817E-01 -0.730430032070E-01 -0.994650442980E+00
  0.730425626817E-01 -0.730430032070E-01 -0.994650442980E+00
  0.730425625467E-01 -0.730430283704E-01 -0.994650441142E+00
  0.730425625467E-01 -0.730430283704E-01 -0.994650441142E+00
  0.730425627688E-01 -0.730429869656E-01 -0.994650444166E+00
  0.730425627688E-01 -0.730429869656E-01 -0.994650444166E+00
  0.730425625170E-01 -0.730430339041E-01 -0.994650440737E+00
  0.730425625170E-01 -0.730430339041E-01 -0.994650440737E+00
  0.730425634865E-01 -0.730428531657E-01 -0.994650453939E+00
  0.730425634865E-01 -0.730428531657E-01 -0.994650453939E+00
POINT_DATA                 114
SCALARS mu float 1
LOOKUP_TABLE default
  0.000000000000E+00
  0.000000000000E+00
  0.000000000000E+00
  0.000000000000E+00
  0.000000000000E+00
  0.000000000000E+00
  0.000000000000E+00
  0.000000000000E+00
  0.000000000000E+00
  0.000000000000E+00
  0.000000000000E+00
  0.000000000000E+00
  0.000000000000E+00
  0.000000000000E+00
  0.000000000000E+00
  0.000000000000E+00
  0.000000000000E+00
  0.000000000000E+00
  0.000000000000E+00
  0.000000000000E+00
  0.000000000000E+00
  0.000000000000E+00
  0.000000000000E+00
  0.000000000000E+00
  0.000000000000E+00
  0.000000000000E+00
  0.000000000000E+00
  0.000000000000E+00
  0.000000000000E+00
  0.000000000000E+00
  0.000000000000E+00
  0.000000000000E+00
 -0.208740454616E+01
 -0.208740454616E+01
  0.000000000000E+00
  0.000000000000E+00
  0.000000000000E+00
  0.000000000000E+00
  0.000000000000E+00
  0.000000000000E+00
 -0.212205687978E+01
 -0.212205687978E+01
 -0.219294662375E+01
 -0.219294662375E+01
  0.000000000000E+00
  0.000000000000E+00
  0.000000000000E+00
  0.000000000000E+00
 -0.228140498175E+01
 -0.228140498175E+01
  0.000000000000E+00
  0.000000000000E+00
  0.000000000000E+00
  0.000000000000E+00
  0.000000000000E+00
  0.000000000000E+00
  0.000000000000E+00
  0.000000000000E+00
 -0.233581327495E+01
 -0.233581327495E+01
  0.000000000000E+00
  0.000000000000E+00
  0.000000000000E+00
  0.000000000000E+00
  0.000000000000E+00
  0.000000000000E+00
  0.000000000000E+00
  0.000000000000E+00
 -0.227590901794E+01
 -0.227590901794E+01
  0.000000000000E+00
  0.000000000000E+00
  0.000000000000E+00
  0.000000000000E+00
  0.000000000000E+00
  0.000000000000E+00
 -0.201514106168E+01
 -0.201514106168E+01
  0.000000000000E+00
  0.000000000000E+00
  0.000000000000E+00
  0.000000000000E+00
  0.000000000000E+00
  0.000000000000E+00
  0.000000000000E+00
  0.000000000000E+00
 -0.151831297301E+01
 -0.151831297301E+01
  0.000000000000E+00
  0.000000000000E+00
  0.000000000000E+00
  0.000000000000E+00
 -0.832600777624E+00
 -0.832600777624E+00
  0.000000000000E+00
  0.000000000000E+00
  0.000000000000E+00
  0.000000000000E+00
  0.000000000000E+00
  0.000000000000E+00
  0.000000000000E+00
  0.000000000000E+00
  0.219294662375E+01
  0.219294662375E+01
  0.228140498175E+01
  0.228140498175E+01
  0.233581327495E+01
  0.233581327495E+01
  0.227590901794E+01
  0.227590901794E+01
  0.151831297301E+01
  0.151831297301E+01
  0.832600777624E+00
  0.832600777624E+00
