# vtk DataFile Version 3.0
MachLine results file. Generated by MachLine, USU AeroLab (c) 2022.
ASCII
DATASET POLYDATA
POINTS                 482 float
  0.000000000000E+00  0.000000000000E+00  0.000000000000E+00
  0.473465979099E+00  0.000000000000E+00 -0.436293870211E+00
  0.473465979099E+00  0.000000000000E+00  0.436293870211E+00
  0.757896304131E+00  0.757896304131E+00  0.000000000000E+00
  0.123136246204E+01  0.757896304131E+00 -0.436293989420E+00
  0.123136246204E+01  0.757896304131E+00  0.436293989420E+00
  0.157641971111E+01  0.000000000000E+00 -0.760520398617E+00
  0.157641971111E+01  0.000000000000E+00  0.760520398617E+00
  0.178897356987E+01  0.178897356987E+01  0.000000000000E+00
  0.226243972778E+01  0.178897356987E+01 -0.436294138432E+00
  0.226243972778E+01  0.178897356987E+01  0.436294138432E+00
  0.233431649208E+01  0.757896304131E+00 -0.760520577431E+00
  0.233431649208E+01  0.757896304131E+00  0.760520577431E+00
  0.317279767990E+01  0.317279767990E+01  0.000000000000E+00
  0.336539411545E+01  0.178897356987E+01 -0.760520815849E+00
  0.336539411545E+01  0.178897356987E+01  0.760520815849E+00
  0.342464399338E+01  0.000000000000E+00 -0.102348911762E+01
  0.342464399338E+01  0.000000000000E+00  0.102348911762E+01
  0.364626431465E+01  0.317279767990E+01 -0.436294317245E+00
  0.364626431465E+01  0.317279767990E+01  0.436294317245E+00
  0.418254137039E+01  0.757896304131E+00 -0.102348935604E+01
  0.418254137039E+01  0.757896304131E+00  0.102348935604E+01
  0.474921894073E+01  0.317279767990E+01 -0.760521173477E+00
  0.474921894073E+01  0.317279767990E+01  0.760521173477E+00
  0.499661636353E+01  0.499661636353E+01  0.000000000000E+00
  0.521361970901E+01  0.178897356987E+01 -0.102348971367E+01
  0.521361970901E+01  0.178897356987E+01  0.102348971367E+01
  0.547008323669E+01  0.499661636353E+01 -0.436294585466E+00
  0.547008323669E+01  0.499661636353E+01  0.436294585466E+00
  0.611307668686E+01  0.000000000000E+00 -0.114008128643E+01
  0.611307668686E+01  0.000000000000E+00  0.114008128643E+01
  0.657303857803E+01  0.499661636353E+01 -0.760521650314E+00
  0.657303857803E+01  0.499661636353E+01  0.760521650314E+00
  0.659744548798E+01  0.317279767990E+01 -0.102349019051E+01
  0.659744548798E+01  0.317279767990E+01  0.102349019051E+01
  0.687097454071E+01  0.757896304131E+00 -0.114008152485E+01
  0.687097454071E+01  0.757896304131E+00  0.114008152485E+01
  0.734362459183E+01  0.734362459183E+01  0.000000000000E+00
  0.781709194183E+01  0.734362459183E+01 -0.436294913292E+00
  0.781709194183E+01  0.734362459183E+01  0.436294913292E+00
  0.790205335617E+01  0.178897356987E+01 -0.114008200169E+01
  0.790205335617E+01  0.178897356987E+01  0.114008200169E+01
  0.842126560211E+01  0.499661636353E+01 -0.102349078655E+01
  0.842126560211E+01  0.499661636353E+01  0.102349078655E+01
  0.892004776001E+01  0.734362459183E+01 -0.760522186756E+00
  0.892004776001E+01  0.734362459183E+01  0.760522186756E+00
  0.928588008881E+01  0.317279767990E+01 -0.114008247852E+01
  0.928588008881E+01  0.317279767990E+01  0.114008247852E+01
  0.939508819580E+01  0.000000000000E+00 -0.980745851994E+00
  0.939508819580E+01  0.000000000000E+00  0.980745851994E+00
  0.101529865265E+02  0.757896304131E+00 -0.980746090412E+00
  0.101529865265E+02  0.757896304131E+00  0.980746090412E+00
  0.102728376389E+02  0.102728376389E+02  0.000000000000E+00
  0.107463054657E+02  0.102728376389E+02 -0.436295330524E+00
  0.107463054657E+02  0.102728376389E+02  0.436295330524E+00
  0.107682771683E+02  0.734362459183E+01 -0.102349150181E+01
  0.107682771683E+02  0.734362459183E+01  0.102349150181E+01
  0.111097030640E+02  0.499661636353E+01 -0.114008307457E+01
  0.111097030640E+02  0.499661636353E+01  0.114008307457E+01
  0.111840667725E+02  0.178897356987E+01 -0.980746388435E+00
  0.111840667725E+02  0.178897356987E+01  0.980746388435E+00
  0.118492631912E+02  0.102728376389E+02 -0.760522902012E+00
  0.118492631912E+02  0.102728376389E+02  0.760522902012E+00
  0.125678949356E+02  0.317279767990E+01 -0.980746865273E+00
  0.125678949356E+02  0.317279767990E+01  0.980746865273E+00
  0.126670312881E+02  0.000000000000E+00 -0.678052663803E+00
  0.126670312881E+02  0.000000000000E+00  0.678052663803E+00
  0.134249305725E+02  0.757896304131E+00 -0.678052842617E+00
  0.134249305725E+02  0.757896304131E+00  0.678052842617E+00
  0.134567155838E+02  0.734362459183E+01 -0.114008402824E+01
  0.134567155838E+02  0.734362459183E+01  0.114008402824E+01
  0.136974935532E+02  0.102728376389E+02 -0.102349245548E+01
  0.136974935532E+02  0.102728376389E+02  0.102349245548E+01
  0.137921218872E+02  0.137921218872E+02  0.000000000000E+00
  0.142655897141E+02  0.137921218872E+02 -0.436295837164E+00
  0.142655897141E+02  0.137921218872E+02  0.436295837164E+00
  0.143917188644E+02  0.499661636353E+01 -0.980747401714E+00
  0.143917188644E+02  0.499661636353E+01  0.980747401714E+00
  0.144560117722E+02  0.178897356987E+01 -0.678053081036E+00
  0.144560117722E+02  0.178897356987E+01  0.678053081036E+00
  0.153437566757E+02  0.000000000000E+00 -0.393031150103E+00
  0.153437566757E+02  0.000000000000E+00  0.393031150103E+00
  0.153685483932E+02  0.137921218872E+02 -0.760523796082E+00
  0.153685483932E+02  0.137921218872E+02  0.760523796082E+00
  0.158398418427E+02  0.317279767990E+01 -0.678053379059E+00
  0.158398418427E+02  0.317279767990E+01  0.678053379059E+00
  0.161016559601E+02  0.757896304131E+00 -0.393031239510E+00
  0.161016559601E+02  0.757896304131E+00  0.393031239510E+00
  0.163859348297E+02  0.102728376389E+02 -0.114008510113E+01
  0.163859348297E+02  0.102728376389E+02  0.114008510113E+01
  0.167387351990E+02  0.734362459183E+01 -0.980748176575E+00
  0.167387351990E+02  0.734362459183E+01  0.980748176575E+00
  0.171327381134E+02  0.178897356987E+01 -0.393031388521E+00
  0.171327381134E+02  0.178897356987E+01  0.393031388521E+00
  0.172004318237E+02  0.000000000000E+00 -0.192506864667E+00
  0.172004318237E+02  0.000000000000E+00  0.192506864667E+00
  0.172167816162E+02  0.137921218872E+02 -0.102349364758E+01
  0.172167816162E+02  0.137921218872E+02  0.102349364758E+01
  0.176636676788E+02  0.499661636353E+01 -0.678053736687E+00
  0.176636676788E+02  0.499661636353E+01  0.678053736687E+00
  0.178320064545E+02  0.178320064545E+02  0.000000000000E+00
  0.179583320618E+02  0.757896304131E+00 -0.192506924272E+00
  0.179583320618E+02  0.757896304131E+00  0.192506924272E+00
  0.183054752350E+02  0.178320064545E+02 -0.436296403408E+00
  0.183054752350E+02  0.178320064545E+02  0.436296403408E+00
  0.183450412750E+02  0.000000000000E+00 -0.698660761118E-01
  0.183450412750E+02  0.000000000000E+00  0.698660761118E-01
  0.185165691376E+02  0.317279767990E+01 -0.393031567335E+00
  0.185165691376E+02  0.317279767990E+01  0.393031567335E+00
  0.189894161224E+02  0.178897356987E+01 -0.192506983876E+00
  0.189894161224E+02  0.178897356987E+01  0.192506983876E+00
  0.190000000000E+02  0.000000000000E+00  0.000000000000E+00
  0.191029415131E+02  0.757896304131E+00 -0.698660910130E-01
  0.191029415131E+02  0.757896304131E+00  0.698660910130E-01
  0.194084339142E+02  0.178320064545E+02 -0.760524809361E+00
  0.194084339142E+02  0.178320064545E+02  0.760524809361E+00
  0.196679573059E+02  0.102728376389E+02 -0.980749070644E+00
  0.196679573059E+02  0.102728376389E+02  0.980749070644E+00
  0.197579002380E+02  0.757896304131E+00  0.000000000000E+00
  0.199052257538E+02  0.137921218872E+02 -0.114008641243E+01
  0.199052257538E+02  0.137921218872E+02  0.114008641243E+01
  0.200106849670E+02  0.734362459183E+01 -0.678054273129E+00
  0.200106849670E+02  0.734362459183E+01  0.678054273129E+00
  0.201340255737E+02  0.178897356987E+01 -0.698661133647E-01
  0.201340255737E+02  0.178897356987E+01  0.698661133647E-01
  0.203403968811E+02  0.499661636353E+01 -0.393031775951E+00
  0.203403968811E+02  0.499661636353E+01  0.393031775951E+00
  0.203732471466E+02  0.317279767990E+01 -0.192507073283E+00
  0.203732471466E+02  0.317279767990E+01  0.192507073283E+00
  0.207889842987E+02  0.178897356987E+01  0.000000000000E+00
  0.212566699982E+02  0.178320064545E+02 -0.102349495888E+01
  0.212566699982E+02  0.178320064545E+02  0.102349495888E+01
  0.215178565979E+02  0.317279767990E+01 -0.698661431670E-01
  0.215178565979E+02  0.317279767990E+01  0.698661431670E-01
  0.221728172302E+02  0.317279767990E+01  0.000000000000E+00
  0.221970767975E+02  0.499661636353E+01 -0.192507177591E+00
  0.221970767975E+02  0.499661636353E+01  0.192507177591E+00
  0.222339305878E+02  0.222339305878E+02  0.000000000000E+00
  0.226874179840E+02  0.734362459183E+01 -0.393032073975E+00
  0.226874179840E+02  0.734362459183E+01  0.393032073975E+00
  0.227074012756E+02  0.222339305878E+02 -0.436297029257E+00
  0.227074012756E+02  0.222339305878E+02  0.436297029257E+00
  0.229399108887E+02  0.102728376389E+02 -0.678054928780E+00
  0.229399108887E+02  0.102728376389E+02  0.678054928780E+00
  0.231872520447E+02  0.137921218872E+02 -0.980750203133E+00
  0.231872520447E+02  0.137921218872E+02  0.980750203133E+00
  0.233416862488E+02  0.499661636353E+01 -0.698661878705E-01
  0.233416862488E+02  0.499661636353E+01  0.698661878705E-01
  0.238103618622E+02  0.222339305878E+02 -0.760525882244E+00
  0.238103618622E+02  0.222339305878E+02  0.760525882244E+00
  0.239451179504E+02  0.178320064545E+02 -0.114008784294E+01
  0.239451179504E+02  0.178320064545E+02  0.114008784294E+01
  0.239966468811E+02  0.499661636353E+01  0.000000000000E+00
  0.245440979004E+02  0.734362459183E+01 -0.192507326603E+00
  0.245440979004E+02  0.734362459183E+01  0.192507326603E+00
  0.256166458130E+02  0.102728376389E+02 -0.393032461405E+00
  0.256166458130E+02  0.102728376389E+02  0.393032461405E+00
  0.256585998535E+02  0.222339305878E+02 -0.102349650860E+01
  0.256585998535E+02  0.222339305878E+02  0.102349650860E+01
  0.256887092590E+02  0.734362459183E+01 -0.698662400246E-01
  0.256887092590E+02  0.734362459183E+01  0.698662400246E-01
[...]
CELL_DATA                 904
SCALARS C_p_inc float 1
LOOKUP_TABLE default
  0.142653844056E+00
  0.106752681041E+00
  0.664060338819E-01
  0.396912873165E-01
  0.141807834611E-01
 -0.140672027306E-02
 -0.334489077774E-01
 -0.458096041028E-01
 -0.817302967288E-01
 -0.918964288687E-01
 -0.109889574778E+00
 -0.110367821920E+00
 -0.346874634477E-01
 -0.668727773197E-01
  0.973584121618E-01
  0.430932059702E-01
  0.300943612016E+00
  0.217641867735E+00
  0.632272656072E+00
  0.638348865631E+00
  0.145131562528E+00
  0.343074063762E+00
 -0.316486629314E+00
 -0.126828437031E+00
 -0.353455815280E+00
 -0.282141217855E+00
 -0.386523044791E+00
 -0.358490634458E+00
 -0.362519885818E+00
 -0.375153317808E+00
 -0.293484349069E+00
 -0.271515705426E+00
 -0.195473882165E+00
 -0.171351502111E+00
 -0.111061932755E+00
 -0.816178557422E-01
 -0.372755928079E-01
  0.891079375916E-02
  0.627053775813E-01
  0.123115360184E+00
  0.141676937377E+00
  0.140662923696E+00
  0.776960534318E-01
  0.661357932689E-01
  0.309686453973E-01
  0.141949231998E-01
 -0.207204765926E-01
 -0.333304413217E-01
 -0.742128383629E-01
 -0.817403497678E-01
 -0.111241423291E+00
 -0.114573947133E+00
 -0.652516808742E-01
 -0.897676531627E-01
  0.449368481845E-01
  0.125363611859E-01
  0.206495058231E+00
  0.185619488454E+00
  0.529946669885E+00
  0.528330942150E+00
 -0.949756958845E-02
  0.855458528407E-01
 -0.412361343560E+00
 -0.297323686679E+00
 -0.417797190867E+00
 -0.349265154234E+00
 -0.417890623754E+00
 -0.388260843128E+00
 -0.359919172072E+00
 -0.366736217565E+00
 -0.271314990666E+00
 -0.252598986822E+00
 -0.170992333435E+00
 -0.144968061804E+00
 -0.815142876731E-01
 -0.487213210413E-01
  0.845804821050E-02
  0.353339581727E-01
  0.119678340956E+00
  0.128841492013E+00
  0.141514936792E+00
  0.140720143751E+00
  0.806253256060E-01
  0.772876976397E-01
  0.409496620741E-01
  0.308953181021E-01
 -0.813935445729E-02
 -0.206046390062E-01
 -0.660417107536E-01
 -0.742040413407E-01
 -0.115177104065E+00
 -0.115683435327E+00
 -0.880840649594E-01
 -0.102213023285E+00
  0.129311785474E-01
 -0.609303384770E-02
  0.177927017421E+00
  0.170151028915E+00
  0.502957981079E+00
  0.500820458286E+00
 -0.108635325220E+00
 -0.304873011837E-01
 -0.494672593080E+00
 -0.402392967011E+00
 -0.470588925751E+00
 -0.412085174787E+00
 -0.441912328386E+00
 -0.418744202923E+00
 -0.357439160683E+00
 -0.365251864550E+00
 -0.252640194331E+00
 -0.233298776448E+00
 -0.144606348038E+00
 -0.118181506155E+00
 -0.487297652560E-01
 -0.253425853211E-01
  0.346113338109E-01
  0.465694986143E-01
  0.127136086804E+00
  0.131679521493E+00
  0.142102760238E+00
  0.140901306340E+00
  0.821510118889E-01
  0.803177546503E-01
  0.452542654013E-01
  0.408250240897E-01
  0.645929969155E-03
 -0.804717428550E-02
 -0.574703150587E-01
 -0.659717918561E-01
 -0.116461451986E+00
 -0.113028816404E+00
 -0.101604560432E+00
 -0.106697332538E+00
 -0.606558314539E-02
 -0.134338987239E-01
  0.166390614209E+00
  0.166827930561E+00
  0.492422901301E+00
  0.490416758443E+00
 -0.186050242160E+00
 -0.118314128007E+00
 -0.561277901028E+00
 -0.488692992297E+00
 -0.511309087798E+00
 -0.467690571959E+00
 -0.459337170659E+00
 -0.444425577935E+00
 -0.352838216423E+00
 -0.363405796949E+00
 -0.233552481467E+00
 -0.214556299883E+00
 -0.117907588690E+00
 -0.976138105870E-01
 -0.254396604432E-01
 -0.123851078030E-01
  0.461490676507E-01
  0.529116442897E-01
  0.130913921007E+00
  0.134135550525E+00
  0.142817246655E+00
  0.141660090980E+00
  0.833166290600E-01
  0.819199722829E-01
  0.474241530569E-01
  0.451412813101E-01
  0.526113424037E-02
  0.687956348819E-03
 -0.506760047349E-01
 -0.573380640259E-01
 -0.113866338415E+00
 -0.107804312780E+00
 -0.106805948586E+00
 -0.104669005941E+00
 -0.134459461348E-01
 -0.120429827463E-01
  0.165827606773E+00
  0.172208526230E+00
  0.490642160862E+00
  0.488740745729E+00
 -0.246458344196E+00
 -0.190008674717E+00
 -0.611803677243E+00
 -0.558684885586E+00
 -0.539867261071E+00
 -0.511324738980E+00
 -0.469472622414E+00
 -0.463210778077E+00
 -0.346832678650E+00
 -0.358641632470E+00
 -0.214875095141E+00
 -0.200140927373E+00
 -0.975096549537E-01
 -0.854319751148E-01
 -0.124352646847E-01
 -0.515266624110E-02
  0.527804348010E-01
  0.570423138174E-01
  0.133940902332E+00
  0.136415448710E+00
  0.143579034309E+00
  0.142464213021E+00
  0.842735447117E-01
  0.831260509705E-01
  0.487902365052E-01
  0.473243938569E-01
  0.771321567653E-02
  0.527265806627E-02
 -0.464441974634E-01
 -0.505348116390E-01
 -0.108410352224E+00
 -0.102471720792E+00
 -0.105058062019E+00
 -0.991246000074E-01
 -0.120280809888E-01
 -0.545007347876E-02
  0.172745324457E+00
  0.182438689328E+00
  0.493185740285E+00
  0.491340376850E+00
 -0.291656935338E+00
 -0.247589165960E+00
 -0.647207928766E+00
 -0.611594251377E+00
 -0.557950790952E+00
 -0.541677511481E+00
 -0.474450933163E+00
 -0.473595743632E+00
 -0.342237570437E+00
 -0.351356655509E+00
 -0.200486989183E+00
 -0.191783380078E+00
 -0.854471974447E-01
 -0.789974171698E-01
 -0.514530620791E-02
 -0.101755012069E-02
  0.570861996616E-01
  0.597663902814E-01
  0.136530681741E+00
  0.138227077410E+00
  0.144150971665E+00
  0.143256036205E+00
  0.849605687074E-01
  0.840966837941E-01
  0.496934093891E-01
  0.486941572404E-01
  0.918168082070E-02
  0.770977549270E-02
 -0.438629397556E-01
 -0.463230323978E-01
 -0.102759885554E+00
 -0.983707189236E-01
 -0.994537249227E-01
 -0.932684778278E-01
 -0.540764632464E-02
  0.249999221847E-02
  0.183480198254E+00
  0.193564498770E+00
  0.496705383440E+00
  0.494971714112E+00
 -0.324231353201E+00
 -0.291701677456E+00
 -0.670835632291E+00
 -0.648069102034E+00
 -0.569192905857E+00
 -0.560099614301E+00
 -0.477564920861E+00
 -0.477648539832E+00
 -0.340250408655E+00
 -0.345074324057E+00
 -0.192144157869E+00
 -0.187793447106E+00
 -0.790675488613E-01
 -0.757024206935E-01
 -0.981657201729E-03
  0.140994585505E-02
  0.598949623164E-01
  0.616211124768E-01
  0.138498115425E+00
  0.139705108868E+00
  0.144351857274E+00
  0.143821084125E+00
  0.852333473328E-01
  0.847780772609E-01
  0.501058595846E-01
  0.495922957345E-01
  0.997020654754E-02
  0.916825451598E-02
 -0.422951673444E-01
 -0.437620027326E-01
 -0.984457463762E-01
 -0.955378768611E-01
 -0.934367874431E-01
 -0.886652143892E-01
  0.254690258823E-02
  0.921278015175E-02
  0.194463578598E+00
  0.202797156654E+00
  0.499262476419E+00
  0.497763831919E+00
 -0.347406259840E+00
 -0.324072892396E+00
 -0.686767279278E+00
 -0.671724981468E+00
 -0.576750512859E+00
 -0.570771288886E+00
 -0.480180119780E+00
 -0.479534742477E+00
 -0.339836463604E+00
 -0.341846830393E+00
 -0.188136652204E+00
 -0.185978130223E+00
 -0.757942263567E-01
 -0.738369682142E-01
  0.145303133866E-02
  0.308634452989E-02
  0.617829779199E-01
  0.631299563400E-01
  0.140045350957E+00
  0.141108583266E+00
  0.144116794227E+00
  0.143978564695E+00
  0.849293964302E-01
  0.850251705025E-01
  0.498456807464E-01
  0.499897151646E-01
  0.997121707912E-02
  0.994725554835E-02
 -0.416979104106E-01
 -0.422085457171E-01
 -0.954963727526E-01
 -0.939780658733E-01
 -0.887086035078E-01
 -0.857301470528E-01
  0.924348976211E-02
  0.137905902610E-01
  0.203349379555E+00
  0.209166483658E+00
  0.500470441263E+00
  0.499311751375E+00
 -0.363317129598E+00
 -0.347316748246E+00
 -0.697326674051E+00
 -0.687329649903E+00
 -0.581752404069E+00
 -0.577694463267E+00
 -0.482018679144E+00
 -0.481325871062E+00
 -0.339668411514E+00
 -0.340800671372E+00
 -0.186286949372E+00
 -0.184742675677E+00
 -0.739372730641E-01
 -0.722261119610E-01
  0.312785787719E-02
  0.479423790510E-02
  0.633070815420E-01
  0.648127960864E-01
  0.141491939850E+00
  0.142709224981E+00
  0.143239099508E+00
  0.143637916351E+00
  0.838004777549E-01
  0.846615045096E-01
  0.486215345702E-01
  0.496965836180E-01
  0.888272826500E-02
  0.993528971101E-02
 -0.423387015058E-01
 -0.416181489557E-01
 -0.938474308911E-01
 -0.939329371005E-01
 -0.856821679641E-01
 -0.846962450343E-01
  0.137953214155E-01
  0.160070793021E-01
  0.209393424242E+00
  0.212610336402E+00
  0.500697980041E+00
  0.499959566358E+00
 -0.372643796398E+00
 -0.363298720492E+00
 -0.703143043431E+00
 -0.697640967712E+00
 -0.584156274701E+00
 -0.582341727992E+00
 -0.482390622667E+00
 -0.482801352832E+00
 -0.338660984599E+00
 -0.340413513428E+00
 -0.185018301129E+00
 -0.182921873514E+00
 -0.723344445397E-01
 -0.698890338820E-01
  0.483345221792E-02
  0.735217616200E-02
  0.650145959755E-01
  0.673739706007E-01
  0.143169197048E+00
  0.145117123420E+00
  0.141736045549E+00
  0.142558783529E+00
  0.817012334073E-01
  0.834147669766E-01
  0.461612478906E-01
  0.484055136521E-01
  0.633657696837E-02
  0.882334571794E-02
 -0.446283188099E-01
 -0.422574026928E-01
 -0.936943019670E-01
 -0.958111766516E-01
 -0.845563146031E-01
 -0.858950296327E-01
  0.159771059431E-01
  0.156627793301E-01
  0.212540989911E+00
  0.213138992408E+00
  0.500290900646E+00
  0.500056425562E+00
 -0.375373972506E+00
 -0.372655206169E+00
 -0.704128936894E+00
 -0.703356191008E+00
 -0.583568599238E+00
 -0.584639705911E+00
 -0.480576303666E+00
 -0.483126246647E+00
 -0.335859466475E+00
 -0.339457515961E+00
 -0.183175228003E+00
 -0.179462377071E+00
 -0.700154833515E-01
 -0.657639985754E-01
  0.739117097213E-02
  0.117885849753E-01
  0.676311669691E-01
  0.717673552866E-01
  0.145738492334E+00
  0.149146298689E+00
  0.139957523368E+00
  0.140715742587E+00
  0.788811466429E-01
  0.811057060258E-01
  0.425445632900E-01
  0.458173886643E-01
  0.217930286168E-02
  0.622862799642E-02
 -0.489480835756E-01
 -0.445377790986E-01
 -0.954129406760E-01
 -0.100122920205E+00
 -0.856317176487E-01
 -0.897923842669E-01
  0.155828837300E-01
  0.124425095311E-01
  0.212737189635E+00
  0.210629288083E+00
  0.499355203770E+00
  0.499713883635E+00
 -0.371463966136E+00
 -0.375391562302E+00
 -0.700105710753E+00
 -0.704337378945E+00
 -0.579591841659E+00
 -0.584108453102E+00
 -0.475885685061E+00
 -0.481491742741E+00
 -0.330269093941E+00
 -0.336949515072E+00
 -0.179704098518E+00
 -0.173143539575E+00
 -0.659306556411E-01
 -0.584712027173E-01
  0.118265670137E-01
  0.195113468520E-01
  0.721321018236E-01
  0.793625751314E-01
  0.150085552639E+00
  0.156131438822E+00
  0.138708085562E+00
  0.138463519514E+00
  0.762324500000E-01
  0.779664160931E-01
  0.387108678175E-01
  0.419805388113E-01
 -0.285503572663E-02
  0.196744107514E-02
 -0.551397683673E-01
 -0.488481995996E-01
 -0.994867221007E-01
 -0.107296479568E+00
 -0.893414453468E-01
 -0.969897340659E-01
  0.122848926362E-01
  0.588247910689E-02
  0.209775073465E+00
  0.204819934480E+00
  0.497732180630E+00
  0.498778573511E+00
 -0.361243097077E+00
 -0.371486936397E+00
 -0.691142078335E+00
 -0.700346115492E+00
 -0.571985512986E+00
 -0.580288139259E+00
 -0.467642043957E+00
 -0.477189185544E+00
 -0.320643622000E+00
 -0.331968379821E+00
 -0.173372380340E+00
 -0.162305631948E+00
 -0.587217142120E-01
 -0.462576760132E-01
  0.195291024787E-01
  0.320685510295E-01
  0.798915585123E-01
  0.915222062572E-01
  0.157601911638E+00
  0.167392123115E+00
  0.137557314099E+00
  0.136636798197E+00
  0.739086949995E-01
  0.749109214306E-01
  0.357067400122E-01
  0.378287765152E-01
 -0.688019979777E-02
 -0.327314910928E-02
 -0.614309935914E-01
 -0.550642922201E-01
 -0.106356770288E+00
 -0.116936843493E+00
 -0.962515495352E-01
 -0.108158823674E+00
  0.559311008218E-02
 -0.472816315272E-02
  0.203277187976E+00
  0.195253767203E+00
  0.494957634441E+00
  0.496819703405E+00
 -0.345598477081E+00
 -0.361298774347E+00
 -0.677718559959E+00
 -0.691382637754E+00
 -0.560720383340E+00
 -0.572882260464E+00
 -0.455041992218E+00
 -0.469586138999E+00
 -0.305071839734E+00
 -0.323507226594E+00
 -0.162506476778E+00
 -0.144874075130E+00
 -0.466911525796E-01
 -0.279240678956E-01
  0.319707831932E-01
  0.498172228564E-01
  0.921787471897E-01
  0.108336240501E+00
  0.169518668733E+00
  0.183273622119E+00
  0.133594932436E+00
  0.134659254076E+00
  0.695169136909E-01
  0.720695492815E-01
  0.324361362159E-01
  0.344351024607E-01
 -0.905892479847E-02
 -0.763086585504E-02
 -0.647006216643E-01
 -0.615107173238E-01
 -0.115794972558E+00
 -0.125936068438E+00
 -0.107041863502E+00
 -0.123384456689E+00
 -0.527432359787E-02
 -0.205803133982E-01
  0.192578307331E+00
  0.181031006372E+00
  0.490142572199E+00
  0.493066727676E+00
 -0.325950236038E+00
 -0.345764638941E+00
 -0.660722509116E+00
 -0.677825307446E+00
 -0.545798362814E+00
 -0.561798171602E+00
 -0.436418349688E+00
 -0.458109129412E+00
 -0.280577331871E+00
 -0.310299779088E+00
 -0.145077229145E+00
 -0.120302680048E+00
 -0.287670134321E-01
 -0.501763561826E-02
  0.492808728181E-01
  0.707261578695E-01
  0.108736384021E+00
  0.128126860505E+00
  0.185728306482E+00
  0.202746968907E+00
  0.120724326032E+00
  0.129029188324E+00
  0.581782111682E-01
  0.668268022959E-01
  0.255643144260E-01
  0.306676573235E-01
 -0.113362496732E-01
 -0.102462392057E-01
 -0.643291674832E-01
 -0.651888635288E-01
 -0.125050983017E+00
 -0.128870717731E+00
 -0.122040712206E+00
 -0.139151290092E+00
 -0.217359128624E-01
 -0.433987449903E-01
  0.176306630470E+00
  0.160187108137E+00
  0.481644795245E+00
  0.486193873749E+00
 -0.304092413028E+00
 -0.326417334792E+00
 -0.641211585644E+00
 -0.660387890204E+00
 -0.526225952762E+00
 -0.547063496706E+00
 -0.407274067555E+00
 -0.442086410538E+00
 -0.246210400242E+00
 -0.290451382100E+00
 -0.120683932073E+00
 -0.924060569656E-01
 -0.671663163023E-02
  0.185915377974E-01
  0.689772407160E-01
  0.920860113019E-01
  0.127236222195E+00
  0.149779414895E+00
  0.204426083966E+00
  0.226418622743E+00
  0.859541028802E-01
  0.112383006649E+00
  0.321006361518E-01
  0.538701030965E-01
  0.110087361879E-01
  0.230434664221E-01
 -0.166280469028E-01
 -0.130960016093E-01
 -0.629125668962E-01
 -0.655342431686E-01
 -0.128775911095E+00
 -0.125198866530E+00
 -0.138379000387E+00
 -0.145990805706E+00
 -0.461886692891E-01
 -0.724393515221E-01
  0.151161154089E+00
  0.128230386270E+00
  0.465973945863E+00
  0.473566873163E+00
 -0.282136017631E+00
 -0.305361165334E+00
 -0.619493973019E+00
 -0.639826640769E+00
 -0.495552224044E+00
 -0.528597669888E+00
 -0.363005828022E+00
 -0.419245039814E+00
 -0.208283924468E+00
 -0.263542702647E+00
 -0.932674389772E-01
 -0.666320989150E-01
  0.151609928547E-01
  0.392231427680E-01
  0.875564654285E-01
  0.112062042111E+00
  0.145410798489E+00
  0.174918128701E+00
  0.224761317452E+00
  0.261103187025E+00
 -0.696761134248E-02
  0.682850823508E-01
 -0.237735433974E-01
  0.243518225050E-01
 -0.166573750941E-01
  0.695008304498E-02
 -0.281104879162E-01
 -0.194232844650E-01
 -0.638191830296E-01
 -0.653276199828E-01
 -0.125919027470E+00
 -0.119397456864E+00
 -0.146987480808E+00
 -0.141182235013E+00
 -0.789135142854E-01
 -0.932033960979E-01
  0.108053960172E+00
  0.760566958074E-01
  0.432840063722E+00
  0.447964673457E+00
 -0.263188995129E+00
 -0.285894775507E+00
 -0.588758156194E+00
 -0.616320922629E+00
 -0.435679290681E+00
 -0.504045492431E+00
 -0.312612076842E+00
 -0.386291764433E+00
 -0.173887557335E+00
 -0.236657112891E+00
 -0.688196883645E-01
 -0.479704821518E-01
  0.318471857530E-01
  0.526722860516E-01
  0.100950201322E+00
  0.127562073367E+00
  0.161575488264E+00
  0.206380405280E+00
  0.248569172979E+00
  0.328176062151E+00
 -0.254366218739E+00
 -0.505460668722E-01
 -0.132409812579E+00
 -0.456272384046E-01
 -0.759423322068E-01
 -0.286550570390E-01
 -0.578452030785E-01
 -0.351158771810E-01
 -0.737996305150E-01
 -0.694002834431E-01
 -0.121815339539E+00
 -0.116573374103E+00
 -0.144828153843E+00
 -0.134139775970E+00
 -0.107946359971E+00
 -0.990809046826E-01
  0.251952881478E-01
  0.140336398749E-01
  0.317712029327E+00
  0.363604210737E+00
 -0.242103906096E+00
 -0.280181235128E+00
 -0.468864658718E+00
 -0.590199224617E+00
 -0.352157831878E+00
 -0.462344189190E+00
 -0.269677916518E+00
 -0.357176496151E+00
 -0.147831163554E+00
 -0.229509164566E+00
 -0.598452701161E-01
 -0.520720455529E-01
  0.269403798644E-01
  0.387422308850E-01
  0.859119037007E-01
  0.111597742596E+00
  0.150375305601E+00
  0.208507548213E+00
  0.265664686416E+00
  0.422343108812E+00
 -0.547058284100E+00
 -0.517742232345E+00
 -0.262658439979E+00
 -0.253907371989E+00
 -0.127786353087E+00
 -0.138526515340E+00
 -0.797353374127E-01
 -0.109037051642E+00
 -0.884188889529E-01
 -0.128802628890E+00
 -0.129348239492E+00
 -0.146880354086E+00
 -0.149063738775E+00
 -0.129986723444E+00
 -0.139252233291E+00
 -0.834052994227E-01
 -0.106059883896E+00
  0.841818062001E-01
 -0.276465906579E+00
 -0.389437281713E+00
 -0.482636610307E+00
 -0.320698473500E+00
 -0.395590895564E+00
 -0.266005755024E+00
 -0.339408426769E+00
 -0.161986569643E+00
 -0.258058443525E+00
 -0.868178333616E-01
 -0.136615325857E+00
 -0.367028479513E-01
 -0.131431819946E+00
 -0.458873491340E-01
 -0.231088152848E+00
 -0.106171783577E+00
 -0.492907701161E+00
 -0.150138109208E+00
 -0.931186875701E+00
 -0.923003666621E+00
 -0.443303569578E+00
 -0.445957410330E+00
 -0.221060997795E+00
 -0.238400464477E+00
 -0.131707981320E+00
 -0.164384984213E+00
 -0.119831308302E+00
 -0.157807150674E+00
 -0.154178418253E+00
 -0.170753249240E+00
 -0.175236305001E+00
 -0.163377057359E+00
 -0.175984706879E+00
 -0.146265250832E+00
 -0.174811073489E+00
 -0.455156672139E-02
 -0.280618534151E+00
 -0.349347473919E+00
 -0.420673961744E+00
 -0.311049101621E+00
 -0.361934096037E+00
 -0.274306987929E+00
 -0.327957355120E+00
 -0.184115047228E+00
 -0.278588780431E+00
 -0.132427570873E+00
 -0.200384676981E+00
 -0.117801388245E+00
 -0.254350141206E+00
 -0.188875859155E+00
 -0.465282492576E+00
 -0.369129886390E+00
 -0.962624559215E+00
 -0.663298275667E+00
 -0.130260761814E+01
 -0.130919129294E+01
 -0.611973759806E+00
 -0.628087216954E+00
 -0.307696571849E+00
 -0.336200678816E+00
 -0.180696035991E+00
 -0.223137523401E+00
 -0.151471382110E+00
 -0.195534533556E+00
 -0.183591896433E+00
 -0.205615182083E+00
 -0.207789156435E+00
 -0.202418142397E+00
 -0.213279355654E+00
 -0.201500880232E+00
 -0.227237830527E+00
 -0.821755811981E-01
 -0.257931511459E+00
 -0.322712691021E+00
 -0.360368044259E+00
 -0.298887757699E+00
 -0.323712305906E+00
 -0.273036697363E+00
 -0.308062361147E+00
 -0.199103223142E+00
 -0.282308862504E+00
 -0.167318666645E+00
 -0.243106687161E+00
 -0.182766009558E+00
 -0.343581282121E+00
 -0.303667873908E+00
 -0.641740325503E+00
 -0.587646113020E+00
 -0.134243875009E+01
 -0.114417553743E+01
 -0.151803372988E+01
 -0.157068991233E+01
 -0.711212024271E+00
 -0.755448601644E+00
 -0.357477294129E+00
 -0.407664452847E+00
 -0.207823877924E+00
 -0.270445152057E+00
 -0.169839885293E+00
 -0.229493722868E+00
 -0.208576880136E+00
 -0.242616858047E+00
 -0.240596480018E+00
 -0.243429393810E+00
 -0.249150817553E+00
 -0.253482024993E+00
 -0.267654362096E+00
 -0.153076023972E+00
 -0.213333290908E+00
 -0.303720846830E+00
 -0.301503223877E+00
 -0.280881618971E+00
 -0.282181843073E+00
 -0.261018501998E+00
 -0.279913728232E+00
 -0.204731873781E+00
 -0.270151458856E+00
 -0.187318458390E+00
 -0.260626032387E+00
 -0.222568014624E+00
 -0.388126426476E+00
 -0.371964703858E+00
 -0.733245509939E+00
 -0.718715553232E+00
 -0.154981943288E+01
 -0.146467124766E+01
SCALARS sigma float 1
LOOKUP_TABLE default
 -0.327769676183E-01
 -0.327769452543E-01
 -0.332410478649E-01
 -0.332410094201E-01
 -0.340783236935E-01
 -0.340783626255E-01
 -0.325898515469E-01
 -0.325898184327E-01
 -0.188643388167E-01
 -0.188643475027E-01
  0.247621763170E-01
  0.247621833880E-01
  0.116271337269E+00
  0.116271329827E+00
  0.210910587883E+00
  0.210910576297E+00
  0.338338345160E+00
  0.338338329218E+00
  0.604057704422E+00
  0.604057698101E+00
  0.514886678630E+00
  0.514886692642E+00
  0.203084175584E+00
  0.203084194501E+00
  0.673123537828E-01
  0.673123665564E-01
 -0.299303494964E-01
 -0.299303417842E-01
 -0.121370190896E+00
 -0.121370197652E+00
 -0.164102994389E+00
 -0.164102985435E+00
 -0.177433133078E+00
 -0.177433166964E+00
 -0.178875514906E+00
 -0.178875475702E+00
 -0.178064208322E+00
 -0.178064246476E+00
 -0.177614493196E+00
 -0.177614515169E+00
 -0.327770005131E-01
 -0.327769670339E-01