# vtk DataFile Version 3.0
MachLine results file. Generated by MachLine, USU AeroLab (c) 2022.
ASCII
DATASET POLYDATA
POINTS                 144 float
  0.000000000000E+00  0.000000000000E+00  0.000000000000E+00
  0.113538098335E+01  0.000000000000E+00 -0.658124566078E+00
  0.113538098335E+01  0.000000000000E+00  0.658124566078E+00
  0.192375373840E+01  0.192375373840E+01  0.000000000000E+00
  0.305913543701E+01  0.192375373840E+01 -0.658124983311E+00
  0.305913543701E+01  0.192375373840E+01  0.658124983311E+00
  0.423028087616E+01  0.000000000000E+00 -0.108747220039E+01
  0.423028087616E+01  0.000000000000E+00  0.108747220039E+01
  0.547033166885E+01  0.547033166885E+01  0.000000000000E+00
  0.615403699875E+01  0.192375373840E+01 -0.108747279644E+01
  0.615403699875E+01  0.192375373840E+01  0.108747279644E+01
  0.660571479797E+01  0.547033166885E+01 -0.658125698566E+00
  0.660571479797E+01  0.547033166885E+01  0.658125698566E+00
  0.939508819580E+01  0.000000000000E+00 -0.980745851994E+00
  0.939508819580E+01  0.000000000000E+00  0.980745851994E+00
  0.970061969757E+01  0.547033166885E+01 -0.108747410774E+01
  0.970061969757E+01  0.547033166885E+01  0.108747410774E+01
  0.113188476562E+02  0.192375373840E+01 -0.980746448040E+00
  0.113188476562E+02  0.192375373840E+01  0.980746448040E+00
  0.113820018768E+02  0.113820018768E+02  0.000000000000E+00
  0.125173873901E+02  0.113820018768E+02 -0.658127009869E+00
  0.125173873901E+02  0.113820018768E+02  0.658127009869E+00
  0.145402030945E+02  0.000000000000E+00 -0.479613035917E+00
  0.145402030945E+02  0.000000000000E+00  0.479613035917E+00
  0.148654365540E+02  0.547033166885E+01 -0.980747580528E+00
  0.148654365540E+02  0.547033166885E+01  0.980747580528E+00
  0.156122989655E+02  0.113820018768E+02 -0.108747613430E+01
  0.156122989655E+02  0.113820018768E+02  0.108747613430E+01
  0.164639663696E+02  0.192375373840E+01 -0.479613333941E+00
  0.164639663696E+02  0.192375373840E+01  0.479613333941E+00
  0.176505107880E+02  0.000000000000E+00 -0.144198849797E+00
  0.176505107880E+02  0.000000000000E+00  0.144198849797E+00
  0.190000000000E+02  0.000000000000E+00  0.000000000000E+00
  0.195742740631E+02  0.192375373840E+01 -0.144198939204E+00
  0.195742740631E+02  0.192375373840E+01  0.144198939204E+00
  0.197561950684E+02  0.197561950684E+02  0.000000000000E+00
  0.200105609894E+02  0.547033166885E+01 -0.479613870382E+00
  0.200105609894E+02  0.547033166885E+01  0.479613870382E+00
  0.207771244049E+02  0.113820018768E+02 -0.980749428272E+00
  0.207771244049E+02  0.113820018768E+02  0.980749428272E+00
  0.208915824890E+02  0.197561950684E+02 -0.658128738403E+00
  0.208915824890E+02  0.197561950684E+02  0.658128738403E+00
  0.209237651825E+02  0.192375373840E+01  0.000000000000E+00
  0.231208724976E+02  0.547033166885E+01 -0.144199103117E+00
  0.231208724976E+02  0.547033166885E+01  0.144199103117E+00
  0.239865016937E+02  0.197561950684E+02 -0.108747911453E+01
  0.239865016937E+02  0.197561950684E+02  0.108747911453E+01
  0.244703655243E+02  0.547033166885E+01  0.000000000000E+00
  0.259222583771E+02  0.113820018768E+02 -0.479614794254E+00
  0.259222583771E+02  0.113820018768E+02  0.479614794254E+00
  0.290325775146E+02  0.113820018768E+02 -0.144199386239E+00
  0.290325775146E+02  0.113820018768E+02  0.144199386239E+00
  0.291513423920E+02  0.197561950684E+02 -0.980752110481E+00
  0.291513423920E+02  0.197561950684E+02  0.980752110481E+00
  0.292438049316E+02  0.292438049316E+02  0.000000000000E+00
  0.303791980743E+02  0.292438049316E+02 -0.658130764961E+00
  0.303791980743E+02  0.292438049316E+02  0.658130764961E+00
  0.303820724487E+02  0.113820018768E+02  0.000000000000E+00
  0.334741249084E+02  0.292438049316E+02 -0.108748245239E+01
  0.334741249084E+02  0.292438049316E+02  0.108748245239E+01
  0.342964897156E+02  0.197561950684E+02 -0.479616105556E+00
  0.342964897156E+02  0.197561950684E+02  0.479616105556E+00
  0.374068183899E+02  0.197561950684E+02 -0.144199773669E+00
  0.374068183899E+02  0.197561950684E+02  0.144199773669E+00
  0.376179962158E+02  0.376179962158E+02  0.000000000000E+00
  0.386389808655E+02  0.292438049316E+02 -0.980755090714E+00
  0.386389808655E+02  0.292438049316E+02  0.980755090714E+00
  0.387533912659E+02  0.376179962158E+02 -0.658132553101E+00
  0.387533912659E+02  0.376179962158E+02  0.658132553101E+00
  0.387563171387E+02  0.197561950684E+02  0.000000000000E+00
  0.418483314514E+02  0.376179962158E+02 -0.108748543262E+01
  0.418483314514E+02  0.376179962158E+02  0.108748543262E+01
  0.435296669006E+02  0.435296669006E+02  0.000000000000E+00
  0.437841453552E+02  0.292438049316E+02 -0.479617565870E+00
  0.437841453552E+02  0.292438049316E+02  0.479617565870E+00
  0.446650657654E+02  0.435296669006E+02 -0.658133804798E+00
  0.446650657654E+02  0.435296669006E+02  0.658133804798E+00
  0.468944816589E+02  0.292438049316E+02 -0.144200220704E+00
  0.468944816589E+02  0.292438049316E+02  0.144200220704E+00
  0.470131988525E+02  0.376179962158E+02 -0.980757772923E+00
  0.470131988525E+02  0.376179962158E+02  0.980757772923E+00
  0.470762481689E+02  0.470762481689E+02  0.000000000000E+00
  0.477600097656E+02  0.435296669006E+02 -0.108748745918E+01
  0.477600097656E+02  0.435296669006E+02  0.108748745918E+01
  0.482116432190E+02  0.470762481689E+02 -0.658134579659E+00
  0.482116432190E+02  0.470762481689E+02  0.658134579659E+00
  0.482439842224E+02  0.292438049316E+02  0.000000000000E+00
  0.490000000000E+02  0.490000000000E+02  0.000000000000E+00
  0.501353988647E+02  0.490000000000E+02 -0.658134996891E+00
  0.501353988647E+02  0.490000000000E+02  0.658134996891E+00
  0.506007728577E+02  0.494653701782E+02 -0.465371757746E+00
  0.506007728577E+02  0.494653701782E+02  0.465371757746E+00
  0.507935333252E+02  0.496581344604E+02 -0.771266485397E-15
  0.513065910339E+02  0.470762481689E+02 -0.108748877048E+01
  0.513065910339E+02  0.470762481689E+02  0.108748877048E+01
  0.521583786011E+02  0.376179962158E+02 -0.479618877172E+00
  0.521583786011E+02  0.376179962158E+02  0.479618877172E+00
  0.529248886108E+02  0.435296669006E+02 -0.980759620667E+00
  0.529248886108E+02  0.435296669006E+02  0.980759620667E+00
  0.532303466797E+02  0.490000000000E+02 -0.108748936653E+01
  0.532303466797E+02  0.490000000000E+02  0.108748936653E+01
  0.539993209839E+02  0.497689704895E+02 -0.768971264362E+00
  0.539993209839E+02  0.497689704895E+02  0.768971264362E+00
  0.543178405762E+02  0.500874900818E+02 -0.157378642191E-15
  0.552687225342E+02  0.376179962158E+02 -0.144200608134E+00
  0.552687225342E+02  0.376179962158E+02  0.144200608134E+00
  0.564714775085E+02  0.470762481689E+02 -0.980760753155E+00
  0.564714775085E+02  0.470762481689E+02  0.980760753155E+00
  0.566182289124E+02  0.376179962158E+02  0.000000000000E+00
  0.580700759888E+02  0.435296669006E+02 -0.479619771242E+00
  0.580700759888E+02  0.435296669006E+02  0.479619771242E+00
  0.583952369690E+02  0.490000000000E+02 -0.980761349201E+00
  0.583952369690E+02  0.490000000000E+02  0.980761349201E+00
  0.590887413025E+02  0.496935043335E+02 -0.693503141403E+00
  0.590887413025E+02  0.496935043335E+02  0.693503141403E+00
  0.593759994507E+02  0.499807624817E+02  0.000000000000E+00
  0.611804275513E+02  0.435296669006E+02 -0.144200876355E+00
  0.611804275513E+02  0.435296669006E+02  0.144200876355E+00
  0.616166725159E+02  0.470762481689E+02 -0.479620337486E+00
  0.616166725159E+02  0.470762481689E+02  0.479620337486E+00
  0.625299339294E+02  0.435296669006E+02  0.000000000000E+00
  0.635404319763E+02  0.490000000000E+02 -0.479620635509E+00
  0.635404319763E+02  0.490000000000E+02  0.479620635509E+00
  0.638795776367E+02  0.493391418457E+02 -0.339143037796E+00
  0.638795776367E+02  0.493391418457E+02  0.339143037796E+00
  0.640200576782E+02  0.494796218872E+02  0.296956834055E-15
  0.647270278931E+02  0.470762481689E+02 -0.144201040268E+00
  0.647270278931E+02  0.470762481689E+02  0.144201040268E+00
  0.660765380859E+02  0.470762481689E+02  0.000000000000E+00
  0.666507873535E+02  0.490000000000E+02 -0.144201144576E+00
  0.666507873535E+02  0.490000000000E+02  0.144201144576E+00
  0.667527542114E+02  0.491019668579E+02 -0.101965606213E+00
  0.667527542114E+02  0.491019668579E+02  0.101965606213E+00
  0.667949905396E+02  0.491441993713E+02 -0.260488604752E-16
  0.680002975464E+02  0.490000000000E+02  0.000000000000E+00
  0.190000000000E+02  0.000000000000E+00  0.000000000000E+00
  0.209237651825E+02  0.192375373840E+01  0.000000000000E+00
  0.244703655243E+02  0.547033166885E+01  0.000000000000E+00
  0.303820724487E+02  0.113820018768E+02  0.000000000000E+00
  0.387563171387E+02  0.197561950684E+02  0.000000000000E+00
  0.482439842224E+02  0.292438049316E+02  0.000000000000E+00
  0.566182289124E+02  0.376179962158E+02  0.000000000000E+00
  0.625299339294E+02  0.435296669006E+02  0.000000000000E+00
  0.660765380859E+02  0.470762481689E+02  0.000000000000E+00
POLYGONS                 256                1024
3                  32                  33                  42
3                  32                  30                  33
3                  30                  28                  33
3                  30                  22                  28
3                  22                  17                  28
3                  22                  13                  17
3                  13                   6                  17
3                  17                   6                   9
3                   6                   1                   9
3                   9                   1                   4
3                   1                   0                   4
3                   4                   0                   3
3                   0                   5                   3
3                   0                   2                   5
3                   2                  10                   5
3                   2                   7                  10
[...]
CELL_DATA                 256
SCALARS C_p_inc float 1
LOOKUP_TABLE default
  0.112341665647E+00
  0.736151674677E-01
  0.236659660949E-01
 -0.974582291262E-02
 -0.654121588138E-01
 -0.900915320171E-01
 -0.880643385803E-01
 -0.104766084705E+00
  0.799400461528E-01
 -0.144207774509E-01
  0.497597257339E+00
  0.470998996757E+00
 -0.955523770589E-01
  0.206968285004E+00
 -0.434695108133E+00
 -0.275170449508E+00
 -0.352695986626E+00
 -0.352823795122E+00
 -0.263446095899E+00
 -0.214681366873E+00
 -0.113519049563E+00
 -0.499997323591E-01
  0.230183586122E-01
  0.947448843758E-01
  0.113841148824E+00
  0.110611416762E+00
  0.375219703852E-01
  0.236238262732E-01
 -0.460841819769E-01
 -0.653220222200E-01
 -0.105613110102E+00
 -0.108688904387E+00
 -0.110555549781E-01
 -0.304154867603E-01
  0.410629240005E+00
  0.416394266666E+00
 -0.249779260001E+00
 -0.106855324046E+00
 -0.518323770639E+00
 -0.426095809916E+00
 -0.361028747492E+00
 -0.362742738901E+00
 -0.214996347861E+00
 -0.172427277829E+00
 -0.498549823721E-01
 -0.140517013004E-01
  0.921100140543E-01
  0.105237627785E+00
  0.115021122638E+00
  0.113173463739E+00
  0.403452637118E-01
  0.373527833075E-01
 -0.376385732960E-01
 -0.459016775215E-01
 -0.109532805206E+00
 -0.980852655631E-01
 -0.303405986070E-01
 -0.194265706849E-01
  0.414103467053E+00
  0.425703493775E+00
 -0.329530201009E+00
 -0.250811459160E+00
 -0.556894636751E+00
 -0.519674415786E+00
 -0.356703486227E+00
 -0.369897491307E+00
 -0.173014509170E+00
 -0.152734354973E+00
 -0.140815187970E-01
 -0.267037137574E-02
  0.104993484408E+00
  0.110673131079E+00
  0.114313451772E+00
  0.114485355294E+00
  0.400078968681E-01
  0.401814077028E-01
 -0.359439681465E-01
 -0.374830811129E-01
 -0.984713909359E-01
 -0.925073519824E-01
 -0.194281706582E-01
 -0.620171026773E-02
  0.431093654896E+00
  0.439646478432E+00
 -0.363587414621E+00
 -0.329494582829E+00
 -0.570954519141E+00
 -0.560690102710E+00
 -0.356721822546E+00
 -0.361519577626E+00
 -0.153275487865E+00
 -0.147061859416E+00
 -0.261008522025E-02
  0.256087330002E-02
  0.111153446553E+00
  0.114994241825E+00
  0.109514413999E+00
  0.113537936775E+00
  0.346480999090E-01
  0.397605083249E-01
 -0.398978393365E-01
 -0.358157382646E-01
 -0.923190558068E-01
 -0.943209373041E-01
 -0.619167520636E-02
 -0.397866111904E-02
  0.441912713777E+00
  0.444267876226E+00
 -0.371660262444E+00
 -0.363615130950E+00
 -0.572197917251E+00
 -0.572826152101E+00
 -0.352856287343E+00
 -0.358776216351E+00
 -0.147553323400E+00
 -0.140269854021E+00
  0.262544632298E-02
  0.109923362526E-01
  0.115751787917E+00
  0.123166401387E+00
  0.100782668443E+00
  0.107958563643E+00
  0.229661316793E-01
  0.341112115853E-01
 -0.520062418700E-01
 -0.397562625765E-01
 -0.936511985489E-01
 -0.106694090627E+00
 -0.404843672397E-02
 -0.146635471075E-01
  0.443242244737E+00
  0.439827153123E+00
 -0.355760183745E+00
 -0.371677021215E+00
 -0.558051124253E+00
 -0.573575136509E+00
 -0.337932988251E+00
 -0.354983296144E+00
 -0.140770265470E+00
 -0.122041827730E+00
  0.110441771659E-01
  0.327060855095E-01
  0.124527576480E+00
  0.144329347502E+00
  0.895011662686E-01
  0.978479687782E-01
  0.122258271792E-01
  0.217409482380E-01
 -0.630497935063E-01
 -0.519142392140E-01
 -0.105156160320E+00
 -0.129781526907E+00
 -0.149281831111E-01
 -0.416670324225E-01
  0.434454576234E+00
  0.425893142859E+00
 -0.321184715179E+00
 -0.355760348748E+00
 -0.530042311870E+00
 -0.559801233817E+00
 -0.304877245231E+00
 -0.342183452952E+00
 -0.122637459348E+00
 -0.793225362937E-01
  0.326004727530E-01
  0.768593226049E-01
  0.147178098909E+00
  0.187148725120E+00
  0.503806958724E-01
  0.842600474143E-01
 -0.728830115989E-02
  0.101288255871E-01
 -0.619295801837E-01
 -0.637187603634E-01
 -0.127651947867E+00
 -0.134154171240E+00
 -0.430026261879E-01
 -0.921360291928E-01
  0.409114834542E+00
  0.395573161799E+00
 -0.279498032899E+00
 -0.321264643702E+00
 -0.488891958979E+00
 -0.531786327185E+00
 -0.231650366337E+00
 -0.318248962495E+00
 -0.811224816111E-01
 -0.229487932494E-01
  0.748410537106E-01
  0.128036013858E+00
  0.189897897503E+00
  0.248433303917E+00
 -0.595158358038E-01
  0.398382602179E-01
 -0.424195225866E-01
 -0.112898801288E-01
 -0.631410037104E-01
 -0.651326101870E-01
 -0.134412503595E+00
 -0.112436055404E+00
 -0.992885241080E-01
 -0.974193310516E-01
  0.312077778842E+00
  0.291431771628E+00
 -0.242941845188E+00
 -0.283021715536E+00
 -0.335061810755E+00
 -0.505749299917E+00
 -0.144734166272E+00
 -0.278860565361E+00
 -0.341855299142E-01
  0.688393411057E-02
  0.109541981369E+00
  0.151000298620E+00
  0.234687641988E+00
  0.310814855889E+00
 -0.156956465968E+00
 -0.170445494605E+00
 -0.782918987432E-01
 -0.112867292721E+00
 -0.822210080471E-01
 -0.130646675663E+00
 -0.132648500280E+00
 -0.149161133939E+00
 -0.159405257798E+00
  0.203224864671E-01
 -0.267416456218E+00
 -0.252254876600E+00
 -0.374039359121E+00
 -0.139898393127E+00
 -0.261668882704E+00
 -0.514743508199E-01
 -0.122224646943E+00
 -0.197157502990E-02
 -0.158485196108E+00
  0.129364489846E-01
 -0.349992538593E+00
 -0.403495034763E+00
 -0.157041031227E+00
 -0.221855228811E+00
 -0.116879160297E+00
 -0.182449475381E+00
 -0.176176319439E+00
 -0.214738137803E+00
 -0.223886792400E+00
 -0.125679688335E+00
 -0.225209468425E+00
 -0.254212248739E+00
 -0.285029726364E+00
 -0.168498769876E+00
 -0.241576214613E+00
 -0.117764507294E+00
 -0.208518515567E+00
 -0.147052700633E+00
 -0.383314782981E+00
 -0.298439859147E+00
SCALARS sigma float 1
LOOKUP_TABLE default
 -0.329549975551E-01
 -0.329550807772E-01
 -0.339196165809E-01
 -0.339195505447E-01
 -0.236763951477E-01
 -0.236764092888E-01
  0.526070828906E-01
  0.526070962707E-01
  0.207634848143E+00
  0.207634833180E+00
  0.503716072974E+00
  0.503716073713E+00
  0.390436717982E+00
  0.390436717007E+00
  0.638985658311E-01
  0.638985819740E-01
 -0.938067906304E-01
 -0.938068038213E-01
 -0.168782682704E+00
 -0.168782668430E+00
 -0.178721656496E+00
 -0.178721722140E+00
 -0.177787128423E+00
 -0.177787046867E+00
 -0.329549684734E-01
 -0.329549974576E-01
 -0.339196040394E-01
 -0.339196163033E-01
 -0.236764026136E-01
 -0.236763951867E-01
  0.526070962188E-01
  0.526070863931E-01
  0.207634833677E+00
  0.207634872308E+00
  0.503716068103E+00
  0.503716031361E+00
  0.390436667748E+00
  0.390436713634E+00
  0.638986069845E-01
  0.638985659840E-01
 -0.938068002610E-01
 -0.938067905379E-01
 -0.168782668708E+00
 -0.168782676077E+00
 -0.178721720677E+00
 -0.178721708627E+00
 -0.177787046341E+00
 -0.177787018081E+00
 -0.329550260615E-01
 -0.329549684670E-01
 -0.339195467228E-01
 -0.339196041022E-01
 -0.236764016685E-01
 -0.236764026280E-01
  0.526070864184E-01
  0.526070861364E-01
  0.207634871877E+00
  0.207634809969E+00
  0.503716029272E+00
  0.503716005085E+00
  0.390436636582E+00
  0.390436666129E+00
  0.638985416425E-01
  0.638986068520E-01
 -0.938068005856E-01
 -0.938068003061E-01
 -0.168782676180E+00
 -0.168782675236E+00
 -0.178721708958E+00
 -0.178721652895E+00
 -0.177787018047E+00
 -0.177787074066E+00
 -0.329550114356E-01
 -0.329550260923E-01
 -0.339195138964E-01
 -0.339195468480E-01
 -0.236764151497E-01
 -0.236764016581E-01
  0.526070861288E-01
  0.526070894758E-01
  0.207634810857E+00
  0.207634867877E+00
  0.503716018076E+00
  0.503716236643E+00
  0.390436911236E+00
  0.390436646652E+00
  0.638986017777E-01
  0.638985419159E-01
 -0.938067972516E-01
 -0.938068005721E-01
 -0.168782675161E+00
 -0.168782688390E+00
 -0.178721653555E+00
 -0.178721621439E+00
 -0.177787074232E+00
 -0.177787059991E+00
 -0.329550400818E-01
 -0.329550114649E-01
 -0.339195738742E-01
 -0.339195138467E-01
 -0.236763860323E-01
 -0.236764151326E-01
  0.526070894790E-01
  0.526070812886E-01
  0.207634867372E+00
  0.207634942068E+00
  0.503716212894E+00
  0.503715757051E+00
  0.390436342386E+00
  0.390436892828E+00
  0.638986799683E-01
  0.638986016221E-01
 -0.938068053848E-01
 -0.938067972574E-01
 -0.168782688268E+00
 -0.168782659765E+00
 -0.178721621177E+00
 -0.178721679641E+00
 -0.177787060150E+00
 -0.177787087945E+00
 -0.329550253060E-01
 -0.329550399627E-01
 -0.339196055850E-01
 -0.339195737211E-01
 -0.236763639455E-01
 -0.236763860164E-01
  0.526070812828E-01
  0.526070693708E-01
  0.207634941324E+00
  0.207634746605E+00
  0.503715771284E+00
  0.503716010742E+00
  0.390436643292E+00
  0.390436353418E+00
  0.638984753163E-01
  0.638986797393E-01
 -0.938068171923E-01
 -0.938068053745E-01
 -0.168782659652E+00
 -0.168782638012E+00
 -0.178721678835E+00
 -0.178721709891E+00
 -0.177787087303E+00
 -0.177787073062E+00
 -0.329552201508E-01
 -0.329550253595E-01
 -0.339195436710E-01
 -0.339196057514E-01
 -0.236764043157E-01
 -0.236763639859E-01
  0.526070693864E-01
  0.526070805517E-01
  0.207634746102E+00
  0.207634818226E+00
  0.503715982399E+00
  0.503715654099E+00
  0.390436220273E+00
  0.390436621323E+00
  0.638985511320E-01
  0.638984751612E-01
 -0.938068061517E-01
 -0.938068172200E-01
 -0.168782638299E+00
 -0.168782677988E+00
 -0.178721710767E+00
 -0.178721650111E+00
 -0.177787073351E+00
 -0.177787262814E+00
 -0.329550430756E-01
 -0.329552201497E-01
 -0.339195409875E-01
 -0.339195438427E-01
 -0.236763705392E-01
 -0.236764044568E-01
  0.526070805579E-01
  0.526070764589E-01
  0.207634825092E+00
  0.207634827193E+00
  0.503715801128E+00
  0.503716764012E+00
  0.390437536755E+00
  0.390436334237E+00
  0.638985554754E-01
  0.638985532448E-01
 -0.938068102189E-01
 -0.938068061627E-01
 -0.168782678994E+00
 -0.168782645338E+00
 -0.178721651015E+00
 -0.178721648210E+00
 -0.177787262808E+00
 -0.177787090159E+00
 -0.329551196711E-01
 -0.329550438042E-01
 -0.339196024614E-01
 -0.339195411433E-01
 -0.236764275905E-01
 -0.236763702735E-01
  0.526070764350E-01
  0.526070917266E-01
  0.207634817958E+00
  0.207634868715E+00
  0.503716601168E+00
  0.503716097220E+00
  0.390436745864E+00
  0.390437410532E+00
  0.638986073936E-01
  0.638985526334E-01
 -0.938067951007E-01
 -0.938068101761E-01
 -0.168782643444E+00
 -0.168782701303E+00
 -0.178721649031E+00
 -0.178721709985E+00
 -0.177787094089E+00
 -0.177787168438E+00
 -0.316935579333E-01
 -0.326331268065E-01
 -0.326336182753E-01
 -0.226864705583E-01
 -0.226863223739E-01
  0.489644513401E-01
  0.489645594138E-01
  0.183821064888E+00
  0.183821249877E+00
  0.427273335323E+00
  0.331184990034E+00
  0.565703238856E-01
  0.565700266463E-01
 -0.873112275464E-01
 -0.873113890796E-01
 -0.161724515164E+00
 -0.161724619544E+00
 -0.171945884914E+00
 -0.171945579028E+00
 -0.170981261149E+00
 -0.769793304014E-01
 -0.780351928931E-01
 -0.780305482749E-01
 -0.669436276770E-01
 -0.669448970212E-01
  0.914683499000E-02
  0.914668774612E-02
  0.138312804956E+00
  0.138312669944E+00
  0.351109702643E+00
  0.316096568384E+00
  0.885660355508E-01
  0.885663526076E-01
 -0.479016718461E-01
 -0.479012742386E-01
 -0.127746819538E+00
 -0.127746429613E+00
 -0.139346415721E+00
 -0.139347122756E+00
 -0.138242769986E+00
SCALARS inclination float 1
LOOKUP_TABLE default
  0.100000000000E+01
  0.100000000000E+01
  0.100000000000E+01
  0.100000000000E+01
  0.100000000000E+01
  0.100000000000E+01
  0.100000000000E+01
  0.100000000000E+01
  0.100000000000E+01
  0.100000000000E+01
  0.100000000000E+01
  0.100000000000E+01
  0.100000000000E+01
  0.100000000000E+01
  0.100000000000E+01
  0.100000000000E+01
  0.100000000000E+01
  0.100000000000E+01
  0.100000000000E+01
  0.100000000000E+01
  0.100000000000E+01
  0.100000000000E+01
  0.100000000000E+01
  0.100000000000E+01
  0.100000000000E+01
  0.100000000000E+01
  0.100000000000E+01
  0.100000000000E+01
  0.100000000000E+01
  0.100000000000E+01
  0.100000000000E+01
  0.100000000000E+01
  0.100000000000E+01
  0.100000000000E+01
  0.100000000000E+01
  0.100000000000E+01
  0.100000000000E+01
  0.100000000000E+01
  0.100000000000E+01
  0.100000000000E+01
  0.100000000000E+01
  0.100000000000E+01
  0.100000000000E+01
  0.100000000000E+01
  0.100000000000E+01
  0.100000000000E+01
  0.100000000000E+01
  0.100000000000E+01
  0.100000000000E+01
  0.100000000000E+01
  0.100000000000E+01
  0.100000000000E+01
  0.100000000000E+01
  0.100000000000E+01
  0.100000000000E+01
  0.100000000000E+01
  0.100000000000E+01
  0.100000000000E+01
  0.100000000000E+01
  0.100000000000E+01
  0.100000000000E+01
  0.100000000000E+01
  0.100000000000E+01
  0.100000000000E+01
  0.100000000000E+01
  0.100000000000E+01
  0.100000000000E+01
  0.100000000000E+01
  0.100000000000E+01
  0.100000000000E+01
  0.100000000000E+01
  0.100000000000E+01
  0.100000000000E+01
  0.100000000000E+01
  0.100000000000E+01
  0.100000000000E+01
  0.100000000000E+01
  0.100000000000E+01
  0.100000000000E+01
  0.100000000000E+01
  0.100000000000E+01
  0.100000000000E+01
  0.100000000000E+01
  0.100000000000E+01
  0.100000000000E+01
  0.100000000000E+01
  0.100000000000E+01
  0.100000000000E+01
  0.100000000000E+01
  0.100000000000E+01
  0.100000000000E+01
  0.100000000000E+01
  0.100000000000E+01
  0.100000000000E+01
  0.100000000000E+01
  0.100000000000E+01
  0.100000000000E+01
  0.100000000000E+01
  0.100000000000E+01
  0.100000000000E+01
  0.100000000000E+01
  0.100000000000E+01
  0.100000000000E+01
  0.100000000000E+01
  0.100000000000E+01
  0.100000000000E+01
  0.100000000000E+01
  0.100000000000E+01
  0.100000000000E+01
  0.100000000000E+01
  0.100000000000E+01
  0.100000000000E+01
  0.100000000000E+01
  0.100000000000E+01
  0.100000000000E+01
  0.100000000000E+01
  0.100000000000E+01
  0.100000000000E+01
  0.100000000000E+01
  0.100000000000E+01
  0.100000000000E+01
  0.100000000000E+01
  0.100000000000E+01
  0.100000000000E+01
  0.100000000000E+01
  0.100000000000E+01
  0.100000000000E+01
  0.100000000000E+01
  0.100000000000E+01
  0.100000000000E+01
  0.100000000000E+01
  0.100000000000E+01
  0.100000000000E+01
  0.100000000000E+01
  0.100000000000E+01
  0.100000000000E+01
  0.100000000000E+01
  0.100000000000E+01
  0.100000000000E+01
  0.100000000000E+01
  0.100000000000E+01
  0.100000000000E+01
  0.100000000000E+01
  0.100000000000E+01
  0.100000000000E+01
  0.100000000000E+01
  0.100000000000E+01
  0.100000000000E+01
  0.100000000000E+01
  0.100000000000E+01
  0.100000000000E+01
  0.100000000000E+01
  0.100000000000E+01
  0.100000000000E+01
  0.100000000000E+01
  0.100000000000E+01
  0.100000000000E+01
  0.100000000000E+01
  0.100000000000E+01
  0.100000000000E+01
  0.100000000000E+01
  0.100000000000E+01
  0.100000000000E+01
  0.100000000000E+01
  0.100000000000E+01
  0.100000000000E+01
  0.100000000000E+01
  0.100000000000E+01
  0.100000000000E+01
  0.100000000000E+01
  0.100000000000E+01
  0.100000000000E+01
  0.100000000000E+01
  0.100000000000E+01
  0.100000000000E+01
  0.100000000000E+01
  0.100000000000E+01
  0.100000000000E+01
  0.100000000000E+01
  0.100000000000E+01
  0.100000000000E+01
  0.100000000000E+01
  0.100000000000E+01
  0.100000000000E+01
  0.100000000000E+01
  0.100000000000E+01
  0.100000000000E+01
  0.100000000000E+01
  0.100000000000E+01
  0.100000000000E+01
  0.100000000000E+01
  0.100000000000E+01
  0.100000000000E+01
  0.100000000000E+01
  0.100000000000E+01
  0.100000000000E+01
  0.100000000000E+01
  0.100000000000E+01
  0.100000000000E+01
  0.100000000000E+01
  0.100000000000E+01
  0.100000000000E+01
  0.100000000000E+01
  0.100000000000E+01
  0.100000000000E+01
  0.100000000000E+01
  0.100000000000E+01
  0.100000000000E+01
  0.100000000000E+01
  0.100000000000E+01
  0.100000000000E+01
  0.100000000000E+01
  0.100000000000E+01
  0.100000000000E+01
  0.100000000000E+01
  0.100000000000E+01
  0.100000000000E+01
  0.100000000000E+01
  0.100000000000E+01
  0.100000000000E+01
  0.100000000000E+01
  0.100000000000E+01
  0.100000000000E+01
  0.100000000000E+01
  0.100000000000E+01
  0.100000000000E+01
  0.100000000000E+01
  0.100000000000E+01
  0.100000000000E+01
  0.100000000000E+01
  0.100000000000E+01
  0.100000000000E+01
  0.100000000000E+01
  0.100000000000E+01
  0.100000000000E+01
  0.100000000000E+01
  0.100000000000E+01
  0.100000000000E+01
  0.100000000000E+01
  0.100000000000E+01
  0.100000000000E+01
  0.100000000000E+01
  0.100000000000E+01
  0.100000000000E+01
  0.100000000000E+01
  0.100000000000E+01
  0.100000000000E+01
  0.100000000000E+01
  0.100000000000E+01
  0.100000000000E+01
  0.100000000000E+01
  0.100000000000E+01
  0.100000000000E+01
  0.100000000000E+01
  0.100000000000E+01
  0.100000000000E+01
VECTORS v float
  0.152694307602E+03  0.404181754422E+01  0.158841563320E+02
  0.156001927378E+03  0.308856375478E+01  0.163394627800E+02
  0.160116176796E+03 -0.102570601096E+01  0.173774797443E+02
  0.162854602175E+03  0.682681474634E+00  0.174885466936E+02
  0.167374212730E+03 -0.383695161164E+01  0.166759216502E+02
  0.169376951568E+03 -0.516761234864E+00  0.165476025319E+02
  0.169985332304E+03 -0.112514781203E+01  0.353585288715E+01
  0.171195573076E+03 -0.559109920849E+01  0.365314566531E+01
  0.154687063885E+03  0.109174231306E+02 -0.199448001362E+02
  0.162161176935E+03 -0.944270568601E+01 -0.238061681210E+02
  0.988191999242E+02  0.538992943912E+02 -0.260378620519E+02
  0.105037218861E+03  0.400276541081E+02 -0.376828504196E+02
  0.147084389253E+03 -0.201951628439E+01  0.864282077682E+02
  0.129681029296E+03  0.368052527797E+02  0.538355239983E+02
  0.191318151486E+03 -0.248318871547E+02  0.299859403742E+02
  0.182313235246E+03 -0.301718487353E+00  0.253337106084E+02
  0.189390590977E+03 -0.737907388130E+01 -0.406607753575E+01
  0.189398412630E+03 -0.740793699360E+01 -0.406683849805E+01
  0.182350416460E+03 -0.359915606171E+00 -0.177959377288E+02
  0.178619032193E+03 -0.654589699202E+01 -0.180350161450E+02
  0.171020518842E+03  0.105265407341E+01 -0.183292575489E+02
  0.166025930183E+03 -0.206325946963E+01 -0.181266752663E+02
  0.160199382268E+03  0.376331726452E+01 -0.167158785068E+02
  0.154172296799E+03  0.550032001183E+01 -0.158862376459E+02
  0.152452127189E+03  0.803566319314E+01  0.154315115746E+02
  0.152737421552E+03  0.786092198229E+01  0.154806728325E+02
  0.159001250773E+03  0.159705661694E+01  0.169744051950E+02
  0.160144859256E+03  0.146934036892E+01  0.171115064364E+02
  0.165835005822E+03 -0.422083305625E+01  0.165633946812E+02
  0.167377245760E+03 -0.351420758330E+01  0.166447816225E+02
  0.171194830080E+03 -0.733180784617E+01  0.368910148566E+01
  0.171409613140E+03 -0.785983782310E+01  0.370445315014E+01
  0.162361902454E+03  0.118787539125E+01 -0.223592625955E+02
  0.163850619362E+03 -0.167301373116E+01 -0.229626790160E+02
  0.108476116102E+03  0.537015100917E+02 -0.317501460096E+02
  0.107334481393E+03  0.555278711604E+02 -0.300297412168E+02
  0.158657756966E+03  0.420459558661E+01  0.895288930421E+02
  0.151521058197E+03  0.156217152390E+02  0.787741711497E+02
  0.196253547340E+03 -0.291107823653E+02  0.312642250583E+02
  0.191413000091E+03 -0.198086332463E+02  0.293022357310E+02
  0.189288539816E+03 -0.176841576995E+02 -0.427692097419E+01
  0.189386090066E+03 -0.179239784564E+02 -0.428389026114E+01
  0.178613343852E+03 -0.715119451980E+01 -0.180934181736E+02
  0.175369345105E+03 -0.863753420853E+01 -0.179222248891E+02
  0.166057402261E+03  0.674452442009E+00 -0.178348337521E+02
  0.163203428548E+03  0.993179639067E+00 -0.174926886499E+02
  0.154222798703E+03  0.997386130878E+01 -0.154136137078E+02
  0.153059807611E+03  0.106861874300E+02 -0.152132231838E+02
  0.152298166024E+03  0.918864693343E+01  0.152918666584E+02
  0.152463709617E+03  0.906165427898E+01  0.153231169603E+02
  0.158765290876E+03  0.276003598682E+01  0.168235341924E+02
  0.159013294653E+03  0.264473691276E+01  0.168627219170E+02
  0.165186361510E+03 -0.352835839290E+01  0.164327694547E+02
  0.165840772870E+03 -0.360716169835E+01  0.165041845710E+02
  0.171409051594E+03 -0.917546103194E+01  0.373162808500E+01
  0.170595795905E+03 -0.765081805621E+01  0.368331688833E+01
  0.163864840317E+03 -0.919861251606E+00 -0.228601690194E+02
  0.163021340414E+03  0.386898525084E+00 -0.225618579804E+02
  0.107444184486E+03  0.559640752530E+02 -0.298404839941E+02
  0.105160988335E+03  0.590310269201E+02 -0.267392645192E+02