# vtk DataFile Version 3.0
MachLine results file. Generated by MachLine, USU AeroLab (c) 2022.
ASCII
DATASET POLYDATA
POINTS                 156 float
  0.193396415710E+02  0.339639574289E+00  0.000000000000E+00
  0.190000000000E+02  0.000000000000E+00  0.000000000000E+00
  0.149502029395E+05  0.339639574289E+00  0.109645406186E+04
  0.149503700276E+05  0.000000000000E+00  0.109649127376E+04
  0.197353687286E+02  0.735364913940E+00  0.000000000000E+00
  0.193396415710E+02  0.339639574289E+00  0.000000000000E+00
  0.149500082599E+05  0.735364913940E+00  0.109641070509E+04
  0.149502029395E+05  0.339639574289E+00  0.109645406186E+04
  0.201952877045E+02  0.119528055191E+01  0.000000000000E+00
  0.197353687286E+02  0.735364913940E+00  0.000000000000E+00
  0.149497820008E+05  0.119528055191E+01  0.109636031532E+04
  0.149500082599E+05  0.735364913940E+00  0.109641070509E+04
  0.207282505035E+02  0.172824025154E+01  0.000000000000E+00
  0.201952877045E+02  0.119528055191E+01  0.000000000000E+00
  0.149495198074E+05  0.172824025154E+01  0.109630192271E+04
  0.149497820008E+05  0.119528055191E+01  0.109636031532E+04
  0.213437728882E+02  0.234375929832E+01  0.000000000000E+00
  0.207282505035E+02  0.172824025154E+01  0.000000000000E+00
  0.149492169986E+05  0.234375929832E+01  0.109623448468E+04
  0.149495198074E+05  0.172824025154E+01  0.109630192271E+04
  0.220518741608E+02  0.305185556412E+01  0.000000000000E+00
  0.213437728882E+02  0.234375929832E+01  0.000000000000E+00
  0.149488686452E+05  0.305185556412E+01  0.109615690349E+04
  0.149492169986E+05  0.234375929832E+01  0.109623448468E+04
  0.228628253937E+02  0.386280250549E+01  0.000000000000E+00
  0.220518741608E+02  0.305185556412E+01  0.000000000000E+00
  0.149484696943E+05  0.386280250549E+01  0.109606805383E+04
  0.149488686452E+05  0.305185556412E+01  0.109615690349E+04
  0.237868041992E+02  0.478677463531E+01  0.000000000000E+00
  0.228628253937E+02  0.386280250549E+01  0.000000000000E+00
  0.149480151390E+05  0.478677463531E+01  0.109596682062E+04
  0.149484696943E+05  0.386280250549E+01  0.109606805383E+04
  0.248334121704E+02  0.583337688446E+01  0.000000000000E+00
  0.237868041992E+02  0.478677463531E+01  0.000000000000E+00
  0.149475002557E+05  0.583337688446E+01  0.109585215187E+04
  0.149480151390E+05  0.478677463531E+01  0.109596682062E+04
  0.260110912323E+02  0.701104879379E+01  0.000000000000E+00
  0.248334121704E+02  0.583337688446E+01  0.000000000000E+00
  0.149469208915E+05  0.701104879379E+01  0.109572312268E+04
  0.149475002557E+05  0.583337688446E+01  0.109585215187E+04
  0.273264064789E+02  0.832635498047E+01  0.000000000000E+00
  0.260110912323E+02  0.701104879379E+01  0.000000000000E+00
  0.149462738166E+05  0.832635498047E+01  0.109557901375E+04
  0.149469208915E+05  0.701104879379E+01  0.109572312268E+04
  0.287832584381E+02  0.978319931030E+01  0.000000000000E+00
  0.273264064789E+02  0.832635498047E+01  0.000000000000E+00
  0.149455571121E+05  0.978319931030E+01  0.109541939774E+04
  0.149462738166E+05  0.832635498047E+01  0.109557901375E+04
  0.303820724487E+02  0.113820018768E+02  0.000000000000E+00
  0.287832584381E+02  0.978319931030E+01  0.000000000000E+00
  0.149447705687E+05  0.113820018768E+02  0.109524422805E+04
  0.149455571121E+05  0.978319931030E+01  0.109541939774E+04
  0.321190223694E+02  0.131189413071E+02  0.000000000000E+00
  0.303820724487E+02  0.113820018768E+02  0.000000000000E+00
  0.149439160688E+05  0.131189413071E+02  0.109505392387E+04
  0.149447705687E+05  0.113820018768E+02  0.109524422805E+04
  0.339854316711E+02  0.149853391647E+02  0.000000000000E+00
  0.321190223694E+02  0.131189413071E+02  0.000000000000E+00
  0.149429978808E+05  0.149853391647E+02  0.109484943583E+04
  0.149439160688E+05  0.131189413071E+02  0.109505392387E+04
  0.359674301147E+02  0.169673271179E+02  0.000000000000E+00
  0.339854316711E+02  0.149853391647E+02  0.000000000000E+00
  0.149420228283E+05  0.169673271179E+02  0.109463228357E+04
  0.149429978808E+05  0.149853391647E+02  0.109484943583E+04
  0.380459861755E+02  0.190458717346E+02  0.000000000000E+00
  0.359674301147E+02  0.169673271179E+02  0.000000000000E+00
  0.149410002738E+05  0.190458717346E+02  0.109440455225E+04
  0.149420228283E+05  0.169673271179E+02  0.109463228357E+04
  0.401973724365E+02  0.211972446442E+02  0.000000000000E+00
  0.380459861755E+02  0.190458717346E+02  0.000000000000E+00
  0.149399418902E+05  0.211972446442E+02  0.109416884149E+04
  0.149410002738E+05  0.190458717346E+02  0.109440455225E+04
  0.423940925598E+02  0.233939495087E+02  0.000000000000E+00
  0.401973724365E+02  0.211972446442E+02  0.000000000000E+00
  0.149388612044E+05  0.233939495087E+02  0.109392816384E+04
  0.149399418902E+05  0.211972446442E+02  0.109416884149E+04
  0.446062088013E+02  0.256060504913E+02  0.000000000000E+00
  0.423940925598E+02  0.233939495087E+02  0.000000000000E+00
  0.149377729444E+05  0.256060504913E+02  0.109368579936E+04
  0.149388612044E+05  0.233939495087E+02  0.109392816384E+04
  0.468029289246E+02  0.278027553558E+02  0.000000000000E+00
  0.446062088013E+02  0.256060504913E+02  0.000000000000E+00
  0.149366922586E+05  0.278027553558E+02  0.109344512171E+04
  0.149377729444E+05  0.256060504913E+02  0.109368579936E+04
  0.489543113708E+02  0.299541282654E+02  0.000000000000E+00
  0.468029289246E+02  0.278027553558E+02  0.000000000000E+00
  0.149356338768E+05  0.299541282654E+02  0.109320941136E+04
  0.149366922586E+05  0.278027553558E+02  0.109344512171E+04
  0.510328712463E+02  0.320326728821E+02  0.000000000000E+00
  0.489543113708E+02  0.299541282654E+02  0.000000000000E+00
  0.149346113205E+05  0.320326728821E+02  0.109298167962E+04
  0.149356338768E+05  0.299541282654E+02  0.109320941136E+04
  0.530148696899E+02  0.340146598816E+02  0.000000000000E+00
  0.510328712463E+02  0.320326728821E+02  0.000000000000E+00
  0.149336362679E+05  0.340146598816E+02  0.109276452737E+04
  0.149346113205E+05  0.320326728821E+02  0.109298167962E+04
  0.548812789917E+02  0.358810577393E+02  0.000000000000E+00
  0.530148696899E+02  0.340146598816E+02  0.000000000000E+00
  0.149327180799E+05  0.358810577393E+02  0.109256003933E+04
  0.149336362679E+05  0.340146598816E+02  0.109276452737E+04
  0.566182289124E+02  0.376179962158E+02  0.000000000000E+00
  0.548812789917E+02  0.358810577393E+02  0.000000000000E+00
  0.149318635800E+05  0.376179962158E+02  0.109236973515E+04
  0.149327180799E+05  0.358810577393E+02  0.109256003933E+04
  0.582170410156E+02  0.392168006897E+02  0.000000000000E+00
  0.566182289124E+02  0.376179962158E+02  0.000000000000E+00
  0.149310770376E+05  0.392168006897E+02  0.109219456567E+04
  0.149318635800E+05  0.376179962158E+02  0.109236973515E+04
  0.596738929749E+02  0.406736450195E+02  0.000000000000E+00
  0.582170410156E+02  0.392168006897E+02  0.000000000000E+00
  0.149303603331E+05  0.406736450195E+02  0.109203494966E+04
  0.149310770376E+05  0.392168006897E+02  0.109219456567E+04
  0.609892082214E+02  0.419889526367E+02  0.000000000000E+00
  0.596738929749E+02  0.406736450195E+02  0.000000000000E+00
  0.149297132582E+05  0.419889526367E+02  0.109189084073E+04
  0.149303603331E+05  0.406736450195E+02  0.109203494966E+04
  0.621668891907E+02  0.431666221619E+02  0.000000000000E+00
  0.609892082214E+02  0.419889526367E+02  0.000000000000E+00
  0.149291338930E+05  0.431666221619E+02  0.109176181133E+04
  0.149297132582E+05  0.419889526367E+02  0.109189084073E+04
  0.632134971619E+02  0.442132263184E+02  0.000000000000E+00
  0.621668891907E+02  0.431666221619E+02  0.000000000000E+00
  0.149286190098E+05  0.442132263184E+02  0.109164714258E+04
  0.149291338930E+05  0.431666221619E+02  0.109176181133E+04
  0.641374740601E+02  0.451371994019E+02  0.000000000000E+00
  0.632134971619E+02  0.442132263184E+02  0.000000000000E+00
  0.149281644554E+05  0.451371994019E+02  0.109154590957E+04
  0.149286190098E+05  0.442132263184E+02  0.109164714258E+04
  0.649484252930E+02  0.459481430054E+02  0.000000000000E+00
  0.641374740601E+02  0.451371994019E+02  0.000000000000E+00
  0.149277655045E+05  0.459481430054E+02  0.109145705991E+04
  0.149281644554E+05  0.451371994019E+02  0.109154590957E+04
  0.656565246582E+02  0.466562423706E+02  0.000000000000E+00
  0.649484252930E+02  0.459481430054E+02  0.000000000000E+00
  0.149274171520E+05  0.466562423706E+02  0.109137947894E+04
  0.149277655045E+05  0.459481430054E+02  0.109145705991E+04
  0.662720489502E+02  0.472717590332E+02  0.000000000000E+00
  0.656565246582E+02  0.466562423706E+02  0.000000000000E+00
  0.149271143422E+05  0.472717590332E+02  0.109131204070E+04
  0.149274171520E+05  0.466562423706E+02  0.109137947894E+04
  0.668050155640E+02  0.478047180176E+02  0.000000000000E+00
  0.662720489502E+02  0.472717590332E+02  0.000000000000E+00
  0.149268521471E+05  0.478047180176E+02  0.109125364767E+04
  0.149271143422E+05  0.472717590332E+02  0.109131204070E+04
  0.672649307251E+02  0.482646369934E+02  0.000000000000E+00
  0.668050155640E+02  0.478047180176E+02  0.000000000000E+00
  0.149266258898E+05  0.482646369934E+02  0.109120325832E+04
  0.149268521471E+05  0.478047180176E+02  0.109125364767E+04
  0.676606597900E+02  0.486603622437E+02  0.000000000000E+00
  0.672649307251E+02  0.482646369934E+02  0.000000000000E+00
  0.149264312092E+05  0.486603622437E+02  0.109115990134E+04
  0.149266258898E+05  0.482646369934E+02  0.109120325832E+04
  0.680002975464E+02  0.490000000000E+02  0.000000000000E+00
  0.676606597900E+02  0.486603622437E+02  0.000000000000E+00
  0.149262641230E+05  0.490000000000E+02  0.109112268986E+04
  0.149264312092E+05  0.486603622437E+02  0.109115990134E+04
POLYGONS                  78                 312
3                   0                   3                   1
3                   0                   2                   3
3                   4                   7                   5
3                   4                   6                   7
3                   8                  11                   9
3                   8                  10                  11
3                  12                  15                  13
3                  12                  14                  15
3                  16                  19                  17
3                  16                  18                  19
3                  20                  23                  21
3                  20                  22                  23
3                  24                  27                  25
3                  24                  26                  27
3                  28                  31                  29
3                  28                  30                  31
3                  32                  35                  33
3                  32                  34                  35
3                  36                  39                  37
3                  36                  38                  39
3                  40                  43                  41
3                  40                  42                  43
3                  44                  47                  45
3                  44                  46                  47
3                  48                  51                  49
3                  48                  50                  51
3                  52                  55                  53
3                  52                  54                  55
3                  56                  59                  57
3                  56                  58                  59
3                  60                  63                  61
3                  60                  62                  63
3                  64                  67                  65
3                  64                  66                  67
3                  68                  71                  69
3                  68                  70                  71
3                  72                  75                  73
3                  72                  74                  75
3                  76                  79                  77
3                  76                  78                  79
3                  80                  83                  81
3                  80                  82                  83
3                  84                  87                  85
3                  84                  86                  87
3                  88                  91                  89
3                  88                  90                  91
3                  92                  95                  93
3                  92                  94                  95
3                  96                  99                  97
3                  96                  98                  99
3                 100                 103                 101
3                 100                 102                 103
3                 104                 107                 105
3                 104                 106                 107
3                 108                 111                 109
3                 108                 110                 111
3                 112                 115                 113
3                 112                 114                 115
3                 116                 119                 117
3                 116                 118                 119
3                 120                 123                 121
3                 120                 122                 123
3                 124                 127                 125
3                 124                 126                 127
3                 128                 131                 129
3                 128                 130                 131
3                 132                 135                 133
3                 132                 134                 135
3                 136                 139                 137
3                 136                 138                 139
3                 140                 143                 141
3                 140                 142                 143
3                 144                 147                 145
3                 144                 146                 147
3                 148                 151                 149
3                 148                 150                 151
3                 152                 155                 153
3                 152                 154                 155
POINT_DATA                 156
SCALARS mu float 1
LOOKUP_TABLE default
 -0.667132779888E+00
  0.442144175823E-04
 -0.667132779888E+00
  0.442144175823E-04
 -0.101242137312E+01
 -0.667132779888E+00
 -0.101242137312E+01
 -0.667132779888E+00
 -0.123764365406E+01
 -0.101242137312E+01
 -0.123764365406E+01
 -0.101242137312E+01
 -0.140457069717E+01
 -0.123764365406E+01
 -0.140457069717E+01
 -0.123764365406E+01
 -0.153925642785E+01
 -0.140457069717E+01
 -0.153925642785E+01
 -0.140457069717E+01
 -0.165426013894E+01
 -0.153925642785E+01
 -0.165426013894E+01
 -0.153925642785E+01
 -0.175622927551E+01
 -0.165426013894E+01
 -0.175622927551E+01
 -0.165426013894E+01
 -0.185006772627E+01
 -0.175622927551E+01
 -0.185006772627E+01
 -0.175622927551E+01
 -0.193682069169E+01
 -0.185006772627E+01
 -0.193682069169E+01
 -0.185006772627E+01
 -0.201802113028E+01
 -0.193682069169E+01
 -0.201802113028E+01
 -0.193682069169E+01
 -0.209447427777E+01
 -0.201802113028E+01
 -0.209447427777E+01
 -0.201802113028E+01
 -0.216635730360E+01
 -0.209447427777E+01
 -0.216635730360E+01
 -0.209447427777E+01
 -0.223367610820E+01
 -0.216635730360E+01
 -0.223367610820E+01
 -0.216635730360E+01
 -0.229626332686E+01
 -0.223367610820E+01
 -0.229626332686E+01
 -0.223367610820E+01
 -0.235306505806E+01
 -0.229626332686E+01
 -0.235306505806E+01
 -0.229626332686E+01
 -0.240425132465E+01
 -0.235306505806E+01
 -0.240425132465E+01
 -0.235306505806E+01
 -0.244869639054E+01
 -0.240425132465E+01
 -0.244869639054E+01
 -0.240425132465E+01
 -0.248596156158E+01
 -0.244869639054E+01
 -0.248596156158E+01
 -0.244869639054E+01
 -0.251549555176E+01
 -0.248596156158E+01
 -0.251549555176E+01
 -0.248596156158E+01
 -0.253617468636E+01
 -0.251549555176E+01
 -0.253617468636E+01
 -0.251549555176E+01
 -0.254738736146E+01
 -0.253617468636E+01
 -0.254738736146E+01
 -0.253617468636E+01
 -0.254800459029E+01
 -0.254738736146E+01
 -0.254800459029E+01
 -0.254738736146E+01
 -0.253678198762E+01
 -0.254800459029E+01
 -0.253678198762E+01
 -0.254800459029E+01
 -0.251275272878E+01
 -0.253678198762E+01
 -0.251275272878E+01
 -0.253678198762E+01
 -0.247472158936E+01
 -0.251275272878E+01
 -0.247472158936E+01
 -0.251275272878E+01
 -0.242187720745E+01
 -0.247472158936E+01
 -0.242187720745E+01
 -0.247472158936E+01
 -0.235370693820E+01
 -0.242187720745E+01
 -0.235370693820E+01
 -0.242187720745E+01
 -0.227027155307E+01
 -0.235370693820E+01
 -0.227027155307E+01
 -0.235370693820E+01
 -0.217183961363E+01
 -0.227027155307E+01
 -0.217183961363E+01
 -0.227027155307E+01
 -0.205939843325E+01
 -0.217183961363E+01
 -0.205939843325E+01
 -0.217183961363E+01
 -0.193367107494E+01
 -0.205939843325E+01
 -0.193367107494E+01
 -0.205939843325E+01
 -0.179520018105E+01
 -0.193367107494E+01
 -0.179520018105E+01
 -0.193367107494E+01
 -0.164431076410E+01
 -0.179520018105E+01
 -0.164431076410E+01
 -0.179520018105E+01
 -0.147963159399E+01
 -0.164431076410E+01
 -0.147963159399E+01
 -0.164431076410E+01
 -0.129875590435E+01
 -0.147963159399E+01
 -0.129875590435E+01
 -0.147963159399E+01
 -0.109484625333E+01
 -0.129875590435E+01
 -0.109484625333E+01
 -0.129875590435E+01
 -0.849764280592E+00
 -0.109484625333E+01
 -0.849764280592E+00
 -0.109484625333E+01
 -0.521497109451E+00
 -0.849764280592E+00
 -0.521497109451E+00
 -0.849764280592E+00
  0.000000000000E+00
 -0.521497109451E+00
  0.000000000000E+00
 -0.521497109451E+00
