# vtk DataFile Version 3.0
TriPan results file. Generated by TriPan, USU AeroLab (c) 2021.
ASCII
DATASET POLYDATA
POINTS                  20 float
  0.190000000000E+02  0.000000000000E+00  0.000000000000E+00
  0.993166911545E+02  0.000000000000E+00  0.120034099181E+02
  0.209237651825E+02  0.192375373840E+01  0.000000000000E+00
  0.993587208491E+02  0.192375373840E+01  0.117221826651E+02
  0.244703655243E+02  0.547033166885E+01  0.000000000000E+00
  0.994362056328E+02  0.547033166885E+01  0.112037198712E+02
  0.303820724487E+02  0.113820018768E+02  0.000000000000E+00
  0.995653623712E+02  0.113820018768E+02  0.103395119555E+02
  0.387563171387E+02  0.197561950684E+02  0.000000000000E+00
  0.997483197039E+02  0.197561950684E+02  0.911531585765E+01
  0.482439842224E+02  0.292438049316E+02  0.000000000000E+00
  0.999556026681E+02  0.292438049316E+02  0.772835315810E+01
  0.566182289124E+02  0.376179962158E+02  0.000000000000E+00
  0.100138560001E+03  0.376179962158E+02  0.650415706021E+01
  0.625299339294E+02  0.435296669006E+02  0.000000000000E+00
  0.100267716698E+03  0.435296669006E+02  0.563994942339E+01
  0.660765380859E+02  0.470762481689E+02  0.000000000000E+00
  0.100345201565E+03  0.470762481689E+02  0.512148607179E+01
  0.680002975464E+02  0.490000000000E+02  0.000000000000E+00
  0.100387231134E+03  0.490000000000E+02  0.484025965531E+01
POLYGONS                  18                  72
3                   0                   1                   3
3                   0                   3                   2
3                   2                   3                   5
3                   2                   5                   4
3                   4                   5                   7
3                   4                   7                   6
3                   6                   7                   9
3                   6                   9                   8
3                   8                   9                  11
3                   8                  11                  10
3                  10                  11                  13
3                  10                  13                  12
3                  12                  13                  15
3                  12                  15                  14
3                  14                  15                  17
3                  14                  17                  16
3                  16                  17                  19
3                  16                  19                  18
POINT_DATA                  20
SCALARS mu float 1
LOOKUP_TABLE default
 -0.500480500879E-03
 -0.500480500879E-03
 -0.116531686132E-03
 -0.116531686132E-03
 -0.167307308288E-03
 -0.167307308288E-03
 -0.224732704456E-03
 -0.224732704456E-03
 -0.258566785725E-03
 -0.258566785725E-03
 -0.239225912061E-03
 -0.239225912061E-03
 -0.171313985177E-03
 -0.171313985177E-03
 -0.706292212485E-04
 -0.706292212485E-04
  0.488579057716E-03
  0.488579057716E-03
  0.000000000000E+00
  0.000000000000E+00
