# vtk DataFile Version 3.0
TriPan results file. Generated by TriPan, USU AeroLab (c) 2021.
ASCII
DATASET POLYDATA
POINTS                  40 float
  0.190000000000E+02  0.000000000000E+00  0.000000000000E+00
  0.989057373844E+04  0.000000000000E+00  0.147531658010E+04
  0.197579002380E+02  0.757896304131E+00  0.000000000000E+00
  0.989059029676E+04  0.757896304131E+00  0.147520578581E+04
  0.207889842987E+02  0.178897356987E+01  0.000000000000E+00
  0.989061282349E+04  0.178897356987E+01  0.147505505591E+04
  0.221728172302E+02  0.317279767990E+01  0.000000000000E+00
  0.989064305695E+04  0.317279767990E+01  0.147485275911E+04
  0.239966468811E+02  0.499661636353E+01  0.000000000000E+00
  0.989068290329E+04  0.499661636353E+01  0.147458614102E+04
  0.263436698914E+02  0.734362459183E+01  0.000000000000E+00
  0.989073418016E+04  0.734362459183E+01  0.147424303946E+04
  0.292729015350E+02  0.102728376389E+02  0.000000000000E+00
  0.989079817691E+04  0.102728376389E+02  0.147381482723E+04
  0.327922058105E+02  0.137921218872E+02  0.000000000000E+00
  0.989087506534E+04  0.137921218872E+02  0.147330035474E+04
  0.368321151733E+02  0.178320064545E+02  0.000000000000E+00
  0.989096332775E+04  0.178320064545E+02  0.147270977715E+04
  0.412340698242E+02  0.222339305878E+02  0.000000000000E+00
  0.989105949999E+04  0.222339305878E+02  0.147206627365E+04
  0.457662315369E+02  0.267660694122E+02  0.000000000000E+00
  0.989115851695E+04  0.267660694122E+02  0.147140373573E+04
  0.501681861877E+02  0.311679935455E+02  0.000000000000E+00
  0.989125468919E+04  0.311679935455E+02  0.147076023224E+04
  0.542080955505E+02  0.352078781128E+02  0.000000000000E+00
  0.989134295160E+04  0.352078781128E+02  0.147016965464E+04
  0.577274017334E+02  0.387271614075E+02  0.000000000000E+00
  0.989141984007E+04  0.387271614075E+02  0.146965518187E+04
  0.606566314697E+02  0.416563758850E+02  0.000000000000E+00
  0.989148383678E+04  0.416563758850E+02  0.146922696992E+04
  0.630036544800E+02  0.440033836365E+02  0.000000000000E+00
  0.989153511365E+04  0.440033836365E+02  0.146888386836E+04
  0.648274841309E+02  0.458272018433E+02  0.000000000000E+00
  0.989157495999E+04  0.458272018433E+02  0.146861725027E+04
  0.662113189697E+02  0.472110252380E+02  0.000000000000E+00
  0.989160519349E+04  0.472110252380E+02  0.146841495320E+04
  0.672424011230E+02  0.482421035767E+02  0.000000000000E+00
  0.989162772018E+04  0.482421035767E+02  0.146826422357E+04
  0.680002975464E+02  0.490000000000E+02  0.000000000000E+00
  0.989164427842E+04  0.490000000000E+02  0.146815342984E+04
POLYGONS                  38                 152
3                   0                   1                   3
3                   0                   3                   2
3                   2                   3                   5
3                   2                   5                   4
3                   4                   5                   7
3                   4                   7                   6
3                   6                   7                   9
3                   6                   9                   8
3                   8                   9                  11
3                   8                  11                  10
3                  10                  11                  13
3                  10                  13                  12
3                  12                  13                  15
3                  12                  15                  14
3                  14                  15                  17
3                  14                  17                  16
3                  16                  17                  19
3                  16                  19                  18
3                  18                  19                  21
3                  18                  21                  20
3                  20                  21                  23
3                  20                  23                  22
3                  22                  23                  25
3                  22                  25                  24
3                  24                  25                  27
3                  24                  27                  26
3                  26                  27                  29
3                  26                  29                  28
3                  28                  29                  31
3                  28                  31                  30
3                  30                  31                  33
3                  30                  33                  32
3                  32                  33                  35
3                  32                  35                  34
3                  34                  35                  37
3                  34                  37                  36
3                  36                  37                  39
3                  36                  39                  38
POINT_DATA                  40
SCALARS mu float 1
LOOKUP_TABLE default
 -0.306537398497E-03
 -0.306537398497E-03
 -0.648885511292E-04
 -0.648885511292E-04
 -0.745129901772E-04
 -0.745129901772E-04
 -0.895115805871E-04
 -0.895115805871E-04
 -0.108338032603E-03
 -0.108338032603E-03
 -0.129771148866E-03
 -0.129771148866E-03
 -0.151879538727E-03
 -0.151879538727E-03
 -0.171847714248E-03
 -0.171847714248E-03
 -0.186349683349E-03
 -0.186349683349E-03
 -0.192382606393E-03
 -0.192382606393E-03
 -0.188214097882E-03
 -0.188214097882E-03
 -0.173922684600E-03
 -0.173922684600E-03
 -0.151313838462E-03
 -0.151313838462E-03
 -0.123472362109E-03
 -0.123472362109E-03
 -0.942009552078E-04
 -0.942009552078E-04
 -0.670352365412E-04
 -0.670352365412E-04
 -0.441591358572E-04
 -0.441591358572E-04
 -0.259996342102E-04
 -0.259996342102E-04
 -0.677138267258E-05
 -0.677138267258E-05
  0.000000000000E+00
  0.000000000000E+00
