# vtk DataFile Version 3.0
TriPan results file. Generated by TriPan, USU AeroLab (c) 2021.
ASCII
DATASET POLYDATA
POINTS                  20 float
  0.190000000000E+02  0.000000000000E+00  0.000000000000E+00
  0.989057373844E+04  0.000000000000E+00  0.147531658010E+04
  0.209237651825E+02  0.192375373840E+01  0.000000000000E+00
  0.989061576813E+04  0.192375373840E+01  0.147503535285E+04
  0.244703655243E+02  0.547033166885E+01  0.000000000000E+00
  0.989069325292E+04  0.547033166885E+01  0.147451689005E+04
  0.303820724487E+02  0.113820018768E+02  0.000000000000E+00
  0.989082240965E+04  0.113820018768E+02  0.147365268214E+04
  0.387563171387E+02  0.197561950684E+02  0.000000000000E+00
  0.989100536699E+04  0.197561950684E+02  0.147242848604E+04
  0.482439842224E+02  0.292438049316E+02  0.000000000000E+00
  0.989121264995E+04  0.292438049316E+02  0.147104152334E+04
  0.566182289124E+02  0.376179962158E+02  0.000000000000E+00
  0.989139560728E+04  0.376179962158E+02  0.146981732724E+04
  0.625299339294E+02  0.435296669006E+02  0.000000000000E+00
  0.989152476398E+04  0.435296669006E+02  0.146895311961E+04
  0.660765380859E+02  0.470762481689E+02  0.000000000000E+00
  0.989160224885E+04  0.470762481689E+02  0.146843465625E+04
  0.680002975464E+02  0.490000000000E+02  0.000000000000E+00
  0.989164427842E+04  0.490000000000E+02  0.146815342984E+04
POLYGONS                  18                  72
3                   0                   1                   3
3                   0                   3                   2
3                   2                   3                   5
3                   2                   5                   4
3                   4                   5                   7
3                   4                   7                   6
3                   6                   7                   9
3                   6                   9                   8
3                   8                   9                  11
3                   8                  11                  10
3                  10                  11                  13
3                  10                  13                  12
3                  12                  13                  15
3                  12                  15                  14
3                  14                  15                  17
3                  14                  17                  16
3                  16                  17                  19
3                  16                  19                  18
POINT_DATA                  20
SCALARS mu float 1
LOOKUP_TABLE default
 -0.486456222304E-03
 -0.486456222304E-03
 -0.116541965401E-03
 -0.116541965401E-03
 -0.167356783037E-03
 -0.167356783037E-03
 -0.225889942970E-03
 -0.225889942970E-03
 -0.258813752550E-03
 -0.258813752550E-03
 -0.238334211242E-03
 -0.238334211242E-03
 -0.170615505844E-03
 -0.170615505844E-03
 -0.907411916637E-04
 -0.907411916637E-04
 -0.294361419633E-04
 -0.294361419633E-04
  0.000000000000E+00
  0.000000000000E+00
