# vtk DataFile Version 3.0
TriPan results file. Generated by TriPan, USU AeroLab (c) 2021.
ASCII
DATASET POLYDATA
POINTS                  80 float
  0.190000000000E+02  0.000000000000E+00  0.000000000000E+00
  0.993166911545E+02  0.000000000000E+00  0.120034099181E+02
  0.193396415710E+02  0.339639574289E+00  0.000000000000E+00
  0.993241115152E+02  0.339639574289E+00  0.119537591255E+02
  0.197353687286E+02  0.735364913940E+00  0.000000000000E+00
  0.993327572126E+02  0.735364913940E+00  0.118959094137E+02
  0.201952877045E+02  0.119528055191E+01  0.000000000000E+00
  0.993428053485E+02  0.119528055191E+01  0.118286757662E+02
  0.207282505035E+02  0.172824025154E+01  0.000000000000E+00
  0.993544493183E+02  0.172824025154E+01  0.117507641451E+02
  0.213437728882E+02  0.234375929832E+01  0.000000000000E+00
  0.993678970187E+02  0.234375929832E+01  0.116607834807E+02
  0.220518741608E+02  0.305185556412E+01  0.000000000000E+00
  0.993833673477E+02  0.305185556412E+01  0.115572690926E+02
  0.228628253937E+02  0.386280250549E+01  0.000000000000E+00
  0.994010847037E+02  0.386280250549E+01  0.114387194954E+02
  0.237868041992E+02  0.478677463531E+01  0.000000000000E+00
  0.994212714434E+02  0.478677463531E+01  0.113036468661E+02
  0.248334121704E+02  0.583337688446E+01  0.000000000000E+00
  0.994441373387E+02  0.583337688446E+01  0.111506475878E+02
  0.260110912323E+02  0.701104879379E+01  0.000000000000E+00
  0.994698668257E+02  0.701104879379E+01  0.109784875703E+02
  0.273264064789E+02  0.832635498047E+01  0.000000000000E+00
  0.994986033361E+02  0.832635498047E+01  0.107862070899E+02
  0.287832584381E+02  0.978319931030E+01  0.000000000000E+00
  0.995304320870E+02  0.978319931030E+01  0.105732359444E+02
  0.303820724487E+02  0.113820018768E+02  0.000000000000E+00
  0.995653623712E+02  0.113820018768E+02  0.103395119555E+02
  0.321190223694E+02  0.131189413071E+02  0.000000000000E+00
  0.996033105965E+02  0.131189413071E+02  0.100855944509E+02
  0.339854316711E+02  0.149853391647E+02  0.000000000000E+00
  0.996440872015E+02  0.149853391647E+02  0.981275181625E+01
  0.359674301147E+02  0.169673271179E+02  0.000000000000E+00
  0.996873891543E+02  0.169673271179E+02  0.952301168440E+01
  0.380459861755E+02  0.190458717346E+02  0.000000000000E+00
  0.997328006615E+02  0.190458717346E+02  0.921915619497E+01
  0.401973724365E+02  0.211972446442E+02  0.000000000000E+00
  0.997798033353E+02  0.211972446442E+02  0.890465396064E+01
  0.423940925598E+02  0.233939495087E+02  0.000000000000E+00
  0.998277964463E+02  0.233939495087E+02  0.858352455702E+01
  0.446062088013E+02  0.256060504913E+02  0.000000000000E+00
  0.998761259258E+02  0.256060504913E+02  0.826014445873E+01
  0.468029289246E+02  0.278027553558E+02  0.000000000000E+00
  0.999241190367E+02  0.278027553558E+02  0.793901505511E+01
  0.489543113708E+02  0.299541282654E+02  0.000000000000E+00
  0.999711216272E+02  0.299541282654E+02  0.762451337846E+01
  0.510328712463E+02  0.320326728821E+02  0.000000000000E+00
  0.100016533218E+03  0.320326728821E+02  0.732065733137E+01
  0.530148696899E+02  0.340146598816E+02  0.000000000000E+00
  0.100059835171E+03  0.340146598816E+02  0.703091719952E+01
  0.548812789917E+02  0.358810577393E+02  0.000000000000E+00
  0.100100611775E+03  0.358810577393E+02  0.675807456488E+01
  0.566182289124E+02  0.376179962158E+02  0.000000000000E+00
  0.100138560001E+03  0.376179962158E+02  0.650415706021E+01
  0.582170410156E+02  0.392168006897E+02  0.000000000000E+00
  0.100173490243E+03  0.392168006897E+02  0.627043335014E+01
  0.596738929749E+02  0.406736450195E+02  0.000000000000E+00
  0.100205318994E+03  0.406736450195E+02  0.605746220470E+01
  0.609892082214E+02  0.419889526367E+02  0.000000000000E+00
  0.100234055505E+03  0.419889526367E+02  0.586518172427E+01
  0.621668891907E+02  0.431666221619E+02  0.000000000000E+00
  0.100259785033E+03  0.431666221619E+02  0.569302142796E+01
  0.632134971619E+02  0.442132263184E+02  0.000000000000E+00
  0.100282650929E+03  0.442132263184E+02  0.554002214961E+01
  0.641374740601E+02  0.451371994019E+02  0.000000000000E+00
  0.100302837627E+03  0.451371994019E+02  0.540494979918E+01
  0.649484252930E+02  0.459481430054E+02  0.000000000000E+00
  0.100320554983E+03  0.459481430054E+02  0.528640020198E+01
  0.656565246582E+02  0.466562423706E+02  0.000000000000E+00
  0.100336025270E+03  0.466562423706E+02  0.518288609272E+01
  0.662720489502E+02  0.472717590332E+02  0.000000000000E+00
  0.100349473012E+03  0.472717590332E+02  0.509290514944E+01
  0.668050155640E+02  0.478047180176E+02  0.000000000000E+00
  0.100361117065E+03  0.478047180176E+02  0.501499297072E+01
  0.672649307251E+02  0.482646369934E+02  0.000000000000E+00
  0.100371165118E+03  0.482646369934E+02  0.494775988088E+01
  0.676606597900E+02  0.486603622437E+02  0.000000000000E+00
  0.100379810857E+03  0.486603622437E+02  0.488990989023E+01
  0.680002975464E+02  0.490000000000E+02  0.000000000000E+00
  0.100387231134E+03  0.490000000000E+02  0.484025965531E+01
POLYGONS                  78                 312
3                   0                   1                   3
3                   0                   3                   2
3                   2                   3                   5
3                   2                   5                   4
3                   4                   5                   7
3                   4                   7                   6
3                   6                   7                   9
3                   6                   9                   8
3                   8                   9                  11
3                   8                  11                  10
3                  10                  11                  13
3                  10                  13                  12
3                  12                  13                  15
3                  12                  15                  14
3                  14                  15                  17
3                  14                  17                  16
3                  16                  17                  19
3                  16                  19                  18
3                  18                  19                  21
3                  18                  21                  20
3                  20                  21                  23
3                  20                  23                  22
3                  22                  23                  25
3                  22                  25                  24
3                  24                  25                  27
3                  24                  27                  26
3                  26                  27                  29
3                  26                  29                  28
3                  28                  29                  31
3                  28                  31                  30
3                  30                  31                  33
3                  30                  33                  32
3                  32                  33                  35
3                  32                  35                  34
3                  34                  35                  37
3                  34                  37                  36
3                  36                  37                  39
3                  36                  39                  38
3                  38                  39                  41
3                  38                  41                  40
3                  40                  41                  43
3                  40                  43                  42
3                  42                  43                  45
3                  42                  45                  44
3                  44                  45                  47
3                  44                  47                  46
3                  46                  47                  49
3                  46                  49                  48
3                  48                  49                  51
3                  48                  51                  50
3                  50                  51                  53
3                  50                  53                  52
3                  52                  53                  55
3                  52                  55                  54
3                  54                  55                  57
3                  54                  57                  56
3                  56                  57                  59
3                  56                  59                  58
3                  58                  59                  61
3                  58                  61                  60
3                  60                  61                  63
3                  60                  63                  62
3                  62                  63                  65
3                  62                  65                  64
3                  64                  65                  67
3                  64                  67                  66
3                  66                  67                  69
3                  66                  69                  68
3                  68                  69                  71
3                  68                  71                  70
3                  70                  71                  73
3                  70                  73                  72
3                  72                  73                  75
3                  72                  75                  74
3                  74                  75                  77
3                  74                  77                  76
3                  76                  77                  79
3                  76                  79                  78
POINT_DATA                  80
SCALARS mu float 1
LOOKUP_TABLE default
 -0.272686812686E-03
 -0.272686812686E-03
 -0.451919304112E-04
 -0.451919304112E-04
 -0.496240362153E-04
 -0.496240362153E-04
 -0.509310496888E-04
 -0.509310496888E-04
 -0.541137808625E-04
 -0.541137808625E-04
 -0.591872544042E-04
 -0.591872544042E-04
 -0.653519569269E-04
 -0.653519569269E-04
 -0.707790788042E-04
 -0.707790788042E-04
 -0.782012645324E-04
 -0.782012645324E-04
 -0.857833313290E-04
 -0.857833313290E-04
 -0.957578020717E-04
 -0.957578020717E-04
 -0.101628702613E-03
 -0.101628702613E-03
 -0.111925318688E-03
 -0.111925318688E-03
 -0.121039700389E-03
 -0.121039700389E-03
 -0.129388122566E-03
 -0.129388122566E-03
 -0.135543328696E-03
 -0.135543328696E-03
 -0.140865850426E-03
 -0.140865850426E-03
 -0.144338224295E-03
 -0.144338224295E-03
 -0.148337067358E-03
 -0.148337067358E-03
 -0.147869998663E-03
 -0.147869998663E-03
 -0.147168261876E-03
 -0.147168261876E-03
 -0.143883601083E-03
 -0.143883601083E-03
 -0.139297667978E-03
 -0.139297667978E-03
 -0.133600358595E-03
 -0.133600358595E-03
 -0.123801934556E-03
 -0.123801934556E-03
 -0.115716947093E-03
 -0.115716947093E-03
 -0.104919159874E-03
 -0.104919159874E-03
 -0.949316634404E-04
 -0.949316634404E-04
 -0.833152657620E-04
 -0.833152657620E-04
 -0.738059219074E-04
 -0.738059219074E-04
 -0.611288049370E-04
 -0.611288049370E-04
 -0.523208346550E-04
 -0.523208346550E-04
 -0.423527812003E-04
 -0.423527812003E-04
 -0.327902556734E-04
 -0.327902556734E-04
 -0.278674907577E-04
 -0.278674907577E-04
 -0.408543383799E-04
 -0.408543383799E-04
 -0.175180274482E-04
 -0.175180274482E-04
 -0.106692116759E-04
 -0.106692116759E-04
  0.123944116302E-02
  0.123944116302E-02
  0.000000000000E+00
  0.000000000000E+00
