# vtk DataFile Version 3.0
TriPan results file. Generated by TriPan, USU AeroLab (c) 2021.
ASCII
DATASET POLYDATA
POINTS                  34 float
  0.190003013611E+02  0.000000000000E+00  0.000000000000E+00
  0.993166977386E+02  0.000000000000E+00  0.120033658634E+02
  0.199284744263E+02  0.928174138069E+00  0.000000000000E+00
  0.993369761129E+02  0.928174138069E+00  0.118676800927E+02
  0.212622661591E+02  0.226196575165E+01  0.000000000000E+00
  0.993661162905E+02  0.226196575165E+01  0.116726986114E+02
  0.231392364502E+02  0.413893461227E+01  0.000000000000E+00
  0.994071236280E+02  0.413893461227E+01  0.113983121095E+02
  0.257042465210E+02  0.670394468307E+01  0.000000000000E+00
  0.994631629985E+02  0.670394468307E+01  0.110233439260E+02
  0.290725154877E+02  0.100722141266E+02  0.000000000000E+00
  0.995367516657E+02  0.100722141266E+02  0.105309506561E+02
  0.332713356018E+02  0.142710342407E+02  0.000000000000E+00
  0.996284859005E+02  0.142710342407E+02  0.991714255881E+01
  0.381787681580E+02  0.191784667969E+02  0.000000000000E+00
  0.997357016320E+02  0.191784667969E+02  0.919974534768E+01
  0.435003013611E+02  0.245000000000E+02  0.000000000000E+00
  0.998519644780E+02  0.245000000000E+02  0.842181248051E+01
  0.488218345642E+02  0.298215332031E+02  0.000000000000E+00
  0.999682273240E+02  0.298215332031E+02  0.764387961335E+01
  0.537292671204E+02  0.347289657593E+02  0.000000000000E+00
  0.100075443056E+03  0.347289657593E+02  0.692648240221E+01
  0.579280853271E+02  0.389277839661E+02  0.000000000000E+00
  0.100167177249E+03  0.389277839661E+02  0.631267458376E+01
  0.612963562012E+02  0.422960548401E+02  0.000000000000E+00
  0.100240765958E+03  0.422960548401E+02  0.582028103504E+01
  0.638613662720E+02  0.448610649109E+02  0.000000000000E+00
  0.100296805328E+03  0.448610649109E+02  0.544531285153E+01
  0.657383346558E+02  0.467380332947E+02  0.000000000000E+00
  0.100337812624E+03  0.467380332947E+02  0.517092662849E+01
  0.670721282959E+02  0.480718269348E+02  0.000000000000E+00
  0.100366952843E+03  0.480718269348E+02  0.497594486833E+01
  0.680002975464E+02  0.490000000000E+02  0.000000000000E+00
  0.100387231134E+03  0.490000000000E+02  0.484025965531E+01
POLYGONS                  32                 128
3                   0                   1                   3
3                   0                   3                   2
3                   2                   3                   5
3                   2                   5                   4
3                   4                   5                   7
3                   4                   7                   6
3                   6                   7                   9
3                   6                   9                   8
3                   8                   9                  11
3                   8                  11                  10
3                  10                  11                  13
3                  10                  13                  12
3                  12                  13                  15
3                  12                  15                  14
3                  14                  15                  17
3                  14                  17                  16
3                  16                  17                  19
3                  16                  19                  18
3                  18                  19                  21
3                  18                  21                  20
3                  20                  21                  23
3                  20                  23                  22
3                  22                  23                  25
3                  22                  25                  24
3                  24                  25                  27
3                  24                  27                  26
3                  26                  27                  29
3                  26                  29                  28
3                  28                  29                  31
3                  28                  31                  30
3                  30                  31                  33
3                  30                  33                  32
POINT_DATA                  34
SCALARS mu float 1
LOOKUP_TABLE default
 -0.424332574010E-03
 -0.424332574010E-03
 -0.769748477865E-04
 -0.769748477865E-04
 -0.918482563392E-04
 -0.918482563392E-04
 -0.114299137223E-03
 -0.114299137223E-03
 -0.141188742198E-03
 -0.141188742198E-03
 -0.172437183426E-03
 -0.172437183426E-03
 -0.197312688684E-03
 -0.197312688684E-03
 -0.213185862741E-03
 -0.213185862741E-03
 -0.216251073510E-03
 -0.216251073510E-03
 -0.203326496553E-03
 -0.203326496553E-03
 -0.173957811761E-03
 -0.173957811761E-03
 -0.137221526082E-03
 -0.137221526082E-03
 -0.988569312881E-04
 -0.988569312881E-04
 -0.644268420302E-04
 -0.644268420302E-04
 -0.164306433561E-04
 -0.164306433561E-04
  0.972722925070E-04
  0.972722925070E-04
  0.000000000000E+00
  0.000000000000E+00
