# vtk DataFile Version 3.0
MachLine results file. Generated by MachLine, USU AeroLab (c) 2022.
ASCII
DATASET POLYDATA
POINTS                3696 float
  0.000000000000E+00  0.000000000000E+00  0.000000000000E+00
  0.983571470813E+04  0.000000000000E+00  0.180519145251E+04
  0.147665724158E+00  0.000000000000E+00 -0.234920635819E+00
  0.983576123112E+04  0.000000000000E+00  0.180493796870E+04
  0.147665724158E+00  0.000000000000E+00  0.234920635819E+00
  0.983567780916E+04  0.000000000000E+00  0.180539249918E+04
  0.339639574289E+00  0.339639574289E+00  0.000000000000E+00
  0.983572577602E+04  0.339639574289E+00  0.180513114832E+04
  0.473465979099E+00  0.000000000000E+00 -0.436293870211E+00
  0.983580760254E+04  0.000000000000E+00  0.180468531068E+04
  0.473465979099E+00  0.000000000000E+00  0.436293870211E+00
  0.983565267155E+04  0.000000000000E+00  0.180552946326E+04
  0.487305283546E+00  0.339639574289E+00 -0.234920650721E+00
  0.983577229901E+04  0.339639574289E+00  0.180487766450E+04
  0.487305283546E+00  0.339639574289E+00  0.234920650721E+00
  0.983568887705E+04  0.339639574289E+00  0.180533219501E+04
  0.735364913940E+00  0.735364913940E+00  0.000000000000E+00
  0.983573867159E+04  0.735364913940E+00  0.180506088591E+04
  0.813105583191E+00  0.339639574289E+00 -0.436293929815E+00
  0.983581867044E+04  0.339639574289E+00  0.180462500643E+04
  0.813105583191E+00  0.339639574289E+00  0.436293929815E+00
  0.983566373943E+04  0.339639574289E+00  0.180546915913E+04
  0.883030653000E+00  0.735364913940E+00 -0.234920680523E+00
  0.983578519458E+04  0.735364913940E+00  0.180480740206E+04
  0.883030653000E+00  0.735364913940E+00  0.234920680523E+00
  0.983570177261E+04  0.735364913940E+00  0.180526193262E+04
  0.944064557552E+00  0.000000000000E+00 -0.604293465614E+00
  0.983585276693E+04  0.000000000000E+00  0.180443922930E+04
  0.944064557552E+00  0.000000000000E+00  0.604293465614E+00
  0.983563817811E+04  0.000000000000E+00  0.180560843181E+04
  0.119528055191E+01  0.119528055191E+01  0.000000000000E+00
  0.983575365893E+04  0.119528055191E+01  0.180497922628E+04
  0.120883107185E+01  0.735364913940E+00 -0.436293989420E+00
  0.983583156602E+04  0.735364913940E+00  0.180455474393E+04
  0.120883107185E+01  0.735364913940E+00  0.436293989420E+00
  0.983567663499E+04  0.735364913940E+00  0.180539889675E+04
  0.128370416164E+01  0.339639574289E+00 -0.604293525219E+00
  0.983586383483E+04  0.339639574289E+00  0.180437892505E+04
  0.128370416164E+01  0.339639574289E+00  0.604293525219E+00
  0.983564924599E+04  0.339639574289E+00  0.180554812768E+04
  0.134294629097E+01  0.119528055191E+01 -0.234920725226E+00
  0.983580018193E+04  0.119528055191E+01  0.180472574239E+04
  0.134294629097E+01  0.119528055191E+01  0.234920725226E+00
  0.983571675995E+04  0.119528055191E+01  0.180518027304E+04
  0.157641971111E+01  0.000000000000E+00 -0.760520398617E+00
  0.983590111222E+04  0.000000000000E+00  0.180417581650E+04
  0.157641971111E+01  0.000000000000E+00  0.760520398617E+00
  0.983563104613E+04  0.000000000000E+00  0.180564729090E+04
  0.166874670982E+01  0.119528055191E+01 -0.436294049025E+00
  0.983584655338E+04  0.119528055191E+01  0.180447308425E+04
  0.166874670982E+01  0.119528055191E+01  0.436294049025E+00
  0.983569162233E+04  0.119528055191E+01  0.180531723718E+04
  0.167942965031E+01  0.735364913940E+00 -0.604293584824E+00
  0.983587673041E+04  0.735364913940E+00  0.180430866255E+04
  0.167942965031E+01  0.735364913940E+00  0.604293584824E+00
  0.983566214155E+04  0.735364913940E+00  0.180547786530E+04
  0.172824025154E+01  0.172824025154E+01  0.000000000000E+00
  0.983577102658E+04  0.172824025154E+01  0.180488459743E+04
  0.187590610981E+01  0.172824025154E+01 -0.234920769930E+00
  0.983581754959E+04  0.172824025154E+01  0.180463111348E+04
  0.187590610981E+01  0.172824025154E+01  0.234920769930E+00
  0.983573412759E+04  0.172824025154E+01  0.180508564421E+04
  0.191605937481E+01  0.339639574289E+00 -0.760520458221E+00
  0.983591218013E+04  0.339639574289E+00  0.180411551224E+04
  0.191605937481E+01  0.339639574289E+00  0.760520458221E+00
  0.983564211402E+04  0.339639574289E+00  0.180558698675E+04
  0.213934540749E+01  0.119528055191E+01 -0.604293704033E+00
  0.983589171778E+04  0.119528055191E+01  0.180422700279E+04
  0.213934540749E+01  0.119528055191E+01  0.604293704033E+00
  0.983567712888E+04  0.119528055191E+01  0.180539620577E+04
  0.220170640945E+01  0.172824025154E+01 -0.436294138432E+00
  0.983586392104E+04  0.172824025154E+01  0.180437845532E+04
  0.220170640945E+01  0.172824025154E+01  0.436294138432E+00
  0.983570898995E+04  0.172824025154E+01  0.180522260842E+04
  0.231178498268E+01  0.735364913940E+00 -0.760520577431E+00
  0.983592507572E+04  0.735364913940E+00  0.180404524966E+04
  0.231178498268E+01  0.735364913940E+00  0.760520577431E+00
  0.983565500957E+04  0.735364913940E+00  0.180551672440E+04
  0.234375929832E+01  0.234375929832E+01  0.000000000000E+00
  0.983579108460E+04  0.234375929832E+01  0.180477530988E+04
  0.239635515213E+01  0.000000000000E+00 -0.902061045170E+00
  0.983595296263E+04  0.000000000000E+00  0.180389330587E+04
  0.239635515213E+01  0.000000000000E+00  0.902061045170E+00
  0.983563263447E+04  0.000000000000E+00  0.180563863674E+04
  0.249142503738E+01  0.234375929832E+01 -0.234920814633E+00
  0.983583760761E+04  0.234375929832E+01  0.180452182591E+04
  0.249142503738E+01  0.234375929832E+01  0.234920814633E+00
  0.983575418560E+04  0.234375929832E+01  0.180497635673E+04
  0.267230534554E+01  0.172824025154E+01 -0.604293823242E+00
  0.983590908545E+04  0.172824025154E+01  0.180413237379E+04
  0.267230534554E+01  0.172824025154E+01  0.604293823242E+00
  0.983569449651E+04  0.172824025154E+01  0.180530157699E+04
  0.273599505424E+01  0.339639574289E+00 -0.902061164379E+00
  0.983596403055E+04  0.339639574289E+00  0.180383300151E+04
  0.273599505424E+01  0.339639574289E+00  0.902061164379E+00
  0.983564370235E+04  0.339639574289E+00  0.180557833261E+04
  0.277170085907E+01  0.119528055191E+01 -0.760520696640E+00
  0.983594006310E+04  0.119528055191E+01  0.180396358988E+04
  0.277170085907E+01  0.119528055191E+01  0.760520696640E+00
  0.983566999690E+04  0.119528055191E+01  0.180543506485E+04
  0.281722569466E+01  0.234375929832E+01 -0.436294227839E+00
  0.983588397908E+04  0.234375929832E+01  0.180426916764E+04
  0.281722569466E+01  0.234375929832E+01  0.436294227839E+00
  0.983572904796E+04  0.234375929832E+01  0.180511332091E+04
  0.305185556412E+01  0.305185556412E+01  0.000000000000E+00
  0.983581415944E+04  0.305185556412E+01  0.180464958493E+04
  0.313172078133E+01  0.735364913940E+00 -0.902061283588E+00
  0.983597692615E+04  0.735364913940E+00  0.180376273891E+04
  0.313172078133E+01  0.735364913940E+00  0.902061283588E+00
  0.983565659790E+04  0.735364913940E+00  0.180550807025E+04
  0.319952154160E+01  0.305185556412E+01 -0.234920859337E+00
  0.983586068248E+04  0.305185556412E+01  0.180439610086E+04
  0.319952154160E+01  0.305185556412E+01  0.234920859337E+00
  0.983577726044E+04  0.305185556412E+01  0.180485063177E+04
  0.328782463074E+01  0.234375929832E+01 -0.604293942451E+00
  0.983592914350E+04  0.234375929832E+01  0.180402308608E+04
  0.328782463074E+01  0.234375929832E+01  0.604293942451E+00
  0.983571455451E+04  0.234375929832E+01  0.180519228951E+04
  0.330466079712E+01  0.172824025154E+01 -0.760520815849E+00
  0.983595743077E+04  0.172824025154E+01  0.180386896088E+04
  0.330466079712E+01  0.172824025154E+01  0.760520815849E+00
  0.983568736453E+04  0.172824025154E+01  0.180534043608E+04
  0.342464399338E+01  0.000000000000E+00 -0.102348911762E+01
  0.983600803162E+04  0.000000000000E+00  0.180359325853E+04
  0.342464399338E+01  0.000000000000E+00  0.102348911762E+01
  0.983564458351E+04  0.000000000000E+00  0.180557353155E+04
  0.352532196045E+01  0.305185556412E+01 -0.436294317245E+00
  0.983590705395E+04  0.305185556412E+01  0.180414344260E+04
  0.352532196045E+01  0.305185556412E+01  0.436294317245E+00
  0.983575212280E+04  0.305185556412E+01  0.180498759604E+04
  0.359163665771E+01  0.119528055191E+01 -0.902061402798E+00
  0.983599191352E+04  0.119528055191E+01  0.180368107913E+04
  0.359163665771E+01  0.119528055191E+01  0.902061402798E+00
  0.983567158524E+04  0.119528055191E+01  0.180542641070E+04
  0.376428389549E+01  0.339639574289E+00 -0.102348923683E+01
  0.983601909954E+04  0.339639574289E+00  0.180353295417E+04
  0.376428389549E+01  0.339639574289E+00  0.102348923683E+01
  0.983565565139E+04  0.339639574289E+00  0.180551322742E+04
  0.386280250549E+01  0.386280250549E+01  0.000000000000E+00
  0.983584058590E+04  0.386280250549E+01  0.180450559847E+04
  0.392018008232E+01  0.234375929832E+01 -0.760520994663E+00
  0.983597748883E+04  0.234375929832E+01  0.180375967311E+04
  0.392018008232E+01  0.234375929832E+01  0.760520994663E+00
  0.983570742253E+04  0.234375929832E+01  0.180523114866E+04
  0.399592113495E+01  0.305185556412E+01 -0.604294061661E+00
  0.983595221838E+04  0.305185556412E+01  0.180389736096E+04
  0.399592113495E+01  0.305185556412E+01  0.604294061661E+00
  0.983573762935E+04  0.305185556412E+01  0.180506656463E+04
  0.401046848297E+01  0.386280250549E+01 -0.234920918941E+00
  0.983588710895E+04  0.386280250549E+01  0.180425211435E+04
  0.401046848297E+01  0.386280250549E+01  0.234920918941E+00
  0.983580368689E+04  0.386280250549E+01  0.180470664538E+04
  0.412459707260E+01  0.172824025154E+01 -0.902061522007E+00
  0.983600928121E+04  0.172824025154E+01  0.180358645004E+04
  0.412459707260E+01  0.172824025154E+01  0.902061522007E+00
  0.983568895288E+04  0.172824025154E+01  0.180533178183E+04
  0.416000986099E+01  0.735364913940E+00 -0.102348935604E+01
  0.983603199515E+04  0.735364913940E+00  0.180346269153E+04
  0.416000986099E+01  0.735364913940E+00  0.102348935604E+01
  0.983566854695E+04  0.735364913940E+00  0.180544296502E+04
  0.433626890182E+01  0.386280250549E+01 -0.436294436455E+00
[...]
CELL_DATA                  78
NORMALS normals float
  0.177647797468E+00 -0.177648841843E+00 -0.967926727106E+00
  0.177647797468E+00 -0.177648841843E+00 -0.967926727106E+00
  0.177647804672E+00 -0.177648620780E+00 -0.967926766357E+00
  0.177647804672E+00 -0.177648620781E+00 -0.967926766357E+00
  0.177647789738E+00 -0.177649079053E+00 -0.967926684988E+00
  0.177647789738E+00 -0.177649079053E+00 -0.967926684988E+00
  0.177647797824E+00 -0.177648830916E+00 -0.967926729046E+00
  0.177647797824E+00 -0.177648830916E+00 -0.967926729046E+00
  0.177647800024E+00 -0.177648763397E+00 -0.967926741035E+00
  0.177647800024E+00 -0.177648763397E+00 -0.967926741035E+00
  0.177647790786E+00 -0.177649046896E+00 -0.967926690698E+00
  0.177647790786E+00 -0.177649046896E+00 -0.967926690698E+00
  0.177647800758E+00 -0.177648740871E+00 -0.967926745034E+00
  0.177647800758E+00 -0.177648740870E+00 -0.967926745034E+00
  0.177647789921E+00 -0.177649073423E+00 -0.967926685988E+00
  0.177647789921E+00 -0.177649073423E+00 -0.967926685988E+00
  0.177647799776E+00 -0.177648771023E+00 -0.967926739681E+00
  0.177647799776E+00 -0.177648771023E+00 -0.967926739681E+00
  0.177647796377E+00 -0.177648875318E+00 -0.967926721163E+00
  0.177647796377E+00 -0.177648875318E+00 -0.967926721163E+00
  0.177647791810E+00 -0.177649015461E+00 -0.967926696280E+00
  0.177647791810E+00 -0.177649015461E+00 -0.967926696280E+00
  0.177647801067E+00 -0.177648731394E+00 -0.967926746717E+00
  0.177647801067E+00 -0.177648731394E+00 -0.967926746717E+00
  0.177647790297E+00 -0.177649061886E+00 -0.967926688037E+00
  0.177647790297E+00 -0.177649061886E+00 -0.967926688037E+00
  0.177647796567E+00 -0.177648869487E+00 -0.967926722198E+00
  0.177647796567E+00 -0.177648869487E+00 -0.967926722198E+00
  0.177647796051E+00 -0.177648885325E+00 -0.967926719386E+00
  0.177647796051E+00 -0.177648885326E+00 -0.967926719386E+00
  0.177647800754E+00 -0.177648741020E+00 -0.967926745008E+00
  0.177647800754E+00 -0.177648741020E+00 -0.967926745008E+00
  0.177647799560E+00 -0.177648777657E+00 -0.967926738503E+00
  0.177647799560E+00 -0.177648777657E+00 -0.967926738503E+00
  0.177647795634E+00 -0.177648898115E+00 -0.967926717115E+00
  0.177647795634E+00 -0.177648898115E+00 -0.967926717115E+00
  0.177647791484E+00 -0.177649025465E+00 -0.967926694503E+00
  0.177647791484E+00 -0.177649025465E+00 -0.967926694503E+00
  0.177647791755E+00 -0.177649017156E+00 -0.967926695979E+00
  0.177647791755E+00 -0.177649017156E+00 -0.967926695979E+00
  0.177647791484E+00 -0.177649025465E+00 -0.967926694503E+00
  0.177647791484E+00 -0.177649025465E+00 -0.967926694503E+00
  0.177647805575E+00 -0.177648593052E+00 -0.967926771280E+00
  0.177647805575E+00 -0.177648593052E+00 -0.967926771280E+00
  0.177647789270E+00 -0.177649093400E+00 -0.967926682441E+00
  0.177647789270E+00 -0.177649093400E+00 -0.967926682441E+00
  0.177647798056E+00 -0.177648823804E+00 -0.967926730309E+00
  0.177647798056E+00 -0.177648823804E+00 -0.967926730309E+00
  0.177647796051E+00 -0.177648885325E+00 -0.967926719386E+00
  0.177647796051E+00 -0.177648885325E+00 -0.967926719386E+00
  0.177647793489E+00 -0.177648963960E+00 -0.967926705424E+00
  0.177647793489E+00 -0.177648963960E+00 -0.967926705424E+00
  0.177647803674E+00 -0.177648651388E+00 -0.967926760922E+00
  0.177647803674E+00 -0.177648651388E+00 -0.967926760922E+00
  0.177647801067E+00 -0.177648731409E+00 -0.967926746714E+00
  0.177647801067E+00 -0.177648731409E+00 -0.967926746714E+00
  0.177647797908E+00 -0.177648828335E+00 -0.967926729505E+00
  0.177647797908E+00 -0.177648828335E+00 -0.967926729505E+00
  0.177647775947E+00 -0.177649502254E+00 -0.967926609847E+00
  0.177647775947E+00 -0.177649502254E+00 -0.967926609847E+00
  0.177647809993E+00 -0.177648457490E+00 -0.967926795350E+00
  0.177647809993E+00 -0.177648457490E+00 -0.967926795350E+00
  0.177647807281E+00 -0.177648540715E+00 -0.967926780573E+00
  0.177647807281E+00 -0.177648540715E+00 -0.967926780573E+00
  0.177647777682E+00 -0.177649449002E+00 -0.967926619302E+00
  0.177647777682E+00 -0.177649449002E+00 -0.967926619302E+00
  0.177647830427E+00 -0.177647830427E+00 -0.967926906687E+00
  0.177647830427E+00 -0.177647830427E+00 -0.967926906687E+00
  0.177647760936E+00 -0.177649962900E+00 -0.967926528057E+00
  0.177647760936E+00 -0.177649962900E+00 -0.967926528057E+00
  0.177647750171E+00 -0.177650293230E+00 -0.967926469405E+00
  0.177647750171E+00 -0.177650293228E+00 -0.967926469405E+00
  0.177647876928E+00 -0.177646403465E+00 -0.967927160048E+00
  0.177647876928E+00 -0.177646403465E+00 -0.967927160048E+00
  0.177647776385E+00 -0.177649488824E+00 -0.967926612232E+00
  0.177647776385E+00 -0.177649488824E+00 -0.967926612232E+00
  0.177647830426E+00 -0.177647830477E+00 -0.967926906678E+00
  0.177647830426E+00 -0.177647830478E+00 -0.967926906678E+00
POINT_DATA                3696
SCALARS mu float 1
LOOKUP_TABLE default
  0.000000000000E+00
  0.000000000000E+00
  0.000000000000E+00
  0.000000000000E+00
  0.000000000000E+00
  0.000000000000E+00
  0.000000000000E+00
  0.000000000000E+00
  0.000000000000E+00
  0.000000000000E+00
  0.000000000000E+00
  0.000000000000E+00
  0.000000000000E+00
  0.000000000000E+00
  0.000000000000E+00
  0.000000000000E+00
  0.000000000000E+00
  0.000000000000E+00
  0.000000000000E+00
  0.000000000000E+00
  0.000000000000E+00
  0.000000000000E+00
  0.000000000000E+00
  0.000000000000E+00
  0.000000000000E+00
  0.000000000000E+00
  0.000000000000E+00
  0.000000000000E+00
  0.000000000000E+00
  0.000000000000E+00
  0.000000000000E+00
  0.000000000000E+00
  0.000000000000E+00
  0.000000000000E+00
  0.000000000000E+00
  0.000000000000E+00
  0.000000000000E+00
  0.000000000000E+00
  0.000000000000E+00
  0.000000000000E+00
  0.000000000000E+00
  0.000000000000E+00
  0.000000000000E+00
  0.000000000000E+00
  0.000000000000E+00
  0.000000000000E+00
  0.000000000000E+00
  0.000000000000E+00
  0.000000000000E+00
  0.000000000000E+00
  0.000000000000E+00
  0.000000000000E+00
  0.000000000000E+00
  0.000000000000E+00
  0.000000000000E+00
  0.000000000000E+00
  0.000000000000E+00
  0.000000000000E+00
  0.000000000000E+00
  0.000000000000E+00
  0.000000000000E+00
  0.000000000000E+00
  0.000000000000E+00
  0.000000000000E+00
  0.000000000000E+00
  0.000000000000E+00
  0.000000000000E+00
  0.000000000000E+00
  0.000000000000E+00
  0.000000000000E+00
  0.000000000000E+00
  0.000000000000E+00
  0.000000000000E+00
  0.000000000000E+00
  0.000000000000E+00
  0.000000000000E+00
  0.000000000000E+00
  0.000000000000E+00
  0.000000000000E+00
  0.000000000000E+00
  0.000000000000E+00
  0.000000000000E+00
  0.000000000000E+00
  0.000000000000E+00
  0.000000000000E+00
  0.000000000000E+00
  0.000000000000E+00
  0.000000000000E+00
  0.000000000000E+00
  0.000000000000E+00
  0.000000000000E+00
  0.000000000000E+00
  0.000000000000E+00
  0.000000000000E+00
  0.000000000000E+00
  0.000000000000E+00
  0.000000000000E+00
  0.000000000000E+00
  0.000000000000E+00
  0.000000000000E+00
  0.000000000000E+00
  0.000000000000E+00
  0.000000000000E+00
  0.000000000000E+00
  0.000000000000E+00
  0.000000000000E+00
  0.000000000000E+00
  0.000000000000E+00
  0.000000000000E+00
  0.000000000000E+00
  0.000000000000E+00
  0.000000000000E+00
  0.000000000000E+00
  0.000000000000E+00
  0.000000000000E+00
  0.000000000000E+00
  0.000000000000E+00
  0.000000000000E+00
  0.000000000000E+00
  0.000000000000E+00
  0.000000000000E+00
  0.000000000000E+00
  0.000000000000E+00
  0.000000000000E+00
  0.000000000000E+00
  0.000000000000E+00
  0.000000000000E+00
  0.000000000000E+00
  0.000000000000E+00
  0.000000000000E+00
  0.000000000000E+00
  0.000000000000E+00
  0.000000000000E+00
  0.000000000000E+00
  0.000000000000E+00
  0.000000000000E+00
  0.000000000000E+00
  0.000000000000E+00
  0.000000000000E+00
  0.000000000000E+00
  0.000000000000E+00
  0.000000000000E+00
  0.000000000000E+00
  0.000000000000E+00
  0.000000000000E+00
  0.000000000000E+00
  0.000000000000E+00
  0.000000000000E+00
  0.000000000000E+00
  0.000000000000E+00
  0.000000000000E+00
  0.000000000000E+00
  0.000000000000E+00
  0.000000000000E+00
  0.000000000000E+00
  0.000000000000E+00
  0.000000000000E+00
  0.000000000000E+00
  0.000000000000E+00
  0.000000000000E+00
  0.000000000000E+00
  0.000000000000E+00
  0.000000000000E+00
  0.000000000000E+00
  0.000000000000E+00
  0.000000000000E+00
  0.000000000000E+00
  0.000000000000E+00
  0.000000000000E+00
  0.000000000000E+00
  0.000000000000E+00
  0.000000000000E+00
  0.000000000000E+00
  0.000000000000E+00
  0.000000000000E+00
  0.000000000000E+00
  0.000000000000E+00
  0.000000000000E+00
  0.000000000000E+00
  0.000000000000E+00
  0.000000000000E+00
  0.000000000000E+00
  0.000000000000E+00
  0.000000000000E+00
  0.000000000000E+00
  0.000000000000E+00
  0.000000000000E+00
  0.000000000000E+00
  0.000000000000E+00
  0.000000000000E+00
  0.000000000000E+00
  0.000000000000E+00
  0.000000000000E+00
  0.000000000000E+00
  0.000000000000E+00
  0.000000000000E+00
  0.000000000000E+00
  0.000000000000E+00
  0.000000000000E+00
  0.000000000000E+00
  0.000000000000E+00
  0.000000000000E+00
  0.000000000000E+00
  0.000000000000E+00
  0.000000000000E+00
  0.000000000000E+00
  0.000000000000E+00
  0.000000000000E+00
  0.000000000000E+00
  0.000000000000E+00
  0.000000000000E+00
  0.000000000000E+00
  0.000000000000E+00
  0.000000000000E+00
  0.000000000000E+00
  0.000000000000E+00
  0.000000000000E+00
  0.000000000000E+00
  0.000000000000E+00
  0.000000000000E+00
  0.000000000000E+00
  0.000000000000E+00
  0.000000000000E+00
  0.000000000000E+00
  0.000000000000E+00
  0.000000000000E+00
  0.000000000000E+00
  0.000000000000E+00
  0.000000000000E+00
  0.000000000000E+00
  0.000000000000E+00
  0.000000000000E+00
  0.000000000000E+00
  0.000000000000E+00
  0.000000000000E+00
  0.000000000000E+00
  0.000000000000E+00
  0.000000000000E+00
  0.000000000000E+00
  0.000000000000E+00
  0.000000000000E+00
  0.000000000000E+00
  0.000000000000E+00
  0.000000000000E+00
  0.000000000000E+00
  0.000000000000E+00
  0.000000000000E+00
  0.000000000000E+00
  0.000000000000E+00
  0.000000000000E+00
  0.000000000000E+00
  0.000000000000E+00
  0.000000000000E+00
  0.000000000000E+00
  0.000000000000E+00
  0.000000000000E+00
  0.000000000000E+00
  0.000000000000E+00
  0.000000000000E+00
  0.000000000000E+00
  0.000000000000E+00
  0.000000000000E+00
  0.000000000000E+00
  0.000000000000E+00
  0.000000000000E+00
  0.000000000000E+00
  0.000000000000E+00
  0.000000000000E+00
  0.000000000000E+00
  0.000000000000E+00
  0.000000000000E+00
  0.000000000000E+00
  0.000000000000E+00
  0.000000000000E+00
  0.000000000000E+00
  0.000000000000E+00
  0.000000000000E+00
  0.000000000000E+00
  0.000000000000E+00
  0.000000000000E+00
  0.000000000000E+00
  0.000000000000E+00
  0.000000000000E+00
  0.000000000000E+00
  0.000000000000E+00
  0.000000000000E+00
  0.000000000000E+00
  0.000000000000E+00
  0.000000000000E+00
  0.000000000000E+00
  0.000000000000E+00
  0.000000000000E+00
  0.000000000000E+00
  0.000000000000E+00
  0.000000000000E+00
  0.000000000000E+00
  0.000000000000E+00
  0.000000000000E+00
  0.000000000000E+00
  0.000000000000E+00
  0.000000000000E+00
  0.000000000000E+00
  0.000000000000E+00
  0.000000000000E+00
  0.000000000000E+00
  0.000000000000E+00
  0.000000000000E+00
  0.000000000000E+00
  0.000000000000E+00
  0.000000000000E+00
  0.000000000000E+00
  0.000000000000E+00
  0.000000000000E+00
  0.000000000000E+00
  0.000000000000E+00
  0.000000000000E+00
  0.000000000000E+00
  0.000000000000E+00
  0.000000000000E+00
  0.000000000000E+00
  0.000000000000E+00
  0.000000000000E+00
  0.000000000000E+00
  0.000000000000E+00
  0.000000000000E+00
  0.000000000000E+00
  0.000000000000E+00
  0.000000000000E+00
  0.000000000000E+00
  0.000000000000E+00
  0.000000000000E+00
  0.000000000000E+00
  0.000000000000E+00
  0.000000000000E+00
  0.000000000000E+00
  0.000000000000E+00
  0.000000000000E+00
  0.000000000000E+00
  0.000000000000E+00
  0.000000000000E+00
  0.000000000000E+00
  0.000000000000E+00
  0.000000000000E+00
  0.000000000000E+00
  0.000000000000E+00
  0.000000000000E+00
  0.000000000000E+00
  0.000000000000E+00
  0.000000000000E+00
  0.000000000000E+00
  0.000000000000E+00
  0.000000000000E+00
  0.000000000000E+00
  0.000000000000E+00
  0.000000000000E+00
  0.000000000000E+00
  0.000000000000E+00
  0.000000000000E+00
  0.000000000000E+00
  0.000000000000E+00
  0.000000000000E+00
  0.000000000000E+00
  0.000000000000E+00
  0.000000000000E+00
  0.000000000000E+00
  0.000000000000E+00
  0.000000000000E+00
  0.000000000000E+00
  0.000000000000E+00
  0.000000000000E+00
  0.000000000000E+00
  0.000000000000E+00
  0.000000000000E+00
  0.000000000000E+00
  0.000000000000E+00
  0.000000000000E+00
  0.000000000000E+00
  0.000000000000E+00
  0.000000000000E+00
  0.000000000000E+00
  0.000000000000E+00
  0.000000000000E+00
  0.000000000000E+00
  0.000000000000E+00
  0.000000000000E+00
  0.000000000000E+00
  0.000000000000E+00
  0.000000000000E+00
  0.000000000000E+00
  0.000000000000E+00
  0.000000000000E+00
  0.000000000000E+00
  0.000000000000E+00
  0.000000000000E+00
  0.000000000000E+00
  0.000000000000E+00
  0.000000000000E+00
  0.000000000000E+00
  0.000000000000E+00
  0.000000000000E+00
  0.000000000000E+00
  0.000000000000E+00
  0.000000000000E+00
  0.000000000000E+00
  0.000000000000E+00
  0.000000000000E+00
  0.000000000000E+00
  0.000000000000E+00
  0.000000000000E+00
  0.000000000000E+00
  0.000000000000E+00
  0.000000000000E+00
  0.000000000000E+00
  0.000000000000E+00
  0.000000000000E+00
  0.000000000000E+00
  0.000000000000E+00
  0.000000000000E+00
  0.000000000000E+00
  0.000000000000E+00
  0.000000000000E+00
  0.000000000000E+00
  0.000000000000E+00
  0.000000000000E+00
  0.000000000000E+00
  0.000000000000E+00
  0.000000000000E+00
  0.000000000000E+00
  0.000000000000E+00
  0.000000000000E+00
  0.000000000000E+00
  0.000000000000E+00
  0.000000000000E+00
  0.000000000000E+00
  0.000000000000E+00
  0.000000000000E+00
  0.000000000000E+00
  0.000000000000E+00
  0.000000000000E+00
  0.000000000000E+00
  0.000000000000E+00
  0.000000000000E+00
  0.000000000000E+00
  0.000000000000E+00
  0.000000000000E+00
  0.000000000000E+00
  0.000000000000E+00
  0.000000000000E+00
  0.000000000000E+00
  0.000000000000E+00
  0.000000000000E+00
  0.000000000000E+00
  0.000000000000E+00
  0.000000000000E+00
  0.000000000000E+00
  0.000000000000E+00
  0.000000000000E+00
  0.000000000000E+00
  0.000000000000E+00
  0.000000000000E+00
  0.000000000000E+00
  0.000000000000E+00
  0.000000000000E+00
  0.000000000000E+00
  0.000000000000E+00
  0.000000000000E+00
  0.000000000000E+00
  0.000000000000E+00
  0.000000000000E+00
  0.000000000000E+00
  0.000000000000E+00
  0.000000000000E+00
  0.000000000000E+00
  0.000000000000E+00
  0.000000000000E+00
  0.000000000000E+00
  0.000000000000E+00
  0.000000000000E+00
  0.000000000000E+00
  0.000000000000E+00
  0.000000000000E+00
  0.000000000000E+00
  0.000000000000E+00
  0.000000000000E+00
  0.000000000000E+00
  0.000000000000E+00
  0.000000000000E+00
  0.000000000000E+00
  0.000000000000E+00
  0.000000000000E+00
  0.000000000000E+00
  0.000000000000E+00
  0.000000000000E+00
  0.000000000000E+00
  0.000000000000E+00
  0.000000000000E+00
  0.000000000000E+00
  0.000000000000E+00
  0.000000000000E+00
  0.000000000000E+00
  0.000000000000E+00
  0.000000000000E+00
  0.000000000000E+00
  0.000000000000E+00
  0.000000000000E+00
  0.000000000000E+00
  0.000000000000E+00
  0.000000000000E+00
  0.000000000000E+00
  0.000000000000E+00
  0.000000000000E+00
  0.000000000000E+00
  0.000000000000E+00
  0.000000000000E+00
  0.000000000000E+00
  0.000000000000E+00
  0.000000000000E+00
  0.000000000000E+00
  0.000000000000E+00
  0.000000000000E+00
  0.000000000000E+00
  0.000000000000E+00
  0.000000000000E+00
  0.000000000000E+00
  0.000000000000E+00
  0.000000000000E+00
  0.000000000000E+00
  0.000000000000E+00
  0.000000000000E+00
  0.000000000000E+00
  0.000000000000E+00
  0.000000000000E+00
  0.000000000000E+00
  0.000000000000E+00
  0.000000000000E+00
  0.000000000000E+00
  0.000000000000E+00
  0.000000000000E+00
  0.000000000000E+00
  0.000000000000E+00
  0.000000000000E+00
  0.000000000000E+00
  0.000000000000E+00
  0.000000000000E+00
  0.000000000000E+00
  0.000000000000E+00
  0.000000000000E+00
  0.000000000000E+00
  0.000000000000E+00
  0.000000000000E+00
  0.000000000000E+00
  0.000000000000E+00
  0.000000000000E+00
  0.000000000000E+00
  0.000000000000E+00
  0.000000000000E+00
  0.000000000000E+00
  0.000000000000E+00
  0.000000000000E+00
  0.000000000000E+00
  0.000000000000E+00
  0.000000000000E+00
  0.000000000000E+00
  0.000000000000E+00
  0.000000000000E+00
  0.000000000000E+00
  0.000000000000E+00
  0.000000000000E+00
  0.000000000000E+00
  0.000000000000E+00
  0.000000000000E+00
  0.000000000000E+00
  0.000000000000E+00
  0.000000000000E+00
  0.000000000000E+00
  0.000000000000E+00
  0.000000000000E+00
  0.000000000000E+00
  0.000000000000E+00
  0.000000000000E+00
  0.000000000000E+00
  0.000000000000E+00
  0.000000000000E+00
  0.000000000000E+00
  0.000000000000E+00
  0.000000000000E+00
  0.000000000000E+00
  0.000000000000E+00
  0.000000000000E+00
  0.000000000000E+00
  0.000000000000E+00
  0.000000000000E+00
  0.000000000000E+00
  0.000000000000E+00
  0.000000000000E+00
  0.000000000000E+00
  0.000000000000E+00
  0.000000000000E+00
  0.000000000000E+00
  0.000000000000E+00
  0.000000000000E+00
  0.000000000000E+00
  0.000000000000E+00
  0.000000000000E+00
  0.000000000000E+00
  0.000000000000E+00
  0.000000000000E+00
  0.000000000000E+00
  0.000000000000E+00
  0.000000000000E+00
  0.000000000000E+00
  0.000000000000E+00
  0.000000000000E+00
  0.000000000000E+00
  0.000000000000E+00
  0.000000000000E+00
  0.000000000000E+00
  0.000000000000E+00
  0.000000000000E+00
  0.000000000000E+00
  0.000000000000E+00
  0.000000000000E+00
  0.000000000000E+00
  0.000000000000E+00
  0.000000000000E+00
  0.000000000000E+00
  0.000000000000E+00
  0.000000000000E+00
  0.000000000000E+00
  0.000000000000E+00
  0.000000000000E+00
  0.000000000000E+00
  0.000000000000E+00
  0.000000000000E+00
  0.000000000000E+00
  0.000000000000E+00
  0.000000000000E+00
  0.000000000000E+00
  0.000000000000E+00
  0.000000000000E+00
  0.000000000000E+00
  0.000000000000E+00
  0.000000000000E+00
  0.000000000000E+00
  0.000000000000E+00
  0.000000000000E+00
  0.000000000000E+00
  0.000000000000E+00
  0.000000000000E+00
  0.000000000000E+00
  0.000000000000E+00
  0.000000000000E+00
  0.000000000000E+00
  0.000000000000E+00
  0.000000000000E+00
  0.000000000000E+00
  0.000000000000E+00
  0.000000000000E+00
  0.000000000000E+00
  0.000000000000E+00
  0.000000000000E+00
  0.000000000000E+00
  0.000000000000E+00
  0.000000000000E+00
  0.000000000000E+00
  0.000000000000E+00
  0.000000000000E+00
  0.000000000000E+00
  0.000000000000E+00
  0.000000000000E+00
  0.000000000000E+00
  0.000000000000E+00
  0.000000000000E+00
  0.000000000000E+00
  0.000000000000E+00
  0.000000000000E+00
  0.000000000000E+00
  0.000000000000E+00
  0.000000000000E+00
  0.000000000000E+00
  0.000000000000E+00
  0.000000000000E+00
  0.000000000000E+00
  0.000000000000E+00
  0.000000000000E+00
  0.000000000000E+00
  0.000000000000E+00
  0.000000000000E+00
  0.000000000000E+00
  0.000000000000E+00
  0.000000000000E+00
  0.000000000000E+00
  0.000000000000E+00
  0.000000000000E+00
  0.000000000000E+00
  0.000000000000E+00
  0.000000000000E+00
  0.000000000000E+00
  0.000000000000E+00
  0.000000000000E+00
  0.000000000000E+00
  0.000000000000E+00
  0.000000000000E+00
  0.000000000000E+00
  0.000000000000E+00
  0.000000000000E+00
  0.000000000000E+00
  0.000000000000E+00
  0.000000000000E+00
  0.000000000000E+00
  0.000000000000E+00
  0.000000000000E+00
  0.000000000000E+00
  0.000000000000E+00
  0.000000000000E+00
  0.000000000000E+00
  0.000000000000E+00
  0.000000000000E+00
  0.000000000000E+00