# vtk DataFile Version 3.0
MachLine results file. Generated by MachLine, USU AeroLab (c) 2022.
ASCII
DATASET POLYDATA
POINTS                  36 float
  0.209237651825E+02  0.192375373840E+01  0.000000000000E+00
  0.190000000000E+02  0.000000000000E+00  0.000000000000E+00
  0.147441329488E+05  0.192375373840E+01  0.270221454774E+04
  0.147450007963E+05  0.000000000000E+00  0.270272690454E+04
  0.244703655243E+02  0.547033166885E+01  0.000000000000E+00
  0.209237651825E+02  0.192375373840E+01  0.000000000000E+00
  0.147425330091E+05  0.547033166885E+01  0.270126998088E+04
  0.147441329488E+05  0.192375373840E+01  0.270221454774E+04
  0.303820724487E+02  0.113820018768E+02  0.000000000000E+00
  0.244703655243E+02  0.547033166885E+01  0.000000000000E+00
  0.147398661242E+05  0.113820018768E+02  0.269969551466E+04
  0.147425330091E+05  0.547033166885E+01  0.270126998088E+04
  0.387563171387E+02  0.197561950684E+02  0.000000000000E+00
  0.303820724487E+02  0.113820018768E+02  0.000000000000E+00
  0.147360883412E+05  0.197561950684E+02  0.269746520022E+04
  0.147398661242E+05  0.113820018768E+02  0.269969551466E+04
  0.482439842224E+02  0.292438049316E+02  0.000000000000E+00
  0.387563171387E+02  0.197561950684E+02  0.000000000000E+00
  0.147318082719E+05  0.292438049316E+02  0.269493834774E+04
  0.147360883412E+05  0.197561950684E+02  0.269746520022E+04
  0.566182289124E+02  0.376179962158E+02  0.000000000000E+00
  0.482439842224E+02  0.292438049316E+02  0.000000000000E+00
  0.147280304888E+05  0.376179962158E+02  0.269270803329E+04
  0.147318082719E+05  0.292438049316E+02  0.269493834774E+04
  0.625299339294E+02  0.435296669006E+02  0.000000000000E+00
  0.566182289124E+02  0.376179962158E+02  0.000000000000E+00
  0.147253636048E+05  0.435296669006E+02  0.269113356759E+04
  0.147280304888E+05  0.376179962158E+02  0.269270803329E+04
  0.660765380859E+02  0.470762481689E+02  0.000000000000E+00
  0.625299339294E+02  0.435296669006E+02  0.000000000000E+00
  0.147237636634E+05  0.470762481689E+02  0.269018899971E+04
  0.147253636048E+05  0.435296669006E+02  0.269113356759E+04
  0.680002975464E+02  0.490000000000E+02  0.000000000000E+00
  0.660765380859E+02  0.470762481689E+02  0.000000000000E+00
  0.147228958185E+05  0.490000000000E+02  0.268967664443E+04
  0.147237636634E+05  0.470762481689E+02  0.269018899971E+04
POLYGONS                  18                  72
3                   0                   3                   1
3                   0                   2                   3
3                   4                   7                   5
3                   4                   6                   7
3                   8                  11                   9
3                   8                  10                  11
3                  12                  15                  13
3                  12                  14                  15
3                  16                  19                  17
3                  16                  18                  19
3                  20                  23                  21
3                  20                  22                  23
3                  24                  27                  25
3                  24                  26                  27
3                  28                  31                  29
3                  28                  30                  31
3                  32                  35                  33
3                  32                  34                  35
POINT_DATA                  36
SCALARS mu float 1
LOOKUP_TABLE default
  0.457783961581E+01
 -0.212756579475E+00
  0.457783961581E+01
 -0.212756579475E+00
 -0.558544078028E+00
  0.457783961581E+01
 -0.558544078028E+00
  0.457783961581E+01
  0.143808819637E+01
 -0.558544078028E+00
  0.143808819637E+01
 -0.558544078028E+00
  0.136828791454E+01
  0.143808819637E+01
  0.136828791454E+01
  0.143808819637E+01
  0.147061158801E+01
  0.136828791454E+01
  0.147061158801E+01
  0.136828791454E+01
  0.858337061061E+00
  0.147061158801E+01
  0.858337061061E+00
  0.147061158801E+01
  0.141896931088E+01
  0.858337061061E+00
  0.141896931088E+01
  0.858337061061E+00
 -0.258442769988E+01
  0.141896931088E+01
 -0.258442769988E+01
  0.141896931088E+01
  0.000000000000E+00
 -0.258442769988E+01
  0.000000000000E+00
 -0.258442769988E+01
