# vtk DataFile Version 3.0
MachLine results file. Generated by MachLine, USU AeroLab (c) 2022.
ASCII
DATASET POLYDATA
POINTS                7064 float
  0.000000000000E+00  0.000000000000E+00  0.000000000000E+00
  0.389988087118E-01  0.000000000000E+00 -0.109218262136E+00
  0.389988087118E-01  0.000000000000E+00  0.109218262136E+00
  0.147665724158E+00  0.000000000000E+00 -0.234920635819E+00
  0.147665724158E+00  0.000000000000E+00  0.234920635819E+00
  0.161138445139E+00  0.161138445139E+00  0.000000000000E+00
  0.200137257576E+00  0.161138445139E+00 -0.109218269587E+00
  0.200137257576E+00  0.161138445139E+00  0.109218269587E+00
  0.290265858173E+00  0.000000000000E+00 -0.347333192825E+00
  0.290265858173E+00  0.000000000000E+00  0.347333192825E+00
  0.308804154396E+00  0.161138445139E+00 -0.234920650721E+00
  0.308804154396E+00  0.161138445139E+00  0.234920650721E+00
  0.335006117821E+00  0.335006117821E+00  0.000000000000E+00
  0.374004930258E+00  0.335006117821E+00 -0.109218277037E+00
  0.374004930258E+00  0.335006117821E+00  0.109218277037E+00
  0.451404303312E+00  0.161138445139E+00 -0.347333222628E+00
  0.451404303312E+00  0.161138445139E+00  0.347333222628E+00
  0.473465979099E+00  0.000000000000E+00 -0.436293870211E+00
  0.473465979099E+00  0.000000000000E+00  0.436293870211E+00
  0.482671856880E+00  0.335006117821E+00 -0.234920650721E+00
  0.482671856880E+00  0.335006117821E+00  0.234920650721E+00
  0.522506594658E+00  0.522506594658E+00  0.000000000000E+00
  0.561505436897E+00  0.522506594658E+00 -0.109218284488E+00
  0.561505436897E+00  0.522506594658E+00  0.109218284488E+00
  0.625271975994E+00  0.335006117821E+00 -0.347333222628E+00
  0.625271975994E+00  0.335006117821E+00  0.347333222628E+00
  0.634604454041E+00  0.161138445139E+00 -0.436293900013E+00
  0.634604454041E+00  0.161138445139E+00  0.436293900013E+00
  0.670172333717E+00  0.522506594658E+00 -0.234920665622E+00
  0.670172333717E+00  0.522506594658E+00  0.234920665622E+00
  0.689334988594E+00  0.000000000000E+00 -0.522850036621E+00
  0.689334988594E+00  0.000000000000E+00  0.522850036621E+00
  0.724590361118E+00  0.724590361118E+00  0.000000000000E+00
  0.763589203358E+00  0.724590361118E+00 -0.109218291938E+00
  0.763589203358E+00  0.724590361118E+00  0.109218291938E+00
  0.808472156525E+00  0.335006117821E+00 -0.436293929815E+00
  0.808472156525E+00  0.335006117821E+00  0.436293929815E+00
  0.812772512436E+00  0.522506594658E+00 -0.347333252430E+00
  0.812772512436E+00  0.522506594658E+00  0.347333252430E+00
  0.850473463535E+00  0.161138445139E+00 -0.522850036621E+00
  0.850473463535E+00  0.161138445139E+00  0.522850036621E+00
  0.872256100178E+00  0.724590361118E+00 -0.234920680523E+00
  0.872256100178E+00  0.724590361118E+00  0.234920680523E+00
  0.942254066467E+00  0.942254066467E+00  0.000000000000E+00
  0.944064557552E+00  0.000000000000E+00 -0.604293465614E+00
  0.944064557552E+00  0.000000000000E+00  0.604293465614E+00
  0.981252849102E+00  0.942254066467E+00 -0.109218299389E+00
  0.981252849102E+00  0.942254066467E+00  0.109218299389E+00
  0.995972692966E+00  0.522506594658E+00 -0.436293959618E+00
  0.995972692966E+00  0.522506594658E+00  0.436293959618E+00
  0.101485633850E+01  0.724590361118E+00 -0.347333282232E+00
  0.101485633850E+01  0.724590361118E+00  0.347333282232E+00
  0.102434122562E+01  0.335006117821E+00 -0.522850096226E+00
  0.102434122562E+01  0.335006117821E+00  0.522850096226E+00
  0.108991980553E+01  0.942254066467E+00 -0.234920710325E+00
  0.108991980553E+01  0.942254066467E+00  0.234920710325E+00
  0.110520303249E+01  0.161138445139E+00 -0.604293525219E+00
  0.110520303249E+01  0.161138445139E+00  0.604293525219E+00
  0.117653930187E+01  0.117653930187E+01  0.000000000000E+00
  0.119805645943E+01  0.724590361118E+00 -0.436293989420E+00
  0.119805645943E+01  0.724590361118E+00  0.436293989420E+00
  0.121184170246E+01  0.522506594658E+00 -0.522850096226E+00
  0.121184170246E+01  0.522506594658E+00  0.522850096226E+00
  0.121553814411E+01  0.117653930187E+01 -0.109218306839E+00
  0.121553814411E+01  0.117653930187E+01  0.109218306839E+00
  0.123251998425E+01  0.942254066467E+00 -0.347333312035E+00
  0.123251998425E+01  0.942254066467E+00  0.347333312035E+00
  0.123833239079E+01  0.000000000000E+00 -0.683996438980E+00
  0.123833239079E+01  0.000000000000E+00  0.683996438980E+00
  0.127907073498E+01  0.335006117821E+00 -0.604293525219E+00
  0.127907073498E+01  0.335006117821E+00  0.604293525219E+00
  0.132420504093E+01  0.117653930187E+01 -0.234920725226E+00
  0.132420504093E+01  0.117653930187E+01  0.234920725226E+00
  0.139947092533E+01  0.161138445139E+00 -0.683996498585E+00
  0.139947092533E+01  0.161138445139E+00  0.683996498585E+00
  0.141392552853E+01  0.724590361118E+00 -0.522850155830E+00
  0.141392552853E+01  0.724590361118E+00  0.522850155830E+00
  0.141572022438E+01  0.942254066467E+00 -0.436294019222E+00
  0.141572022438E+01  0.942254066467E+00  0.436294019222E+00
  0.142853081226E+01  0.142853081226E+01  0.000000000000E+00
  0.146657133102E+01  0.522506594658E+00 -0.604293584824E+00
  0.146657133102E+01  0.522506594658E+00  0.604293584824E+00
  0.146680521965E+01  0.117653930187E+01 -0.347333341837E+00
  0.146680521965E+01  0.117653930187E+01  0.347333341837E+00
  0.146752965450E+01  0.142853081226E+01 -0.109218314290E+00
  0.146752965450E+01  0.142853081226E+01  0.109218314290E+00
  0.157333862782E+01  0.335006117821E+00 -0.683996558189E+00
  0.157333862782E+01  0.335006117821E+00  0.683996558189E+00
  0.157619655132E+01  0.142853081226E+01 -0.234920740128E+00
  0.157619655132E+01  0.142853081226E+01  0.234920740128E+00
  0.157641971111E+01  0.000000000000E+00 -0.760520398617E+00
  0.157641971111E+01  0.000000000000E+00  0.760520398617E+00
  0.163158929348E+01  0.942254066467E+00 -0.522850155830E+00
  0.163158929348E+01  0.942254066467E+00  0.522850155830E+00
  0.165000545979E+01  0.117653930187E+01 -0.436294049025E+00
  0.165000545979E+01  0.117653930187E+01  0.436294049025E+00
  0.166865515709E+01  0.724590361118E+00 -0.604293584824E+00
  0.166865515709E+01  0.724590361118E+00  0.604293584824E+00
  0.169935321808E+01  0.169935321808E+01  0.000000000000E+00
  0.171879673004E+01  0.142853081226E+01 -0.347333371639E+00
  0.171879673004E+01  0.142853081226E+01  0.347333371639E+00
  0.173755824566E+01  0.161138445139E+00 -0.760520458221E+00
  0.173755824566E+01  0.161138445139E+00  0.760520458221E+00
  0.173835194111E+01  0.169935321808E+01 -0.109218329191E+00
  0.173835194111E+01  0.169935321808E+01  0.109218329191E+00
  0.176083922386E+01  0.522506594658E+00 -0.683996558189E+00
  0.176083922386E+01  0.522506594658E+00  0.683996558189E+00
  0.184701895714E+01  0.169935321808E+01 -0.234920755029E+00
  0.184701895714E+01  0.169935321808E+01  0.234920755029E+00
  0.186587452888E+01  0.117653930187E+01 -0.522850215435E+00
  0.186587452888E+01  0.117653930187E+01  0.522850215435E+00
  0.188631892204E+01  0.942254066467E+00 -0.604293644428E+00
  0.188631892204E+01  0.942254066467E+00  0.604293644428E+00
  0.190199697018E+01  0.142853081226E+01 -0.436294078827E+00
  0.190199697018E+01  0.142853081226E+01  0.436294078827E+00
  0.191142594814E+01  0.335006117821E+00 -0.760520458221E+00
  0.191142594814E+01  0.335006117821E+00  0.760520458221E+00
  0.196138751507E+01  0.000000000000E+00 -0.833668828011E+00
  0.196138751507E+01  0.000000000000E+00  0.833668828011E+00
  0.196292304993E+01  0.724590361118E+00 -0.683996617794E+00
  0.196292304993E+01  0.724590361118E+00  0.683996617794E+00
  0.198961913586E+01  0.169935321808E+01 -0.347333401442E+00
  0.198961913586E+01  0.169935321808E+01  0.347333401442E+00
  0.199016737938E+01  0.199016737938E+01  0.000000000000E+00
  0.202916622162E+01  0.199016737938E+01 -0.109218336642E+00
  0.202916622162E+01  0.199016737938E+01  0.109218336642E+00
  0.209892654419E+01  0.522506594658E+00 -0.760520517826E+00
  0.209892654419E+01  0.522506594658E+00  0.760520517826E+00
  0.211786603928E+01  0.142853081226E+01 -0.522850275040E+00
  0.211786603928E+01  0.142853081226E+01  0.522850275040E+00
  0.212060427666E+01  0.117653930187E+01 -0.604293704033E+00
  0.212060427666E+01  0.117653930187E+01  0.604293704033E+00
  0.212252616882E+01  0.161138445139E+00 -0.833668828011E+00
  0.212252616882E+01  0.161138445139E+00  0.833668828011E+00
  0.213783311844E+01  0.199016737938E+01 -0.234920784831E+00
  0.213783311844E+01  0.199016737938E+01  0.234920784831E+00
  0.217281937599E+01  0.169935321808E+01 -0.436294138432E+00
  0.217281937599E+01  0.169935321808E+01  0.436294138432E+00
  0.218058681488E+01  0.942254066467E+00 -0.683996677399E+00
  0.218058681488E+01  0.942254066467E+00  0.683996677399E+00
  0.228043341637E+01  0.199016737938E+01 -0.347333431244E+00
  0.228043341637E+01  0.199016737938E+01  0.347333431244E+00
  0.229639387131E+01  0.335006117821E+00 -0.833668887615E+00
  0.229639387131E+01  0.335006117821E+00  0.833668887615E+00
  0.230101037025E+01  0.724590361118E+00 -0.760520577431E+00
  0.230101037025E+01  0.724590361118E+00  0.760520577431E+00
  0.230216526985E+01  0.230216526985E+01  0.000000000000E+00
  0.234116411209E+01  0.230216526985E+01 -0.109218344092E+00
  0.234116411209E+01  0.230216526985E+01  0.109218344092E+00
  0.237259578705E+01  0.142853081226E+01 -0.604293763638E+00
  0.237259578705E+01  0.142853081226E+01  0.604293763638E+00
  0.238868856430E+01  0.169935321808E+01 -0.522850275040E+00
  0.238868856430E+01  0.169935321808E+01  0.522850275040E+00
  0.239635515213E+01  0.000000000000E+00 -0.902061045170E+00
  0.239635515213E+01  0.000000000000E+00  0.902061045170E+00
  0.241487216949E+01  0.117653930187E+01 -0.683996737003E+00
  0.241487216949E+01  0.117653930187E+01  0.683996737003E+00
  0.244983124733E+01  0.230216526985E+01 -0.234920799732E+00
  0.244983124733E+01  0.230216526985E+01  0.234920799732E+00
  0.246363353729E+01  0.199016737938E+01 -0.436294168234E+00
  0.246363353729E+01  0.199016737938E+01  0.436294168234E+00
[...]
CELL_DATA               13888
SCALARS C_p_inc float 1
LOOKUP_TABLE default
  0.309406635326E+00
  0.254885476434E+00
  0.221045228127E+00
  0.190489467609E+00
  0.184523945717E+00
  0.167595665617E+00
  0.163439048781E+00
  0.153512879393E+00
  0.149829977121E+00
  0.143455029760E+00
  0.140035109029E+00
  0.135668750152E+00
  0.132480321407E+00
  0.129352816822E+00
  0.126368053143E+00
  0.124034220705E+00
  0.121144743860E+00
  0.119293257686E+00
  0.116285523043E+00
  0.114687000287E+00
  0.111628345716E+00
  0.110263187749E+00
  0.107497991206E+00
  0.106416705171E+00
  0.103830296787E+00
  0.102879094845E+00
  0.995641172692E-01
  0.984258166142E-01
  0.954925888551E-01
  0.946558663686E-01
  0.917654642194E-01
  0.908670868073E-01
  0.868641143525E-01
  0.856803847395E-01
  0.844046703451E-01
  0.842117116878E-01
  0.832382608754E-01
  0.827233807521E-01
  0.847276694861E-01
  0.852974328355E-01
  0.888141052348E-01
  0.883400497008E-01
  0.965653324854E-01
  0.949108288982E-01
  0.109710610040E+00
  0.106955236991E+00
  0.124289907661E+00
  0.121008991319E+00
  0.153448384544E+00
  0.145975701928E+00
  0.190266918456E+00
  0.181566244992E+00
  0.229453162284E+00
  0.219627768382E+00
  0.270209437417E+00
  0.259371682486E+00
  0.311465733478E+00
  0.299797888624E+00
  0.352087335368E+00
  0.339572939883E+00
  0.394710181579E+00
  0.380218523951E+00
  0.442328627450E+00
  0.425323308051E+00
  0.494222806363E+00
  0.475256449011E+00
  0.551822404046E+00
  0.531013184611E+00
  0.613050657526E+00
  0.591885826035E+00
  0.684322803362E+00
  0.664243483460E+00
  0.758457559589E+00
  0.745281005722E+00
  0.834263499124E+00
  0.839636338689E+00
  0.854665490943E+00
  0.856986152655E+00
  0.723793167349E+00
  0.604043290423E+00
  0.137236550999E+00
  0.346931875899E+00
 -0.195739578383E+00
  0.427702504756E-01
 -0.472744152395E+00
 -0.217635898004E+00
 -0.575873735039E+00
 -0.407999818271E+00
 -0.556661069056E+00
 -0.447956070617E+00
 -0.567934804387E+00
 -0.501151837636E+00
 -0.571104945064E+00
 -0.524160985622E+00
 -0.581262280955E+00
 -0.549633930242E+00
 -0.588265022709E+00
 -0.566169650861E+00
 -0.592235126107E+00
 -0.578302595076E+00
 -0.592783006212E+00
 -0.583564369860E+00
 -0.597005529885E+00
 -0.588960746847E+00
 -0.605740771163E+00
 -0.598932699768E+00
 -0.614541230062E+00
 -0.609364984124E+00
 -0.621030420742E+00
 -0.617616716547E+00
 -0.623872346806E+00
 -0.622304836060E+00
 -0.608757517661E+00
 -0.614380620112E+00
 -0.577707531012E+00
 -0.583083767558E+00
 -0.547429105416E+00
 -0.553825213984E+00
 -0.511771130467E+00
 -0.519335723243E+00
 -0.481580046019E+00
 -0.475024135927E+00
 -0.446042806233E+00
 -0.438248446452E+00
 -0.407412444069E+00
 -0.400504178636E+00
 -0.371894112101E+00
 -0.363793498939E+00
 -0.333665404921E+00
 -0.326210023504E+00
 -0.300101516837E+00
 -0.292843136769E+00
 -0.268799453771E+00
 -0.261143240468E+00
 -0.238549940842E+00
 -0.231101016859E+00
 -0.211344027954E+00
 -0.203579345494E+00
 -0.185291693286E+00
 -0.176938634947E+00
 -0.159911274184E+00
 -0.150969283591E+00
 -0.135602422945E+00
 -0.125969210188E+00
 -0.112303023502E+00
 -0.101609933510E+00
 -0.893613332050E-01
 -0.771547791601E-01
 -0.662182008113E-01
 -0.519171216174E-01
 -0.423318942508E-01
 -0.250614668117E-01
 -0.169309707337E-01
  0.479794542999E-02
  0.114159803502E-01
  0.402166776563E-01
  0.458157561018E-01
  0.825355765196E-01
  0.109641454813E+00
  0.125034188282E+00
  0.278768964618E+00
  0.304268287200E+00
  0.221133645812E+00
  0.220342766503E+00
  0.193820616747E+00
  0.184378109890E+00
  0.172669585457E+00
  0.163395195342E+00
  0.156703495189E+00
  0.149811381007E+00
  0.144928105018E+00
  0.140025399914E+00
  0.136012918932E+00
  0.132474544996E+00
  0.128993664773E+00
  0.126364249087E+00
  0.123178584173E+00
  0.121142095439E+00
  0.117946831774E+00
  0.116283933930E+00
  0.113018668024E+00
  0.111627793872E+00
  0.108644084674E+00
  0.107497968968E+00
  0.104823501899E+00
  0.103830516483E+00
  0.100541643196E+00
  0.995653273453E-01
  0.963180440411E-01
  0.954935149129E-01
  0.925397339029E-01
  0.917665052984E-01
  0.876206439003E-01
  0.868648036908E-01
  0.846327524360E-01
  0.843970992721E-01
  0.832916191762E-01
  0.832256900699E-01
  0.841162358504E-01
  0.846998757251E-01
  0.883255255845E-01
  0.873320045449E-01
  0.949066400615E-01
  0.929609479820E-01
  0.106972256479E+00
  0.103952406185E+00
  0.121042399849E+00
  0.116879072762E+00
  0.146121541522E+00
  0.139375646355E+00
  0.181706159718E+00
  0.173626393257E+00
  0.219697380321E+00
  0.210801264977E+00
  0.259280329560E+00
  0.249828765091E+00
  0.299429839203E+00
  0.289641936868E+00
  0.338814802088E+00
  0.328752414976E+00
  0.378822160427E+00
  0.368305340651E+00
  0.422664808364E+00
  0.411827029425E+00
  0.470342527149E+00
  0.459784285844E+00
  0.522032983532E+00
  0.512632231649E+00
  0.576182309601E+00
  0.568973629006E+00
  0.635329962290E+00
  0.631617972776E+00
  0.694290262996E+00
  0.693984326350E+00
  0.743161130934E+00
  0.739596860942E+00
  0.714236476925E+00
  0.685060781278E+00
  0.471613761460E+00
  0.371108288616E+00
 -0.865524888153E-01
  0.290277812201E-01
 -0.359767097833E+00
 -0.217838934050E+00
 -0.614062472691E+00
 -0.463241051835E+00
 -0.697234632527E+00
 -0.562940066804E+00
 -0.648835567107E+00
 -0.552222504716E+00
 -0.639579048584E+00
 -0.567562263556E+00
 -0.625009990199E+00
 -0.572234632239E+00
 -0.622064355728E+00
 -0.583155675850E+00
 -0.618604754242E+00
 -0.590314116642E+00
 -0.614384604179E+00
 -0.594235090494E+00
 -0.609127102294E+00
 -0.594448351149E+00
 -0.609832427760E+00
 -0.598304178257E+00
 -0.615995563852E+00
 -0.606861859435E+00
 -0.622417421112E+00
 -0.615588105746E+00
 -0.626511211694E+00
 -0.622056810035E+00
 -0.626425145312E+00
 -0.624975386981E+00
 -0.606592699083E+00
 -0.609907581553E+00
 -0.573820383973E+00
 -0.578542526451E+00
 -0.542151313310E+00
 -0.548112099183E+00
 -0.505376692041E+00
 -0.512294880155E+00
 -0.475008993738E+00
 -0.468714677860E+00
 -0.438181447952E+00
 -0.431202397635E+00
 -0.400449319209E+00
 -0.393470552880E+00
 -0.363719326435E+00
 -0.356160240616E+00
 -0.326156828918E+00
 -0.318694864615E+00
 -0.292801816788E+00
 -0.285313694349E+00
 -0.261108492543E+00
 -0.253377343689E+00
 -0.231078508131E+00
 -0.223217421873E+00
 -0.203562552788E+00
 -0.195310099463E+00
 -0.176927567653E+00
 -0.168088671102E+00
 -0.150965160031E+00
 -0.141429505528E+00
 -0.125971240082E+00
 -0.115529900967E+00
 -0.101617347349E+00
 -0.899168051899E-01
 -0.771687535809E-01
 -0.637537771876E-01
 -0.519407860028E-01
 -0.362283606630E-01
 -0.251017524276E-01
 -0.639359037326E-02
  0.472208226378E-02
  0.267112546309E-01
  0.400368493337E-01
  0.626790252169E-01
  0.820187862615E-01
  0.991361447184E-01
  0.124062532299E+00
  0.157875658905E+00
  0.251242180439E+00
  0.277952466339E+00
  0.210248963416E+00
  0.220313032047E+00
  0.191834955586E+00
  0.193428862474E+00
  0.175967605912E+00
  0.172517008967E+00
  0.161725239570E+00
  0.156641780493E+00
  0.149533647911E+00
  0.144899004412E+00
  0.139675065855E+00
  0.135997016258E+00
  0.131810547767E+00
  0.128983899368E+00
  0.125364959576E+00
  0.123172121078E+00
  0.119698912091E+00
  0.117942727998E+00
  0.114466931011E+00
  0.113016629174E+00
  0.109847696891E+00
  0.108643413509E+00
  0.105844306606E+00
  0.104823520141E+00
  0.101474377570E+00
  0.100542888220E+00
  0.971359012431E-01
  0.963200545336E-01
  0.932487647246E-01
  0.925418391032E-01
  0.882389984654E-01
  0.876222224993E-01
  0.848745468632E-01
  0.846257354913E-01
  0.832058702133E-01
  0.832757367648E-01
  0.834972221276E-01
  0.840790464099E-01
  0.873413545007E-01
  0.861849683272E-01
  0.930072739642E-01
  0.910229239479E-01
  0.104052844077E+00
  0.101024019581E+00
  0.117060931395E+00
  0.112852628111E+00
  0.139686103032E+00
  0.133622967531E+00
  0.173877965767E+00
  0.166485435757E+00
  0.210866357021E+00
  0.202826253273E+00
  0.249566433568E+00
  0.241225573403E+00
  0.288897232010E+00
  0.280518193821E+00
  0.327378030078E+00
  0.319123410960E+00
  0.366008648417E+00
  0.357991047822E+00
  0.407983728712E+00
  0.400454794190E+00
  0.453534452091E+00
  0.446965629698E+00
  0.502716248104E+00
  0.497741449300E+00
  0.553904400070E+00
  0.551009414523E+00
  0.608803677680E+00
  0.608122615013E+00
  0.661292313042E+00
  0.661061562625E+00
  0.696133742642E+00
  0.687641190444E+00
  0.638187990807E+00
  0.603425086983E+00
  0.337198277973E+00
  0.245837476808E+00
 -0.239352452951E+00
 -0.141288348769E+00
 -0.490897689367E+00
 -0.374527441077E+00
 -0.732697327985E+00
 -0.608033571248E+00
 -0.797966085257E+00
 -0.682666343136E+00
 -0.727948142989E+00
 -0.640018570741E+00
 -0.703431038729E+00
 -0.634048610497E+00
 -0.675502387061E+00
 -0.622207897086E+00
 -0.662024765024E+00
 -0.620945692972E+00
 -0.649702976268E+00
 -0.618574446244E+00
 -0.638360390023E+00
 -0.614975935586E+00
 -0.627720428749E+00
 -0.609936558600E+00
 -0.624575449928E+00
 -0.610665763749E+00
 -0.627741886028E+00
 -0.616876474361E+00
 -0.631458014453E+00
 -0.623402139703E+00
 -0.632834132444E+00
 -0.627658464053E+00
 -0.629369322056E+00
 -0.627879982252E+00
 -0.605840472969E+00
 -0.608231866971E+00
 -0.570890553149E+00
 -0.575203047012E+00
 -0.537585251790E+00
 -0.543361914153E+00
 -0.499653986994E+00
 -0.506365505763E+00
 -0.468657824384E+00
 -0.462547226227E+00
 -0.431089673386E+00
 -0.424393702970E+00
 -0.393355004098E+00
 -0.386339182777E+00
 -0.356041636801E+00
 -0.348592154399E+00
 -0.318603041877E+00
 -0.311067848384E+00
 -0.285239124697E+00
 -0.277535357124E+00
 -0.253319864952E+00
 -0.245368073038E+00
 -0.223176419070E+00
 -0.214942197262E+00
 -0.195279570099E+00
 -0.186563432425E+00
 -0.168069617081E+00
 -0.158713278837E+00
 -0.141422831978E+00
 -0.131271190896E+00
 -0.115534620241E+00
 -0.104342318434E+00
 -0.899336188965E-01
 -0.773786598629E-01
 -0.637874217623E-01
 -0.495377846730E-01
 -0.362900507020E-01
 -0.201567264947E-01
 -0.651020257173E-02
  0.110514218387E-01
  0.264728589427E-01
  0.436499026437E-01
  0.621957563991E-01
  0.773512707027E-01
  0.983408571441E-01
  0.114630160023E+00
  0.155820495209E+00
  0.185908323701E+00
  0.285987456845E+00
  0.252524345399E+00
  0.211786930385E+00
  0.210028712015E+00
  0.189089886850E+00
  0.191509290354E+00
  0.175011091396E+00
  0.175745267477E+00
  0.163335083108E+00
  0.161605439590E+00
  0.152551550510E+00
  0.149473226622E+00
  0.142846331451E+00
  0.139643003209E+00
  0.134567463914E+00
  0.131791915273E+00
  0.127614246135E+00
  0.125353271493E+00
  0.121520856766E+00
  0.119691605006E+00
  0.115966951470E+00
  0.114462961979E+00
  0.111096481310E+00
  0.109845983559E+00
  0.106893599540E+00
  0.105843869264E+00
  0.102391700814E+00
  0.101475553124E+00
  0.979393971729E-01
  0.971384086549E-01
  0.939181253663E-01
  0.932513971610E-01
  0.887770693182E-01
  0.882408841423E-01
  0.851167792469E-01
  0.848689719848E-01
  0.830634062250E-01
  0.831885399990E-01
  0.828857722923E-01
  0.834591367764E-01
  0.862109808001E-01
  0.849999397994E-01
  0.910939335747E-01
  0.891343361585E-01
  0.101158613057E+00
  0.982165705943E-01
  0.113080946340E+00
  0.109013393796E+00
  0.133942522739E+00
  0.128464418782E+00
  0.166707831327E+00
  0.160027421635E+00
  0.202792471013E+00
  0.195563395735E+00
  0.240777415871E+00
  0.233416435976E+00
  0.279494178531E+00
  0.272300399833E+00
  0.317376621319E+00
  0.310564247356E+00
  0.355267062458E+00
  0.349044120196E+00
  0.396255065669E+00
  0.390898440256E+00
  0.440655488241E+00
  0.436497654759E+00
  0.488508575513E+00
  0.485895852203E+00
  0.538072124914E+00
  0.537101892441E+00
  0.590341955477E+00
  0.590485836912E+00
  0.638125906302E+00
  0.636957598706E+00
  0.661429897135E+00
  0.650158308155E+00
  0.579800023981E+00
  0.543042853655E+00
  0.231651011537E+00
  0.145817779375E+00
 -0.367493537598E+00
 -0.277686285979E+00
 -0.604178851945E+00
 -0.500959700565E+00
 -0.837307346777E+00
 -0.726946413574E+00
 -0.888023692019E+00
 -0.784533153724E+00
 -0.799928712325E+00
 -0.718542279436E+00
 -0.762802558617E+00
 -0.696546576241E+00
 -0.723731829468E+00
 -0.671179672552E+00
 -0.701258893156E+00
 -0.659486477713E+00
 -0.681236743323E+00
 -0.648490261913E+00
 -0.663530903831E+00
 -0.638023557592E+00
 -0.647777493195E+00
 -0.627889494736E+00
 -0.640689937113E+00
 -0.625035103947E+00
 -0.640649288510E+00
 -0.628443358989E+00
 -0.641424546793E+00
 -0.632422049258E+00
 -0.639790218828E+00
 -0.634121624393E+00
 -0.632809780650E+00
 -0.631110339836E+00
 -0.606009630681E+00
 -0.607773839686E+00
 -0.568657082550E+00
 -0.572644538483E+00
 -0.533558251588E+00
 -0.539172231472E+00
 -0.494385564416E+00
 -0.500989671548E+00
 -0.462495029060E+00
 -0.456537459690E+00
 -0.424269415310E+00
 -0.417722413896E+00
 -0.386191042774E+00
 -0.379157172476E+00
 -0.348443452529E+00
 -0.341015389843E+00
 -0.310945464974E+00
 -0.303302523025E+00
 -0.277432523857E+00
 -0.269524004990E+00
 -0.245287722787E+00
 -0.237074975469E+00
 -0.214882129322E+00
 -0.206273323205E+00
 -0.186518401236E+00
 -0.177352986519E+00
 -0.158684960716E+00
 -0.148818448587E+00
 -0.131260935888E+00
 -0.120525955356E+00
 -0.104350429552E+00
 -0.925400843238E-01
 -0.774090040461E-01
 -0.643551422306E-01
 -0.496018908228E-01
 -0.353523840800E-01
 -0.202797682704E-01
 -0.542488062307E-02
  0.108200915233E-01
  0.249366284553E-01
  0.432345700030E-01
  0.551204063792E-01
  0.766457120646E-01
  0.847893651770E-01
  0.113298386134E+00
  0.111487893370E+00
  0.181581035521E+00
  0.135475593716E+00
  0.258490551760E+00
  0.282655592257E+00
  0.207457702769E+00
  0.211292375422E+00
  0.187114245326E+00
  0.188835698450E+00
  0.173357996620E+00
  0.174810257157E+00
  0.162786347054E+00
  0.163189793607E+00
  0.153517711320E+00
  0.152460643113E+00
  0.144839272387E+00
  0.142793566548E+00
  0.136846109117E+00
  0.134536578552E+00
  0.129730801584E+00
  0.127595342999E+00
  0.123335252573E+00
  0.121509206022E+00
  0.117489654185E+00
  0.115960352205E+00
  0.112373547142E+00
  0.111093236223E+00
  0.107966076552E+00
  0.106892374647E+00
  0.103307189545E+00
  0.102392596550E+00
  0.987269386659E-01
  0.979420945267E-01
  0.945621303942E-01
  0.939212022478E-01
  0.892642246368E-01
  0.887794194846E-01
  0.853467893468E-01
  0.851127653087E-01
  0.829093124326E-01
  0.830467139719E-01
  0.822874487904E-01
  0.828495018568E-01
  0.850360229216E-01
  0.838364661621E-01
  0.892179926560E-01
  0.873171937598E-01
  0.983640720167E-01
  0.955670215327E-01
  0.109251186728E+00
  0.105420567733E+00
  0.128760135763E+00
  0.123800336058E+00
  0.160199261321E+00
  0.154250281148E+00
  0.195440626527E+00
  0.189016865119E+00
  0.232835174194E+00
  0.226388018590E+00
  0.271105188633E+00
  0.264956721862E+00
  0.308624499619E+00
  0.303010320196E+00
  0.346158899222E+00
  0.341311521335E+00
  0.386697973159E+00
  0.382874437709E+00
  0.430545544261E+00
  0.427962194564E+00
  0.477686767880E+00
  0.476472090894E+00
  0.526260917032E+00
  0.526245719236E+00
  0.576553498990E+00
  0.576844989338E+00
  0.620311039063E+00
  0.618198555301E+00
  0.633269606385E+00
  0.620305236079E+00
  0.530570699447E+00
  0.493137783283E+00
  0.140461480518E+00
  0.585510772606E-01
 -0.481954386343E+00
 -0.396640943885E+00
 -0.706636882763E+00
 -0.611303842654E+00
 -0.933029040678E+00
 -0.831730733475E+00
 -0.971144797527E+00
 -0.875736417952E+00
 -0.867033491324E+00
 -0.790681220206E+00
 -0.818923167221E+00
 -0.755514825459E+00
 -0.770119322408E+00
 -0.718685799175E+00
 -0.739747150003E+00
 -0.697888704095E+00
 -0.712879915777E+00
 -0.679211218293E+00
 -0.689371584133E+00
 -0.662491049046E+00
 -0.668737285624E+00
 -0.647428563916E+00
 -0.657708755740E+00
 -0.640825518083E+00
 -0.654355984587E+00
 -0.641192888498E+00
 -0.652030662465E+00
 -0.642382294674E+00
 -0.647185855108E+00
 -0.641222432569E+00
 -0.636786926532E+00
 -0.634774398929E+00
 -0.606875503467E+00
 -0.608174767149E+00
 -0.566996442117E+00
 -0.570709251123E+00
 -0.530006717486E+00
 -0.535453931186E+00
 -0.489470207470E+00
 -0.496019309465E+00
 -0.456517894880E+00
 -0.450697123685E+00
 -0.417606333539E+00
 -0.411137717872E+00
 -0.378995968333E+00
 -0.371959737077E+00
 -0.340849386372E+00
 -0.333397419947E+00
 -0.303158328590E+00
 -0.295386655540E+00
 -0.269399603888E+00
 -0.261286938394E+00
 -0.236975491458E+00
 -0.228481726851E+00
 -0.206196778428E+00
 -0.197220034942E+00
 -0.177295550501E+00
 -0.167705535604E+00
 -0.148782684905E+00
 -0.138454803318E+00
 -0.120514427527E+00
 -0.109324235191E+00
 -0.925557486769E-01
 -0.804359110013E-01
 -0.644068767310E-01
 -0.514969876719E-01
 -0.354600641330E-01
 -0.223167949259E-01
 -0.562268432364E-02
  0.670848711603E-02
  0.246030635207E-01
  0.349205561424E-01
  0.546010727871E-01
  0.618647394995E-01
  0.840456676556E-01
  0.877849902917E-01
  0.110754997596E+00
  0.114641423774E+00
  0.137333086309E+00
  0.166841468884E+00
  0.239983513417E+00
  0.258513783628E+00
  0.197011055729E+00
  0.206963331604E+00
  0.181545650163E+00
  0.186805354851E+00
  0.170244388731E+00
  0.173158864151E+00
  0.161057442171E+00
  0.162642043672E+00
  0.152979525398E+00
  0.153413189420E+00
  0.145451458753E+00
  0.144769004023E+00
  0.138252212758E+00
  0.136801514766E+00
  0.131434959976E+00
  0.129702853428E+00
  0.124997253995E+00
  0.123317923868E+00
  0.118970363999E+00
  0.117479539418E+00
  0.113647750230E+00
  0.112368166568E+00
  0.109047686782E+00
  0.107963638297E+00
  0.104223429140E+00
  0.103307528442E+00
  0.995017719768E-01
  0.987295913134E-01
  0.951888335199E-01
  0.945656087145E-01
  0.897205733411E-01
  0.892673222077E-01
  0.855641974174E-01
  0.853446289444E-01
  0.827686704523E-01
  0.828952902370E-01
  0.817168878416E-01
  0.822553772921E-01
  0.838785130267E-01
  0.827346602631E-01
  0.874070757264E-01
  0.856009467349E-01
  0.957165216033E-01
  0.931084888821E-01
  0.105650382582E+00
  0.102119133948E+00
  0.124062714229E+00
  0.119602048883E+00
  0.154369186068E+00
  0.149136495835E+00
  0.188823742220E+00
  0.183196222240E+00
  0.225721237983E+00
  0.220135871604E+00
  0.263673702037E+00
  0.258462892634E+00
  0.301002595304E+00
  0.296409423987E+00
  0.338428824573E+00
  0.334681794483E+00
  0.378853308698E+00
  0.376169663185E+00
  0.422517806408E+00
  0.421022382404E+00
  0.469305641294E+00
  0.468973304435E+00
  0.517215711505E+00
  0.517700811774E+00
  0.565835670236E+00
  0.566039504621E+00
  0.605854521919E+00
  0.602944712067E+00
  0.609137903640E+00
  0.595086453403E+00
  0.486912610232E+00
  0.449348458993E+00
  0.578136314675E-01
 -0.211704620396E-01
 -0.587869092814E+00
 -0.505165758790E+00
 -0.801975568778E+00
 -0.711779590961E+00
 -0.102269408735E+01
 -0.927621773402E+00
 -0.104940285436E+01
 -0.959888637612E+00
 -0.930595922036E+00
 -0.858198140030E+00
 -0.872571534247E+00
 -0.811645538853E+00
 -0.815009414345E+00
 -0.764776805430E+00
 -0.777538929854E+00
 -0.735916238510E+00
 -0.744459007214E+00
 -0.710336703407E+00
 -0.715563760859E+00
 -0.687851513396E+00
 -0.690249329531E+00
 -0.668017792824E+00
 -0.675316254176E+00
 -0.657605315806E+00
 -0.668588805150E+00
 -0.654788588336E+00
 -0.663044794839E+00
 -0.653004013780E+00
 -0.654896915984E+00
 -0.648747078574E+00
 -0.641229060419E+00
 -0.638910989551E+00
 -0.608273210322E+00
 -0.609226129685E+00
 -0.565806154019E+00
 -0.569289372157E+00
 -0.526862134003E+00
 -0.532157707524E+00
 -0.484840655513E+00
 -0.491362763317E+00
 -0.450728481751E+00
 -0.445017291399E+00
 -0.411043410013E+00
 -0.404614173816E+00
 -0.371801139578E+00
 -0.364759811189E+00
 -0.333224961988E+00
 -0.325718261389E+00
 -0.295228846940E+00
 -0.287316372264E+00
 -0.261147343565E+00
 -0.252825932233E+00
 -0.228367252243E+00
 -0.219591135914E+00
 -0.197130207403E+00
 -0.187810876351E+00
 -0.167638402064E+00
 -0.157680825436E+00
 -0.138414296851E+00
 -0.127744040093E+00
 -0.109315058515E+00
 -0.979248422048E-01
 -0.804646808858E-01
 -0.685212143804E-01
 -0.515774870793E-01
 -0.395572217011E-01
 -0.224719051127E-01
 -0.111696185642E-01