# vtk DataFile Version 3.0
MachLine results file. Generated by MachLine, USU AeroLab (c) 2022.
ASCII
DATASET POLYDATA
POINTS                  40 float
  0.230729694366E+02  0.351242027283E+02  0.000000000000E+00
  0.994177875963E+04  0.351242027283E+02  0.107751626624E+04
  0.222183303833E+02  0.253556423187E+02  0.000000000000E+00
  0.994176879124E+04  0.253556423187E+02  0.107760802684E+04
  0.200871257782E+02  0.995846629143E+00  0.000000000000E+00
  0.994174393316E+04  0.995846629143E+00  0.107783684930E+04
  0.200000000000E+02  0.000000000000E+00  0.000000000000E+00
  0.994174291694E+04  0.000000000000E+00  0.107784620379E+04
  0.242868251801E+02  0.489986419678E+02  0.000000000000E+00
  0.994179291787E+04  0.489986419678E+02  0.107738593738E+04
  0.242866306305E+02  0.489964141846E+02  0.000000000000E+00
  0.994179291560E+04  0.489964141846E+02  0.107738595827E+04
  0.213287963867E+02  0.151882019043E+02  0.000000000000E+00
  0.994175841584E+04  0.151882019043E+02  0.107770353403E+04
  0.206631908417E+02  0.758029556274E+01  0.000000000000E+00
  0.994175065231E+04  0.758029556274E+01  0.107777499854E+04
  0.236698532104E+02  0.419466094971E+02  0.000000000000E+00
  0.994178572160E+04  0.419466094971E+02  0.107745218022E+04
  0.242869091034E+02  0.489995918274E+02  0.000000000000E+00
  0.994179291885E+04  0.489995918274E+02  0.107738592837E+04
  0.241596202850E+02  0.475446701050E+02  0.000000000000E+00
  0.994179143417E+04  0.475446701050E+02  0.107739959508E+04
  0.240000801086E+02  0.457211151123E+02  0.000000000000E+00
  0.994178957332E+04  0.457211151123E+02  0.107741672453E+04
  0.202778739929E+02  0.317612481117E+01  0.000000000000E+00
  0.994174615802E+04  0.317612481117E+01  0.107781636911E+04
  0.242316455841E+02  0.483679389954E+02  0.000000000000E+00
  0.994179227426E+04  0.483679389954E+02  0.107739186189E+04
  0.242631664276E+02  0.487282104492E+02  0.000000000000E+00
  0.994179264192E+04  0.487282104492E+02  0.107738847757E+04
  0.242767715454E+02  0.488837165833E+02  0.000000000000E+00
  0.994179280061E+04  0.488837165833E+02  0.107738701682E+04
  0.242826080322E+02  0.489504356384E+02  0.000000000000E+00
  0.994179286868E+04  0.489504356384E+02  0.107738639017E+04
  0.242869453430E+02  0.490000000000E+02  0.000000000000E+00
  0.994179291927E+04  0.490000000000E+02  0.107738592448E+04
  0.242851066589E+02  0.489789886475E+02  0.000000000000E+00
  0.994179289783E+04  0.489789886475E+02  0.107738612190E+04
  0.242861747742E+02  0.489911956787E+02  0.000000000000E+00
  0.994179291029E+04  0.489911956787E+02  0.107738600722E+04
POLYGONS                  38                 152
3                   4                   5                   7
3                   4                   7                   6
3                  24                  25                   5
3                  24                   5                   4
3                  14                  15                  25
3                  14                  25                  24
3                  12                  13                  15
3                  12                  15                  14
3                   2                   3                  13
3                   2                  13                  12
3                   0                   1                   3
3                   0                   3                   2
3                  16                  17                   1
3                  16                   1                   0
3                  22                  23                  17
3                  22                  17                  16
3                  20                  21                  23
3                  20                  23                  22
3                  26                  27                  21
3                  26                  21                  20
3                  28                  29                  27
3                  28                  27                  26
3                  30                  31                  29
3                  30                  29                  28
3                  32                  33                  31
3                  32                  31                  30
3                  36                  37                  33
3                  36                  33                  32
3                  38                  39                  37
3                  38                  37                  36
3                  10                  11                  39
3                  10                  39                  38
3                   8                   9                  11
3                   8                  11                  10
3                  18                  19                   9
3                  18                   9                   8
3                  34                  35                  19
3                  34                  19                  18
CELL_DATA                  38
NORMALS normals float
  0.107994534976E+00 -0.944835040458E-02 -0.994106588395E+00
  0.107994534976E+00 -0.944835040432E-02 -0.994106588395E+00
  0.107994535101E+00 -0.944822772494E-02 -0.994106589547E+00
  0.107994535101E+00 -0.944822772508E-02 -0.994106589547E+00
  0.107994534984E+00 -0.944834254951E-02 -0.994106588469E+00
  0.107994534984E+00 -0.944834254955E-02 -0.994106588469E+00
  0.107994535030E+00 -0.944829735260E-02 -0.994106588893E+00
  0.107994535030E+00 -0.944829735257E-02 -0.994106588893E+00
  0.107994535049E+00 -0.944827866773E-02 -0.994106589069E+00
  0.107994535049E+00 -0.944827866775E-02 -0.994106589069E+00
  0.107994535021E+00 -0.944830592245E-02 -0.994106588813E+00
  0.107994535021E+00 -0.944830592245E-02 -0.994106588813E+00
  0.107994535021E+00 -0.944830582486E-02 -0.994106588814E+00
  0.107994535021E+00 -0.944830582486E-02 -0.994106588814E+00
  0.107994535017E+00 -0.944831031045E-02 -0.994106588771E+00
  0.107994535017E+00 -0.944831031050E-02 -0.994106588771E+00
  0.107994535042E+00 -0.944828493785E-02 -0.994106589010E+00
  0.107994535042E+00 -0.944828493780E-02 -0.994106589010E+00
  0.107994535216E+00 -0.944811445051E-02 -0.994106590611E+00
  0.107994535216E+00 -0.944811445055E-02 -0.994106590611E+00
  0.107994534670E+00 -0.944864987275E-02 -0.994106585582E+00
  0.107994534670E+00 -0.944864987311E-02 -0.994106585582E+00
  0.107994534963E+00 -0.944836278352E-02 -0.994106588279E+00
  0.107994534963E+00 -0.944836278257E-02 -0.994106588279E+00
  0.107994536143E+00 -0.944720640512E-02 -0.994106599140E+00
  0.107994536143E+00 -0.944720640497E-02 -0.994106599140E+00
  0.107994532860E+00 -0.945042332606E-02 -0.994106568921E+00
  0.107994532860E+00 -0.945042332670E-02 -0.994106568921E+00
  0.107994533780E+00 -0.944952232597E-02 -0.994106577386E+00
  0.107994533780E+00 -0.944952233984E-02 -0.994106577386E+00
  0.107994549880E+00 -0.943373390321E-02 -0.994106725589E+00
  0.107994549880E+00 -0.943373387478E-02 -0.994106725589E+00
  0.107994552631E+00 -0.943103304562E-02 -0.994106750916E+00
  0.107994552631E+00 -0.943103300228E-02 -0.994106750917E+00
  0.107994439273E+00 -0.954167296043E-02 -0.994105707439E+00
  0.107994439273E+00 -0.954167321461E-02 -0.994105707437E+00
  0.107994391124E+00 -0.958828104013E-02 -0.994105264221E+00
  0.107994391125E+00 -0.958828049932E-02 -0.994105264226E+00
POINT_DATA                  40
SCALARS mu float 1
LOOKUP_TABLE default
 -0.355626052734E+01
 -0.355626052734E+01
 -0.426280889904E+01
 -0.426280889904E+01
 -0.487167742393E+01
 -0.487167742393E+01
 -0.487201870747E+01
 -0.487201870747E+01
 -0.293742345811E-01
 -0.293742345811E-01
 -0.507822178623E-01
 -0.507822178623E-01
 -0.466458339354E+01
 -0.466458339354E+01
 -0.482117833575E+01
 -0.482117833575E+01
 -0.268633960675E+01
 -0.268633960675E+01
 -0.108728234873E-01
 -0.108728234873E-01
 -0.125439967831E+01
 -0.125439967831E+01
 -0.187890831767E+01
 -0.187890831767E+01
 -0.486382012888E+01
 -0.486382012888E+01
 -0.817235883602E+00
 -0.817235883602E+00
 -0.525877929053E+00
 -0.525877929053E+00
 -0.335513119627E+00
 -0.335513119627E+00
 -0.213060689243E+00
 -0.213060689243E+00
  0.000000000000E+00
  0.000000000000E+00
 -0.134891189155E+00
 -0.134891189155E+00
 -0.879224219212E-01
 -0.879224219212E-01
