# vtk DataFile Version 3.0
MachLine results file. Generated by MachLine, USU AeroLab (c) 2022.
ASCII
DATASET POLYDATA
POINTS                 704 float
  0.000000000000E+00  0.000000000000E+00  0.000000000000E+00
  0.175594627857E+00  0.995846629143E+00  0.000000000000E+00
  0.327008455992E+00  0.000000000000E+00 -0.377908974886E+00
  0.327008455992E+00  0.000000000000E+00  0.377908974886E+00
  0.502603054047E+00  0.995846629143E+00 -0.377908974886E+00
  0.502603054047E+00  0.995846629143E+00  0.377908974886E+00
  0.560036540031E+00  0.317612481117E+01  0.000000000000E+00
  0.887044966221E+00  0.317612481117E+01 -0.377908974886E+00
  0.887044966221E+00  0.317612481117E+01  0.377908974886E+00
  0.133661055565E+01  0.758029556274E+01  0.000000000000E+00
  0.141893637180E+01  0.000000000000E+00 -0.747395038605E+00
  0.141893637180E+01  0.000000000000E+00  0.747395038605E+00
  0.159453094006E+01  0.995846629143E+00 -0.747395038605E+00
  0.159453094006E+01  0.995846629143E+00  0.747395038605E+00
  0.166361904144E+01  0.758029556274E+01 -0.377908974886E+00
  0.166361904144E+01  0.758029556274E+01  0.377908974886E+00
  0.197897291183E+01  0.317612481117E+01 -0.747395038605E+00
  0.197897291183E+01  0.317612481117E+01  0.747395038605E+00
  0.267808985710E+01  0.151882019043E+02  0.000000000000E+00
  0.275554704666E+01  0.758029556274E+01 -0.747395038605E+00
  0.275554704666E+01  0.758029556274E+01  0.747395038605E+00
  0.300509834290E+01  0.151882019043E+02 -0.377908974886E+00
  0.300509834290E+01  0.151882019043E+02  0.377908974886E+00
  0.375130796432E+01  0.000000000000E+00 -0.109082520008E+01
  0.375130796432E+01  0.000000000000E+00  0.109082520008E+01
  0.392690253258E+01  0.995846629143E+00 -0.109082520008E+01
  0.392690253258E+01  0.995846629143E+00  0.109082520008E+01
  0.409702634811E+01  0.151882019043E+02 -0.747395038605E+00
  0.409702634811E+01  0.151882019043E+02  0.747395038605E+00
  0.431134462357E+01  0.317612481117E+01 -0.109082520008E+01
  0.431134462357E+01  0.317612481117E+01  0.109082520008E+01
  0.447088384628E+01  0.253556423187E+02  0.000000000000E+00
  0.479789257050E+01  0.253556423187E+02 -0.377908974886E+00
  0.479789257050E+01  0.253556423187E+02  0.377908974886E+00
  0.508791828156E+01  0.758029556274E+01 -0.109082520008E+01
  0.508791828156E+01  0.758029556274E+01  0.109082520008E+01
  0.588982009888E+01  0.253556423187E+02 -0.747395038605E+00
  0.588982009888E+01  0.253556423187E+02  0.747395038605E+00
  0.619334459305E+01  0.351242027283E+02  0.000000000000E+00
  0.642939758301E+01  0.151882019043E+02 -0.109082520008E+01
  0.642939758301E+01  0.151882019043E+02  0.109082520008E+01
  0.652035284042E+01  0.351242027283E+02 -0.377908974886E+00
  0.652035284042E+01  0.351242027283E+02  0.377908974886E+00
  0.739631891251E+01  0.419466094971E+02  0.000000000000E+00
  0.761228084564E+01  0.351242027283E+02 -0.747395038605E+00
  0.761228084564E+01  0.351242027283E+02  0.747395038605E+00
  0.764637804031E+01  0.000000000000E+00 -0.116701817513E+01
  0.764637804031E+01  0.000000000000E+00  0.116701817513E+01
  0.772332715988E+01  0.419466094971E+02 -0.377908974886E+00
  0.772332715988E+01  0.419466094971E+02  0.377908974886E+00
  0.782197284698E+01  0.995846629143E+00 -0.116701817513E+01
  0.782197284698E+01  0.995846629143E+00  0.116701817513E+01
  0.806186580658E+01  0.457211151123E+02  0.000000000000E+00
  0.820641422272E+01  0.317612481117E+01 -0.116701817513E+01
  0.820641422272E+01  0.317612481117E+01  0.116701817513E+01
  0.822219181061E+01  0.253556423187E+02 -0.109082520008E+01
  0.822219181061E+01  0.253556423187E+02  0.109082520008E+01
  0.838340854645E+01  0.475446701050E+02  0.000000000000E+00
  0.838887500763E+01  0.457211151123E+02 -0.377908974886E+00
  0.838887500763E+01  0.457211151123E+02  0.377908974886E+00
  0.852857303619E+01  0.483679389954E+02  0.000000000000E+00
  0.859209823608E+01  0.487282104492E+02  0.000000000000E+00
  0.861951828003E+01  0.488837165833E+02  0.000000000000E+00
  0.863128280640E+01  0.489504356384E+02  0.000000000000E+00
  0.863631725311E+01  0.489789886475E+02  0.000000000000E+00
  0.863846969604E+01  0.489911956787E+02  0.000000000000E+00
  0.863938999176E+01  0.489964141846E+02  0.000000000000E+00
  0.863978290558E+01  0.489986419678E+02  0.000000000000E+00
  0.863995075226E+01  0.489995918274E+02  0.000000000000E+00
  0.864002227783E+01  0.490000000000E+02  0.000000000000E+00
  0.871041679382E+01  0.475446701050E+02 -0.377908974886E+00
  0.871041679382E+01  0.475446701050E+02  0.377908974886E+00
  0.881525516510E+01  0.419466094971E+02 -0.747395038605E+00
  0.881525516510E+01  0.419466094971E+02  0.747395038605E+00
  0.885558128357E+01  0.483679389954E+02 -0.377908974886E+00
  0.885558128357E+01  0.483679389954E+02  0.377908974886E+00
  0.891910648346E+01  0.487282104492E+02 -0.377908974886E+00
  0.891910648346E+01  0.487282104492E+02  0.377908974886E+00
  0.894652652740E+01  0.488837165833E+02 -0.377908974886E+00
  0.894652652740E+01  0.488837165833E+02  0.377908974886E+00
  0.895829105377E+01  0.489504356384E+02 -0.377908974886E+00
  0.895829105377E+01  0.489504356384E+02  0.377908974886E+00
  0.896332550049E+01  0.489789886475E+02 -0.377908974886E+00
  0.896332550049E+01  0.489789886475E+02  0.377908974886E+00
  0.896547794342E+01  0.489911956787E+02 -0.377908974886E+00
  0.896547794342E+01  0.489911956787E+02  0.377908974886E+00
  0.896639823914E+01  0.489964141846E+02 -0.377908974886E+00
  0.896639823914E+01  0.489964141846E+02  0.377908974886E+00
  0.896679115295E+01  0.489986419678E+02 -0.377908974886E+00
  0.896679115295E+01  0.489986419678E+02  0.377908974886E+00
  0.896695899963E+01  0.489995918274E+02 -0.377908974886E+00
  0.896695899963E+01  0.489995918274E+02  0.377908974886E+00
  0.896703052521E+01  0.490000000000E+02 -0.377908974886E+00
  0.896703052521E+01  0.490000000000E+02  0.377908974886E+00
  0.898298835754E+01  0.758029556274E+01 -0.116701817513E+01
  0.898298835754E+01  0.758029556274E+01  0.116701817513E+01
  0.901343345642E+01  0.492631607056E+02 -0.267221987247E+00
  0.901343345642E+01  0.492631607056E+02  0.267221987247E+00
  0.903265380859E+01  0.493721694946E+02 -0.118643873158E-14
  0.948080253601E+01  0.457211151123E+02 -0.747395038605E+00
  0.948080253601E+01  0.457211151123E+02  0.747395038605E+00
  0.980234432220E+01  0.475446701050E+02 -0.747395038605E+00
  0.980234432220E+01  0.475446701050E+02  0.747395038605E+00
  0.994465255737E+01  0.351242027283E+02 -0.109082520008E+01
  0.994465255737E+01  0.351242027283E+02  0.109082520008E+01
  0.994750881195E+01  0.483679389954E+02 -0.747395038605E+00
  0.994750881195E+01  0.483679389954E+02  0.747395038605E+00
  0.100110349655E+02  0.487282104492E+02 -0.747395038605E+00
  0.100110349655E+02  0.487282104492E+02  0.747395038605E+00
  0.100384540558E+02  0.488837165833E+02 -0.747395038605E+00
  0.100384540558E+02  0.488837165833E+02  0.747395038605E+00
  0.100502185822E+02  0.489504356384E+02 -0.747395038605E+00
  0.100502185822E+02  0.489504356384E+02  0.747395038605E+00
  0.100552539825E+02  0.489789886475E+02 -0.747395038605E+00
  0.100552539825E+02  0.489789886475E+02  0.747395038605E+00
  0.100574064255E+02  0.489911956787E+02 -0.747395038605E+00
  0.100574064255E+02  0.489911956787E+02  0.747395038605E+00
  0.100583257675E+02  0.489964141846E+02 -0.747395038605E+00
  0.100583257675E+02  0.489964141846E+02  0.747395038605E+00
  0.100587186813E+02  0.489986419678E+02 -0.747395038605E+00
  0.100587186813E+02  0.489986419678E+02  0.747395038605E+00
  0.100588865280E+02  0.489995918274E+02 -0.747395038605E+00
  0.100588865280E+02  0.489995918274E+02  0.747395038605E+00
  0.100589580536E+02  0.490000000000E+02 -0.747395038605E+00
  0.100589580536E+02  0.490000000000E+02  0.747395038605E+00
  0.101507291794E+02  0.495204582214E+02 -0.528488099575E+00
  0.101507291794E+02  0.495204582214E+02  0.528488099575E+00
  0.101887426376E+02  0.497360420227E+02 -0.643262760529E-15
  0.103244676590E+02  0.151882019043E+02 -0.116701817513E+01
  0.103244676590E+02  0.151882019043E+02  0.116701817513E+01
  0.111476268768E+02  0.419466094971E+02 -0.109082520008E+01
  0.111476268768E+02  0.419466094971E+02  0.109082520008E+01
  0.118131742477E+02  0.457211151123E+02 -0.109082520008E+01
  0.118131742477E+02  0.457211151123E+02  0.109082520008E+01
  0.121172618866E+02  0.253556423187E+02 -0.116701817513E+01
  0.121172618866E+02  0.253556423187E+02  0.116701817513E+01
  0.121347160339E+02  0.475446701050E+02 -0.109082520008E+01
  0.121347160339E+02  0.475446701050E+02  0.109082520008E+01
  0.122584857941E+02  0.000000000000E+00 -0.823081254959E+00
  0.122584857941E+02  0.000000000000E+00  0.823081254959E+00
  0.122798805237E+02  0.483679389954E+02 -0.109082520008E+01
  0.122798805237E+02  0.483679389954E+02  0.109082520008E+01
  0.123434066772E+02  0.487282104492E+02 -0.109082520008E+01
  0.123434066772E+02  0.487282104492E+02  0.109082520008E+01
  0.123708257675E+02  0.488837165833E+02 -0.109082520008E+01
  0.123708257675E+02  0.488837165833E+02  0.109082520008E+01
  0.123825902939E+02  0.489504356384E+02 -0.109082520008E+01
  0.123825902939E+02  0.489504356384E+02  0.109082520008E+01
  0.123876256943E+02  0.489789886475E+02 -0.109082520008E+01
  0.123876256943E+02  0.489789886475E+02  0.109082520008E+01
  0.123897781372E+02  0.489911956787E+02 -0.109082520008E+01
  0.123897781372E+02  0.489911956787E+02  0.109082520008E+01
  0.123906974792E+02  0.489964141846E+02 -0.109082520008E+01
  0.123906974792E+02  0.489964141846E+02  0.109082520008E+01
  0.123910903931E+02  0.489986419678E+02 -0.109082520008E+01
  0.123910903931E+02  0.489986419678E+02  0.109082520008E+01
  0.123912582397E+02  0.489995918274E+02 -0.109082520008E+01
  0.123912582397E+02  0.489995918274E+02  0.109082520008E+01
  0.123913297653E+02  0.490000000000E+02 -0.109082520008E+01
  0.123913297653E+02  0.490000000000E+02  0.109082520008E+01
  0.124340801239E+02  0.995846629143E+00 -0.823081254959E+00
[...]
CELL_DATA                1336
SCALARS C_p_inc float 1
LOOKUP_TABLE default
  0.492450990113E+00
  0.484617756936E+00
  0.430368474189E+00
  0.423111275577E+00
  0.387812471328E+00
  0.381079222518E+00
  0.347191672680E+00
  0.340911431751E+00
  0.306121977639E+00
  0.300118907771E+00
  0.263906918388E+00
  0.257966735964E+00
  0.220452451988E+00
  0.214419082010E+00
  0.175645490786E+00
  0.169929740078E+00
  0.129305474235E+00
  0.124916362969E+00
  0.794148404935E-01
  0.762740224229E-01
  0.152601137186E-01
  0.119433033270E-01
 -0.555628465848E-01
 -0.583325139386E-01
 -0.375039079104E-01
 -0.427647655596E-01
  0.146607296582E+00
  0.128319295783E+00
  0.511978158113E+00
  0.482068689647E+00
  0.983877478499E+00
  0.980649711250E+00
 -0.806877998680E+00
 -0.531093114540E+00
 -0.109078917552E+01
 -0.101055301799E+01
 -0.829752378626E+00
 -0.821521736275E+00
 -0.636282123454E+00
 -0.641486997769E+00
 -0.411736726449E+00
 -0.401702701500E+00
 -0.190074641333E+00
 -0.181808101695E+00
 -0.442019553218E-01
 -0.364565895876E-01
  0.502490586355E-01
  0.599943195970E-01
  0.122586677487E+00
  0.134514400050E+00
  0.183635996184E+00
  0.196472203536E+00
  0.237201561470E+00
  0.250353249854E+00
  0.285447117660E+00
  0.298918921984E+00
  0.329946636659E+00
  0.343876330912E+00
  0.372285845996E+00
  0.386913637371E+00
  0.415283801911E+00
  0.431045379635E+00
  0.475976416245E+00
  0.494313054776E+00
  0.490361809070E+00
  0.491683244834E+00
  0.429257729903E+00
  0.429737582788E+00
  0.386440727342E+00
  0.387271261154E+00
  0.345652394644E+00
  0.346733581593E+00
  0.304486351045E+00
  0.305746046985E+00
  0.262264597100E+00
  0.263614063475E+00
  0.219018508430E+00
  0.220243639634E+00
  0.175086440237E+00
  0.175517949678E+00
  0.130580058702E+00
  0.129243143672E+00
  0.821559480185E-01
  0.793921680800E-01
  0.183036341133E-01
  0.152667606193E-01
 -0.546525159434E-01
 -0.555674190839E-01
 -0.427333461679E-01
 -0.501031612511E-01
  0.128425248718E+00
  0.115591152961E+00
  0.480278356583E+00
  0.480102246373E+00
  0.971655734473E+00
  0.966196293164E+00
 -0.933210362640E+00
 -0.806961493526E+00
 -0.116788727716E+01
 -0.109010122527E+01
 -0.854279190186E+00
 -0.830557913425E+00
 -0.634739439051E+00
 -0.636891601628E+00
 -0.401637711717E+00
 -0.390342661746E+00
 -0.181749052836E+00
 -0.169706405320E+00
 -0.364469680270E-01
 -0.249809070181E-01
  0.599679864852E-01
  0.697970209191E-01
  0.134432441615E+00
  0.141860042015E+00
  0.196316281542E+00
  0.202279581115E+00
  0.250119194421E+00
  0.255360802261E+00
  0.298608723320E+00
  0.303390802841E+00
  0.343492707442E+00
  0.347906607952E+00
  0.386457466162E+00
  0.390517759292E+00
  0.430512342414E+00
  0.434152833803E+00
  0.493664618705E+00
  0.495131706947E+00
  0.486231675277E+00
  0.489790790494E+00
  0.426978437429E+00
  0.428772059626E+00
  0.384028788363E+00
  0.386012102589E+00
  0.343132044243E+00
  0.345276295323E+00
  0.301874305624E+00
  0.304161753137E+00
  0.259579508466E+00
  0.261991597247E+00
  0.216307307218E+00
  0.218797590724E+00
  0.172481369261E+00
  0.174918359324E+00
  0.128485286130E+00
  0.130465876536E+00
  0.812888452377E-01
  0.820965442460E-01
  0.184660270147E-01
  0.182963001948E-01
 -0.561352823479E-01
 -0.546513649130E-01
 -0.500190801100E-01
 -0.556745238844E-01
  0.115505988173E+00
  0.111694498037E+00
  0.479205506479E+00
  0.485363787737E+00
  0.964569502120E+00
  0.960365748578E+00
 -0.101091912229E+01
 -0.933471583873E+00
 -0.121840415497E+01
 -0.116740427038E+01
 -0.876993090317E+00
 -0.854819753603E+00
 -0.635895115457E+00
 -0.635640373326E+00
 -0.390451849151E+00
 -0.379075184863E+00
 -0.169682924014E+00
 -0.155836910784E+00
 -0.249759727990E-01
 -0.127088425481E-01
  0.697879282612E-01
  0.798072161131E-01
  0.141846607166E+00
  0.150366393205E+00
  0.202264448889E+00
  0.209882587761E+00
  0.255343690089E+00
  0.262347352636E+00
  0.303371114495E+00
  0.309899451677E+00
  0.347883955722E+00
  0.354001683611E+00
  0.390491885726E+00
  0.396236215123E+00
  0.434123379946E+00
  0.439532272466E+00
  0.495096909099E+00
  0.498100062034E+00
  0.480988471265E+00
  0.485557758979E+00
  0.422697764039E+00
  0.426392287969E+00
  0.379288949968E+00
  0.383503367360E+00
  0.338125039286E+00
  0.342662583174E+00
  0.296594115290E+00
  0.301459828345E+00
  0.254022786429E+00
  0.259220427338E+00
  0.210471135752E+00
  0.216004864248E+00
  0.166374120182E+00
  0.172237961677E+00
  0.122194646107E+00
  0.128305109903E+00
  0.750928622008E-01
  0.811788529329E-01
  0.126810978590E-01
  0.184316858381E-01
 -0.618062489543E-01
 -0.561227638706E-01
 -0.556210374649E-01
 -0.615516064333E-01
  0.111596567640E+00
  0.107559405185E+00
  0.485037670459E+00
  0.484660785222E+00
  0.960097528048E+00
  0.959311833534E+00
 -0.102859722561E+01
 -0.101095338115E+01
 -0.122972503042E+01
 -0.121857302256E+01
 -0.880229261046E+00
 -0.877615497415E+00
 -0.630844145668E+00
 -0.636826478525E+00
 -0.379380621784E+00
 -0.367302738390E+00
 -0.155926247762E+00
 -0.142003802473E+00
 -0.127396512526E-01
  0.272996115182E-03
  0.798262309669E-01
  0.915508143579E-01
  0.150440480769E+00
  0.161104997510E+00
  0.210010926717E+00
  0.219830883811E+00
  0.262526686788E+00
  0.271642622470E+00
  0.310126749595E+00
  0.318619157733E+00
  0.354274888268E+00
  0.362175003072E+00
  0.396554815873E+00
  0.403859620734E+00
  0.439899080748E+00
  0.446766873021E+00
  0.498535319894E+00
  0.502973883471E+00
  0.472977647543E+00
  0.479881073190E+00
  0.414002315990E+00
  0.421715955274E+00
  0.370025918062E+00
  0.378396510676E+00
  0.328279768349E+00
  0.337314663002E+00
  0.286191491661E+00
  0.295864557549E+00
  0.243054302851E+00
  0.253375103199E+00
  0.198891764873E+00
  0.209908253155E+00
  0.154129471739E+00
  0.165902172280E+00
  0.109283303897E+00
  0.121825369060E+00
  0.616514676825E-01
  0.748454347998E-01
 -0.104385779093E-02
  0.125701537433E-01
 -0.755581111353E-01
 -0.618136653447E-01
 -0.615366165358E-01
 -0.765069847329E-01
  0.107420916560E+00
  0.903232174994E-01
  0.484327961962E+00
  0.465529952341E+00
  0.958898044858E+00
  0.963610954992E+00
 -0.961085216312E+00
 -0.102856962615E+01
 -0.118862849009E+01
 -0.123019242625E+01
 -0.853353849847E+00
 -0.881007595894E+00
 -0.608255725435E+00
 -0.631865022928E+00
 -0.367682935939E+00
 -0.346019486867E+00
 -0.142269519957E+00
 -0.121610766509E+00
  0.917483744737E-04
  0.191588986750E-01
  0.914696748421E-01
  0.108984057493E+00
  0.161136774289E+00
  0.177265759189E+00
  0.219976308494E+00
  0.234902407214E+00
  0.271896775698E+00
  0.285775156493E+00
  0.318976682460E+00
  0.331911876493E+00
  0.362631984825E+00
  0.374691916905E+00
  0.404415170009E+00
  0.415643594514E+00
  0.447427681741E+00
  0.457775608732E+00
  0.503779266466E+00
  0.512555117874E+00
  0.461195876582E+00
  0.470870456147E+00
  0.399364555029E+00
  0.412099894117E+00
  0.354402940956E+00
  0.368269407279E+00
  0.311759844601E+00
  0.326657617880E+00
  0.268792387212E+00
  0.284702088107E+00
  0.224767335153E+00
  0.241700609476E+00
  0.179701404934E+00
  0.197681685665E+00
  0.134066071569E+00
  0.153079976427E+00
  0.885293249290E-01
  0.108426943920E+00
  0.405552222162E-01
  0.610389500846E-01
 -0.223713919527E-01
 -0.137290620634E-02
 -0.979719632458E-01
 -0.756577415239E-01
 -0.766146937753E-01
 -0.103832086177E+00
  0.900118804660E-01
  0.550932738261E-01
  0.464814492311E+00
  0.422923749825E+00
  0.962213029710E+00
  0.968766782274E+00
 -0.808851962430E+00
 -0.961037282313E+00
 -0.109423507196E+01
 -0.118926478383E+01
 -0.793147948449E+00
 -0.854452605149E+00
 -0.560781478123E+00
 -0.609827045956E+00
 -0.346506079886E+00
 -0.306243521916E+00
 -0.122253562150E+00
 -0.877287941100E-01
  0.184850535096E-01
  0.487238914710E-01
  0.108398569297E+00
  0.135856258462E+00
  0.176841249627E+00
  0.202217511567E+00
  0.234665334877E+00
  0.258302288576E+00
  0.285727848503E+00
  0.307850363974E+00
  0.332049222852E+00
  0.352800070615E+00
  0.375008626926E+00
  0.394444253995E+00
  0.416138761514E+00
  0.434237793987E+00
  0.458461494946E+00
  0.475132688157E+00
  0.513501171601E+00
  0.529795216539E+00
  0.441609969655E+00
  0.457178911362E+00
  0.375790646787E+00
  0.395676391054E+00
  0.329398116484E+00
  0.350943654797E+00
  0.285465011094E+00
  0.308512195020E+00
  0.241358315592E+00
  0.265756301432E+00
  0.196341324620E+00
  0.221953474514E+00
  0.150564910166E+00
  0.177135647622E+00
  0.104859026098E+00
  0.131801571650E+00
  0.604764572655E-01
  0.866562597380E-01
  0.153840123787E-01
  0.391746016889E-01
 -0.435536867799E-01
 -0.232407400268E-01
 -0.118124557188E+00
 -0.984218537996E-01
 -0.104426295982E+00
 -0.133241747581E+00
  0.542508328991E-01
  0.940645647184E-02
  0.421291523674E+00
  0.363926423968E+00
  0.965227533505E+00
  0.965744561115E+00
 -0.619878653344E+00
 -0.808826641773E+00
 -0.972163689338E+00
 -0.109491132976E+01
 -0.710175349742E+00
 -0.794771803192E+00
 -0.490337910279E+00
 -0.563791295262E+00
 -0.306996771418E+00
 -0.250099126850E+00
 -0.894884571990E-01
 -0.460983442393E-01
  0.463801745713E-01
  0.818385208441E-01
  0.133382979544E+00
  0.165626463797E+00
  0.199887037695E+00
  0.230563907905E+00
  0.256237787164E+00
  0.285587866361E+00
  0.306093099707E+00
  0.334114043202E+00
  0.351357290036E+00
  0.378043474608E+00
  0.393313012558E+00
  0.418636790993E+00
  0.433418624062E+00
  0.457282028355E+00
  0.474647857259E+00
  0.496716466947E+00
  0.529779959950E+00
  0.551767712074E+00
  0.406692371848E+00
  0.433976308272E+00
  0.335932967453E+00
  0.368669855532E+00
  0.287316653313E+00
  0.322625844666E+00
  0.241642812192E+00
  0.279020471162E+00
  0.196215077272E+00
  0.235253805004E+00
  0.150484195647E+00
  0.190622675300E+00
  0.105169333539E+00
  0.145334518807E+00
  0.620982367995E-01
  0.100308593376E+00
  0.235977848609E-01
  0.568660595066E-01
 -0.119072868347E-01
  0.128227483926E-01
 -0.593037664504E-01
 -0.454238090473E-01
 -0.126166429694E+00
 -0.119732962097E+00
 -0.135381623498E+00
 -0.148498174402E+00
  0.670828468542E-02
 -0.325526072761E-01
  0.359896908366E+00
  0.298211094955E+00
  0.957613437710E+00
  0.950041391328E+00
 -0.449699661619E+00
 -0.620154589414E+00
 -0.855005742071E+00
 -0.972601217669E+00
 -0.618467118206E+00
 -0.712663940216E+00
 -0.409948730287E+00
 -0.496856818302E+00
 -0.251360812003E+00
 -0.196366519558E+00
 -0.509613380290E-01
 -0.145543257543E-01
  0.746731925965E-01
  0.102611711985E+00
  0.157623368139E+00
  0.184551140505E+00
  0.222452776084E+00
  0.251045200927E+00
  0.277715538455E+00
  0.307490959562E+00
  0.326642667846E+00
  0.356558221644E+00
  0.371035610659E+00
  0.400404349419E+00
  0.412110264363E+00
  0.440550723111E+00
  0.451245916566E+00
  0.478444842891E+00
  0.491206509082E+00
  0.516661689651E+00
  0.547033170803E+00
  0.571396757170E+00
  0.346361145505E+00
  0.391166541424E+00
  0.269217144804E+00
  0.321239928461E+00
  0.217632588244E+00
  0.273188379735E+00
  0.169977779313E+00
  0.228068935969E+00
  0.123631497999E+00
  0.183271694727E+00
  0.788264146748E-01
  0.138370261781E+00
  0.377677944646E-01
  0.942867454430E-01
  0.381447574175E-02
  0.530803454248E-01
 -0.205204014452E-01
  0.170107260542E-01
 -0.397284515952E-01
 -0.163079350991E-01
 -0.732060201300E-01
 -0.628180491103E-01
 -0.129017662225E+00
 -0.130341140786E+00
 -0.153459330937E+00
 -0.150753978284E+00
 -0.402453432325E-01
 -0.573501151382E-01
  0.287737358441E+00
  0.234692645510E+00
  0.932710482986E+00
  0.921963646487E+00
 -0.323936665031E+00
 -0.451081070444E+00
 -0.753081221129E+00
 -0.855273757573E+00
 -0.529849425437E+00
 -0.623144148900E+00
 -0.344281481268E+00
 -0.424025897281E+00
 -0.197720398795E+00
 -0.165875892104E+00
 -0.252486366402E-01
 -0.521281717534E-02
  0.852230674841E-01
  0.101613076021E+00
  0.164514077413E+00
  0.183310457972E+00
  0.230013535282E+00
  0.255393108772E+00
  0.286173076760E+00
  0.317844218263E+00
  0.335436869195E+00
  0.370651393539E+00
  0.379765781699E+00
  0.416162292859E+00
  0.420526331985E+00
  0.456705786035E+00
  0.459093018290E+00
  0.494229398218E+00
  0.498046860497E+00
  0.531332752645E+00
  0.553912688452E+00
  0.584854370906E+00
  0.244595324809E+00
  0.312823145218E+00
  0.159156204893E+00
  0.237087987582E+00
  0.103921239562E+00
  0.186494580708E+00
  0.547656564498E-01
  0.139920123189E+00
  0.989645573583E-02
  0.950240482801E-01
 -0.283464933641E-01
  0.524732211821E-01
 -0.554165085676E-01
  0.150182323473E-01
 -0.681240454919E-01
 -0.138494654915E-01
 -0.689066726770E-01
 -0.327278191432E-01
 -0.706150298124E-01
 -0.474295449834E-01
 -0.909556719830E-01
 -0.788092032790E-01
 -0.134632075169E+00
 -0.136689873921E+00
 -0.157493297225E+00
 -0.154107927887E+00
 -0.718845130634E-01
 -0.712623793511E-01
  0.210813651775E+00
  0.184479478610E+00
  0.887194506297E+00
  0.882805316769E+00
 -0.242718925936E+00
 -0.327566049389E+00
 -0.664392792422E+00
 -0.753671486156E+00
 -0.463521911260E+00
 -0.538708444213E+00
 -0.305312165472E+00
 -0.370242186030E+00
 -0.163727250449E+00
 -0.163743196709E+00
 -0.212276617174E-01
 -0.229245884188E-01
  0.686805594300E-01
  0.730784939950E-01
  0.141881754517E+00
  0.152435988747E+00
  0.210171918796E+00
  0.231499985732E+00
  0.270095985391E+00
  0.305028404732E+00
  0.321537860810E+00
  0.367056496965E+00
  0.366775464871E+00
  0.417713980386E+00
  0.407725226562E+00
  0.460252851114E+00
  0.445989936079E+00
  0.497869998066E+00
  0.484026279512E+00
  0.533648833044E+00
  0.539088431168E+00
  0.584039731548E+00
  0.937747787931E-01
  0.170138324554E+00
 -0.159349733446E-01
  0.871543046668E-01
 -0.808080490780E-01
  0.338707720717E-01
 -0.131441306566E+00
 -0.126991086551E-01
 -0.168267510546E+00
 -0.533866234068E-01
 -0.185845963070E+00
 -0.846482589786E-01
 -0.180570782799E+00
 -0.101425264581E+00
 -0.157260265961E+00
 -0.102231510279E+00
 -0.131052546743E+00
 -0.909734000266E-01
 -0.112812240562E+00
 -0.813003348360E-01
 -0.114548552072E+00
 -0.965502308977E-01
 -0.144009357161E+00
 -0.145086700097E+00
 -0.159007213337E+00
 -0.163787226407E+00
 -0.874998583183E-01
 -0.901304546520E-01
  0.144807116511E+00
  0.143502838999E+00
  0.819383934915E+00
  0.834419808074E+00
 -0.198681303448E+00
 -0.247947005837E+00
 -0.599432918127E+00
 -0.664132522655E+00
 -0.424665425083E+00
 -0.477600792532E+00
 -0.287128345793E+00
 -0.345663408586E+00
 -0.150796300301E+00
 -0.184461062655E+00
 -0.358298572457E-01
 -0.690351320410E-01
  0.265269400882E-01
  0.684362343211E-02
  0.798258345067E-01
  0.755547072044E-01
  0.144699277597E+00
  0.154472812573E+00
  0.209047483267E+00
  0.239566340380E+00
  0.263602221124E+00
  0.316396894923E+00
  0.309861875321E+00
  0.377793410697E+00
  0.350782319219E+00
  0.424680058196E+00
  0.388440323343E+00
  0.461256044959E+00
  0.425096952625E+00
  0.490983936806E+00
  0.477429052889E+00
  0.525852411427E+00
 -0.228677793289E+00
 -0.767881884356E-01
 -0.355826012131E+00
 -0.180955264219E+00
 -0.421060000503E+00
 -0.240424545396E+00
 -0.456729670348E+00
 -0.282586806370E+00
 -0.458686432884E+00
 -0.305162754802E+00
 -0.423201831994E+00
 -0.301441500283E+00
 -0.359328740709E+00
 -0.270765828877E+00
 -0.290589975797E+00
 -0.219349040277E+00
 -0.226944276299E+00
 -0.161391087355E+00
 -0.170536812264E+00
 -0.118586383735E+00
 -0.142349113738E+00
 -0.115197831688E+00
 -0.155927723534E+00
 -0.155901954315E+00
 -0.163956899806E+00
 -0.178736828036E+00
 -0.997588677101E-01
 -0.117131002432E+00
  0.973103919831E-01
  0.969742341866E-01
  0.736460269359E+00
  0.779094535957E+00
 -0.187255124135E+00
 -0.199414576007E+00
 -0.563643937061E+00
 -0.594442744279E+00
 -0.404470270340E+00
 -0.444710667920E+00
 -0.281386916888E+00
 -0.343471208851E+00
 -0.153648041508E+00
 -0.220261264019E+00
 -0.644878884388E-01
 -0.138567525755E+00
 -0.352994689844E-01
 -0.104020760877E+00
 -0.239791556199E-01
 -0.731090951257E-01
  0.601088289839E-02
 -0.155502092264E-01
  0.604512770073E-01
  0.651550846497E-01
  0.113039549172E+00
  0.154102371730E+00
  0.154217295340E+00
  0.231874550363E+00
  0.188921461080E+00
  0.290741214429E+00
  0.220061539381E+00
  0.332276693858E+00
  0.248197023341E+00
  0.360804927458E+00
  0.283858467097E+00
  0.386796637271E+00
 -0.947465131796E+00
 -0.617701713659E+00
 -0.103691680453E+01
 -0.730731016927E+00
 -0.105928656505E+01
 -0.777824286857E+00
 -0.102903239175E+01
 -0.783642193048E+00
 -0.939150766229E+00
 -0.740847959122E+00
 -0.803240741518E+00
 -0.651094102112E+00
 -0.657993726989E+00
 -0.524127341100E+00
 -0.515267600341E+00
 -0.376984052671E+00
 -0.367365765963E+00
 -0.244015806088E+00
 -0.240695366197E+00
 -0.157142800791E+00
 -0.172973066446E+00
 -0.133456850012E+00
 -0.169651293976E+00
 -0.168439339052E+00
 -0.172826867319E+00
 -0.197581076345E+00
 -0.115588402279E+00
 -0.150549174152E+00
  0.576215909081E-01
  0.414209875866E-01
  0.650281313276E+00
  0.716977554094E+00
 -0.204304702152E+00
 -0.173134395006E+00
 -0.549996417109E+00
 -0.549889606500E+00
 -0.394530775357E+00
 -0.431482278220E+00
 -0.282603303433E+00
 -0.355423409503E+00
 -0.167267169089E+00
 -0.266115747504E+00
 -0.104471632216E+00
 -0.224718499085E+00
 -0.113036618221E+00
 -0.253048540757E+00
 -0.161556424849E+00
 -0.310353390437E+00
 -0.218456145751E+00
 -0.336478153544E+00
 -0.240160798974E+00
 -0.306680753895E+00
 -0.221333215858E+00
 -0.240869133656E+00
 -0.204169136896E+00
 -0.162348116235E+00
 -0.195136676365E+00
 -0.933764145692E-01
 -0.183829870255E+00
 -0.410019338240E-01
 -0.170186778072E+00
 -0.206330960017E-02
 -0.149968963240E+00
  0.399058016527E-01
 -0.209709369687E+01
 -0.179895964494E+01
 -0.222777623637E+01
 -0.185732201065E+01
 -0.219207264047E+01
 -0.182443237666E+01
 -0.203082884785E+01
 -0.170392513060E+01
 -0.177332355935E+01
 -0.149835287605E+01
 -0.148576223750E+01
 -0.122261165037E+01
 -0.118964808698E+01
 -0.892192809345E+00
 -0.859795983665E+00
 -0.572060504109E+00
 -0.544822266216E+00
 -0.333897763838E+00
 -0.320013758879E+00
 -0.195822510315E+00
 -0.206357506213E+00
 -0.151601988123E+00
 -0.185102936881E+00
 -0.182517251379E+00
 -0.184886695558E+00
 -0.219744514808E+00
 -0.136075827101E+00
 -0.189545259657E+00
  0.162848341330E-01
 -0.221334253280E-01
  0.563717718659E+00
  0.645987040806E+00
 -0.244955462551E+00
 -0.164744510488E+00
 -0.550264397129E+00
 -0.524922551817E+00
 -0.389818756785E+00
 -0.429617402331E+00
 -0.287834475929E+00
 -0.376353078038E+00
 -0.188302978934E+00
 -0.320088839266E+00
 -0.154204909948E+00
 -0.324317212583E+00
 -0.205928592008E+00
 -0.430655076112E+00
 -0.327171928932E+00
 -0.624369985844E+00
 -0.514257930545E+00
 -0.848233120140E+00
 -0.729418066470E+00
 -0.100702761975E+01
 -0.884880597397E+00
 -0.106396165966E+01
 -0.967271554043E+00
 -0.106320180999E+01
 -0.104126642406E+01
 -0.103577174922E+01
 -0.109860193045E+01
 -0.100545480401E+01
 -0.111953887635E+01
 -0.983604644233E+00
 -0.109968258130E+01
 -0.972553777896E+00
 -0.454340679051E+01
 -0.404557352753E+01
 -0.460371633077E+01
 -0.405547193229E+01
 -0.438792283561E+01
 -0.382251005263E+01
 -0.392975329764E+01
 -0.339523027537E+01
 -0.336041081446E+01
 -0.281821999292E+01
 -0.274983628055E+01
 -0.209905213402E+01
 -0.203408179602E+01
 -0.136541534455E+01
 -0.130815784237E+01
 -0.792730130151E+00
 -0.750453281575E+00
 -0.429129420520E+00
 -0.408327753265E+00
 -0.235818459423E+00
 -0.243303830356E+00
 -0.170511431239E+00
 -0.202491787751E+00
 -0.198255431715E+00
 -0.199575953388E+00
 -0.245165594495E+00
 -0.160904985112E+00
 -0.234195399271E+00
 -0.302468012469E-01
 -0.941414789755E-01
  0.473426950210E+00
  0.563993145086E+00
 -0.305192463670E+00
 -0.169942617004E+00
 -0.559154398346E+00
 -0.511917042999E+00
 -0.387692994111E+00
 -0.434158017756E+00
 -0.295651825751E+00
 -0.403654372257E+00
 -0.214993809630E+00
 -0.381928531336E+00
 -0.212943254529E+00
 -0.437539682946E+00
 -0.314400898723E+00
 -0.634001906774E+00
 -0.521055611328E+00
 -0.998070983448E+00
 -0.869121619154E+00
 -0.152980526810E+01
 -0.138127779208E+01
 -0.213803503202E+01