# vtk DataFile Version 3.0
MachLine results file. Generated by MachLine, USU AeroLab (c) 2022.
ASCII
DATASET POLYDATA
POINTS                 704 float
  0.140493717988E-04  0.000000000000E+00  0.642038313698E-21
  0.310952257305E+00  0.000000000000E+00 -0.368785452712E+00
  0.310952257305E+00  0.000000000000E+00  0.368785452712E+00
  0.959777640324E+00  0.959748579044E+00  0.000000000000E+00
  0.127071746187E+01  0.959753493508E+00 -0.368784761248E+00
  0.127071746187E+01  0.959753493508E+00  0.368784761248E+00
  0.129674644831E+01  0.000000000000E+00 -0.718323901546E+00
  0.129674644831E+01  0.000000000000E+00  0.718323901546E+00
  0.225651089253E+01  0.959756991240E+00 -0.718321568117E+00
  0.225651089253E+01  0.959756991240E+00  0.718321568117E+00
  0.293641540526E+01  0.293636253358E+01  0.402694720839E-20
  0.324735043862E+01  0.293637229583E+01 -0.368774026220E+00
  0.324735043862E+01  0.293637229583E+01  0.368774026220E+00
  0.332168336514E+01  0.000000000000E+00 -0.104883522033E+01
  0.332168336514E+01  0.000000000000E+00  0.104883522033E+01
  0.423314052624E+01  0.293637937503E+01 -0.718307925333E+00
  0.423314052624E+01  0.293637937503E+01  0.718307925333E+00
  0.428144751166E+01  0.959759670740E+00 -0.104883289391E+01
  0.428144751166E+01  0.959759670740E+00  0.104883289391E+01
  0.625807487958E+01  0.293638408191E+01 -0.104881878408E+01
  0.625807487958E+01  0.293638408191E+01  0.104881878408E+01
  0.670735835057E+01  0.000000000000E+00 -0.119624625353E+01
  0.670735835057E+01  0.000000000000E+00  0.119624625353E+01
  0.674528611380E+01  0.674519717020E+01  0.135486969250E-19
  0.705621456510E+01  0.674521375293E+01 -0.368756966347E+00
  0.705621456510E+01  0.674521375293E+01  0.368756966347E+00
  0.766712203523E+01  0.959763438498E+00 -0.119624293485E+01
  0.766712203523E+01  0.959763438498E+00  0.119624293485E+01
  0.804199875669E+01  0.674522648974E+01 -0.718286111154E+00
  0.804199875669E+01  0.674522648974E+01  0.718286111154E+00
  0.964374784403E+01  0.293638940878E+01 -0.119622887002E+01
  0.964374784403E+01  0.293638940878E+01  0.119622887002E+01
  0.100669303633E+02  0.674523442021E+01 -0.104879604681E+01
  0.100669303633E+02  0.674523442021E+01  0.104879604681E+01
  0.109735865677E+02  0.000000000000E+00 -0.943079499272E+00
  0.109735865677E+02  0.000000000000E+00  0.943079499272E+00
  0.119333485087E+02  0.959766117669E+00 -0.943071576838E+00
  0.119333485087E+02  0.959766117669E+00  0.943071576838E+00
  0.132257921926E+02  0.132256657846E+02  0.115533638901E-19
  0.134525998609E+02  0.674524226023E+01 -0.119620611146E+01
  0.134525998609E+02  0.674524226023E+01  0.119620611146E+01
  0.135367143751E+02  0.132256881593E+02 -0.368737283028E+00
  0.135367143751E+02  0.132256881593E+02  0.368737283028E+00
  0.139099741864E+02  0.293639269592E+01 -0.943062572225E+00
  0.139099741864E+02  0.293639269592E+01  0.943062572225E+00
  0.145224920556E+02  0.132257074072E+02 -0.718260877249E+00
  0.145224920556E+02  0.132257074072E+02  0.718260877249E+00
  0.148274211738E+02  0.000000000000E+00 -0.556249562582E+00
  0.148274211738E+02  0.000000000000E+00  0.556249562582E+00
  0.157871846920E+02  0.959765994019E+00 -0.556249814528E+00
  0.157871846920E+02  0.959765994019E+00  0.556249814528E+00
  0.165474208992E+02  0.132257190544E+02 -0.104876962646E+01
  0.165474208992E+02  0.132257190544E+02  0.104876962646E+01
  0.174040621139E+02  0.000000000000E+00 -0.278257317070E+00
  0.174040621139E+02  0.000000000000E+00  0.278257317070E+00
  0.177188249541E+02  0.674524679650E+01 -0.943044676020E+00
  0.177188249541E+02  0.674524679650E+01  0.943044676020E+00
  0.177638091357E+02  0.293639285255E+01 -0.556240222873E+00
  0.177638091357E+02  0.293639285255E+01  0.556240222873E+00
  0.183638245468E+02  0.959765314615E+00 -0.278256003404E+00
  0.183638245468E+02  0.959765314615E+00  0.278256003404E+00
  0.187977357684E+02  0.000000000000E+00 -0.128389730338E+00
  0.187977357684E+02  0.000000000000E+00  0.128389730338E+00
  0.194658935885E+02  0.000000000000E+00 -0.569431337849E-01
  0.194658935885E+02  0.000000000000E+00  0.569431337849E-01
  0.197574978874E+02  0.959764917051E+00 -0.128385483404E+00
  0.197574978874E+02  0.959764917051E+00  0.128385483404E+00
  0.197676590756E+02  0.000000000000E+00 -0.247476696635E-01
  0.197676590756E+02  0.000000000000E+00  0.247476696635E-01
  0.199002655904E+02  0.000000000000E+00 -0.106142623234E-01
  0.199002655904E+02  0.000000000000E+00  0.106142623234E-01
  0.199330874758E+02  0.132257298154E+02 -0.119617957129E+01
  0.199330874758E+02  0.132257298154E+02  0.119617957129E+01
  0.199578331889E+02  0.000000000000E+00 -0.448121699809E-02
  0.199578331889E+02  0.000000000000E+00  0.448121699809E-02
  0.199826935715E+02  0.000000000000E+00 -0.183321102066E-02
  0.199826935715E+02  0.000000000000E+00  0.183321102066E-02
  0.199934052416E+02  0.000000000000E+00 -0.692392559208E-03
  0.199934052416E+02  0.000000000000E+00  0.692392559208E-03
  0.199980153032E+02  0.000000000000E+00 -0.201364187874E-03
  0.199980153032E+02  0.000000000000E+00  0.201364187874E-03
  0.199999888926E+02  0.000000000000E+00 -0.828428190990E-06
  0.203404505379E+02  0.293639253315E+01 -0.278243388739E+00
  0.203404505379E+02  0.293639253315E+01  0.278243388739E+00
  0.204256555948E+02  0.959764787226E+00 -0.569378216052E-01
  0.204256555948E+02  0.959764787226E+00  0.569378216052E-01
  0.207274210812E+02  0.959764742734E+00 -0.247423449472E-01
  0.207274210812E+02  0.959764742734E+00  0.247423449472E-01
  0.208600276048E+02  0.959764725512E+00 -0.106090160128E-01
  0.208600276048E+02  0.959764725512E+00  0.106090160128E-01
  0.209175952082E+02  0.959764718436E+00 -0.447601766637E-02
  0.209175952082E+02  0.959764718436E+00  0.447601766637E-02
  0.209424555934E+02  0.959764715416E+00 -0.182803414891E-02
  0.209424555934E+02  0.959764715416E+00  0.182803414891E-02
  0.209531672645E+02  0.959764714215E+00 -0.687225765806E-03
  0.209531672645E+02  0.959764714215E+00  0.687225765806E-03
  0.209577773268E+02  0.959764713599E+00 -0.196201775311E-03
  0.209577773268E+02  0.959764713599E+00  0.196201775311E-03
  0.209597500807E+02  0.959775602227E+00 -0.131459620872E-05
  0.215726601183E+02  0.674524769195E+01 -0.556219414354E+00
  0.215726601183E+02  0.674524769195E+01  0.556219414354E+00
  0.217341237131E+02  0.293639230099E+01 -0.128371269966E+00
  0.217341237131E+02  0.293639230099E+01  0.128371269966E+00
  0.222228699531E+02  0.222227286491E+02  0.107623557329E-19
  0.224022813914E+02  0.293639220020E+01 -0.569232799290E-01
  0.224022813914E+02  0.293639220020E+01  0.569232799290E-01
  0.225337913007E+02  0.222227509051E+02 -0.368725773372E+00
  0.225337913007E+02  0.222227509051E+02  0.368725773372E+00
  0.227040468745E+02  0.293639215906E+01 -0.247277479182E-01
  0.227040468745E+02  0.293639215906E+01  0.247277479182E-01
  0.228366514908E+02  0.293639214176E+01 -0.105944092429E-01
  0.228366514908E+02  0.293639214176E+01  0.105944092429E-01
  0.228942190946E+02  0.293639213437E+01 -0.446140908326E-02
  0.228942190946E+02  0.293639213437E+01  0.446140908326E-02
  0.229190794799E+02  0.293639213113E+01 -0.181342520292E-02
  0.229190794799E+02  0.293639213113E+01  0.181342520292E-02
  0.229297911514E+02  0.293639212949E+01 -0.672616664198E-03
  0.229297911514E+02  0.293639212949E+01  0.672616664198E-03
  0.229344031209E+02  0.293639212898E+01 -0.181592687999E-03
  0.229344031209E+02  0.293639212898E+01  0.181592687999E-03
  0.229363656214E+02  0.293641327110E+01 -0.255727794675E-05
  0.235195661316E+02  0.222227739562E+02 -0.718246105851E+00
  0.235195661316E+02  0.222227739562E+02  0.718246105851E+00
  0.241492993642E+02  0.674524762136E+01 -0.278220962777E+00
  0.241492993642E+02  0.674524762136E+01  0.278220962777E+00
  0.241993107233E+02  0.132257361974E+02 -0.943018930893E+00
  0.241993107233E+02  0.132257361974E+02  0.943018930893E+00
  0.255429724938E+02  0.674524743486E+01 -0.128348317955E+00
  0.255429724938E+02  0.674524743486E+01  0.128348317955E+00
  0.255444908954E+02  0.222227877758E+02 -0.104875412843E+01
  0.255444908954E+02  0.222227877758E+02  0.104875412843E+01
  0.262111301698E+02  0.674524733654E+01 -0.569002137406E-01
  0.262111301698E+02  0.674524733654E+01  0.569002137406E-01
  0.265128975618E+02  0.674524729375E+01 -0.247046594195E-01
  0.265128975618E+02  0.674524729375E+01  0.247046594195E-01
  0.266455021794E+02  0.674524727510E+01 -0.105713163638E-01
  0.266455021794E+02  0.674524727510E+01  0.105713163638E-01
  0.267030697839E+02  0.674524726703E+01 -0.443831529724E-02
  0.267030697839E+02  0.674524726703E+01  0.443831529724E-02
  0.267279301696E+02  0.674524726343E+01 -0.179033119715E-02
  0.267279301696E+02  0.674524726343E+01  0.179033119715E-02
  0.267386418411E+02  0.674524726181E+01 -0.649522641979E-03
  0.267386418411E+02  0.674524726181E+01  0.649522641979E-03
  0.267432519033E+02  0.674524726129E+01 -0.158498659952E-03
  0.267432519033E+02  0.674524726129E+01  0.158498659952E-03
  0.267451990105E+02  0.674528379668E+01 -0.443595766951E-05
  0.280531452480E+02  0.132257377323E+02 -0.556193545697E+00
  0.280531452480E+02  0.132257377323E+02  0.556193545697E+00
  0.289301576657E+02  0.222228002505E+02 -0.119616397729E+01
  0.289301576657E+02  0.222228002505E+02  0.119616397729E+01
  0.306297843471E+02  0.132257378086E+02 -0.278194591150E+00
  0.306297843471E+02  0.132257378086E+02  0.278194591150E+00
  0.317354371997E+02  0.317353155163E+02  0.926797583067E-20
  0.320234593778E+02  0.132257376284E+02 -0.128321770196E+00
  0.320234593778E+02  0.132257376284E+02  0.128321770196E+00
  0.320463666719E+02  0.317353315550E+02 -0.368731238646E+00
  0.320463666719E+02  0.317353315550E+02  0.368731238646E+00
  0.326916151529E+02  0.132257375234E+02 -0.568736226397E-01
  0.326916151529E+02  0.132257375234E+02  0.568736226397E-01
  0.329933806413E+02  0.132257374769E+02 -0.246780589665E-01
  0.329933806413E+02  0.132257374769E+02  0.246780589665E-01
[...]
POINT_DATA                 704
SCALARS phi float 1
LOOKUP_TABLE default
 -0.139671965185E-04
 -0.269304895063E+00
 -0.348962077636E+00
 -0.954163866327E+00
 -0.122345647304E+01
 -0.130311350626E+01
 -0.121158321306E+01
 -0.136674025017E+01
 -0.216573421248E+01
 -0.232089074557E+01
 -0.291924020576E+01
 -0.318852921167E+01
 -0.326818392614E+01
 -0.318898119143E+01
 -0.341552824750E+01
 -0.413080394165E+01
 -0.428595752792E+01
 -0.414313189413E+01
 -0.436967844770E+01
 -0.610819942121E+01
 -0.633474292708E+01
 -0.653893294528E+01
 -0.679732059457E+01
 -0.670583269230E+01
 -0.697511699711E+01
 -0.705476802667E+01
 -0.749308329598E+01
 -0.775147022845E+01
 -0.791738637901E+01
 -0.807253525344E+01
 -0.945814926821E+01
 -0.971653316269E+01
 -0.989477922759E+01
 -0.101213178222E+02
 -0.108075496862E+02
 -0.110112536428E+02
 -0.117616988007E+02
 -0.119654010460E+02
 -0.131484340576E+02
 -0.132447256303E+02
 -0.135031046089E+02
 -0.134177142560E+02
 -0.134973610340E+02
 -0.137267640961E+02
 -0.139304643964E+02
 -0.143599777644E+02
 -0.145151211883E+02
 -0.146806204588E+02
 -0.148007696476E+02
 -0.156347702583E+02
 -0.157549195015E+02
 -0.163373679942E+02
 -0.165639008821E+02
 -0.172722135166E+02
 -0.173323167386E+02
 -0.175133386912E+02
 -0.177170351260E+02
 -0.175998343904E+02
 -0.177199815617E+02
 -0.182263624063E+02
 -0.182864653445E+02
 -0.186739211265E+02
 -0.187016531428E+02
 -0.193458870539E+02
 -0.193581866974E+02
 -0.196280700210E+02
 -0.196558011200E+02
 -0.196493645931E+02
 -0.196547100578E+02
 -0.197827218866E+02
 -0.197850145535E+02
 -0.196873115060E+02
 -0.199456847520E+02
 -0.198406151350E+02
 -0.198415830721E+02
 -0.198656160913E+02
 -0.198660120625E+02
 -0.198763883161E+02
 -0.198765378720E+02
 -0.198810244440E+02
 -0.198810679384E+02
 -0.198830081476E+02
 -0.201914284031E+02
 -0.202515286166E+02
 -0.203000359512E+02
 -0.203123344473E+02
 -0.206035134912E+02
 -0.206088578058E+02
 -0.207368707849E+02
 -0.207391623187E+02
 -0.207947640332E+02
 -0.207957308473E+02
 -0.208197649896E+02
 -0.208201598426E+02
 -0.208305372143E+02
 -0.208306856542E+02
 -0.208351733425E+02
 -0.208352157218E+02
 -0.208371556053E+02
 -0.213864095136E+02
 -0.215065521904E+02
 -0.215931360261E+02
 -0.216208640550E+02
 -0.220928875861E+02
 -0.222651019629E+02
 -0.222773973180E+02
 -0.223621681976E+02
 -0.224418124895E+02
 -0.225685795055E+02
 -0.225739206672E+02
 -0.227019349041E+02
 -0.227042232828E+02
 -0.227598281529E+02
 -0.227607918116E+02
 -0.227848291095E+02
 -0.227852208070E+02
 -0.227956013347E+02
 -0.227957466190E+02
 -0.228002393589E+02
 -0.228002785827E+02
 -0.228022097164E+02
 -0.233044292253E+02
 -0.234595694586E+02
 -0.239780015575E+02
 -0.240380969269E+02
 -0.239559226461E+02
 -0.241596135200E+02
 -0.253797091918E+02
 -0.254074322631E+02
 -0.252818154777E+02
 -0.255083450180E+02
 -0.260516751387E+02
 -0.260639655115E+02
 -0.263551545814E+02
 -0.263604907560E+02
 -0.264885099818E+02
 -0.264907933725E+02
 -0.265464032315E+02
 -0.265473619018E+02
 -0.265714041884E+02
 -0.265717908977E+02
 -0.265821764136E+02
 -0.265823167097E+02
 -0.265868125417E+02
 -0.265868467772E+02
 -0.265887648989E+02
 -0.278289928462E+02
 -0.279491299353E+02
 -0.286317591924E+02
 -0.288901290701E+02
 -0.304205847983E+02
 -0.304806744715E+02
 -0.315498154842E+02
 -0.318222943417E+02
 -0.318500116787E+02
 -0.318191035824E+02
 -0.318987490548E+02
 -0.324942584035E+02
 -0.325065430327E+02
 -0.327977359548E+02
 -0.328030663837E+02
 -0.327613662425E+02
 -0.329165079884E+02
 -0.329310932535E+02
 -0.329333708981E+02
 -0.329889865040E+02
 -0.329899394282E+02
 -0.329003693517E+02
 -0.331040558450E+02
 -0.330139874614E+02
 -0.330143684244E+02
 -0.330247596874E+02
 -0.330248942372E+02
 -0.330293977110E+02
 -0.330294262003E+02
 -0.330313313780E+02
 -0.347387515884E+02
 -0.349652827125E+02
 -0.367734390391E+02
 -0.368935728066E+02
 -0.380886942071E+02
 -0.383470656803E+02
 -0.390618418584E+02
 -0.393311369854E+02
 -0.394107863578E+02
 -0.393650290404E+02
 -0.394251153672E+02
 -0.402734012439E+02
 -0.404285479878E+02
 -0.407667366950E+02
 -0.407944506768E+02
 -0.414387045557E+02
 -0.414509858274E+02
 -0.417421821098E+02
 -0.417475091807E+02
 -0.418755394097E+02
 -0.418778136961E+02
 -0.419334326607E+02
 -0.419343822266E+02
 -0.419584336184E+02
 -0.419588112232E+02
 -0.419692058425E+02
 -0.419693370342E+02
 -0.419738400743E+02
 -0.419738652054E+02
 -0.419757663026E+02
 -0.422507936523E+02
 -0.424773300100E+02
 -0.423573069704E+02
 -0.425609937064E+02
 -0.437865676214E+02
 -0.440558615989E+02
 -0.441355150558E+02
 -0.449981353110E+02
 -0.451532872802E+02
 -0.456007389187E+02
 -0.458591156570E+02
 -0.462303766579E+02
 -0.463505119807E+02
 -0.463364842078E+02
 -0.466057791848E+02
 -0.466854354803E+02
 -0.469755311525E+02
 -0.472020729673E+02
 -0.475998923831E+02
 -0.475480568550E+02
 -0.477032124414E+02
 -0.478691914810E+02
 -0.479488493606E+02
 -0.481993669961E+02
 -0.484779618971E+02
 -0.484686623886E+02
 -0.485483210512E+02
 -0.486061856607E+02
 -0.486649332464E+02
 -0.486917983896E+02
 -0.487040704964E+02
 -0.487096718269E+02
 -0.487122316756E+02
 -0.487134000579E+02
 -0.487472573026E+02
 -0.488269163255E+02
 -0.488219704770E+02
 -0.488820583827E+02
 -0.488114713795E+02
 -0.489666289728E+02
 -0.488754810708E+02
 -0.489551402525E+02
 -0.489342324550E+02
 -0.490138917058E+02
 -0.489610938102E+02
 -0.490407530915E+02
 -0.489733659196E+02
 -0.490530252146E+02
 -0.489789710435E+02
 -0.490586303444E+02
 -0.489815271012E+02
 -0.490611864050E+02
 -0.489826954429E+02
 -0.490623546876E+02
 -0.491776848100E+02
 -0.492340124389E+02
 -0.492817792065E+02
 -0.494109433964E+02
 -0.495661019770E+02
 -0.495254550910E+02
 -0.497520006650E+02
 -0.496895388173E+02
 -0.498446978543E+02
 -0.498177628011E+02
 -0.499729220438E+02
 -0.498765104817E+02
 -0.500316698170E+02
 -0.498693534924E+02
 -0.500730449880E+02
 -0.499033756668E+02
 -0.500585350440E+02
 -0.499156477926E+02
 -0.500708071888E+02
 -0.499212529233E+02
 -0.500764123281E+02
 -0.499238089843E+02
 -0.500789683929E+02
 -0.499249773811E+02
 -0.500801366046E+02
 -0.502236781281E+02
 -0.502513937012E+02
 -0.503047716711E+02
 -0.504144858687E+02
 -0.503254791863E+02
 -0.505838614001E+02
 -0.505075312793E+02
 -0.508956421933E+02
 -0.509079250598E+02
 -0.507888671647E+02
 -0.510154148107E+02
 -0.511991197461E+02
 -0.512044484126E+02
 -0.513324770454E+02
 -0.513347529276E+02
 -0.513903702962E+02
 -0.513913214579E+02
 -0.514153712537E+02
 -0.514157504543E+02
 -0.514261434792E+02
 -0.514262762666E+02
 -0.514307815034E+02
 -0.514308082303E+02
 -0.514327175055E+02
 -0.513883398462E+02
 -0.516148885070E+02
 -0.516669393652E+02
 -0.518934884966E+02
 -0.517951596923E+02
 -0.520217090380E+02
 -0.518539112255E+02
 -0.520804606686E+02
 -0.518807764374E+02
 -0.521073259249E+02
 -0.518930485754E+02
 -0.521195980832E+02
 -0.518986499191E+02
 -0.521251994360E+02
 -0.519012097749E+02
 -0.521277592961E+02
 -0.519023781363E+02
 -0.521289273699E+02
 -0.524569209704E+02
 -0.526171155904E+02
 -0.527529754142E+02
 -0.528754050392E+02
 -0.531337910077E+02
 -0.537424237058E+02
 -0.538625641315E+02
 -0.541388181728E+02
 -0.543972062007E+02
 -0.545940955440E+02
 -0.547977927319E+02
 -0.547382951663E+02
 -0.549966842016E+02
 -0.550168911328E+02
 -0.552752806375E+02
 -0.551451153611E+02
 -0.554035050809E+02
 -0.552038631509E+02
 -0.554622529690E+02
 -0.552307283852E+02
 -0.554891182481E+02
 -0.552430005335E+02
 -0.555013904169E+02
 -0.552486018818E+02
 -0.555069917745E+02
 -0.552511617396E+02
 -0.555095516366E+02
 -0.552523299728E+02
 -0.555107195277E+02
 -0.558848123423E+02
 -0.560675215278E+02
 -0.562224789111E+02
 -0.563340138163E+02
 -0.563941069313E+02
 -0.571440188353E+02
 -0.573477198700E+02
 -0.577357214556E+02
 -0.577634422854E+02
 -0.584076893028E+02
 -0.584199774381E+02
 -0.584074364877E+02
 -0.586111392463E+02
 -0.584671626164E+02
 -0.585873080701E+02
 -0.587111668513E+02
 -0.587165007891E+02
 -0.588445241487E+02
 -0.588468053028E+02
 -0.589024173987E+02
 -0.589033738324E+02
 -0.589274183560E+02
 -0.589278028286E+02
 -0.589381905802E+02
 -0.589383286396E+02
 -0.589428248111E+02
 -0.589428568100E+02
 -0.589447797668E+02
 -0.590069100647E+02
 -0.592106135121E+02
 -0.592855062100E+02
 -0.594892099504E+02
 -0.594137305208E+02
 -0.596174343906E+02
 -0.594724821410E+02
 -0.596761860689E+02
 -0.594993436002E+02
 -0.597030475544E+02
 -0.595116157564E+02
 -0.597153197226E+02
 -0.595172209006E+02
 -0.597209248722E+02
 -0.595197807601E+02
 -0.597234847342E+02
 -0.595209450561E+02
 -0.597246487606E+02
 -0.600195766239E+02
 -0.601636164677E+02
 -0.602857782647E+02
 -0.610170901494E+02
 -0.611372385688E+02
 -0.610587566010E+02
 -0.611188550570E+02
 -0.622805080055E+02
 -0.624006576344E+02
 -0.624604642275E+02
 -0.624881905443E+02
 -0.628799816667E+02
 -0.630001316424E+02
 -0.631324320638E+02
 -0.631447257194E+02
 -0.631585778487E+02
 -0.632787279344E+02
 -0.632868021758E+02
 -0.634069523040E+02
 -0.633455538032E+02
 -0.634657039494E+02
 -0.633724152658E+02
 -0.634925654199E+02
 -0.634359096077E+02
 -0.634412490722E+02
 -0.633846874234E+02
 -0.635048375811E+02
 -0.633902925684E+02
 -0.635104427277E+02
 -0.633928486358E+02
 -0.635129987958E+02
 -0.633940166877E+02
 -0.635141669078E+02
 -0.635692631107E+02
 -0.635715497926E+02
 -0.636271563602E+02
 -0.636281183220E+02
 -0.636086841811E+02
 -0.636687860268E+02
 -0.636521611092E+02
 -0.636525511099E+02
 -0.636629333330E+02
 -0.636630769206E+02
 -0.636675675659E+02
 -0.636676050929E+02
 -0.636695396493E+02
 -0.636881227849E+02
 -0.637730820576E+02
 -0.638451404964E+02
 -0.648721020555E+02
 -0.649322054959E+02
 -0.650103955903E+02
 -0.650381256414E+02
 -0.654715719292E+02
 -0.655316759306E+02
 -0.656823558337E+02
 -0.656946533253E+02
 -0.657501681127E+02
 -0.658102722635E+02
 -0.658783962330E+02
 -0.659385004322E+02
 -0.659371478607E+02
 -0.659972520790E+02
 -0.659858333743E+02
 -0.659911766915E+02
 -0.659640131157E+02
 -0.660241173422E+02
 -0.659762776887E+02
 -0.660363819188E+02
 -0.659818828337E+02
 -0.660419870654E+02
 -0.659844464859E+02
 -0.660445507183E+02
 -0.659856145404E+02
 -0.660457188233E+02
 -0.661191906684E+02
 -0.661214812058E+02
 -0.661327401474E+02
 -0.661752404513E+02
 -0.661770877092E+02
 -0.661780535271E+02
 -0.662020848732E+02
 -0.662024787301E+02
 -0.662112860131E+02
 -0.662128570987E+02
 -0.662130045424E+02
 -0.662174989153E+02
 -0.662175402985E+02
 -0.662194821016E+02
 -0.662738058745E+02
 -0.663015378194E+02
 -0.668732833301E+02
 -0.669010160762E+02
 -0.669457736971E+02
 -0.669580733010E+02
 -0.671518795126E+02
 -0.671796125230E+02
 -0.672492512356E+02
 -0.672545967170E+02
 -0.672801000479E+02
 -0.673078331261E+02
 -0.673388516755E+02
 -0.673665847758E+02
 -0.673657169306E+02
 -0.673934500396E+02
 -0.673826085287E+02
 -0.673849012377E+02
 -0.673779890883E+02
 -0.674057222010E+02
 -0.673835942333E+02
 -0.674113273476E+02
 -0.673861503007E+02
 -0.674138834157E+02
 -0.673873183552E+02
 -0.674150514999E+02
 -0.674404979846E+02
 -0.674414659752E+02
 -0.674552056664E+02
 -0.674748160445E+02
 -0.674655027333E+02
 -0.674658987631E+02
 -0.674762749580E+02
 -0.674764245747E+02
 -0.674809091896E+02
 -0.674809527457E+02
 -0.674828984096E+02
 -0.674914515658E+02
 -0.675452511499E+02
 -0.675575517136E+02
 -0.678238473308E+02
 -0.678361482811E+02
 -0.678487286866E+02
 -0.678540752386E+02
 -0.679520678655E+02
 -0.679643689412E+02
 -0.679820859791E+02
 -0.679843797816E+02
 -0.680108194930E+02
 -0.680231206004E+02
 -0.680399754348E+02
 -0.680409445220E+02
 -0.680376847480E+02
 -0.680499858655E+02
 -0.680499569058E+02
 -0.680622580273E+02
 -0.680555620507E+02
 -0.680678631738E+02
 -0.680581181182E+02
 -0.680704192421E+02
 -0.680649801833E+02
 -0.680653773101E+02
 -0.680592861725E+02
 -0.680715873114E+02
 -0.680757524079E+02
 -0.680759031218E+02
 -0.680803866396E+02
 -0.680804312930E+02
 -0.680823788531E+02
 -0.680893940161E+02
 -0.680980922748E+02
 -0.681054692980E+02
 -0.681273248665E+02
 -0.681326718818E+02
 -0.682555454004E+02
 -0.682608925982E+02
 -0.682606821584E+02
 -0.682629764750E+02
 -0.683142970278E+02
 -0.683196442853E+02
 -0.683185716139E+02
 -0.683195412246E+02
 -0.683435763624E+02
 -0.683439740140E+02
 -0.683411622827E+02
 -0.683465095551E+02
 -0.683543485870E+02
 -0.683544998258E+02
 -0.683534344404E+02
 -0.683587817176E+02
 -0.683589828188E+02
 -0.683590279972E+02
 -0.683609764530E+02
 -0.683590395853E+02
 -0.683643868643E+02
 -0.683615956529E+02
 -0.683669429326E+02
 -0.683627637073E+02
 -0.683681109941E+02
 -0.683758493061E+02
 -0.683796304270E+02
 -0.683828368765E+02
 -0.683889026920E+02
 -0.683911972269E+02
 -0.684467997319E+02
 -0.684477695832E+02
 -0.684476543190E+02
 -0.684499489392E+02
 -0.684717968956E+02
 -0.684721947915E+02
 -0.684745195739E+02
 -0.684768142225E+02
 -0.684825691202E+02
 -0.684827206039E+02
 -0.684872033520E+02
 -0.684872487753E+02
 -0.684867917315E+02
 -0.684890863872E+02
 -0.684891976465E+02
 -0.684923892917E+02
 -0.684946839496E+02
 -0.684949529439E+02
 -0.684972476026E+02
 -0.684961209985E+02
 -0.684984156605E+02
 -0.685017360482E+02
 -0.685033586273E+02
 -0.685047317711E+02
 -0.685055437741E+02
 -0.685065137271E+02
 -0.685305485223E+02
 -0.685309465294E+02
 -0.685324090287E+02
 -0.685333790213E+02
 -0.685413207471E+02
 -0.685414723434E+02
 -0.685446811864E+02
 -0.685456511925E+02
 -0.685459549789E+02
 -0.685460005150E+02
 -0.685479495771E+02
 -0.685502863313E+02
 -0.685512563407E+02
 -0.685528423988E+02
 -0.685538124092E+02
 -0.685540104533E+02
 -0.685549804655E+02
 -0.685563900173E+02
 -0.685570759231E+02
 -0.685574137770E+02
 -0.685578118313E+02
 -0.685576507360E+02
 -0.685681860016E+02
 -0.685683376490E+02
 -0.685696859345E+02
 -0.685700840072E+02
 -0.685728202334E+02
 -0.685728658212E+02
 -0.685748149709E+02
 -0.685752834947E+02
 -0.685756815737E+02
 -0.685778471468E+02
 -0.685782452275E+02
 -0.685790152014E+02
 -0.685794132832E+02
 -0.685799912571E+02
 -0.685802727451E+02
 -0.685805112434E+02
 -0.685804581592E+02
 -0.685806098284E+02
 -0.685850923909E+02
 -0.685851380021E+02
 -0.685860557193E+02
 -0.685862073970E+02
 -0.685870871918E+02
 -0.685886193715E+02
 -0.685887710522E+02
 -0.685897874260E+02
 -0.685899391078E+02
 -0.685901585392E+02
 -0.685902657952E+02
 -0.685903562794E+02
 -0.685906975358E+02
 -0.685907431571E+02
 -0.685926923651E+02
 -0.685932536033E+02
 -0.685932992285E+02
 -0.685944216578E+02
 -0.685944672846E+02
 -0.685945345265E+02
 -0.685945667904E+02
 -0.685945961679E+02
 -0.685952484438E+02
 -0.685964165097E+02
 -0.514327188317E+02
 -0.419757678494E+02
 -0.208371558893E+02
 -0.198830083265E+02
 -0.685479495829E+02
 -0.684891976592E+02
 -0.685926923657E+02
 -0.685870871931E+02
 -0.683609764805E+02
 -0.680823789126E+02
 -0.228022102687E+02
 -0.589447806658E+02
 -0.662194823644E+02
 -0.636695401623E+02
 -0.685952484441E+02
 -0.265887658570E+02
 -0.674828985366E+02
 -0.685748149736E+02
 -0.330313327574E+02
SCALARS phi_mu float 1
LOOKUP_TABLE default
 -0.139671965185E-04
 -0.269304895063E+00
 -0.348962077636E+00
 -0.954163866327E+00
 -0.122345647304E+01
 -0.130311350626E+01
 -0.121158321306E+01
 -0.136674025017E+01
 -0.216573421248E+01
 -0.232089074557E+01
 -0.291924020576E+01
 -0.318852921167E+01
 -0.326818392614E+01
 -0.318898119143E+01
 -0.341552824750E+01
 -0.413080394165E+01
 -0.428595752792E+01
 -0.414313189413E+01
 -0.436967844770E+01
 -0.610819942121E+01
 -0.633474292708E+01
 -0.653893294528E+01
 -0.679732059457E+01
 -0.670583269230E+01
 -0.697511699711E+01
 -0.705476802667E+01
 -0.749308329598E+01
 -0.775147022845E+01
 -0.791738637901E+01
 -0.807253525344E+01
 -0.945814926821E+01
 -0.971653316269E+01
 -0.989477922759E+01
 -0.101213178222E+02
 -0.108075496862E+02
 -0.110112536428E+02
 -0.117616988007E+02
 -0.119654010460E+02
 -0.131484340576E+02
 -0.132447256303E+02
 -0.135031046089E+02
 -0.134177142560E+02
 -0.134973610340E+02
 -0.137267640961E+02
 -0.139304643964E+02
 -0.143599777644E+02
 -0.145151211883E+02
 -0.146806204588E+02
 -0.148007696476E+02
 -0.156347702583E+02
 -0.157549195015E+02
 -0.163373679942E+02
 -0.165639008821E+02
 -0.172722135166E+02
 -0.173323167386E+02
 -0.175133386912E+02
 -0.177170351260E+02
 -0.175998343904E+02
 -0.177199815617E+02
 -0.182263624063E+02
 -0.182864653445E+02
 -0.186739211265E+02
 -0.187016531428E+02
 -0.193458870539E+02
 -0.193581866974E+02
 -0.196280700210E+02
 -0.196558011200E+02
 -0.196493645931E+02
 -0.196547100578E+02
 -0.197827218866E+02
 -0.197850145535E+02
 -0.196873115060E+02
 -0.199456847520E+02
 -0.198406151350E+02
 -0.198415830721E+02
 -0.198656160913E+02
 -0.198660120625E+02
 -0.198763883161E+02
 -0.198765378720E+02
 -0.198810244440E+02
 -0.198810679384E+02
 -0.198830081476E+02
 -0.201914284031E+02
 -0.202515286166E+02
 -0.203000359512E+02
 -0.203123344473E+02
 -0.206035134912E+02
 -0.206088578058E+02
 -0.207368707849E+02
 -0.207391623187E+02
 -0.207947640332E+02
 -0.207957308473E+02
 -0.208197649896E+02
 -0.208201598426E+02
 -0.208305372143E+02
 -0.208306856542E+02
 -0.208351733425E+02
 -0.208352157218E+02
 -0.208371556053E+02
 -0.213864095136E+02
 -0.215065521904E+02
 -0.215931360261E+02
 -0.216208640550E+02
 -0.220928875861E+02
 -0.222651019629E+02
 -0.222773973180E+02
 -0.223621681976E+02
 -0.224418124895E+02
 -0.225685795055E+02
 -0.225739206672E+02
 -0.227019349041E+02
 -0.227042232828E+02
 -0.227598281529E+02
 -0.227607918116E+02
 -0.227848291095E+02
 -0.227852208070E+02
 -0.227956013347E+02
 -0.227957466190E+02
 -0.228002393589E+02
 -0.228002785827E+02
 -0.228022097164E+02
 -0.233044292253E+02
 -0.234595694586E+02
 -0.239780015575E+02
 -0.240380969269E+02
 -0.239559226461E+02
 -0.241596135200E+02
 -0.253797091918E+02
 -0.254074322631E+02
 -0.252818154777E+02
 -0.255083450180E+02
 -0.260516751387E+02
 -0.260639655115E+02
 -0.263551545814E+02
 -0.263604907560E+02
 -0.264885099818E+02
 -0.264907933725E+02
 -0.265464032315E+02
 -0.265473619018E+02
 -0.265714041884E+02
 -0.265717908977E+02
 -0.265821764136E+02
 -0.265823167097E+02
 -0.265868125417E+02
 -0.265868467772E+02
 -0.265887648989E+02
 -0.278289928462E+02
 -0.279491299353E+02
 -0.286317591924E+02
 -0.288901290701E+02
 -0.304205847983E+02
 -0.304806744715E+02
 -0.315498154842E+02
 -0.318222943417E+02
 -0.318500116787E+02
 -0.318191035824E+02
 -0.318987490548E+02
 -0.324942584035E+02
 -0.325065430327E+02
 -0.327977359548E+02
 -0.328030663837E+02
 -0.327613662425E+02
 -0.329165079884E+02
 -0.329310932535E+02
 -0.329333708981E+02
 -0.329889865040E+02
 -0.329899394282E+02
 -0.329003693517E+02
 -0.331040558450E+02
 -0.330139874614E+02
 -0.330143684244E+02
 -0.330247596874E+02
 -0.330248942372E+02
 -0.330293977110E+02
 -0.330294262003E+02
 -0.330313313780E+02
 -0.347387515884E+02
 -0.349652827125E+02
 -0.367734390391E+02
 -0.368935728066E+02
 -0.380886942071E+02
 -0.383470656803E+02
 -0.390618418584E+02
 -0.393311369854E+02
 -0.394107863578E+02
 -0.393650290404E+02
 -0.394251153672E+02
 -0.402734012439E+02
 -0.404285479878E+02
 -0.407667366950E+02
 -0.407944506768E+02
 -0.414387045557E+02
 -0.414509858274E+02
 -0.417421821098E+02
 -0.417475091807E+02
 -0.418755394097E+02
 -0.418778136961E+02
 -0.419334326607E+02
 -0.419343822266E+02
 -0.419584336184E+02
 -0.419588112232E+02
 -0.419692058425E+02
 -0.419693370342E+02
 -0.419738400743E+02
 -0.419738652054E+02
 -0.419757663026E+02
 -0.422507936523E+02
 -0.424773300100E+02
 -0.423573069704E+02
 -0.425609937064E+02
 -0.437865676214E+02
 -0.440558615989E+02
 -0.441355150558E+02
 -0.449981353110E+02
 -0.451532872802E+02
 -0.456007389187E+02
 -0.458591156570E+02
 -0.462303766579E+02
 -0.463505119807E+02
 -0.463364842078E+02
 -0.466057791848E+02
 -0.466854354803E+02
 -0.469755311525E+02
 -0.472020729673E+02
 -0.475998923831E+02
 -0.475480568550E+02
 -0.477032124414E+02
 -0.478691914810E+02
 -0.479488493606E+02
 -0.481993669961E+02
 -0.484779618971E+02
 -0.484686623886E+02
 -0.485483210512E+02
 -0.486061856607E+02
 -0.486649332464E+02
 -0.486917983896E+02
 -0.487040704964E+02
 -0.487096718269E+02
 -0.487122316756E+02
 -0.487134000579E+02
 -0.487472573026E+02
 -0.488269163255E+02