# vtk DataFile Version 3.0
MachLine results file. Generated by MachLine, USU AeroLab (c) 2022.
ASCII
DATASET POLYDATA
POINTS                  40 float
  0.690000000000E+02  0.490000000000E+02  0.000000000000E+00
  0.994231444612E+04  0.490000000000E+02  0.107258518827E+04
  0.689891510010E+02  0.489891548157E+02  0.000000000000E+00
  0.994231431958E+04  0.489891548157E+02  0.107258635310E+04
  0.208877391815E+02  0.887739300728E+00  0.000000000000E+00
  0.994175327141E+04  0.887739300728E+00  0.107775088931E+04
  0.200000000000E+02  0.000000000000E+00  0.000000000000E+00
  0.994174291694E+04  0.000000000000E+00  0.107784620379E+04
  0.438043556213E+02  0.238043575287E+02  0.000000000000E+00
  0.994202056763E+04  0.238043575287E+02  0.107529038574E+04
  0.360569114685E+02  0.160569133759E+02  0.000000000000E+00
  0.994193020252E+04  0.160569133759E+02  0.107612221072E+04
  0.687150650024E+02  0.487150688171E+02  0.000000000000E+00
  0.994231112268E+04  0.487150688171E+02  0.107261578108E+04
  0.684506988525E+02  0.484506950378E+02  0.000000000000E+00
  0.994230803915E+04  0.484506950378E+02  0.107264416545E+04
  0.296984634399E+02  0.969846439362E+01  0.000000000000E+00
  0.994185603847E+04  0.969846439362E+01  0.107680490243E+04
  0.252557106018E+02  0.525571107864E+01  0.000000000000E+00
  0.994180421882E+04  0.525571107864E+01  0.107728191042E+04
  0.689685516357E+02  0.489685554504E+02  0.000000000000E+00
  0.994231407931E+04  0.489685554504E+02  0.107258856481E+04
  0.689294586182E+02  0.489294548035E+02  0.000000000000E+00
  0.994231362334E+04  0.489294548035E+02  0.107259276214E+04
  0.625631790161E+02  0.425631790161E+02  0.000000000000E+00
  0.994223936794E+04  0.425631790161E+02  0.107327629470E+04
  0.580314712524E+02  0.380314712524E+02  0.000000000000E+00
  0.994218651073E+04  0.380314712524E+02  0.107376285358E+04
  0.515882263184E+02  0.315882282257E+02  0.000000000000E+00
  0.994211135762E+04  0.315882282257E+02  0.107445464973E+04
  0.224890193939E+02  0.248901963234E+01  0.000000000000E+00
  0.994177194852E+04  0.248901963234E+01  0.107757896359E+04
  0.688553237915E+02  0.488553276062E+02  0.000000000000E+00
  0.994231275864E+04  0.488553276062E+02  0.107260072182E+04
  0.653977127075E+02  0.453977165222E+02  0.000000000000E+00
  0.994227242954E+04  0.453977165222E+02  0.107297195744E+04
  0.670426559448E+02  0.470426521301E+02  0.000000000000E+00
  0.994229161593E+04  0.470426521301E+02  0.107279534373E+04
  0.679559860229E+02  0.479559860229E+02  0.000000000000E+00
  0.994230226889E+04  0.479559860229E+02  0.107269728161E+04
POLYGONS                  38                 152
3                   4                   5                   7
3                   4                   7                   6
3                  30                  31                   5
3                  30                   5                   4
3                  18                  19                  31
3                  18                  31                  30
3                  16                  17                  19
3                  16                  19                  18
3                  10                  11                  17
3                  10                  17                  16
3                   8                   9                  11
3                   8                  11                  10
3                  28                  29                   9
3                  28                   9                   8
3                  26                  27                  29
3                  26                  29                  28
3                  24                  25                  27
3                  24                  27                  26
3                  34                  35                  25
3                  34                  25                  24
3                  36                  37                  35
3                  36                  35                  34
3                  38                  39                  37
3                  38                  37                  36
3                  14                  15                  39
3                  14                  39                  38
3                  12                  13                  15
3                  12                  15                  14
3                  32                  33                  13
3                  32                  13                  12
3                  22                  23                  33
3                  22                  33                  32
3                  20                  21                  23
3                  20                  23                  22
3                   2                   3                  21
3                   2                  21                  20
3                   0                   1                   3
3                   0                   3                   2
CELL_DATA                  38
NORMALS normals float
  0.107374967947E+00 -0.107374953526E+00 -0.988403376974E+00
  0.107374967947E+00 -0.107374953526E+00 -0.988403376974E+00
  0.107374967873E+00 -0.107374959879E+00 -0.988403376292E+00
  0.107374967873E+00 -0.107374959879E+00 -0.988403376292E+00
  0.107374967887E+00 -0.107374958635E+00 -0.988403376426E+00
  0.107374967887E+00 -0.107374958635E+00 -0.988403376426E+00
  0.107374967913E+00 -0.107374956388E+00 -0.988403376667E+00
  0.107374967913E+00 -0.107374956388E+00 -0.988403376667E+00
  0.107374967966E+00 -0.107374951861E+00 -0.988403377153E+00
  0.107374967966E+00 -0.107374951862E+00 -0.988403377153E+00
  0.107374967781E+00 -0.107374967781E+00 -0.988403375444E+00
  0.107374967781E+00 -0.107374967781E+00 -0.988403375444E+00
  0.107374967781E+00 -0.107374967782E+00 -0.988403375443E+00
  0.107374967781E+00 -0.107374967782E+00 -0.988403375443E+00
  0.107374967414E+00 -0.107374999199E+00 -0.988403372070E+00
  0.107374967414E+00 -0.107374999199E+00 -0.988403372070E+00
  0.107374967781E+00 -0.107374967781E+00 -0.988403375444E+00
  0.107374967781E+00 -0.107374967781E+00 -0.988403375444E+00
  0.107374969447E+00 -0.107374824942E+00 -0.988403390780E+00
  0.107374969447E+00 -0.107374824942E+00 -0.988403390780E+00
  0.107374962039E+00 -0.107375460056E+00 -0.988403322589E+00
  0.107374962039E+00 -0.107375460056E+00 -0.988403322589E+00
  0.107374972951E+00 -0.107374524481E+00 -0.988403423040E+00
  0.107374972951E+00 -0.107374524481E+00 -0.988403423040E+00
  0.107374958235E+00 -0.107375786202E+00 -0.988403287571E+00
  0.107374958235E+00 -0.107375786203E+00 -0.988403287571E+00
  0.107375003506E+00 -0.107371904837E+00 -0.988403704300E+00
  0.107375003506E+00 -0.107371904836E+00 -0.988403704300E+00
  0.107374967781E+00 -0.107374967780E+00 -0.988403375444E+00
  0.107374967781E+00 -0.107374967781E+00 -0.988403375444E+00
  0.107374840359E+00 -0.107385891709E+00 -0.988402202507E+00
  0.107374840359E+00 -0.107385891709E+00 -0.988402202507E+00
  0.107375209313E+00 -0.107354258043E+00 -0.988405598783E+00
  0.107375209313E+00 -0.107354258037E+00 -0.988405598783E+00
  0.107374967781E+00 -0.107374967780E+00 -0.988403375444E+00
  0.107374967781E+00 -0.107374967780E+00 -0.988403375444E+00
  0.107374532263E+00 -0.107412300300E+00 -0.988399366433E+00
  0.107374532262E+00 -0.107412300325E+00 -0.988399366431E+00
POINT_DATA                  40
SCALARS mu float 1
LOOKUP_TABLE default
  0.000000000000E+00
  0.000000000000E+00
 -0.930926477531E-01
 -0.930926477531E-01
 -0.355472990615E+01
 -0.355472990615E+01
 -0.352941303833E+01
 -0.352941303833E+01
 -0.395363052685E+01
 -0.395363052685E+01
 -0.393193565240E+01
 -0.393193565240E+01
 -0.733785318209E+00
 -0.733785318209E+00
 -0.100650800373E+01
 -0.100650800373E+01
 -0.382478531206E+01
 -0.382478531206E+01
 -0.370405303583E+01
 -0.370405303583E+01
 -0.206025949630E+00
 -0.206025949630E+00
 -0.345721455415E+00
 -0.345721455415E+00
 -0.291909701890E+01
 -0.291909701890E+01
 -0.344859520401E+01
 -0.344859520401E+01
 -0.380824434790E+01
 -0.380824434790E+01
 -0.361072243198E+01
 -0.361072243198E+01
 -0.518087704961E+00
 -0.518087704961E+00
 -0.233719040880E+01
 -0.233719040880E+01
 -0.180209508503E+01
 -0.180209508503E+01
 -0.135761317957E+01
 -0.135761317957E+01
