# vtk DataFile Version 3.0
MachLine results file. Generated by MachLine, USU AeroLab (c) 2022.
ASCII
DATASET POLYDATA
POINTS                 704 float
  0.000000000000E+00  0.000000000000E+00  0.000000000000E+00
  0.241330891848E+00  0.000000000000E+00 -0.321200013161E+00
  0.241330891848E+00  0.000000000000E+00  0.321200013161E+00
  0.805200994015E+00  0.000000000000E+00 -0.577232062817E+00
  0.805200994015E+00  0.000000000000E+00  0.577232062817E+00
  0.887739300728E+00  0.887739300728E+00  0.000000000000E+00
  0.112907016277E+01  0.887739300728E+00 -0.321200013161E+00
  0.112907016277E+01  0.887739300728E+00  0.321200013161E+00
  0.169294035435E+01  0.887739300728E+00 -0.577232062817E+00
  0.169294035435E+01  0.887739300728E+00  0.577232062817E+00
  0.170834481716E+01  0.000000000000E+00 -0.810544371605E+00
  0.170834481716E+01  0.000000000000E+00  0.810544371605E+00
  0.248901963234E+01  0.248901963234E+01  0.000000000000E+00
  0.259608411789E+01  0.887739300728E+00 -0.810544371605E+00
  0.259608411789E+01  0.887739300728E+00  0.810544371605E+00
  0.273035073280E+01  0.248901963234E+01 -0.321200013161E+00
  0.273035073280E+01  0.248901963234E+01  0.321200013161E+00
  0.303447818756E+01  0.000000000000E+00 -0.101620304585E+01
  0.303447818756E+01  0.000000000000E+00  0.101620304585E+01
  0.329422068596E+01  0.248901963234E+01 -0.577232062817E+00
  0.329422068596E+01  0.248901963234E+01  0.577232062817E+00
  0.392221760750E+01  0.887739300728E+00 -0.101620304585E+01
  0.392221760750E+01  0.887739300728E+00  0.101620304585E+01
  0.419736480713E+01  0.248901963234E+01 -0.810544371605E+00
  0.419736480713E+01  0.248901963234E+01  0.810544371605E+00
  0.484297323227E+01  0.000000000000E+00 -0.116656696796E+01
  0.484297323227E+01  0.000000000000E+00  0.116656696796E+01
  0.525571107864E+01  0.525571107864E+01  0.000000000000E+00
  0.549704170227E+01  0.525571107864E+01 -0.321200013161E+00
  0.549704170227E+01  0.525571107864E+01  0.321200013161E+00
  0.552349805832E+01  0.248901963234E+01 -0.101620304585E+01
  0.552349805832E+01  0.248901963234E+01  0.101620304585E+01
  0.573071241379E+01  0.887739300728E+00 -0.116656696796E+01
  0.573071241379E+01  0.887739300728E+00  0.116656696796E+01
  0.606091213226E+01  0.525571107864E+01 -0.577232062817E+00
  0.606091213226E+01  0.525571107864E+01  0.577232062817E+00
  0.696405553818E+01  0.525571107864E+01 -0.810544371605E+00
  0.696405553818E+01  0.525571107864E+01  0.810544371605E+00
  0.710110330582E+01  0.000000000000E+00 -0.118656420708E+01
  0.710110330582E+01  0.000000000000E+00  0.118656420708E+01
  0.733199310303E+01  0.248901963234E+01 -0.116656696796E+01
  0.733199310303E+01  0.248901963234E+01  0.116656696796E+01
  0.798884296417E+01  0.887739300728E+00 -0.118656420708E+01
  0.798884296417E+01  0.887739300728E+00  0.118656420708E+01
  0.829018878937E+01  0.525571107864E+01 -0.101620304585E+01
  0.829018878937E+01  0.525571107864E+01  0.101620304585E+01
  0.959012317657E+01  0.248901963234E+01 -0.118656420708E+01
  0.959012317657E+01  0.248901963234E+01  0.118656420708E+01
  0.963517379761E+01  0.000000000000E+00 -0.105136096478E+01
  0.963517379761E+01  0.000000000000E+00  0.105136096478E+01
  0.969846439362E+01  0.969846439362E+01  0.000000000000E+00
  0.993979454041E+01  0.969846439362E+01 -0.321200013161E+00
  0.993979454041E+01  0.969846439362E+01  0.321200013161E+00
  0.100986843109E+02  0.525571107864E+01 -0.116656696796E+01
  0.100986843109E+02  0.525571107864E+01  0.116656696796E+01
  0.105036649704E+02  0.969846439362E+01 -0.577232062817E+00
  0.105036649704E+02  0.969846439362E+01  0.577232062817E+00
  0.105229129791E+02  0.887739300728E+00 -0.105136096478E+01
  0.105229129791E+02  0.887739300728E+00  0.105136096478E+01
  0.114068088531E+02  0.969846439362E+01 -0.810544371605E+00
  0.114068088531E+02  0.969846439362E+01  0.810544371605E+00
  0.121241931915E+02  0.248901963234E+01 -0.105136096478E+01
  0.121241931915E+02  0.248901963234E+01  0.105136096478E+01
  0.121689910889E+02  0.000000000000E+00 -0.831788480282E+00
  0.121689910889E+02  0.000000000000E+00  0.831788480282E+00
  0.123568143845E+02  0.525571107864E+01 -0.118656420708E+01
  0.123568143845E+02  0.525571107864E+01  0.118656420708E+01
  0.127329425812E+02  0.969846439362E+01 -0.101620304585E+01
  0.127329425812E+02  0.969846439362E+01  0.101620304585E+01
  0.130567302704E+02  0.887739300728E+00 -0.831788480282E+00
  0.130567302704E+02  0.887739300728E+00  0.831788480282E+00
  0.144304838181E+02  0.000000000000E+00 -0.598637819290E+00
  0.144304838181E+02  0.000000000000E+00  0.598637819290E+00
  0.145414371490E+02  0.969846439362E+01 -0.116656696796E+01
  0.145414371490E+02  0.969846439362E+01  0.116656696796E+01
  0.146580114365E+02  0.248901963234E+01 -0.831788480282E+00
  0.146580114365E+02  0.248901963234E+01  0.831788480282E+00
  0.148908843994E+02  0.525571107864E+01 -0.105136096478E+01
  0.148908843994E+02  0.525571107864E+01  0.105136096478E+01
  0.153182229996E+02  0.887739300728E+00 -0.598637819290E+00
  0.153182229996E+02  0.887739300728E+00  0.598637819290E+00
  0.160569133759E+02  0.160569133759E+02  0.000000000000E+00
  0.162535076141E+02  0.000000000000E+00 -0.402703911066E+00
  0.162535076141E+02  0.000000000000E+00  0.402703911066E+00
  0.162982425690E+02  0.160569133759E+02 -0.321200013161E+00
  0.162982425690E+02  0.160569133759E+02  0.321200013161E+00
  0.167995681763E+02  0.969846439362E+01 -0.118656420708E+01
  0.167995681763E+02  0.969846439362E+01  0.118656420708E+01
  0.168621139526E+02  0.160569133759E+02 -0.577232062817E+00
  0.168621139526E+02  0.160569133759E+02  0.577232062817E+00
  0.169195041656E+02  0.248901963234E+01 -0.598637819290E+00
  0.169195041656E+02  0.248901963234E+01  0.598637819290E+00
  0.171412467957E+02  0.887739300728E+00 -0.402703911066E+00
  0.171412467957E+02  0.887739300728E+00  0.402703911066E+00
  0.174247016907E+02  0.525571107864E+01 -0.831788480282E+00
  0.174247016907E+02  0.525571107864E+01  0.831788480282E+00
  0.176054687500E+02  0.000000000000E+00 -0.256516247988E+00
  0.176054687500E+02  0.000000000000E+00  0.256516247988E+00
  0.177652568817E+02  0.160569133759E+02 -0.810544371605E+00
  0.177652568817E+02  0.160569133759E+02  0.810544371605E+00
  0.184932079315E+02  0.887739300728E+00 -0.256516247988E+00
  0.184932079315E+02  0.887739300728E+00  0.256516247988E+00
  0.185471763611E+02  0.000000000000E+00 -0.155251950026E+00
  0.185471763611E+02  0.000000000000E+00  0.155251950026E+00
  0.187425270081E+02  0.248901963234E+01 -0.402703911066E+00
  0.187425270081E+02  0.248901963234E+01  0.402703911066E+00
  0.190913906097E+02  0.160569133759E+02 -0.101620304585E+01
  0.190913906097E+02  0.160569133759E+02  0.101620304585E+01
  0.191747722626E+02  0.000000000000E+00 -0.880569145083E-01
  0.191747722626E+02  0.000000000000E+00  0.880569145083E-01
  0.193336372375E+02  0.969846439362E+01 -0.105136096478E+01
  0.193336372375E+02  0.969846439362E+01  0.105136096478E+01
  0.194349155426E+02  0.887739300728E+00 -0.155251950026E+00
  0.194349155426E+02  0.887739300728E+00  0.155251950026E+00
  0.195808067322E+02  0.000000000000E+00 -0.446880385280E-01
  0.195808067322E+02  0.000000000000E+00  0.446880385280E-01
  0.196861953735E+02  0.525571107864E+01 -0.598637819290E+00
  0.196861953735E+02  0.525571107864E+01  0.598637819290E+00
  0.198384780884E+02  0.000000000000E+00 -0.172086916864E-01
  0.198384780884E+02  0.000000000000E+00  0.172086916864E-01
  0.200000000000E+02  0.000000000000E+00  0.000000000000E+00
  0.200625133514E+02  0.887739300728E+00 -0.880569145083E-01
  0.200625133514E+02  0.887739300728E+00  0.880569145083E-01
  0.200944881439E+02  0.248901963234E+01 -0.256516247988E+00
  0.200944881439E+02  0.248901963234E+01  0.256516247988E+00
  0.204685459137E+02  0.887739300728E+00 -0.446880385280E-01
  0.204685459137E+02  0.887739300728E+00  0.446880385280E-01
  0.207262172699E+02  0.887739300728E+00 -0.172086916864E-01
  0.207262172699E+02  0.887739300728E+00  0.172086916864E-01
  0.208877391815E+02  0.887739300728E+00  0.000000000000E+00
  0.208998851776E+02  0.160569133759E+02 -0.116656696796E+01
  0.208998851776E+02  0.160569133759E+02  0.116656696796E+01
  0.210361957550E+02  0.248901963234E+01 -0.155251950026E+00
  0.210361957550E+02  0.248901963234E+01  0.155251950026E+00
  0.215092182159E+02  0.525571107864E+01 -0.402703911066E+00
  0.215092182159E+02  0.525571107864E+01  0.402703911066E+00
  0.216637935638E+02  0.248901963234E+01 -0.880569145083E-01
  0.216637935638E+02  0.248901963234E+01  0.880569145083E-01
  0.218674545288E+02  0.969846439362E+01 -0.831788480282E+00
  0.218674545288E+02  0.969846439362E+01  0.831788480282E+00
  0.220698261261E+02  0.248901963234E+01 -0.446880385280E-01
  0.220698261261E+02  0.248901963234E+01  0.446880385280E-01
  0.223274974823E+02  0.248901963234E+01 -0.172086916864E-01
  0.223274974823E+02  0.248901963234E+01  0.172086916864E-01
  0.224890193939E+02  0.248901963234E+01  0.000000000000E+00
  0.228611793518E+02  0.525571107864E+01 -0.256516247988E+00
  0.228611793518E+02  0.525571107864E+01  0.256516247988E+00
  0.231580162048E+02  0.160569133759E+02 -0.118656420708E+01
  0.231580162048E+02  0.160569133759E+02  0.118656420708E+01
  0.238028869629E+02  0.525571107864E+01 -0.155251950026E+00
  0.238028869629E+02  0.525571107864E+01  0.155251950026E+00
  0.238043575287E+02  0.238043575287E+02  0.000000000000E+00
  0.240456867218E+02  0.238043575287E+02 -0.321200013161E+00
  0.240456867218E+02  0.238043575287E+02  0.321200013161E+00
  0.241289482117E+02  0.969846439362E+01 -0.598637819290E+00
  0.241289482117E+02  0.969846439362E+01  0.598637819290E+00
  0.244304847717E+02  0.525571107864E+01 -0.880569145083E-01
  0.244304847717E+02  0.525571107864E+01  0.880569145083E-01
  0.246095581055E+02  0.238043575287E+02 -0.577232062817E+00
  0.246095581055E+02  0.238043575287E+02  0.577232062817E+00
  0.248365173340E+02  0.525571107864E+01 -0.446880385280E-01
[...]
CELL_DATA                1336
SCALARS C_p_inc float 1
LOOKUP_TABLE default
  0.202208321182E+00
  0.177734129336E+00
  0.151148087775E+00
  0.122724929169E+00
  0.124559646193E+00
  0.930119750688E-01
  0.969349782672E-01
  0.696248628412E-01
  0.679208298722E-01
  0.491124686694E-01
  0.413569495306E-01
  0.281578476828E-01
  0.155495464967E-01
  0.491603610947E-02
 -0.126948585951E-01
 -0.223598267593E-01
 -0.384142157541E-01
 -0.442012035638E-01
 -0.486594493929E-01
 -0.513002981821E-01
 -0.129634944560E-02
 -0.263130223579E-01
  0.933379865861E-01
  0.490161840342E-01
  0.203529848376E+00
  0.149309752656E+00
  0.339525569980E+00
  0.275220175219E+00
  0.534162509924E+00
  0.482685352453E+00
  0.683849365560E+00
  0.678308825950E+00
  0.330233782534E-01
  0.344921234293E+00
 -0.435079240700E+00
 -0.881534542428E-01
 -0.454273990239E+00
 -0.284587432534E+00
 -0.449086405455E+00
 -0.364921682764E+00
 -0.463498603343E+00
 -0.416509068336E+00
 -0.465271271172E+00
 -0.453617565855E+00
 -0.415575024212E+00
 -0.433664909876E+00
 -0.358900089267E+00
 -0.334142617020E+00
 -0.277708196829E+00
 -0.249277462036E+00
 -0.202227298377E+00
 -0.172434656021E+00
 -0.140995780059E+00
 -0.106420003641E+00
 -0.892905842152E-01
 -0.452417459256E-01
 -0.433275319774E-01
  0.139066660438E-01
  0.147745819870E-02
  0.669526656472E-01
  0.499924447002E-01
  0.114985071477E+00
  0.126049458498E+00
  0.185444408409E+00
  0.196036333472E+00
  0.198651191522E+00
  0.146000963445E+00
  0.149354128453E+00
  0.121809468158E+00
  0.123603127341E+00
  0.101441763690E+00
  0.965707176775E-01
  0.813508535956E-01
  0.678363333043E-01
  0.578710578264E-01
  0.413506370036E-01
  0.299703012846E-01
  0.155665855121E-01
 -0.178941279156E-02
 -0.127031442094E-01
 -0.332170240300E-01
 -0.386529971438E-01
 -0.518371997984E-01
 -0.563507417153E-01
 -0.255972723921E-01
 -0.460234394696E-01
  0.503577724883E-01
  0.185883684931E-01
  0.147347980532E+00
  0.116809299628E+00
  0.261079347942E+00
  0.245106152679E+00
  0.426066282743E+00
  0.432132426252E+00
  0.544039879624E+00
  0.507227402793E+00
 -0.242379341369E+00
 -0.401318850933E-01
 -0.641168973156E+00
 -0.413718170732E+00
 -0.604771639228E+00
 -0.444848742084E+00
 -0.553228291737E+00
 -0.448563027570E+00
 -0.526738897708E+00
 -0.467145385993E+00
 -0.489591693138E+00
 -0.471970052989E+00
 -0.406604525528E+00
 -0.421822707492E+00
 -0.335316442922E+00
 -0.307167764346E+00
 -0.249477333780E+00
 -0.212679636871E+00
 -0.172440086586E+00
 -0.129471569370E+00
 -0.106401461613E+00
 -0.594621878212E-01
 -0.452746272466E-01
 -0.242054819513E-02
  0.134975347660E-01
  0.434033453951E-01
  0.655273947750E-01
  0.834112432185E-01
  0.111932847367E+00
  0.123072976435E+00
  0.179328632698E+00
  0.185485084141E+00
  0.194024520543E+00
  0.194362938485E+00
  0.144030792891E+00
  0.144920081868E+00
  0.119835361832E+00
  0.120996649270E+00
  0.999894551709E-01
  0.100858704266E+00
  0.818052601254E-01
  0.810124923158E-01
  0.627329018076E-01
  0.577623368932E-01
  0.398724067854E-01
  0.299778198427E-01
  0.961712947247E-02
 -0.179944994693E-02
 -0.249492342578E-01
 -0.334095498062E-01
 -0.567291114493E-01
 -0.545126111114E-01
 -0.453768975029E-01
 -0.516780169176E-01
  0.191885903459E-01
  0.826724578904E-02
  0.114246678918E+00
  0.106991663719E+00
  0.235587245133E+00
  0.239889257316E+00
  0.410769430040E+00
  0.425423501496E+00
  0.477911005471E+00
  0.432994233255E+00
 -0.457538487729E+00
 -0.262956491418E+00
 -0.831396593421E+00
 -0.631993194132E+00
 -0.738885400418E+00
 -0.598294275737E+00
 -0.644630742464E+00
 -0.552797191300E+00
 -0.581715172452E+00
 -0.532026190653E+00
 -0.509914415815E+00
 -0.499248454161E+00
 -0.396245301425E+00
 -0.416427744209E+00
 -0.310208710911E+00
 -0.276625467886E+00
 -0.213756919799E+00
 -0.173012014094E+00
 -0.129714902353E+00
 -0.909174981040E-01
 -0.594615823037E-01
 -0.297779191444E-01
 -0.261754356118E-02
  0.175264355218E-01
  0.428122877898E-01
  0.566787172173E-01
  0.824170968339E-01
  0.923849804188E-01
  0.121663244366E+00
  0.128941373743E+00
  0.183391973572E+00
  0.188147958821E+00
  0.193603268073E+00
  0.192869249480E+00
  0.143407606640E+00
  0.143254858822E+00
  0.118984606710E+00
  0.119232484798E+00
  0.990128178916E-01
  0.995245302156E-01
  0.809211681924E-01
  0.814661773153E-01
  0.624823639046E-01
  0.625287762560E-01
  0.413481602084E-01
  0.398190320578E-01
  0.139692486201E-01
  0.967342379096E-02
 -0.181353811479E-01
 -0.249239517286E-01
 -0.548306724648E-01
 -0.468185208509E-01
 -0.516582025546E-01
 -0.440989163574E-01
  0.833892548216E-02
  0.164260791566E-01
  0.106023946520E+00
  0.117868071416E+00
  0.236876452553E+00
  0.255074542229E+00
  0.420066835982E+00
  0.437598146388E+00
  0.430047746347E+00
  0.381478361897E+00
 -0.630004899152E+00
 -0.462871762534E+00
 -0.978147162821E+00
 -0.828808903173E+00
 -0.836054263740E+00
 -0.739506195294E+00
 -0.706638559220E+00
 -0.649436509953E+00
 -0.615732148531E+00
 -0.590536942825E+00
 -0.518969465966E+00
 -0.521390744951E+00
 -0.385018381004E+00
 -0.406604845069E+00
 -0.280144038615E+00
 -0.254247934174E+00
 -0.174177367050E+00
 -0.150027944177E+00
 -0.911296850129E-01
 -0.725108772822E-01
 -0.297532892120E-01
 -0.161561515423E-01
  0.175695008044E-01
  0.277265168476E-01
  0.567025382019E-01
  0.646060996331E-01
  0.923917862653E-01
  0.987427031525E-01
  0.128938705904E+00
  0.134080497760E+00
  0.188143843169E+00
  0.191961893251E+00
  0.192874716903E+00
  0.192503282985E+00
  0.142393371133E+00
  0.142653084433E+00
  0.117746663360E+00
  0.118390732786E+00
  0.976249793317E-01
  0.985469433535E-01
  0.794821556598E-01
  0.805682752177E-01
  0.611799994213E-01
  0.622409850602E-01
  0.405416794967E-01
  0.412307785043E-01
  0.142920592351E-01
  0.140027670879E-01
 -0.158066202060E-01
 -0.179576073524E-01
 -0.467840759781E-01
 -0.416049741002E-01
 -0.441188612367E-01
 -0.351468306800E-01
  0.164278047205E-01
  0.291480450055E-01
  0.117957268251E+00
  0.134542090118E+00
  0.255567307977E+00
  0.275286454200E+00
  0.439853668743E+00
  0.453870497680E+00
  0.389319308666E+00
  0.347978694896E+00
 -0.745103317289E+00
 -0.629893215263E+00
 -0.106931411876E+01
 -0.980105205094E+00
 -0.892187870475E+00
 -0.840611941694E+00
 -0.740219877075E+00
 -0.713219128812E+00
 -0.633441488165E+00
 -0.623873314133E+00
 -0.524403398069E+00
 -0.527487545167E+00
 -0.381764840223E+00
 -0.391635734801E+00
 -0.256521827869E+00
 -0.246064897128E+00
 -0.150879441847E+00
 -0.141316060719E+00
 -0.727418838137E-01
 -0.646181081511E-01
 -0.160913365058E-01
 -0.921623223575E-02
  0.279843054763E-01
  0.339131383834E-01
  0.650266403309E-01
  0.702401665707E-01
  0.993238444947E-01
  0.103959187237E+00
  0.134840229599E+00
  0.138936826308E+00
  0.193040667669E+00
  0.196427592161E+00
  0.190098119235E+00
  0.191466950856E+00
  0.138959725468E+00
  0.141409273344E+00
  0.113919397368E+00
  0.116963976226E+00
  0.935406550527E-01
  0.970053481535E-01
  0.752811914117E-01
  0.790076925682E-01
  0.570693147111E-01
  0.608458493948E-01
  0.368339854114E-01
  0.403529726286E-01
  0.114402093460E-01
  0.142676200731E-01
 -0.172516184637E-01
 -0.156581972536E-01
 -0.413876461844E-01
 -0.410687173629E-01
 -0.350228978176E-01
 -0.318722504942E-01
  0.291275533999E-01
  0.354112760776E-01
  0.134590112942E+00
  0.143819057572E+00
  0.275860399991E+00
  0.287006903019E+00
  0.456100776897E+00
  0.463291052597E+00
  0.354046574718E+00
  0.329504290253E+00
 -0.806039843559E+00
 -0.744528444462E+00
 -0.111550280823E+01
 -0.107136258777E+01
 -0.919577978779E+00
 -0.895552735548E+00
 -0.756151090740E+00
 -0.744282970926E+00
 -0.641741593301E+00
 -0.637887543222E+00
 -0.526922429948E+00
 -0.528696463756E+00
 -0.379911640636E+00
 -0.385043725859E+00
 -0.247541696154E+00
 -0.241318011743E+00
 -0.142062276286E+00
 -0.135150290059E+00
 -0.649053016366E-01
 -0.577363301815E-01
 -0.917343360464E-02
 -0.200567454369E-02
  0.342359044297E-01
  0.412369817334E-01
  0.708238324950E-01
  0.775472177495E-01
  0.104804973449E+00
  0.111161452330E+00
  0.140070988951E+00
  0.145941381039E+00
  0.198065565548E+00
  0.203113495179E+00
  0.184507160323E+00
  0.187826197014E+00
  0.131780307481E+00
  0.137338663273E+00
  0.105764979675E+00
  0.112613170947E+00
  0.846327355360E-01
  0.924938588468E-01
  0.657922004938E-01
  0.744703627858E-01
  0.472428819065E-01
  0.564891444282E-01
  0.270502278355E-01
  0.364871645842E-01
  0.222614957818E-02
  0.113336419984E-01
 -0.253876623867E-01
 -0.171399803303E-01
 -0.407748218348E-01
 -0.479115673194E-01
 -0.316747387680E-01
 -0.369808259123E-01
  0.352997407227E-01
  0.322922304860E-01
  0.143478628635E+00
  0.142693790559E+00
  0.286667729096E+00
  0.287650203856E+00
  0.463428732032E+00
  0.464604759477E+00
  0.331178617760E+00
  0.325895126822E+00
 -0.818256573513E+00
 -0.805852199476E+00
 -0.112317716313E+01
 -0.111648778467E+01
 -0.922125495908E+00
 -0.921296611608E+00
 -0.755076175545E+00
 -0.758342029667E+00
 -0.637673099086E+00
 -0.644313264246E+00
 -0.520112728751E+00
 -0.529680248842E+00
 -0.370787696618E+00
 -0.382370909550E+00
 -0.242610227164E+00
 -0.230535746071E+00
 -0.135985038811E+00
 -0.122720109452E+00
 -0.581548198289E-01
 -0.441600910045E-01
 -0.202767436730E-02
  0.121927955693E-01
  0.416093518821E-01
  0.556415624703E-01
  0.783148748342E-01
  0.918669590248E-01
  0.112337417770E+00
  0.125181937349E+00
  0.147569117011E+00
  0.159426853276E+00
  0.205525703177E+00
  0.215639286030E+00
  0.178360365689E+00
  0.180494185043E+00
  0.123483870287E+00
  0.128840213194E+00
  0.959786446380E-01
  0.103344139973E+00
  0.735023272005E-01
  0.826415545162E-01
  0.533015816280E-01
  0.641989330149E-01
  0.333302043729E-01
  0.460522458756E-01
  0.117223416152E-01
  0.262852356347E-01
 -0.142110592058E-01
  0.190814552721E-02
 -0.422703043555E-01
 -0.253143608002E-01
 -0.474706672445E-01
 -0.648523854740E-01
 -0.366662172607E-01
 -0.530014572045E-01
  0.320018116421E-01
  0.180571084412E-01
  0.141775639869E+00
  0.130458546635E+00
  0.286189107522E+00
  0.277541270074E+00
  0.462624438078E+00
  0.458835843590E+00
  0.323973204598E+00
  0.336250495172E+00
 -0.788042786987E+00
 -0.818252935938E+00
 -0.109700472840E+01
 -0.112371433766E+01
 -0.901825182614E+00
 -0.923376434521E+00
 -0.736829974601E+00
 -0.756987617084E+00
 -0.619056083415E+00
 -0.640298257378E+00
 -0.499808390729E+00
 -0.523385739100E+00
 -0.348627679818E+00
 -0.374161147997E+00
 -0.232092025384E+00
 -0.206989379903E+00
 -0.123970151702E+00
 -0.972134879844E-01
 -0.449460213070E-01
 -0.175878228111E-01
  0.119813161391E-01
  0.390481789877E-01
  0.560754006866E-01
  0.822834726208E-01
  0.929848978040E-01
  0.118040181995E+00
  0.127026560973E+00
  0.150735265503E+00
  0.162086354458E+00
  0.184158776550E+00
  0.219727220887E+00
  0.239142076855E+00
  0.172079088018E+00
  0.171947998053E+00
  0.115272427606E+00
  0.118638737313E+00
  0.867657713030E-01
  0.918950128752E-01
  0.636780382173E-01
  0.700428050243E-01
  0.430274863858E-01
  0.504112085273E-01
  0.224978329889E-01
  0.310103786835E-01
 -0.263558932306E-03
  0.100287770279E-01
 -0.286302553377E-01
 -0.151606662848E-01
 -0.608218875549E-01
 -0.424404074404E-01
 -0.642996535872E-01
 -0.888751682320E-01
 -0.525207045752E-01
 -0.804933639580E-01
  0.173607224706E-01
 -0.870620007471E-02
  0.128427045524E+00
  0.106391907112E+00
  0.274176461166E+00
  0.256862166715E+00
  0.453705687124E+00
  0.445887626991E+00
  0.329647292421E+00
  0.354383343589E+00
 -0.730567123660E+00
 -0.788259133155E+00
 -0.104841333046E+01
 -0.109718560068E+01
 -0.865648388259E+00
 -0.902918084323E+00
 -0.705225209154E+00
 -0.739034008523E+00
 -0.586674124875E+00
 -0.622714506301E+00
 -0.463614876181E+00
 -0.505158613692E+00
 -0.308674709868E+00
 -0.354911887343E+00
 -0.209415793524E+00
 -0.166418465650E+00
 -0.996357160769E-01
 -0.570999688732E-01
 -0.194678558982E-01
  0.204064165785E-01
  0.380326168249E-01
  0.748088029934E-01
  0.823032938254E-01
  0.116299892078E+00
  0.119189599271E+00
  0.150886228864E+00
  0.153114827371E+00
  0.182842703808E+00
  0.187947921363E+00
  0.215723104450E+00
  0.245482309405E+00
  0.270482371590E+00
  0.150856747547E+00
  0.161378370452E+00
  0.932528681032E-01
  0.107092316781E+00
  0.658329869144E-01
  0.799213630314E-01
  0.449836781774E-01
  0.579550793578E-01
  0.275125238996E-01
  0.382876895603E-01
  0.106767434099E-01
  0.186144510744E-01
 -0.867648608178E-02
 -0.338500123799E-02
 -0.351114791789E-01
 -0.309233553110E-01
 -0.685479228726E-01
 -0.620613675011E-01
 -0.889988352700E-01
 -0.103475696657E+00
 -0.803206646451E-01
 -0.108862086372E+00
 -0.105527138119E-01
 -0.465133342880E-01
  0.101962281621E+00
  0.690674736938E-01
  0.249836211191E+00
  0.224663679476E+00
  0.435208107376E+00
  0.424586954939E+00
  0.340012140382E+00
  0.371800618509E+00
 -0.665173616937E+00
 -0.731335135308E+00
 -0.992501473041E+00
 -0.104777449088E+01
 -0.823008816517E+00
 -0.866153457263E+00
 -0.664647383233E+00
 -0.707773167501E+00
 -0.539472841459E+00
 -0.592691568808E+00
 -0.407646197636E+00
 -0.474395348769E+00
 -0.252355202508E+00
 -0.322291622526E+00
 -0.171137947709E+00
 -0.119839417950E+00
 -0.624064124386E-01
 -0.181771279083E-01
  0.155008886749E-01
  0.525657688195E-01
  0.708423390064E-01
  0.101861454534E+00
  0.113592589900E+00
  0.140040804767E+00
  0.149635751055E+00
  0.172880646997E+00
  0.183238917277E+00
  0.204285337213E+00
  0.218053040269E+00
  0.237335155808E+00
  0.276447544006E+00
  0.293747591175E+00
  0.621080980816E-01
  0.126226405301E+00
  0.147081519437E-01
  0.752349504895E-01
  0.933207779337E-03
  0.519717922830E-01
 -0.351883869445E-02
  0.345103086112E-01
 -0.484128444240E-02
  0.195596601403E-01
 -0.927779035761E-02
  0.441923650638E-02
 -0.204946186113E-01
 -0.138104790635E-01
 -0.413679045278E-01
 -0.393735666548E-01
 -0.710954903393E-01
 -0.719101825527E-01
 -0.105803602431E+00
 -0.105791146202E+00
 -0.110819697149E+00
 -0.119915781238E+00
 -0.514602485325E-01
 -0.788261743048E-01
  0.592818571260E-01
  0.211090194051E-01
  0.210331473942E+00
  0.178828929329E+00
  0.404091891002E+00
  0.392681499014E+00
  0.344833656484E+00
  0.381532630069E+00
 -0.607075625106E+00
 -0.667096186631E+00
 -0.940504413338E+00
 -0.990396963261E+00
 -0.777982674552E+00
 -0.822497466084E+00
 -0.611090128811E+00
 -0.669088610180E+00
 -0.473685419623E+00
 -0.553106317266E+00
 -0.345747816339E+00
 -0.430785288952E+00
 -0.204204895033E+00
 -0.278676238273E+00
 -0.128125665586E+00
 -0.892381960954E-01
 -0.285013530487E-01
  0.312931607455E-02
  0.413869913277E-01
  0.667070885787E-01
  0.908339862071E-01
  0.109287452776E+00
  0.130131355323E+00
  0.139171424108E+00
  0.164860144809E+00
  0.161791787566E+00
  0.198603354921E+00
  0.183358884746E+00
  0.234191780127E+00
  0.208710859785E+00
  0.294659776518E+00
  0.259686335335E+00
 -0.459053997183E+00
 -0.336426887579E-01
 -0.357267807576E+00
 -0.413798939086E-01
 -0.230198688442E+00
 -0.304021345452E-01
 -0.121334853412E+00
 -0.214089032900E-01
 -0.594884669861E-01
 -0.169039208862E-01
 -0.374033439935E-01
 -0.188144342889E-01
 -0.377616491109E-01
 -0.284871429810E-01
 -0.520964454395E-01
 -0.482240289663E-01
 -0.762567918558E-01
 -0.772278533911E-01
 -0.110458573860E+00
 -0.107484642401E+00
 -0.125360012507E+00
 -0.122723324851E+00
 -0.889401199696E-01
 -0.945950721448E-01
  0.217960756837E-02
 -0.203263346993E-01
  0.150511446740E+00
  0.121457565860E+00
  0.354884464640E+00
  0.347493503650E+00
  0.335171428230E+00
  0.379036052333E+00
 -0.564451923091E+00
 -0.610946831403E+00
 -0.894859502259E+00
 -0.936717424037E+00
 -0.723132900897E+00
 -0.778412169948E+00
 -0.541010383869E+00
 -0.624401316923E+00
 -0.413415725889E+00
 -0.502211303570E+00
 -0.304990826907E+00
 -0.384493794416E+00
 -0.178003114520E+00
 -0.245209719571E+00
 -0.100503227905E+00
 -0.814010684138E-01
 -0.134988608421E-01
  0.285575437673E-02
  0.459829243304E-01
  0.607750243574E-01
  0.857701542985E-01
  0.961358648472E-01
  0.115020606073E+00
  0.107361475995E+00
  0.140822395938E+00
  0.789088714630E-01
  0.170298212644E+00
  0.939650431219E-03
  0.204883730144E+00
 -0.101793712650E+00
  0.260607886760E+00
 -0.197924271061E+00
 -0.683865469876E+01
 -0.119575305410E+01
 -0.297899523770E+01
 -0.560259702259E+00
 -0.105076232903E+01
 -0.276007589460E+00
 -0.337297316072E+00
 -0.136854064503E+00
 -0.123788212206E+00
 -0.727342562645E-01
 -0.699511058515E-01
 -0.505698195731E-01
 -0.610644240399E-01
 -0.490940244842E-01
 -0.683956434369E-01
 -0.616675434994E-01
 -0.861222922461E-01
 -0.852588681469E-01
 -0.113950774444E+00
 -0.113027859343E+00
 -0.130004240488E+00
 -0.128060545900E+00
 -0.108498871587E+00
 -0.107375240145E+00
 -0.481833466004E-01
 -0.510480729305E-01
  0.737588466163E-01
  0.645544551375E-01
  0.280453168331E+00
  0.288077822714E+00
  0.303392221664E+00
  0.361527361732E+00
 -0.539720894123E+00
 -0.571088648091E+00
 -0.848803340781E+00
 -0.890841537946E+00
 -0.653093193078E+00
 -0.731973440274E+00
 -0.481204909266E+00
 -0.569794520198E+00
 -0.378942295274E+00
 -0.456643429021E+00
 -0.287073155991E+00
 -0.358101289177E+00
 -0.171658345374E+00
 -0.235052081778E+00
 -0.933372094240E-01
 -0.954821705556E-01
 -0.191254924200E-01
 -0.193779540576E-01
  0.293565502719E-01
  0.323017128099E-01
  0.546898715566E-01
  0.603670396114E-01
  0.544152549818E-01
  0.487970764835E-01
  0.190547874844E-01
 -0.987091538093E-01
 -0.327830140510E-01
 -0.717255132653E+00
 -0.692874416151E-01
 -0.256079071458E+01
 -0.249571593915E+00
 -0.642718223526E+01
 -0.203532153967E+03
 -0.147545178453E+02
 -0.265317814014E+02
 -0.317861914116E+01
 -0.327508515686E+01
 -0.101038542878E+01
 -0.546357584673E+00
 -0.316618550393E+00
 -0.171788971944E+00
 -0.135291414796E+00
 -0.107937402151E+00
 -0.874624736819E-01
 -0.917312764296E-01
 -0.750053891465E-01
 -0.902324336863E-01
 -0.795946891783E-01
 -0.100336892627E+00
 -0.973134447234E-01
 -0.121196546176E+00
 -0.122672694826E+00
 -0.135430905647E+00
 -0.138354102027E+00
 -0.121137095992E+00
 -0.124410213368E+00
 -0.817082266981E-01
 -0.824589439195E-01
  0.226971876033E-02
  0.959839318275E-02
  0.182311779188E+00
  0.217497875599E+00
  0.242872159848E+00
  0.327570670964E+00
 -0.531192744517E+00
 -0.549238985400E+00
 -0.795003505425E+00
 -0.848973774548E+00
 -0.589992809985E+00
 -0.676646768397E+00
 -0.446616081381E+00
 -0.523626106225E+00
 -0.365201944517E+00
 -0.434052465589E+00
 -0.285747602277E+00
 -0.355157317462E+00
 -0.181107315529E+00
 -0.247524609737E+00
 -0.105081923108E+00
 -0.129217133321E+00
 -0.430653865850E-01
 -0.635279390472E-01
 -0.660445946233E-02
 -0.227392494154E-01
  0.212513380538E-02
 -0.890811549908E-02
 -0.474686040365E-01
 -0.496436529819E-01
 -0.291580487437E+00
 -0.330991080070E+00
 -0.105294131637E+01
 -0.254343973479E+01
 -0.246602736297E+01
 -0.243791840179E+02
 -0.991010959482E+01
 -0.199810650344E+03
 -0.104622393417E+05
 -0.219971629396E+03
 -0.208613203493E+03
 -0.311574735964E+02
 -0.574038897537E+01
 -0.340698907691E+01
 -0.555594454337E+00
 -0.485768140634E+00
 -0.205109897555E+00
 -0.191893832528E+00
 -0.156294884609E+00
 -0.130029199321E+00
 -0.130909282139E+00
 -0.105830951544E+00
 -0.117407529286E+00
 -0.101119045489E+00
 -0.118388892884E+00
 -0.112888968603E+00
 -0.132877175649E+00
 -0.136034742423E+00
 -0.145016207890E+00
 -0.153663600807E+00
 -0.135917131896E+00
 -0.147157730322E+00
 -0.110248383975E+00
 -0.118545461585E+00
 -0.548048356171E-01
 -0.496099258625E-01
  0.796587007325E-01
  0.138138968652E+00
  0.153353142556E+00
  0.277126164843E+00
 -0.534749297429E+00
 -0.540716135871E+00
 -0.742460464447E+00
 -0.803146260796E+00
 -0.548968099488E+00
 -0.626577089249E+00
 -0.430589806991E+00
 -0.499653691987E+00
 -0.365104190555E+00
 -0.432527058833E+00
 -0.296617801854E+00
 -0.371468847763E+00
 -0.203423661826E+00
 -0.279462660914E+00
 -0.133843185125E+00
 -0.180305775824E+00
 -0.836964549882E-01
 -0.128852271289E+00
 -0.617957573277E-01
 -0.106710153445E+00