# vtk DataFile Version 3.0
MachLine results file. Generated by MachLine, USU AeroLab (c) 2022.
ASCII
DATASET POLYDATA
POINTS                 704 float
  0.000000000000E+00  0.000000000000E+00  0.000000000000E+00
  0.310944736004E+00  0.000000000000E+00 -0.368799388409E+00
  0.310944736004E+00  0.000000000000E+00  0.368799388409E+00
  0.995846629143E+00  0.995846629143E+00  0.000000000000E+00
  0.129674160480E+01  0.000000000000E+00 -0.718345582485E+00
  0.129674160480E+01  0.000000000000E+00  0.718345582485E+00
  0.130679130554E+01  0.995846629143E+00 -0.368799388409E+00
  0.130679130554E+01  0.995846629143E+00  0.368799388409E+00
  0.229258823395E+01  0.995846629143E+00 -0.718345582485E+00
  0.229258823395E+01  0.995846629143E+00  0.718345582485E+00
  0.317612481117E+01  0.317612481117E+01  0.000000000000E+00
  0.332168078423E+01  0.000000000000E+00 -0.104886639118E+01
  0.332168078423E+01  0.000000000000E+00  0.104886639118E+01
  0.348706960678E+01  0.317612481117E+01 -0.368799388409E+00
  0.348706960678E+01  0.317612481117E+01  0.368799388409E+00
  0.431752729416E+01  0.995846629143E+00 -0.104886639118E+01
  0.431752729416E+01  0.995846629143E+00  0.104886639118E+01
  0.447286653519E+01  0.317612481117E+01 -0.718345582485E+00
  0.447286653519E+01  0.317612481117E+01  0.718345582485E+00
  0.649780559540E+01  0.317612481117E+01 -0.104886639118E+01
  0.649780559540E+01  0.317612481117E+01  0.104886639118E+01
  0.670735931396E+01  0.000000000000E+00 -0.119628477097E+01
  0.670735931396E+01  0.000000000000E+00  0.119628477097E+01
  0.758029556274E+01  0.758029556274E+01  0.000000000000E+00
  0.770320558548E+01  0.995846629143E+00 -0.119628477097E+01
  0.770320558548E+01  0.995846629143E+00  0.119628477097E+01
  0.789124011993E+01  0.758029556274E+01 -0.368799388409E+00
  0.789124011993E+01  0.758029556274E+01  0.368799388409E+00
  0.887703704834E+01  0.758029556274E+01 -0.718345582485E+00
  0.887703704834E+01  0.758029556274E+01  0.718345582485E+00
  0.988348388672E+01  0.317612481117E+01 -0.119628477097E+01
  0.988348388672E+01  0.317612481117E+01  0.119628477097E+01
  0.109019765854E+02  0.758029556274E+01 -0.104886639118E+01
  0.109019765854E+02  0.758029556274E+01  0.104886639118E+01
  0.109735889435E+02  0.000000000000E+00 -0.943109273911E+00
  0.109735889435E+02  0.000000000000E+00  0.943109273911E+00
  0.119694356918E+02  0.995846629143E+00 -0.943109273911E+00
  0.119694356918E+02  0.995846629143E+00  0.943109273911E+00
  0.141497135162E+02  0.317612481117E+01 -0.943109273911E+00
  0.141497135162E+02  0.317612481117E+01  0.943109273911E+00
  0.142876548767E+02  0.758029556274E+01 -0.119628477097E+01
  0.142876548767E+02  0.758029556274E+01  0.119628477097E+01
  0.148274240494E+02  0.000000000000E+00 -0.556277513504E+00
  0.148274240494E+02  0.000000000000E+00  0.556277513504E+00
  0.151882019043E+02  0.151882019043E+02  0.000000000000E+00
  0.154991464615E+02  0.151882019043E+02 -0.368799388409E+00
  0.154991464615E+02  0.151882019043E+02  0.368799388409E+00
  0.158232707977E+02  0.995846629143E+00 -0.556277513504E+00
  0.158232707977E+02  0.995846629143E+00  0.556277513504E+00
  0.164849433899E+02  0.151882019043E+02 -0.718345582485E+00
  0.164849433899E+02  0.151882019043E+02  0.718345582485E+00
  0.174040641785E+02  0.000000000000E+00 -0.278276473284E+00
  0.174040641785E+02  0.000000000000E+00  0.278276473284E+00
  0.180035495758E+02  0.317612481117E+01 -0.556277513504E+00
  0.180035495758E+02  0.317612481117E+01  0.556277513504E+00
  0.183999118805E+02  0.995846629143E+00 -0.278276473284E+00
  0.183999118805E+02  0.995846629143E+00  0.278276473284E+00
  0.185098819733E+02  0.151882019043E+02 -0.104886639118E+01
  0.185098819733E+02  0.151882019043E+02  0.104886639118E+01
  0.185538845062E+02  0.758029556274E+01 -0.943109273911E+00
  0.185538845062E+02  0.758029556274E+01  0.943109273911E+00
  0.187977371216E+02  0.000000000000E+00 -0.128402337432E+00
  0.187977371216E+02  0.000000000000E+00  0.128402337432E+00
  0.194658946991E+02  0.000000000000E+00 -0.569535270333E-01
  0.194658946991E+02  0.000000000000E+00  0.569535270333E-01
  0.197676601410E+02  0.000000000000E+00 -0.247576590627E-01
  0.197676601410E+02  0.000000000000E+00  0.247576590627E-01
  0.197935848236E+02  0.995846629143E+00 -0.128402337432E+00
  0.197935848236E+02  0.995846629143E+00  0.128402337432E+00
  0.199002666473E+02  0.000000000000E+00 -0.106241796166E-01
  0.199002666473E+02  0.000000000000E+00  0.106241796166E-01
  0.199578342438E+02  0.000000000000E+00 -0.449111964554E-02
  0.199578342438E+02  0.000000000000E+00  0.449111964554E-02
  0.199826946259E+02  0.000000000000E+00 -0.184311019257E-02
  0.199826946259E+02  0.000000000000E+00  0.184311019257E-02
  0.199934062958E+02  0.000000000000E+00 -0.702290737536E-03
  0.199934062958E+02  0.000000000000E+00  0.702290737536E-03
  0.199980163574E+02  0.000000000000E+00 -0.211262027733E-03
  0.199980163574E+02  0.000000000000E+00  0.211262027733E-03
  0.200000000000E+02  0.000000000000E+00  0.000000000000E+00
  0.204617424011E+02  0.995846629143E+00 -0.569535270333E-01
  0.204617424011E+02  0.995846629143E+00  0.569535270333E-01
  0.205801887512E+02  0.317612481117E+01 -0.278276473284E+00
  0.205801887512E+02  0.317612481117E+01  0.278276473284E+00
  0.207635078430E+02  0.995846629143E+00 -0.247576590627E-01
  0.207635078430E+02  0.995846629143E+00  0.247576590627E-01
  0.208961124420E+02  0.995846629143E+00 -0.106241796166E-01
  0.208961124420E+02  0.995846629143E+00  0.106241796166E-01
  0.209536800385E+02  0.995846629143E+00 -0.449111964554E-02
  0.209536800385E+02  0.995846629143E+00  0.449111964554E-02
  0.209785404205E+02  0.995846629143E+00 -0.184311019257E-02
  0.209785404205E+02  0.995846629143E+00  0.184311019257E-02
  0.209892520905E+02  0.995846629143E+00 -0.702290737536E-03
  0.209892520905E+02  0.995846629143E+00  0.702290737536E-03
  0.209938621521E+02  0.995846629143E+00 -0.211262027733E-03
  0.209938621521E+02  0.995846629143E+00  0.211262027733E-03
  0.209958457947E+02  0.995846629143E+00  0.000000000000E+00
  0.218955612183E+02  0.151882019043E+02 -0.119628477097E+01
  0.218955612183E+02  0.151882019043E+02  0.119628477097E+01
  0.219738616943E+02  0.317612481117E+01 -0.128402337432E+00
  0.219738616943E+02  0.317612481117E+01  0.128402337432E+00
  0.224077205658E+02  0.758029556274E+01 -0.556277513504E+00
  0.224077205658E+02  0.758029556274E+01  0.556277513504E+00
  0.226420192719E+02  0.317612481117E+01 -0.569535270333E-01
  0.226420192719E+02  0.317612481117E+01  0.569535270333E-01
  0.229437847137E+02  0.317612481117E+01 -0.247576590627E-01
  0.229437847137E+02  0.317612481117E+01  0.247576590627E-01
  0.230763912201E+02  0.317612481117E+01 -0.106241796166E-01
  0.230763912201E+02  0.317612481117E+01  0.106241796166E-01
  0.231339588165E+02  0.317612481117E+01 -0.449111964554E-02
  0.231339588165E+02  0.317612481117E+01  0.449111964554E-02
  0.231588191986E+02  0.317612481117E+01 -0.184311019257E-02
  0.231588191986E+02  0.317612481117E+01  0.184311019257E-02
  0.231695308685E+02  0.317612481117E+01 -0.702290737536E-03
  0.231695308685E+02  0.317612481117E+01  0.702290737536E-03
  0.231741409302E+02  0.317612481117E+01 -0.211262027733E-03
  0.231741409302E+02  0.317612481117E+01  0.211262027733E-03
  0.231761245728E+02  0.317612481117E+01  0.000000000000E+00
  0.249843597412E+02  0.758029556274E+01 -0.278276473284E+00
  0.249843597412E+02  0.758029556274E+01  0.278276473284E+00
  0.253556423187E+02  0.253556423187E+02  0.000000000000E+00
  0.256665878296E+02  0.253556423187E+02 -0.368799388409E+00
  0.256665878296E+02  0.253556423187E+02  0.368799388409E+00
  0.261617908478E+02  0.151882019043E+02 -0.943109273911E+00
  0.261617908478E+02  0.151882019043E+02  0.943109273911E+00
  0.263780326843E+02  0.758029556274E+01 -0.128402337432E+00
  0.263780326843E+02  0.758029556274E+01  0.128402337432E+00
  0.266523838043E+02  0.253556423187E+02 -0.718345582485E+00
  0.266523838043E+02  0.253556423187E+02  0.718345582485E+00
  0.270461902618E+02  0.758029556274E+01 -0.569535270333E-01
  0.270461902618E+02  0.758029556274E+01  0.569535270333E-01
  0.273479557037E+02  0.758029556274E+01 -0.247576590627E-01
  0.273479557037E+02  0.758029556274E+01  0.247576590627E-01
  0.274805622101E+02  0.758029556274E+01 -0.106241796166E-01
  0.274805622101E+02  0.758029556274E+01  0.106241796166E-01
  0.275381298065E+02  0.758029556274E+01 -0.449111964554E-02
  0.275381298065E+02  0.758029556274E+01  0.449111964554E-02
  0.275629901886E+02  0.758029556274E+01 -0.184311019257E-02
  0.275629901886E+02  0.758029556274E+01  0.184311019257E-02
  0.275737018585E+02  0.758029556274E+01 -0.702290737536E-03
  0.275737018585E+02  0.758029556274E+01  0.702290737536E-03
  0.275783119202E+02  0.758029556274E+01 -0.211262027733E-03
  0.275783119202E+02  0.758029556274E+01  0.211262027733E-03
  0.275802955627E+02  0.758029556274E+01  0.000000000000E+00
  0.286773242950E+02  0.253556423187E+02 -0.104886639118E+01
  0.286773242950E+02  0.253556423187E+02  0.104886639118E+01
  0.300156269073E+02  0.151882019043E+02 -0.556277513504E+00
  0.300156269073E+02  0.151882019043E+02  0.556277513504E+00
  0.320630035400E+02  0.253556423187E+02 -0.119628477097E+01
  0.320630035400E+02  0.253556423187E+02  0.119628477097E+01
  0.325922660828E+02  0.151882019043E+02 -0.278276473284E+00
  0.325922660828E+02  0.151882019043E+02  0.278276473284E+00
  0.339859390259E+02  0.151882019043E+02 -0.128402337432E+00
  0.339859390259E+02  0.151882019043E+02  0.128402337432E+00
  0.346540985107E+02  0.151882019043E+02 -0.569535270333E-01
  0.346540985107E+02  0.151882019043E+02  0.569535270333E-01
  0.349558639526E+02  0.151882019043E+02 -0.247576590627E-01
  0.349558639526E+02  0.151882019043E+02  0.247576590627E-01
  0.350884666443E+02  0.151882019043E+02 -0.106241796166E-01
  0.350884666443E+02  0.151882019043E+02  0.106241796166E-01
  0.351242027283E+02  0.351242027283E+02  0.000000000000E+00
[...]
CELL_DATA                1336
SCALARS C_p_inc float 1
LOOKUP_TABLE default
  0.315536964237E+00
  0.294521099481E+00
  0.275983091142E+00
  0.256828667757E+00
  0.249241433399E+00
  0.229890202573E+00
  0.223615973464E+00
  0.203286141845E+00
  0.197772169760E+00
  0.175302248747E+00
  0.171297007705E+00
  0.145213922904E+00
  0.143873749399E+00
  0.112987491512E+00
  0.112417428360E+00
  0.810892026418E-01
  0.710817719361E-01
  0.500876933617E-01
  0.269701305481E-01
  0.132596620381E-01
 -0.204092557324E-01
 -0.319566779724E-01
 -0.523589724537E-01
 -0.515571575870E-01
  0.400229815319E-01
  0.247996305281E-02
  0.206493766162E+00
  0.145621562215E+00
  0.444373744907E+00
  0.382803890036E+00
  0.668885442747E+00
  0.669888313699E+00
 -0.267891369631E-01
  0.309403525448E+00
 -0.459001188486E+00
 -0.165753542787E+00
 -0.456029056095E+00
 -0.347930102248E+00
 -0.452034941657E+00
 -0.420021977252E+00
 -0.387789036282E+00
 -0.410942308420E+00
 -0.290034254903E+00
 -0.258786898038E+00
 -0.171738798438E+00
 -0.136736114212E+00
 -0.864162709755E-01
 -0.375910048224E-01
 -0.217290841264E-01
  0.430946522805E-01
  0.323772525234E-01
  0.990972522457E-01
  0.784233682231E-01
  0.141162205531E+00
  0.117085573388E+00
  0.176320201810E+00
  0.150518586730E+00
  0.207346386106E+00
  0.180731459986E+00
  0.236086962284E+00
  0.210299570231E+00
  0.264951176958E+00
  0.248890133574E+00
  0.306199977191E+00
  0.307447293432E+00
  0.307260809426E+00
  0.268208406932E+00
  0.269319878756E+00
  0.241626474104E+00
  0.243611233057E+00
  0.216349745759E+00
  0.218942822832E+00
  0.190886857532E+00
  0.194041455769E+00
  0.164872478172E+00
  0.168517366042E+00
  0.138377308325E+00
  0.142058736316E+00
  0.111559121267E+00
  0.111554007912E+00
  0.830405189980E-01
  0.708925969414E-01
  0.453181583672E-01
  0.270162682861E-01
 -0.692058037353E-02
 -0.203253656114E-01
 -0.523021122392E-01
 -0.539495655149E-01
  0.447317559169E-02
 -0.244072082301E-01
  0.143145693936E+00
  0.114307477479E+00
  0.344855249252E+00
  0.345288463570E+00
  0.539787306439E+00
  0.510516792829E+00
 -0.327557302491E+00
 -0.882901392473E-01
 -0.665055842226E+00
 -0.433450484305E+00
 -0.579970429739E+00
 -0.450965145302E+00
 -0.502801124214E+00
 -0.457698820737E+00
 -0.373092495902E+00
 -0.395504996643E+00
 -0.258609103855E+00
 -0.215180099039E+00
 -0.136483662246E+00
 -0.827142288477E-01
 -0.376592237429E-01
  0.714512524932E-02
  0.420829218530E-01
  0.666014948193E-01
  0.965665309556E-01
  0.111227749145E+00
  0.137074061140E+00
  0.147750988431E+00
  0.170794006336E+00
  0.179154955844E+00
  0.200497903265E+00
  0.207155137406E+00
  0.227976510048E+00
  0.233151798851E+00
  0.255528829772E+00
  0.259063386482E+00
  0.294794684402E+00
  0.294781781242E+00
  0.304420942664E+00
  0.303855585864E+00
  0.265738980639E+00
  0.265244582514E+00
  0.239050361994E+00
  0.239061368701E+00
  0.213746956048E+00
  0.214146564605E+00
  0.188305565235E+00
  0.189033014603E+00
  0.162277756345E+00
  0.163361053120E+00
  0.135749095544E+00
  0.137201088703E+00
  0.109058730772E+00
  0.110711921018E+00
  0.818792127231E-01
  0.825477855987E-01
  0.500184280572E-01
  0.452299046233E-01
  0.407367878321E-02
 -0.685136515530E-02
 -0.545004418608E-01
 -0.457985093300E-01
 -0.234003067040E-01
 -0.243605439338E-01
  0.111470547597E+00
  0.114045417220E+00
  0.331142813775E+00
  0.350476792218E+00
  0.485622446389E+00
  0.446129022700E+00
 -0.566028726305E+00
 -0.341532335460E+00
 -0.846223231951E+00
 -0.655522809228E+00
 -0.680428295889E+00
 -0.578392310747E+00
 -0.537024708741E+00
 -0.511844137731E+00
 -0.353857363330E+00
 -0.385394722096E+00
 -0.216444167312E+00
 -0.173470117678E+00
 -0.827038629229E-01
 -0.497153308906E-01
  0.693368032738E-02
  0.264451898177E-01
  0.660219276611E-01
  0.791341933707E-01
  0.110350950253E+00
  0.120416759768E+00
  0.146617316822E+00
  0.154974772121E+00
  0.177788447280E+00
  0.185012540346E+00
  0.205570177055E+00
  0.211913800891E+00
  0.231353569558E+00
  0.236884770838E+00
  0.257041261915E+00
  0.261719660399E+00
  0.292429624612E+00
  0.294757276373E+00
  0.298431705895E+00
  0.301796636487E+00
  0.262123077424E+00
  0.263548314866E+00
  0.235790439016E+00
  0.237140122028E+00
  0.210793259437E+00
  0.212090676004E+00
  0.185484195725E+00
  0.186894585559E+00
  0.159487428150E+00
  0.161108841579E+00
  0.132909710736E+00
  0.134819187979E+00
  0.106141289431E+00
  0.108362833601E+00
  0.790483586315E-01
  0.814146332309E-01
  0.480591518189E-01
  0.498121047110E-01
  0.514526170648E-02
  0.418241397303E-02
 -0.459578339440E-01
 -0.390499606626E-01
 -0.243747439782E-01
 -0.104920345745E-01
  0.113800561479E+00
  0.135010351976E+00
  0.350139337941E+00
  0.374838397070E+00
  0.450491097635E+00
  0.410897278462E+00
 -0.722321577347E+00
 -0.567113817443E+00
 -0.952325934814E+00
 -0.847472359287E+00
 -0.731088911077E+00
 -0.686836220550E+00
 -0.551095924740E+00
 -0.548236934215E+00
 -0.345093412233E+00
 -0.363579103728E+00
 -0.174726652619E+00
 -0.157404315922E+00
 -0.498015596583E-01
 -0.367307999627E-01
  0.266732683755E-01
  0.368179873054E-01
  0.795771207697E-01
  0.881268420382E-01
  0.121049429481E+00
  0.128683586319E+00
  0.155779249760E+00
  0.162847590915E+00
  0.185974655277E+00
  0.192681685679E+00
  0.213023651067E+00
  0.219526267100E+00
  0.238137918299E+00
  0.244579818418E+00
  0.263122136151E+00
  0.269615373741E+00
  0.296371173824E+00
  0.303134416798E+00
  0.295296192732E+00
  0.295247052691E+00
  0.257471680071E+00
  0.259418692267E+00
  0.230498905864E+00
  0.233413195162E+00
  0.204908755267E+00
  0.208713203033E+00
  0.179106943344E+00
  0.183694283096E+00
  0.152639567804E+00
  0.157987120435E+00
  0.125600936477E+00
  0.131700264481E+00
  0.984430505506E-01
  0.105223375567E+00
  0.712496097771E-01
  0.784229166721E-01
  0.409035623145E-01
  0.477400358783E-01
 -0.584033839264E-04
  0.517429580856E-02
 -0.387975022427E-01
 -0.409723429190E-01
 -0.104577902460E-01
 -0.642557314252E-02
  0.135205200996E+00
  0.145693292639E+00
  0.376812172467E+00
  0.388752049791E+00
  0.418196948195E+00
  0.397169119036E+00
 -0.788273224403E+00
 -0.721632282036E+00
 -0.993513247872E+00
 -0.955638947457E+00
 -0.748732802061E+00
 -0.736330263987E+00
 -0.554880377513E+00
 -0.557227451541E+00
 -0.339933305243E+00
 -0.349633868141E+00
 -0.158465665974E+00
 -0.147537562428E+00
 -0.368987410596E-01
 -0.251445541877E-01
  0.372346001449E-01
  0.489913317349E-01
  0.890349891313E-01
  0.100367517071E+00
  0.130024302033E+00
  0.140774059834E+00
  0.164573509376E+00
  0.174707399189E+00
  0.194757630600E+00
  0.204271613181E+00
  0.221929472946E+00
  0.230788881648E+00
  0.247301311819E+00
  0.255415269985E+00
  0.272670085447E+00
  0.279930254992E+00
  0.306664878995E+00
  0.311929866464E+00
  0.291124053200E+00
  0.289609015646E+00
  0.249556765185E+00
  0.252630171523E+00
  0.220922806470E+00
  0.226221853041E+00
  0.194081768606E+00
  0.201143589430E+00
  0.167157864084E+00
  0.175839502152E+00
  0.139571198719E+00
  0.149869600201E+00
  0.111334985708E+00
  0.123334354907E+00
  0.828828617716E-01
  0.966901246335E-01
  0.544251446076E-01
  0.700287892187E-01
  0.233808132057E-01
  0.402497312389E-01
 -0.167038600295E-01
 -0.141142059312E-03
 -0.405541972638E-01
 -0.564530269064E-01
 -0.636037690741E-02
 -0.187409869640E-01
  0.145098312495E+00
  0.137473431062E+00
  0.388147630675E+00
  0.384822674700E+00
  0.398017214288E+00
  0.401804324242E+00
 -0.774715127415E+00
 -0.788065774382E+00
 -0.980485043075E+00
 -0.995113644102E+00
 -0.735370984200E+00
 -0.751531081671E+00
 -0.538536663918E+00
 -0.558616932469E+00
 -0.319924482315E+00
 -0.343469056639E+00
 -0.148702853006E+00
 -0.124704957285E+00
 -0.254994743698E-01
  0.647768228650E-03
  0.495130499528E-01
  0.758843245736E-01
  0.101749950016E+00
  0.127274255899E+00
  0.142942487184E+00
  0.167240410860E+00
  0.177578677049E+00
  0.200565306736E+00
  0.207778581151E+00
  0.229425891121E+00
  0.234885949056E+00
  0.255132849211E+00
  0.260081496891E+00
  0.278737110395E+00
  0.285188436647E+00
  0.301730298464E+00
  0.318009145032E+00
  0.331277306171E+00
  0.289737104417E+00
  0.280935336039E+00
  0.243576748276E+00
  0.240896783635E+00
  0.212869423005E+00
  0.213239328869E+00
  0.184547453077E+00
  0.187268380871E+00
  0.156349961654E+00
  0.161181585110E+00
  0.127569845267E+00
  0.134425362765E+00
  0.981828390908E-01
  0.107024548251E+00
  0.686278174477E-01
  0.794205032847E-01
  0.389859193078E-01
  0.518431574186E-01
  0.604029720805E-02
  0.217849917291E-01
 -0.375785471936E-01
 -0.171606077850E-01
 -0.558370862267E-01
 -0.850511191953E-01
 -0.187155280692E-01
 -0.502059108314E-01
  0.135526634758E+00
  0.110267396376E+00
  0.380919232083E+00
  0.365376096436E+00
  0.396494012082E+00
  0.418664456541E+00
 -0.706163929724E+00
 -0.774773190656E+00
 -0.928507010458E+00
 -0.981498941771E+00
 -0.696817531722E+00
 -0.738204004848E+00
 -0.500011471516E+00
 -0.543649074073E+00
 -0.275592161299E+00
 -0.326237183724E+00
 -0.126522295781E+00
 -0.772144636451E-01
 -0.359283467683E-03
  0.482514987379E-01
  0.764320597931E-01
  0.122267169433E+00
  0.129535492128E+00
  0.172822982791E+00
  0.171135313687E+00
  0.212297116788E+00
  0.205953211842E+00
  0.245211027268E+00
  0.236175991519E+00
  0.273590737106E+00
  0.263147198683E+00
  0.298614777221E+00
  0.287960053559E+00
  0.321205771279E+00
  0.312183068441E+00
  0.342333638691E+00
  0.343404561979E+00
  0.369125585061E+00
  0.271839451376E+00
  0.273549864159E+00
  0.224897274046E+00
  0.229817070809E+00
  0.193681371078E+00
  0.200588749132E+00
  0.164689440110E+00
  0.173561003885E+00
  0.135830192788E+00
  0.146606709223E+00
  0.106680316669E+00
  0.119075369066E+00
  0.776705582277E-01
  0.909760170846E-01
  0.498547131740E-01
  0.627543969818E-01
  0.237584060554E-01
  0.344425331243E-01
 -0.433048302806E-02
  0.276323703265E-02
 -0.446727251758E-01
 -0.394212973419E-01
 -0.849325727761E-01
 -0.993784451417E-01
 -0.507774975607E-01
 -0.911009804349E-01
  0.104952111184E+00
  0.629017808194E-01
  0.354903233316E+00
  0.330739647029E+00
  0.402859762684E+00
  0.433388305163E+00
 -0.624505657620E+00
 -0.706871744870E+00
 -0.866787205517E+00
 -0.928392324701E+00
 -0.646836609724E+00
 -0.699981777358E+00
 -0.435582512696E+00
 -0.510461589000E+00
 -0.204937090390E+00
 -0.291762433975E+00
 -0.815304162671E-01
 -0.237658437139E-01
  0.444098813603E-01
  0.913048453256E-01
  0.120609597389E+00
  0.162405682342E+00
  0.173823678386E+00
  0.214680790335E+00
  0.216028235572E+00
  0.257189334962E+00
  0.251571987904E+00
  0.293078070716E+00
  0.282420373793E+00
  0.324020199282E+00
  0.309753824066E+00
  0.351206764405E+00
  0.334534486656E+00
  0.375676587674E+00
  0.357807253639E+00
  0.398685130831E+00
  0.387475149577E+00
  0.429156022342E+00
  0.239464802527E+00
  0.242422552600E+00
  0.187827476639E+00
  0.199511360111E+00
  0.153881442315E+00
  0.170749010728E+00
  0.123004244654E+00
  0.143947874979E+00
  0.931592836543E-01
  0.117264833768E+00
  0.645047589501E-01
  0.904223335641E-01
  0.383946685608E-01
  0.639639306503E-01
  0.165540401454E-01
  0.389409771857E-01
 -0.998828373331E-03
  0.156014586680E-01
 -0.189126194283E-01
 -0.103818164488E-01
 -0.499075958444E-01
 -0.493765840697E-01
 -0.102097976843E+00
 -0.989771126993E-01
 -0.945905939910E-01
 -0.106980251305E+00
  0.488528313506E-01
  0.536140899540E-02
  0.305256493135E+00
  0.277027043285E+00
  0.397490647465E+00
  0.434034640159E+00
 -0.560717198894E+00
 -0.627084221522E+00
 -0.813064329080E+00
 -0.863954699333E+00
 -0.575726476852E+00
 -0.653788909719E+00
 -0.353461748428E+00
 -0.463950600096E+00
 -0.150804805532E+00
 -0.241532572302E+00
 -0.336663737903E-01
 -0.157744139730E-03
  0.787680955436E-01
  0.105605764552E+00
  0.150969114938E+00
  0.176803813140E+00
  0.205998706476E+00
  0.236555865279E+00
  0.251833677758E+00
  0.288695466027E+00
  0.291249314104E+00
  0.332825941492E+00
  0.325706859532E+00
  0.370054158586E+00
  0.356287189984E+00
  0.401839021805E+00
  0.384026701673E+00
  0.429539525038E+00
  0.410289438842E+00
  0.454452380739E+00
  0.445355024864E+00
  0.486297333310E+00
  0.156148992260E+00
  0.179506347253E+00
  0.105712933250E+00
  0.135806898884E+00
  0.723092533429E-01
  0.106635263439E+00
  0.422326134422E-01
  0.800690278521E-01
  0.148780007628E-01
  0.546797373277E-01
 -0.815371008323E-02
  0.310264455461E-01
 -0.244540526730E-01
  0.106737126190E-01
 -0.334387223716E-01
 -0.487684020447E-02
 -0.369197325371E-01
 -0.166267826183E-01
 -0.431788000228E-01
 -0.300131912505E-01
 -0.632346523241E-01
 -0.585698847449E-01
 -0.104879186596E+00
 -0.102921629626E+00
 -0.116113137772E+00
 -0.113318362816E+00
 -0.220984263590E-01
 -0.332656757491E-01
  0.220098564929E+00
  0.206055082813E+00
  0.362630799383E+00
  0.413317408967E+00
 -0.525284622049E+00
 -0.567092398075E+00
 -0.752982240925E+00
 -0.809705912266E+00
 -0.488897326450E+00
 -0.601241745759E+00
 -0.304643118751E+00
 -0.408688964303E+00
 -0.130515107257E+00
 -0.214219384034E+00
 -0.162801198797E-01
 -0.128765504160E-01
  0.777361318414E-01
  0.865001507794E-01
  0.145086396738E+00
  0.159618500786E+00
  0.205837403996E+00
  0.229380964067E+00
  0.260937899925E+00
  0.298738516745E+00
  0.308803384466E+00
  0.360576748001E+00
  0.350302281750E+00
  0.411900121901E+00
  0.386578141328E+00
  0.454464077114E+00
  0.418747743478E+00
  0.490783289952E+00
  0.448054500306E+00
  0.523480781596E+00
  0.485982979720E+00
  0.566694095030E+00
  0.280324414545E-01
  0.380518916366E-01
 -0.301740232803E-01
  0.835532593600E-03
 -0.670336135513E-01
 -0.242065887416E-01
 -0.957864069948E-01
 -0.460481723862E-01
 -0.115859225553E+00
 -0.640298265211E-01
 -0.124357256585E+00
 -0.758115313214E-01
 -0.121148425320E+00
 -0.790573020199E-01
 -0.108774841100E+00
 -0.745741679585E-01
 -0.941512459340E-01
 -0.646573286716E-01
 -0.830101230547E-01
 -0.591461146744E-01
 -0.855275418472E-01
 -0.745408995345E-01
 -0.111283122485E+00
 -0.113609267807E+00
 -0.123113872728E+00
 -0.128267634979E+00
 -0.703308985573E-01
 -0.704472278310E-01
  0.108684918689E+00
  0.132483493323E+00
  0.284270494977E+00
  0.368042515906E+00
 -0.514065444676E+00
 -0.536572911495E+00
 -0.677928848325E+00
 -0.760487148303E+00
 -0.434359297899E+00
 -0.539375062330E+00
 -0.289264828511E+00
 -0.384313526291E+00
 -0.134734232428E+00
 -0.226368388987E+00
 -0.297121175653E-01
 -0.615451434233E-01
  0.420057095723E-01
  0.257803678017E-01
  0.969025453593E-01
  0.952945412138E-01
  0.158595384394E+00
  0.171806261806E+00
  0.226639312010E+00
  0.259566546753E+00
  0.290248776495E+00
  0.348491788935E+00
  0.345207010221E+00
  0.425625103724E+00
  0.393085759715E+00
  0.486376623152E+00
  0.435788775682E+00
  0.533237652338E+00
  0.475502426061E+00
  0.569147658791E+00
  0.529484615882E+00
  0.606268622564E+00
 -0.307106292406E+00
 -0.244109374749E+00
 -0.348881224828E+00
 -0.268740670609E+00
 -0.368232823769E+00
 -0.283243916389E+00
 -0.373744007985E+00
 -0.288457522691E+00
 -0.359682654074E+00
 -0.281145477980E+00
 -0.327076609181E+00
 -0.259742699829E+00
 -0.284756180154E+00
 -0.226239478928E+00
 -0.239450604540E+00
 -0.180667668333E+00
 -0.189755023015E+00
 -0.131301341526E+00
 -0.141681105751E+00
 -0.966881309192E-01
 -0.115836295118E+00
 -0.956259041217E-01
 -0.124765971138E+00
 -0.129732045675E+00
 -0.133734161127E+00
 -0.152096087487E+00
 -0.102906115192E+00
 -0.117499827395E+00
  0.998939816420E-02
  0.529914275085E-01
  0.166382315332E+00
  0.300437189490E+00
 -0.518327942330E+00
 -0.525241014750E+00
 -0.619639302407E+00
 -0.702244453916E+00
 -0.411000525926E+00
 -0.504598153825E+00
 -0.292341942728E+00
 -0.393738736209E+00
 -0.155898229044E+00
 -0.270516950847E+00
 -0.678696434822E-01
 -0.142627761881E+00
 -0.228605776035E-01
 -0.850156568456E-01
  0.246688177569E-02
 -0.425857890594E-01
  0.410354578257E-01
  0.218745789938E-01
  0.106185472764E+00
  0.117259189890E+00
  0.184892716971E+00
  0.232632191547E+00
  0.258941232708E+00
  0.346445727328E+00
  0.321593491022E+00
  0.445626180630E+00
  0.373665745661E+00
  0.525235838219E+00
  0.416312214814E+00
  0.588817274212E+00
  0.463478239185E+00
  0.664030793482E+00
 -0.138889304038E+01
 -0.106021593615E+01
 -0.132479066164E+01
 -0.100933371483E+01
 -0.122623435754E+01
 -0.927455546810E+00
 -0.106202723046E+01
 -0.809222256567E+00
 -0.861679572694E+00
 -0.691086865197E+00
 -0.705890232307E+00
 -0.585349617537E+00
 -0.589560872853E+00
 -0.466826497219E+00
 -0.468555375898E+00
 -0.333560438664E+00
 -0.334230386530E+00
 -0.216006893160E+00
 -0.219225054548E+00
 -0.140369199440E+00
 -0.153661497047E+00
 -0.120263478847E+00
 -0.144284364644E+00
 -0.150392114161E+00
 -0.150952161161E+00
 -0.183722416665E+00
 -0.138211943805E+00
 -0.173586735320E+00
 -0.747956845283E-01
 -0.344320006132E-01
  0.361905967545E-01
  0.216834973937E+00
 -0.537264797786E+00
 -0.518373289311E+00
 -0.586839760341E+00
 -0.655468096621E+00
 -0.403092706747E+00
 -0.499377904663E+00
 -0.306348556787E+00
 -0.426449385940E+00
 -0.190062633692E+00
 -0.340449632591E+00
 -0.127938432174E+00
 -0.251945904977E+00
 -0.114760765032E+00
 -0.245158661929E+00
 -0.136220860676E+00
 -0.273624446076E+00
 -0.161759329701E+00
 -0.279743492656E+00
 -0.157402510240E+00
 -0.223144594512E+00
 -0.104477009361E+00
 -0.107122872306E+00
 -0.175305633750E-01
  0.536742749104E-02
  0.101211685112E+00
  0.286208015402E-01
  0.227008937264E+00
  0.424524530641E-01
  0.328243687076E+00
  0.470957244457E-01
  0.437980000429E+00
 -0.423080274593E-01
 -0.340291236932E+02
 -0.832140560983E+01
 -0.181468977742E+02
 -0.598846813062E+01
 -0.914442760624E+01
 -0.339938284812E+01
 -0.363766247171E+01
 -0.195293597012E+01
 -0.195392706081E+01
 -0.143277625265E+01
 -0.142925461372E+01
 -0.114038163429E+01
 -0.113829456076E+01
 -0.825902957953E+00
 -0.822711642777E+00
 -0.532865446633E+00
 -0.528289262728E+00
 -0.317352319585E+00
 -0.315939728456E+00
 -0.190254162408E+00
 -0.199646909072E+00
 -0.148506351177E+00
 -0.169145972945E+00
 -0.175373262510E+00
 -0.174160951012E+00
 -0.222609629275E+00
 -0.180625088814E+00
 -0.239615620927E+00
 -0.159993605470E+00
 -0.127821286158E+00
 -0.963543720348E-01
  0.122789452194E+00
 -0.570828235272E+00
 -0.516598699690E+00
 -0.570950428490E+00
 -0.629481366953E+00
 -0.402880752567E+00
 -0.512691625801E+00
 -0.327842333989E+00
 -0.475693831781E+00
 -0.235208640865E+00
 -0.432712650140E+00
 -0.208409586651E+00
 -0.388566316608E+00
 -0.235032661111E+00
 -0.452323645116E+00
 -0.320660590615E+00
 -0.597879380765E+00
 -0.449122975287E+00
 -0.773512992341E+00
 -0.597622545487E+00
 -0.894268891676E+00
 -0.716317445782E+00
 -0.883659911268E+00
 -0.802131120856E+00
 -0.781005216784E+00
 -0.702701232843E+00
 -0.157568092828E+01
  0.145766198134E-02
 -0.670911432848E+01
  0.533314479739E+00
 -0.148960804059E+02
  0.475486628319E+00
 -0.298318319644E+02
 -0.369889897307E+04
 -0.336817152579E+03
 -0.109932960558E+04
 -0.884175991208E+02
 -0.136663802667E+03
 -0.133439030547E+02
 -0.129473108625E+02
 -0.393826609806E+01
 -0.382629264343E+01
 -0.263947045893E+01
 -0.271005292474E+01
 -0.198639936592E+01
 -0.200051792476E+01
 -0.130418036932E+01
 -0.130504821995E+01
 -0.778673951087E+00
 -0.773594611318E+00
 -0.437558790256E+00
 -0.434196269490E+00
 -0.247835856870E+00
 -0.254817253667E+00
 -0.180992551273E+00
 -0.199235365433E+00
 -0.204815843989E+00
 -0.202795614663E+00
 -0.268765981117E+00
 -0.230715169359E+00
 -0.316530120783E+00
 -0.252510556574E+00
 -0.229456354271E+00
 -0.233747577636E+00
  0.200386055237E-01
 -0.617027762058E+00
 -0.522435089107E+00
 -0.565042466362E+00
 -0.618914078597E+00
 -0.406906695492E+00
 -0.537566925042E+00
 -0.355163495549E+00
 -0.538001371746E+00
 -0.290455972182E+00
 -0.545701076362E+00
 -0.308500774678E+00
 -0.553525596631E+00
 -0.385145723359E+00
 -0.708821870162E+00
 -0.556269384895E+00
 -0.101497510666E+01
 -0.827206769734E+00
 -0.146223588240E+01
 -0.121602593774E+01
 -0.198665424280E+01