# vtk DataFile Version 3.0
MachLine results file. Generated by MachLine, USU AeroLab (c) 2022.
ASCII
DATASET POLYDATA
POINTS                 704 float
  0.000000000000E+00  0.000000000000E+00  0.000000000000E+00
  0.871252864599E-01  0.995846629143E+00  0.000000000000E+00
  0.277874916792E+00  0.317612481117E+01  0.000000000000E+00
  0.327008455992E+00  0.000000000000E+00 -0.377908974886E+00
  0.327008455992E+00  0.000000000000E+00  0.377908974886E+00
  0.414133757353E+00  0.995846629143E+00 -0.377908974886E+00
  0.414133757353E+00  0.995846629143E+00  0.377908974886E+00
  0.604883372784E+00  0.317612481117E+01 -0.377908974886E+00
  0.604883372784E+00  0.317612481117E+01  0.377908974886E+00
  0.663189888000E+00  0.758029556274E+01  0.000000000000E+00
  0.990198373795E+00  0.758029556274E+01 -0.377908974886E+00
  0.990198373795E+00  0.758029556274E+01  0.377908974886E+00
  0.132879555225E+01  0.151882019043E+02  0.000000000000E+00
  0.141893637180E+01  0.000000000000E+00 -0.747395038605E+00
  0.141893637180E+01  0.000000000000E+00  0.747395038605E+00
  0.150606167316E+01  0.995846629143E+00 -0.747395038605E+00
  0.150606167316E+01  0.995846629143E+00  0.747395038605E+00
  0.165580391884E+01  0.151882019043E+02 -0.377908974886E+00
  0.165580391884E+01  0.151882019043E+02  0.377908974886E+00
  0.169681131840E+01  0.317612481117E+01 -0.747395038605E+00
  0.169681131840E+01  0.317612481117E+01  0.747395038605E+00
  0.208212637901E+01  0.758029556274E+01 -0.747395038605E+00
  0.208212637901E+01  0.758029556274E+01  0.747395038605E+00
  0.221833133698E+01  0.253556423187E+02  0.000000000000E+00
  0.254533982277E+01  0.253556423187E+02 -0.377908974886E+00
  0.254533982277E+01  0.253556423187E+02  0.377908974886E+00
  0.274773192406E+01  0.151882019043E+02 -0.747395038605E+00
  0.274773192406E+01  0.151882019043E+02  0.747395038605E+00
  0.307296943665E+01  0.351242027283E+02  0.000000000000E+00
  0.339997792244E+01  0.351242027283E+02 -0.377908974886E+00
  0.339997792244E+01  0.351242027283E+02  0.377908974886E+00
  0.363726758957E+01  0.253556423187E+02 -0.747395038605E+00
  0.363726758957E+01  0.253556423187E+02  0.747395038605E+00
  0.366985273361E+01  0.419466094971E+02  0.000000000000E+00
  0.375130796432E+01  0.000000000000E+00 -0.109082520008E+01
  0.375130796432E+01  0.000000000000E+00  0.109082520008E+01
  0.383843326569E+01  0.995846629143E+00 -0.109082520008E+01
  0.383843326569E+01  0.995846629143E+00  0.109082520008E+01
  0.399686121941E+01  0.419466094971E+02 -0.377908974886E+00
  0.399686121941E+01  0.419466094971E+02  0.377908974886E+00
  0.400007915497E+01  0.457211151123E+02  0.000000000000E+00
  0.402918291092E+01  0.317612481117E+01 -0.109082520008E+01
  0.402918291092E+01  0.317612481117E+01  0.109082520008E+01
  0.415961980820E+01  0.475446701050E+02  0.000000000000E+00
  0.423164653778E+01  0.483679389954E+02  0.000000000000E+00
  0.426316595078E+01  0.487282104492E+02  0.000000000000E+00
  0.427677106857E+01  0.488837165833E+02  0.000000000000E+00
  0.428260803223E+01  0.489504356384E+02  0.000000000000E+00
  0.428510618210E+01  0.489789886475E+02  0.000000000000E+00
  0.428617429733E+01  0.489911956787E+02  0.000000000000E+00
  0.428663063049E+01  0.489964141846E+02  0.000000000000E+00
  0.428682565689E+01  0.489986419678E+02  0.000000000000E+00
  0.428690910339E+01  0.489995918274E+02  0.000000000000E+00
  0.428694438934E+01  0.490000000000E+02  0.000000000000E+00
  0.432708787918E+01  0.457211151123E+02 -0.377908974886E+00
  0.432708787918E+01  0.457211151123E+02  0.377908974886E+00
  0.441449785233E+01  0.758029556274E+01 -0.109082520008E+01
  0.441449785233E+01  0.758029556274E+01  0.109082520008E+01
  0.448662805557E+01  0.475446701050E+02 -0.377908974886E+00
  0.448662805557E+01  0.475446701050E+02  0.377908974886E+00
  0.449190568924E+01  0.351242027283E+02 -0.747395038605E+00
  0.449190568924E+01  0.351242027283E+02  0.747395038605E+00
  0.455865478516E+01  0.483679389954E+02 -0.377908974886E+00
  0.455865478516E+01  0.483679389954E+02  0.377908974886E+00
  0.459017467499E+01  0.487282104492E+02 -0.377908974886E+00
  0.459017467499E+01  0.487282104492E+02  0.377908974886E+00
  0.460377931595E+01  0.488837165833E+02 -0.377908974886E+00
  0.460377931595E+01  0.488837165833E+02  0.377908974886E+00
  0.460961675644E+01  0.489504356384E+02 -0.377908974886E+00
  0.460961675644E+01  0.489504356384E+02  0.377908974886E+00
  0.461211490631E+01  0.489789886475E+02 -0.377908974886E+00
  0.461211490631E+01  0.489789886475E+02  0.377908974886E+00
  0.461318302155E+01  0.489911956787E+02 -0.377908974886E+00
  0.461318302155E+01  0.489911956787E+02  0.377908974886E+00
  0.461363935471E+01  0.489964141846E+02 -0.377908974886E+00
  0.461363935471E+01  0.489964141846E+02  0.377908974886E+00
  0.461383390427E+01  0.489986419678E+02 -0.377908974886E+00
  0.461383390427E+01  0.489986419678E+02  0.377908974886E+00
  0.461391735077E+01  0.489995918274E+02 -0.377908974886E+00
  0.461391735077E+01  0.489995918274E+02  0.377908974886E+00
  0.461395311356E+01  0.490000000000E+02 -0.377908974886E+00
  0.461395311356E+01  0.490000000000E+02  0.377908974886E+00
  0.463724279404E+01  0.492662048340E+02 -0.267221987247E+00
  0.463724279404E+01  0.492662048340E+02  0.267221987247E+00
  0.464688968658E+01  0.493764724731E+02 -0.118643873158E-14
  0.508010339737E+01  0.151882019043E+02 -0.109082520008E+01
  0.508010339737E+01  0.151882019043E+02  0.109082520008E+01
  0.508878898621E+01  0.419466094971E+02 -0.747395038605E+00
  0.508878898621E+01  0.419466094971E+02  0.747395038605E+00
  0.541901540756E+01  0.457211151123E+02 -0.747395038605E+00
  0.541901540756E+01  0.457211151123E+02  0.747395038605E+00
  0.557855606079E+01  0.475446701050E+02 -0.747395038605E+00
  0.557855606079E+01  0.475446701050E+02  0.747395038605E+00
  0.565058279037E+01  0.483679389954E+02 -0.747395038605E+00
  0.565058279037E+01  0.483679389954E+02  0.747395038605E+00
  0.568210268021E+01  0.487282104492E+02 -0.747395038605E+00
  0.568210268021E+01  0.487282104492E+02  0.747395038605E+00
  0.569570732117E+01  0.488837165833E+02 -0.747395038605E+00
  0.569570732117E+01  0.488837165833E+02  0.747395038605E+00
  0.570154476166E+01  0.489504356384E+02 -0.747395038605E+00
  0.570154476166E+01  0.489504356384E+02  0.747395038605E+00
  0.570404291153E+01  0.489789886475E+02 -0.747395038605E+00
  0.570404291153E+01  0.489789886475E+02  0.747395038605E+00
  0.570511054993E+01  0.489911956787E+02 -0.747395038605E+00
  0.570511054993E+01  0.489911956787E+02  0.747395038605E+00
  0.570556688309E+01  0.489964141846E+02 -0.747395038605E+00
  0.570556688309E+01  0.489964141846E+02  0.747395038605E+00
  0.570576190948E+01  0.489986419678E+02 -0.747395038605E+00
  0.570576190948E+01  0.489986419678E+02  0.747395038605E+00
  0.570584535599E+01  0.489995918274E+02 -0.747395038605E+00
  0.570584535599E+01  0.489995918274E+02  0.747395038605E+00
  0.570588064194E+01  0.490000000000E+02 -0.747395038605E+00
  0.570588064194E+01  0.490000000000E+02  0.747395038605E+00
  0.575194168091E+01  0.495264778137E+02 -0.528488099575E+00
  0.575194168091E+01  0.495264778137E+02  0.528488099575E+00
  0.577102041245E+01  0.497445526123E+02 -0.643262760529E-15
  0.596963930130E+01  0.253556423187E+02 -0.109082520008E+01
  0.596963930130E+01  0.253556423187E+02  0.109082520008E+01
  0.682427740097E+01  0.351242027283E+02 -0.109082520008E+01
  0.682427740097E+01  0.351242027283E+02  0.109082520008E+01
  0.742116069794E+01  0.419466094971E+02 -0.109082520008E+01
  0.742116069794E+01  0.419466094971E+02  0.109082520008E+01
  0.764637804031E+01  0.000000000000E+00 -0.116701817513E+01
  0.764637804031E+01  0.000000000000E+00  0.116701817513E+01
  0.773350334167E+01  0.995846629143E+00 -0.116701817513E+01
  0.773350334167E+01  0.995846629143E+00  0.116701817513E+01
  0.775138711929E+01  0.457211151123E+02 -0.109082520008E+01
  0.775138711929E+01  0.457211151123E+02  0.109082520008E+01
  0.791092777252E+01  0.475446701050E+02 -0.109082520008E+01
  0.791092777252E+01  0.475446701050E+02  0.109082520008E+01
  0.792425298691E+01  0.317612481117E+01 -0.116701817513E+01
  0.792425298691E+01  0.317612481117E+01  0.116701817513E+01
  0.798295450211E+01  0.483679389954E+02 -0.109082520008E+01
  0.798295450211E+01  0.483679389954E+02  0.109082520008E+01
  0.801447391510E+01  0.487282104492E+02 -0.109082520008E+01
  0.801447391510E+01  0.487282104492E+02  0.109082520008E+01
  0.802807903290E+01  0.488837165833E+02 -0.109082520008E+01
  0.802807903290E+01  0.488837165833E+02  0.109082520008E+01
  0.803391647339E+01  0.489504356384E+02 -0.109082520008E+01
  0.803391647339E+01  0.489504356384E+02  0.109082520008E+01
  0.803641414642E+01  0.489789886475E+02 -0.109082520008E+01
  0.803641414642E+01  0.489789886475E+02  0.109082520008E+01
  0.803748226166E+01  0.489911956787E+02 -0.109082520008E+01
  0.803748226166E+01  0.489911956787E+02  0.109082520008E+01
  0.803793907166E+01  0.489964141846E+02 -0.109082520008E+01
  0.803793907166E+01  0.489964141846E+02  0.109082520008E+01
  0.803813362122E+01  0.489986419678E+02 -0.109082520008E+01
  0.803813362122E+01  0.489986419678E+02  0.109082520008E+01
  0.803821659088E+01  0.489995918274E+02 -0.109082520008E+01
  0.803821659088E+01  0.489995918274E+02  0.109082520008E+01
  0.803825283051E+01  0.490000000000E+02 -0.109082520008E+01
  0.803825283051E+01  0.490000000000E+02  0.109082520008E+01
  0.810547828674E+01  0.497683944702E+02 -0.771329879761E+00
  0.810547828674E+01  0.497683944702E+02  0.771329879761E+00
  0.813332366943E+01  0.500866737366E+02 -0.190846224191E-15
  0.830956840515E+01  0.758029556274E+01 -0.116701817513E+01
  0.830956840515E+01  0.758029556274E+01  0.116701817513E+01
  0.897517395020E+01  0.151882019043E+02 -0.116701817513E+01
  0.897517395020E+01  0.151882019043E+02  0.116701817513E+01
  0.986470890045E+01  0.253556423187E+02 -0.116701817513E+01
  0.986470890045E+01  0.253556423187E+02  0.116701817513E+01
[...]
CELL_DATA                1336
SCALARS C_p_inc float 1
LOOKUP_TABLE default
  0.500941857789E+00
  0.490364381221E+00
  0.437274823547E+00
  0.430340867406E+00
  0.393844547339E+00
  0.388708974624E+00
  0.352440086585E+00
  0.348403158526E+00
  0.310666337261E+00
  0.307281744322E+00
  0.267792969584E+00
  0.264765620249E+00
  0.223773072470E+00
  0.220906883925E+00
  0.178754784597E+00
  0.176144197765E+00
  0.132848202798E+00
  0.130855066766E+00
  0.834126606885E-01
  0.819459769879E-01
  0.187262323828E-01
  0.170850030465E-01
 -0.553723754969E-01
 -0.568398787465E-01
 -0.457538707850E-01
 -0.482958662480E-01
  0.134436598666E+00
  0.124949895093E+00
  0.511540856152E+00
  0.495272167776E+00
  0.991566335788E+00
  0.989539643660E+00
 -0.959103948027E+00
 -0.800509104522E+00
 -0.119013185478E+01
 -0.115026955779E+01
 -0.874301463064E+00
 -0.871577090371E+00
 -0.647227602893E+00
 -0.650458059314E+00
 -0.398930197793E+00
 -0.393688591347E+00
 -0.173033809614E+00
 -0.168857030198E+00
 -0.280581908114E-01
 -0.242085447894E-01
  0.653549928521E-01
  0.701213391534E-01
  0.136993249421E+00
  0.142776117288E+00
  0.197742226185E+00
  0.203937533895E+00
  0.251431851276E+00
  0.257676118686E+00
  0.300193782337E+00
  0.306352926603E+00
  0.345575815626E+00
  0.351523101256E+00
  0.389257419022E+00
  0.394809899406E+00
  0.434472642692E+00
  0.439083513716E+00
  0.500645695953E+00
  0.502527984936E+00
  0.497551331404E+00
  0.500684105122E+00
  0.435621752466E+00
  0.437061355161E+00
  0.392233647389E+00
  0.393659980863E+00
  0.350882443254E+00
  0.352282296366E+00
  0.309127223967E+00
  0.310534985014E+00
  0.266296853072E+00
  0.267688367860E+00
  0.222422906161E+00
  0.223695641719E+00
  0.177873171808E+00
  0.178703996903E+00
  0.132891179619E+00
  0.132819875718E+00
  0.842784700292E-01
  0.833995231528E-01
  0.199328036426E-01
  0.187247650348E-01
 -0.550660928087E-01
 -0.553716880568E-01
 -0.482881792267E-01
 -0.522543272060E-01
  0.124977190770E+00
  0.117866483613E+00
  0.494799619895E+00
  0.494529729101E+00
  0.987227843153E+00
  0.984333749512E+00
 -0.102581932050E+01
 -0.958975647246E+00
 -0.123012842967E+01
 -0.119004818407E+01
 -0.885635650714E+00
 -0.874554313759E+00
 -0.645386722138E+00
 -0.647400292069E+00
 -0.393669800772E+00
 -0.387397239174E+00
 -0.168840184091E+00
 -0.162428216264E+00
 -0.242032402521E-01
 -0.180843269621E-01
  0.701201547336E-01
  0.756058971392E-01
  0.142766400719E+00
  0.147253520167E+00
  0.203916127811E+00
  0.207767025425E+00
  0.257641956453E+00
  0.261185656869E+00
  0.306306167150E+00
  0.309676844891E+00
  0.351464141919E+00
  0.354730203922E+00
  0.394738872166E+00
  0.397935347139E+00
  0.438999742126E+00
  0.442286674346E+00
  0.502425092519E+00
  0.504533351080E+00
  0.493083450536E+00
  0.497303195629E+00
  0.433124554684E+00
  0.435407296824E+00
  0.389562843451E+00
  0.392041733803E+00
  0.348122783557E+00
  0.350711337687E+00
  0.306285472579E+00
  0.308976619559E+00
  0.263391775334E+00
  0.266166973497E+00
  0.219492729565E+00
  0.222314327281E+00
  0.175012778466E+00
  0.177786917173E+00
  0.130342258671E+00
  0.132828764249E+00
  0.824442262779E-01
  0.842414135227E-01
  0.187672914374E-01
  0.199212539556E-01
 -0.569329558789E-01
 -0.550642079327E-01
 -0.522314218503E-01
 -0.563630550744E-01
  0.117835514173E+00
  0.114473514890E+00
  0.494270692772E+00
  0.495893376065E+00
  0.983885143359E+00
  0.982270153204E+00
 -0.105912267640E+01
 -0.102586200062E+01
 -0.125219917650E+01
 -0.123004957383E+01
 -0.894914768939E+00
 -0.885839872504E+00
 -0.644149686479E+00
 -0.645676134380E+00
 -0.387435558292E+00
 -0.380197929510E+00
 -0.162428279250E+00
 -0.153923933614E+00
 -0.180860635880E-01
 -0.101872151862E-01
  0.756054692987E-01
  0.825398778654E-01
  0.147259502086E+00
  0.153469557648E+00
  0.207781260478E+00
  0.213498474595E+00
  0.261208140788E+00
  0.266551188782E+00
  0.309707150717E+00
  0.314732425494E+00
  0.354767971641E+00
  0.359504985375E+00
  0.397980465983E+00
  0.402451596026E+00
  0.442339583130E+00
  0.446674866137E+00
  0.504597728651E+00
  0.506699722270E+00
  0.486680248462E+00
  0.492722091035E+00
  0.428111371158E+00
  0.432803442113E+00
  0.384281520048E+00
  0.389269715489E+00
  0.342626440446E+00
  0.347855470473E+00
  0.300562158996E+00
  0.306043661259E+00
  0.257437044729E+00
  0.263175917221E+00
  0.213301346445E+00
  0.219303994921E+00
  0.168590746191E+00
  0.174853599997E+00
  0.123752384998E+00
  0.130217227615E+00
  0.758719286866E-01
  0.823604993625E-01
  0.124070279647E-01
  0.187301507347E-01
 -0.632517609238E-01
 -0.569364899734E-01
 -0.563567810432E-01
 -0.632750106435E-01
  0.114422932356E+00
  0.107398273705E+00
  0.495752152830E+00
  0.489427535485E+00
  0.982096924151E+00
  0.983448219380E+00
 -0.104394040454E+01
 -0.105912427528E+01
 -0.124388144412E+01
 -0.125231550125E+01
 -0.888441237829E+00
 -0.895178131576E+00
 -0.636032586506E+00
 -0.644516985543E+00
 -0.380323779210E+00
 -0.369739394939E+00
 -0.153990975580E+00
 -0.142648907617E+00
 -0.102380427304E-01
  0.526778846112E-03
  0.825069373281E-01
  0.924382530284E-01
  0.153461426734E+00
  0.162628363288E+00
  0.213517639247E+00
  0.222026626331E+00
  0.266597377189E+00
  0.274534770699E+00
  0.314804657996E+00
  0.322229944201E+00
  0.359602437881E+00
  0.366558038342E+00
  0.402574130648E+00
  0.409100211689E+00
  0.446824204712E+00
  0.453075002596E+00
  0.506887231754E+00
  0.511110881158E+00
  0.477507091975E+00
  0.486009371077E+00
  0.418540847921E+00
  0.427500550628E+00
  0.374313994420E+00
  0.383713764487E+00
  0.332205332584E+00
  0.342098438052E+00
  0.289658099244E+00
  0.300073590921E+00
  0.246018443738E+00
  0.256988990346E+00
  0.201320207089E+00
  0.212896579243E+00
  0.155993722354E+00
  0.168235387114E+00
  0.110530458845E+00
  0.123458798775E+00
  0.621143184207E-01
  0.756603824711E-01
 -0.177679543535E-02
  0.122935745701E-01
 -0.778893950542E-01
 -0.632880171249E-01
 -0.633200351631E-01
 -0.800786262400E-01
  0.107301418648E+00
  0.865292626687E-01
  0.489229839938E+00
  0.464501906213E+00
  0.983128347753E+00
  0.988424594735E+00
 -0.951756104352E+00
 -0.104392591893E+01
 -0.118876956139E+01
 -0.124412722874E+01
 -0.854450628254E+00
 -0.888836889569E+00
 -0.610233039116E+00
 -0.636565873461E+00
 -0.369938091572E+00
 -0.347823490688E+00
 -0.142857603581E+00
 -0.122917892234E+00
  0.309558129107E-03
  0.183530300212E-01
  0.922382480011E-01
  0.108712581355E+00
  0.162467938423E+00
  0.177598450328E+00
  0.221915262383E+00
  0.235891496468E+00
  0.274474190634E+00
  0.287453476059E+00
  0.322219250668E+00
  0.334314448180E+00
  0.366596065075E+00
  0.377883283434E+00
  0.409186895776E+00
  0.419726368080E+00
  0.453213973788E+00
  0.463080650465E+00
  0.511322240212E+00
  0.520224638846E+00
  0.463460388044E+00
  0.476107894170E+00
  0.402387028643E+00
  0.417239675822E+00
  0.357510183804E+00
  0.373083353920E+00
  0.314662615098E+00
  0.331040156536E+00
  0.271355471839E+00
  0.288558444089E+00
  0.226915216639E+00
  0.244987428616E+00
  0.181392912543E+00
  0.200365588742E+00
  0.135266588961E+00
  0.155132741836E+00
  0.891807473071E-01
  0.109797513806E+00
  0.404841339123E-01
  0.615631328446E-01
 -0.235784894074E-01
 -0.210498641194E-02
 -0.100783033262E+00
 -0.780323939566E-01
 -0.802942313443E-01
 -0.108341147166E+00
  0.862863029057E-01
  0.488469542849E-01
  0.464087661069E+00
  0.417149377302E+00
  0.987624840118E+00
  0.992127782109E+00
 -0.781283979540E+00
 -0.951729926195E+00
 -0.108367615054E+01
 -0.118912272688E+01
 -0.788510594246E+00
 -0.855085971462E+00
 -0.559911795105E+00
 -0.611219070795E+00
 -0.348146924199E+00
 -0.307499248976E+00
 -0.123486949758E+00
 -0.899874575705E-01
  0.176060178436E-01
  0.463990908038E-01
  0.107905968996E+00
  0.133852078084E+00
  0.176820111622E+00
  0.200698113709E+00
  0.235183068670E+00
  0.257350510760E+00
  0.286829040068E+00
  0.307523855898E+00
  0.333776930863E+00
  0.353167040853E+00
  0.377432404122E+00
  0.395604549593E+00
  0.419362778669E+00
  0.436371473212E+00
  0.462811397641E+00
  0.478638648518E+00
  0.520086053075E+00
  0.536162468386E+00
  0.440957827862E+00
  0.460541378165E+00
  0.376642916208E+00
  0.399623999779E+00
  0.330682164857E+00
  0.354857604122E+00
  0.286699630394E+00
  0.312113990165E+00
  0.242377239904E+00
  0.268913527690E+00
  0.197047209878E+00
  0.224591051027E+00
  0.150889052703E+00
  0.179212655499E+00
  0.104739135405E+00
  0.133285634799E+00
  0.598231009701E-01
  0.874975089258E-01
  0.140353794123E-01
  0.392139420351E-01
 -0.457409081008E-01
 -0.244167092051E-01
 -0.120980420113E+00
 -0.101296954208E+00
 -0.109130391207E+00
 -0.136750006517E+00
  0.481099378074E-01
  0.345104024083E-02
  0.416156346511E+00
  0.355718317269E+00
  0.990192827736E+00
  0.986306240618E+00
 -0.580349582369E+00
 -0.781265821029E+00
 -0.953716965067E+00
 -0.108405875731E+01
 -0.701036772314E+00
 -0.789515722370E+00
 -0.487846750677E+00
 -0.562016587496E+00
 -0.308098395251E+00
 -0.252171505989E+00
 -0.916618482598E-01
 -0.504148501254E-01
  0.439106389007E-01
  0.771835713671E-01
  0.130990551262E+00
  0.161180800657E+00
  0.197754122836E+00
  0.226431176743E+00
  0.254468518264E+00
  0.281819175713E+00
  0.304763393201E+00
  0.330779546917E+00
  0.350548660157E+00
  0.375242450455E+00
  0.393134094437E+00
  0.416526034211E+00
  0.434052701797E+00
  0.456122815434E+00
  0.476485066581E+00
  0.496947831418E+00
  0.534246068678E+00
  0.555115646175E+00
  0.403334720011E+00
  0.434939176855E+00
  0.334452659823E+00
  0.370865853104E+00
  0.286469576905E+00
  0.325074103508E+00
  0.240943453362E+00
  0.281256779733E+00
  0.195434310254E+00
  0.237116479938E+00
  0.149491790843E+00
  0.192015327610E+00
  0.103857215850E+00
  0.146190301540E+00
  0.603545477631E-01
  0.100574681635E+00
  0.213008624874E-01
  0.564816240197E-01
 -0.147886283929E-01
  0.116697108408E-01
 -0.626316019183E-01
 -0.474885716436E-01
 -0.129305332822E+00
 -0.122639876605E+00
 -0.139133033319E+00
 -0.150495243054E+00
  0.912116775281E-03
 -0.353542885012E-01
  0.352914194313E+00
  0.290788641588E+00
  0.981673934589E+00
  0.968541657326E+00
 -0.402544386075E+00
 -0.580529674617E+00
 -0.830831085853E+00
 -0.953960059113E+00
 -0.606816568604E+00
 -0.702644830838E+00
 -0.407952636641E+00
 -0.492797071285E+00
 -0.253262235858E+00
 -0.199679373468E+00
 -0.551403524821E-01
 -0.206406440284E-01
  0.698347545326E-01
  0.959709687743E-01
  0.152644575524E+00
  0.177946409165E+00
  0.217442484904E+00
  0.244382064655E+00
  0.272746885202E+00
  0.300729305574E+00
  0.321811417908E+00
  0.349771005778E+00
  0.366461774994E+00
  0.393735766373E+00
  0.407965304330E+00
  0.434206988207E+00
  0.447797616005E+00
  0.472727947765E+00
  0.488882271261E+00
  0.512151503293E+00
  0.547444075776E+00
  0.569761830779E+00
  0.338616639474E+00
  0.390280830875E+00
  0.264417033957E+00
  0.321790886570E+00
  0.213972049730E+00
  0.274088476403E+00
  0.166813970537E+00
  0.228861035560E+00
  0.120657408440E+00
  0.183735826062E+00
  0.758495024037E-01
  0.138380907264E+00
  0.346320624120E-01
  0.937475978376E-01
  0.406386931910E-03
  0.519148849863E-01
 -0.241232588307E-01
  0.151612012153E-01
 -0.433746025670E-01
 -0.188261475770E-01
 -0.769657930871E-01
 -0.658886695213E-01
 -0.132395065721E+00
 -0.133457757145E+00
 -0.155550366671E+00
 -0.152225211322E+00
 -0.426849061850E-01
 -0.569903576663E-01
  0.282447705690E+00
  0.231271093150E+00
  0.957745675687E+00
  0.940832057493E+00
 -0.270940876906E+00
 -0.403579923619E+00
 -0.725528955488E+00
 -0.830954088771E+00
 -0.518926507675E+00
 -0.609877387172E+00
 -0.343299871913E+00
 -0.419333210946E+00
 -0.200786679908E+00
 -0.169273882669E+00
 -0.310174288301E-01
 -0.118479840634E-01
  0.784943952088E-01
  0.938239671181E-01
  0.157379087136E+00
  0.175078830499E+00
  0.222335762077E+00
  0.246508237265E+00
  0.277913739513E+00
  0.308064507908E+00
  0.326706639820E+00
  0.360067194133E+00
  0.370745359379E+00
  0.405012084654E+00
  0.411448419528E+00
  0.445321416854E+00
  0.450273419140E+00
  0.483037666323E+00
  0.490055403210E+00
  0.521065020532E+00
  0.548241090281E+00
  0.577043936371E+00
  0.231561482509E+00
  0.308970109246E+00
  0.149817022965E+00
  0.235438384416E+00
  0.962526446386E-01
  0.185521856411E+00
  0.480138985275E-01
  0.139035884597E+00
  0.374096120312E-02
  0.939471816357E-01
 -0.340426499002E-01
  0.510403820402E-01
 -0.606642813384E-01
  0.131302276016E-01
 -0.727153481489E-01
 -0.162297503654E-01
 -0.727069466772E-01
 -0.354912219652E-01
 -0.740076154859E-01
 -0.504545452360E-01
 -0.945047953218E-01
 -0.821691679144E-01
 -0.137953000591E+00
 -0.139930724906E+00
 -0.158799894519E+00
 -0.155351699400E+00
 -0.706874470784E-01
 -0.692494796314E-01
  0.210824257210E+00
  0.186284564655E+00
  0.916799604917E+00
  0.905247986559E+00
 -0.184368760865E+00
 -0.273880377617E+00
 -0.637078114375E+00
 -0.725447389369E+00
 -0.454387375776E+00
 -0.524815006265E+00
 -0.304345374873E+00
 -0.365276239601E+00
 -0.166885026382E+00
 -0.166047516254E+00
 -0.272006247598E-01
 -0.290648098811E-01
  0.611305544472E-01
  0.649728760115E-01
  0.133348721774E+00
  0.143006764495E+00
  0.200393912151E+00
  0.220571959080E+00
  0.258689310001E+00
  0.292111237362E+00
  0.308618034183E+00
  0.352076698298E+00
  0.352663378293E+00
  0.401038591032E+00
  0.392817931590E+00
  0.442347582385E+00
  0.430752005801E+00
  0.479291797013E+00
  0.469190936132E+00
  0.515228813445E+00
  0.525941926307E+00
  0.567266838889E+00
  0.518165268663E-01
  0.162956379038E+00
 -0.440681728831E-01
  0.824652004737E-01
 -0.102085926497E+00
  0.301506401069E-01
 -0.148306225427E+00
 -0.160693627442E-01
 -0.181577426945E+00
 -0.566218719505E-01
 -0.195888917029E+00
 -0.877673095563E-01
 -0.187325289155E+00
 -0.104368506041E+00
 -0.161208030071E+00
 -0.104884676275E+00
 -0.133547950975E+00
 -0.933486755514E-01
 -0.115075069784E+00
 -0.838282140037E-01
 -0.117389711930E+00
 -0.996261992641E-01
 -0.147026129385E+00
 -0.148159282798E+00
 -0.159917980742E+00
 -0.164710470210E+00
 -0.842978250324E-01
 -0.867961479153E-01
  0.151445735958E+00
  0.149765198648E+00
  0.857683719804E+00
  0.863235937793E+00
 -0.135870930872E+00
 -0.188694482437E+00
 -0.574637225390E+00
 -0.634841553835E+00
 -0.416499222068E+00
 -0.464029641512E+00
 -0.285454891701E+00
 -0.339539404257E+00
 -0.153159051003E+00
 -0.184818399382E+00
 -0.409784773642E-01
 -0.736874351050E-01
  0.193045163640E-01
 -0.581981057544E-03
  0.706894637101E-01
  0.658147727183E-01
  0.133520971976E+00
  0.141912564862E+00
  0.195002464067E+00
  0.223587043722E+00
  0.246218710536E+00
  0.296808322484E+00
  0.289584476634E+00
  0.355317260162E+00
  0.328271648113E+00
  0.400596482670E+00
  0.364399419147E+00
  0.437071713393E+00
  0.400427990476E+00
  0.469006642106E+00
  0.453332160072E+00
  0.511278455187E+00
 -0.388248399706E+00
 -0.109118914344E+00
 -0.447088347355E+00
 -0.201687949366E+00
 -0.479506448798E+00
 -0.255269517593E+00
 -0.494947727307E+00
 -0.293540241927E+00
 -0.482428333269E+00
 -0.312812758228E+00
 -0.435549876522E+00
 -0.306110645835E+00
 -0.363499029395E+00
 -0.272945677624E+00
 -0.290887152373E+00
 -0.219967006607E+00
 -0.226357448653E+00
 -0.161916125637E+00
 -0.170660478905E+00
 -0.120024753728E+00
 -0.144063286308E+00
 -0.117717299965E+00
 -0.158479094800E+00
 -0.158631899377E+00
 -0.164475593549E+00
 -0.179219193920E+00
 -0.953353709490E-01
 -0.112417144225E+00
  0.109277268210E+00
  0.107228329610E+00
  0.786011624140E+00
  0.815623721934E+00
 -0.121360615454E+00
 -0.135978285489E+00
 -0.541520930552E+00
 -0.566013753075E+00
 -0.396640131583E+00
 -0.430713529923E+00
 -0.278639355507E+00
 -0.335447692127E+00
 -0.154646681317E+00
 -0.218061488172E+00
 -0.681889284347E-01
 -0.140748109431E+00
 -0.412354818936E-01
 -0.109260892896E+00
 -0.324395703201E-01
 -0.813816406540E-01
 -0.551400807638E-02
 -0.278175831957E-01
  0.453531439329E-01
  0.472051372376E-01
  0.930764699491E-01
  0.129597127358E+00
  0.129075111874E+00
  0.202078549640E+00
  0.159962570802E+00
  0.259227114678E+00
  0.189198622412E+00
  0.304295548847E+00
  0.218158807873E+00
  0.344799293870E+00
  0.259980909568E+00
  0.401019261518E+00
 -0.118385447158E+01
 -0.752289056608E+00
 -0.117120975657E+01
 -0.802575430493E+00
 -0.114224944516E+01
 -0.819358193118E+00
 -0.107763478121E+01
 -0.806447947637E+00
 -0.961367062192E+00
 -0.750626654022E+00
 -0.806565844356E+00
 -0.652062599786E+00
 -0.652346222219E+00
 -0.520314677579E+00
 -0.507655954470E+00
 -0.372656862293E+00
 -0.361221016868E+00
 -0.241660975058E+00
 -0.237669745501E+00
 -0.157137327188E+00
 -0.173237258348E+00
 -0.135281760721E+00
 -0.171622130681E+00
 -0.170737224935E+00
 -0.172908220856E+00
 -0.197508772692E+00
 -0.110089518669E+00
 -0.144307237889E+00
  0.737575241070E-01
  0.554359622171E-01
  0.711320211347E+00
  0.761350933125E+00
 -0.136265101706E+00
 -0.107366200312E+00
 -0.530236779299E+00
 -0.522390932735E+00
 -0.386747432504E+00
 -0.416367710360E+00
 -0.278533663004E+00
 -0.344968890625E+00
 -0.166437902846E+00
 -0.260865948211E+00
 -0.106189279214E+00
 -0.223605642145E+00
 -0.116926948621E+00
 -0.254400399985E+00
 -0.167908937825E+00
 -0.314094788438E+00
 -0.228130575555E+00
 -0.344311569824E+00
 -0.254119948782E+00
 -0.321103858507E+00
 -0.240120268611E+00
 -0.265794934292E+00
 -0.228848041899E+00
 -0.199603800785E+00
 -0.223900223976E+00
 -0.140104318596E+00
 -0.210993978739E+00
 -0.910683790806E-01
 -0.186230416109E+00
 -0.472611738160E-01
 -0.135224373677E+00
  0.102371750758E-01
 -0.278040301771E+01
 -0.199731851061E+01
 -0.249414109723E+01
 -0.195417967508E+01
 -0.230518474241E+01
 -0.187000249115E+01
 -0.207000701106E+01
 -0.171749619904E+01
 -0.176928516444E+01
 -0.149205069572E+01
 -0.146242611289E+01
 -0.120647863700E+01
 -0.116336253397E+01
 -0.875589817267E+00
 -0.837945744130E+00
 -0.560449600705E+00
 -0.530497543359E+00
 -0.327874694367E+00
 -0.312988062601E+00
 -0.194083520101E+00
 -0.204886935996E+00
 -0.152626102856E+00
 -0.186385167161E+00
 -0.184307711164E+00
 -0.184469564379E+00
 -0.218997272716E+00
 -0.129470981366E+00
 -0.181548340911E+00
  0.361678586606E-01
 -0.441064643769E-02
  0.635912974678E+00
  0.697776507344E+00
 -0.175497495031E+00
 -0.976341397012E-01
 -0.532650807916E+00
 -0.497942741937E+00
 -0.381943431305E+00
 -0.412949654277E+00
 -0.282225617361E+00
 -0.363021511743E+00
 -0.185230347295E+00
 -0.311313778387E+00
 -0.153400290710E+00
 -0.319186261554E+00
 -0.206999334175E+00
 -0.426658303591E+00
 -0.330101504764E+00
 -0.620010659157E+00
 -0.519249285464E+00
 -0.844606734960E+00
 -0.737365204886E+00
 -0.100727762150E+01
 -0.896895241376E+00
 -0.107352814555E+01
 -0.984429394581E+00
 -0.109256051384E+01
 -0.106675716609E+01
 -0.109025743721E+01
 -0.113116880944E+01
 -0.107811960852E+01
 -0.115330133850E+01
 -0.105689339860E+01
 -0.112672861391E+01
 -0.102886568926E+01
 -0.293693150674E+01
 -0.442184567365E+01
 -0.418151308074E+01
 -0.416123818744E+01
 -0.433500090747E+01
 -0.383358550513E+01
 -0.388743869223E+01
 -0.335872122676E+01
 -0.328442236095E+01
 -0.276439258170E+01
 -0.267140086676E+01
 -0.204921931599E+01
 -0.197060341789E+01
 -0.133010802119E+01
 -0.126507526253E+01
 -0.771828657233E+00
 -0.725652879013E+00
 -0.418644516834E+00
 -0.396497620406E+00
 -0.232044116792E+00
 -0.239799535751E+00
 -0.170613054108E+00
 -0.202961786756E+00
 -0.199472985164E+00
 -0.198599967024E+00
 -0.243621225690E+00
 -0.153111360586E+00
 -0.224171598828E+00
 -0.665323761258E-02
 -0.725370480041E-01
  0.556714534701E+00
  0.622605997351E+00
 -0.235043860747E+00
 -0.101883832771E+00
 -0.543610036771E+00
 -0.485124253325E+00
 -0.379645734814E+00
 -0.415608889612E+00
 -0.288278266121E+00
 -0.387003589242E+00
 -0.209245794150E+00
 -0.369120197077E+00
 -0.209078353578E+00
 -0.427665833838E+00
 -0.311829799809E+00
 -0.623308798816E+00
 -0.519136212026E+00
 -0.982483670307E+00
 -0.866639138825E+00
 -0.150635551907E+01
 -0.137657105289E+01
 -0.210679199190E+01