# vtk DataFile Version 3.0
PyPan mesh file. Generated by PyPan, USU AeroLab (c) 2020.
ASCII
DATASET POLYDATA
POINTS 135 float
0.0                 0.0                 0.0                 
0.750993072987      0.0                 -0.543790996075     
0.750993072987      0.0                 0.543790996075      
1.9237537384        1.9237537384        0.0                 
2.67474675179       1.9237537384        -0.543790996075     
2.67474675179       1.9237537384        0.543790996075      
3.59246444702       0.0                 -1.03884494305      
3.59246444702       0.0                 1.03884494305       
5.47033166885       5.47033166885       0.0                 
5.51621818542       1.9237537384        -1.03884494305      
5.51621818542       1.9237537384        1.03884494305       
6.22132492065       5.47033166885       -0.543790996075     
6.22132492065       5.47033166885       0.543790996075      
9.06279659271       5.47033166885       -1.03884494305      
9.06279659271       5.47033166885       1.03884494305       
9.39523696899       0.0                 -0.980761349201     
9.39523696899       0.0                 0.980761349201      
11.3189907074       1.9237537384        -0.980761349201     
11.3189907074       1.9237537384        0.980761349201      
11.3820018768       11.3820018768       0.0                 
12.1329956055       11.3820018768       -0.543790996075     
12.1329956055       11.3820018768       0.543790996075      
14.865568161        5.47033166885       -0.980761349201     
14.865568161        5.47033166885       0.980761349201      
14.9744663239       11.3820018768       -1.03884494305      
14.9744663239       11.3820018768       1.03884494305       
15.1765298843       0.0                 -0.411069482565     
15.1765298843       0.0                 0.411069482565      
17.1002845764       1.9237537384        -0.411069482565     
17.1002845764       1.9237537384        0.411069482565      
18.049325943        0.0                 -0.101516798139     
18.049325943        0.0                 0.101516798139      
19.0003013611       0.0                 0.0                 
19.7561950684       19.7561950684       0.0                 
19.9730796814       1.9237537384        -0.101516798139     
19.9730796814       1.9237537384        0.101516798139      
20.5071868896       19.7561950684       -0.543790996075     
20.5071868896       19.7561950684       0.543790996075      
20.64686203         5.47033166885       -0.411069482565     
20.64686203         5.47033166885       0.411069482565      
20.7772388458       11.3820018768       -0.980761349201     
20.7772388458       11.3820018768       0.980761349201      
20.9240550995       1.9237537384        0.0                 
23.3486595154       19.7561950684       -1.03884494305      
23.3486595154       19.7561950684       1.03884494305       
23.5196590424       5.47033166885       -0.101516798139     
23.5196590424       5.47033166885       0.101516798139      
24.4706325531       5.47033166885       0.0                 
26.5585327148       11.3820018768       -0.411069482565     
26.5585327148       11.3820018768       0.411069482565      
29.1514320374       19.7561950684       -0.980761349201     
29.1514320374       19.7561950684       0.980761349201      
29.2438049316       29.2438049316       0.0                 
29.4313278198       11.3820018768       -0.101516798139     
29.4313278198       11.3820018768       0.101516798139      
29.9947986603       29.2438049316       -0.543790996075     
29.9947986603       29.2438049316       0.543790996075      
30.3823032379       11.3820018768       0.0                 
32.8362693787       29.2438049316       -1.03884494305      
32.8362693787       29.2438049316       1.03884494305       
34.932723999        19.7561950684       -0.411069482565     
34.932723999        19.7561950684       0.411069482565      
37.6179962158       37.6179962158       0.0                 
37.805519104        19.7561950684       -0.101516798139     
37.805519104        19.7561950684       0.101516798139      
38.3689918518       37.6179962158       -0.543790996075     
38.3689918518       37.6179962158       0.543790996075      
38.6390419006       29.2438049316       -0.980761349201     
38.6390419006       29.2438049316       0.980761349201      
38.7564964294       19.7561950684       0.0                 
41.2104606628       37.6179962158       -1.03884494305      
41.2104606628       37.6179962158       1.03884494305       
43.5296669006       43.5296669006       0.0                 
44.2806625366       43.5296669006       -0.543790996075     
44.2806625366       43.5296669006       0.543790996075      
44.4203338623       29.2438049316       -0.411069482565     
44.4203338623       29.2438049316       0.411069482565      
47.0132331848       37.6179962158       -0.980761349201     
47.0132331848       37.6179962158       0.980761349201      
47.0762481689       47.0762481689       0.0                 
47.1221313477       43.5296669006       -1.03884494305      
47.1221313477       43.5296669006       1.03884494305       
47.293132782        29.2438049316       -0.101516798139     
47.293132782        29.2438049316       0.101516798139      
47.8272399902       47.0762481689       -0.543790996075     
47.8272399902       47.0762481689       0.543790996075      
48.2441062927       29.2438049316       0.0                 
49.0                49.0                0.0                 
49.7509918213       49.0                -0.543790996075     
49.7509918213       49.0                0.543790996075      
50.1355133057       49.3845176697       -0.384518325329     
50.1355133057       49.3845176697       0.384518325329      
50.2947845459       49.5437927246       -9.3868042984e-16   
50.6687088013       47.0762481689       -1.03884494305      
50.6687088013       47.0762481689       1.03884494305       
52.592464447        49.0                -1.03884494305      
52.592464447        49.0                1.03884494305       
52.7945289612       37.6179962158       -0.411069482565     
52.7945289612       37.6179962158       0.411069482565      
52.9249038696       43.5296669006       -0.980761349201     
52.9249038696       43.5296669006       0.980761349201      
53.3270378113       49.7345733643       -0.734574317932     
53.3270378113       49.7345733643       0.734574317932      
53.6313095093       50.0388450623       -2.04183803501e-16  
55.6673240662       37.6179962158       -0.101516798139     
55.6673240662       37.6179962158       0.101516798139      
56.4714813232       47.0762481689       -0.980761349201     
56.4714813232       47.0762481689       0.980761349201      
56.6182975769       37.6179962158       0.0                 
58.395236969        49.0                -0.980761349201     
58.395236969        49.0                0.980761349201      
58.706199646        43.5296669006       -0.411069482565     
58.706199646        43.5296669006       0.411069482565      
59.0887413025       49.6935043335       -0.693503022194     
59.0887413025       49.6935043335       0.693503022194      
59.3759994507       49.9807624817       0.0                 
61.578994751        43.5296669006       -0.101516798139     
61.578994751        43.5296669006       0.101516798139      
62.2527770996       47.0762481689       -0.411069482565     
62.2527770996       47.0762481689       0.411069482565      
62.5299682617       43.5296669006       0.0                 
64.1765289307       49.0                -0.411069482565     
64.1765289307       49.0                0.411069482565      
64.4672012329       49.2906684875       -0.290670007467     
64.4672012329       49.2906684875       0.290670007467      
64.587600708        49.4110679626       4.00788329721e-16   
65.1255722046       47.0762481689       -0.101516798139     
65.1255722046       47.0762481689       0.101516798139      
66.0765457153       47.0762481689       0.0                 
67.0493240356       49.0                -0.101516798139     
67.0493240356       49.0                0.101516798139      
67.1211090088       49.0717849731       -0.0717832148075    
67.1211090088       49.0717849731       0.0717832148075     
67.1508407593       49.1015167236       -5.11051538462e-17  
68.0002975464       49.0                0.0                 
POLYGONS 256 1024
3 32 34 42
3 32 30 34
3 30 28 34
3 30 26 28
3 26 17 28
3 26 15 17
3 15 6 17
3 17 6 9
3 6 1 9
3 9 1 4
3 1 0 4
3 4 0 3
3 0 5 3
3 0 2 5
3 2 10 5
3 2 7 10
3 7 18 10
3 7 16 18
3 16 27 18
3 18 27 29
3 27 31 29
3 29 31 35
3 31 32 35
3 35 32 42
3 42 45 47
3 42 34 45
3 34 38 45
3 34 28 38
3 28 22 38
3 28 17 22
3 17 9 22
3 22 9 13
3 9 4 13
3 13 4 11
3 4 3 11
3 11 3 8
3 3 12 8
3 3 5 12
3 5 14 12
3 5 10 14
3 10 23 14
3 10 18 23
3 18 29 23
3 23 29 39
3 29 35 39
3 39 35 46
3 35 42 46
3 46 42 47
3 47 53 57
3 47 45 53
3 45 48 53
3 45 38 48
3 38 40 48
3 38 22 40
3 22 13 40
3 40 13 24
3 13 11 24
3 24 11 20
3 11 8 20
3 20 8 19
3 8 21 19
3 8 12 21
3 12 25 21
3 12 14 25
3 14 41 25
3 14 23 41
3 23 39 41
3 41 39 49
3 39 46 49
3 49 46 54
3 46 47 54
3 54 47 57
3 57 63 69
3 57 53 63
3 53 60 63
3 53 48 60
3 48 50 60
3 48 40 50
3 40 24 50
3 50 24 43
3 24 20 43
3 43 20 36
3 20 19 36
3 36 19 33
3 19 37 33
3 19 21 37
3 21 44 37
3 21 25 44
3 25 51 44
3 25 41 51
3 41 49 51
3 51 49 61
3 49 54 61
3 61 54 64
3 54 57 64
3 64 57 69
3 69 82 86
3 69 63 82
3 63 75 82
3 63 60 75
3 60 67 75
3 60 50 67
3 50 43 67
3 67 43 58
3 43 36 58
3 58 36 55
3 36 33 55
3 55 33 52
3 33 56 52
3 33 37 56
3 37 59 56
3 37 44 59
3 44 68 59
3 44 51 68
3 51 61 68
3 68 61 76
3 61 64 76
3 76 64 83
3 64 69 83
3 83 69 86
3 86 104 108
3 86 82 104
3 82 97 104
3 82 75 97
3 75 77 97
3 75 67 77
3 67 58 77
3 77 58 70
3 58 55 70
3 70 55 65
3 55 52 65
3 65 52 62
3 52 66 62
3 52 56 66
3 56 71 66
3 56 59 71
3 59 78 71
3 59 68 78
3 68 76 78
3 78 76 98
3 76 83 98
3 98 83 105
3 83 86 105
3 105 86 108
3 108 116 120
3 108 104 116
3 104 111 116
3 104 97 111
3 97 99 111
3 97 77 99
3 77 70 99
3 99 70 80
3 70 65 80
3 80 65 73
3 65 62 73
3 73 62 72
3 62 74 72
3 62 66 74
3 66 81 74
3 66 71 81
3 71 100 81
3 71 78 100
3 78 98 100
3 100 98 112
3 98 105 112
3 112 105 117
3 105 108 117
3 117 108 120
3 120 126 128
3 120 116 126
3 116 118 126
3 116 111 118
3 111 106 118
3 111 99 106
3 99 80 106
3 106 80 93
3 80 73 93
3 93 73 84
3 73 72 84
3 84 72 79
3 72 85 79
3 72 74 85
3 74 94 85
3 74 81 94
3 81 107 94
3 81 100 107
3 100 112 107
3 107 112 119
3 112 117 119
3 119 117 127
3 117 120 127
3 127 120 128
3 128 129 134
3 128 126 129
3 126 121 129
3 126 118 121
3 118 109 121
3 118 106 109
3 106 93 109
3 109 93 95
3 93 84 95
3 95 84 88
3 84 79 88
3 88 79 87
3 79 89 87
3 79 85 89
3 85 96 89
3 85 94 96
3 94 110 96
3 94 107 110
3 107 119 110
3 110 119 122
3 119 127 122
3 122 127 130
3 127 128 130
3 130 128 134
3 134 129 131
3 129 123 131
3 129 121 123
3 121 113 123
3 121 109 113
3 109 95 113
3 113 95 101
3 95 88 101
3 101 88 90
3 88 87 90
3 87 89 91
3 89 102 91
3 89 96 102
3 96 114 102
3 96 110 114
3 110 122 114
3 114 122 124
3 122 130 124
3 124 130 132
3 130 134 132
3 134 131 133
3 131 125 133
3 131 123 125
3 123 115 125
3 123 113 115
3 113 101 115
3 115 101 103
3 101 90 103
3 103 90 92
3 90 87 92
3 87 91 92
3 91 103 92
3 91 102 103
3 102 115 103
3 102 114 115
3 114 124 115
3 115 124 125
3 124 132 125
3 125 132 133
3 132 134 133
CELL_DATA 256
SCALARS panel_area float 1
LOOKUP_TABLE default
0.92508633108       
0.92508633108       
2.79517470099       
2.79517562356       
5.6146308256        
5.61462989055       
5.58211186867       
5.58211186867       
2.81488567939       
2.81488573256       
1.03392049018       
1.03392045833       
1.03392045833       
1.03392049018       
2.81488573256       
2.81488567939       
5.58211186867       
5.58211186867       
5.61462989055       
5.6146308256        
2.79517562356       
2.79517470099       
0.92508633108       
0.92508633108       
1.70545962375       
1.70546297835       
5.15310831432       
5.15310493919       
10.3509743772       
10.3509743772       
10.2910234108       
10.2910217201       
5.18944367141       
5.18944407194       
1.90610651937       
1.90610678196       
1.90610678196       
1.90610651937       
5.18944407194       
5.18944367141       
10.2910217201       
10.2910234108       
10.3509743772       
10.3509743772       
5.15310493919       
5.15310831432       
1.70546297835       
1.70545962375       
2.84277826158       
2.84277267672       
8.58953546428       
8.5895410692        
17.2536874064       
17.2536874064       
17.1537543246       
17.1537571429       
8.6501079034        
8.65010520628       
3.17722467396       
3.17722559311       
3.17722559311       
3.17722467396       
8.65010520628       
8.6501079034        
17.1537571429       
17.1537543246       
17.2536874064       
17.2536874064       
8.5895410692        
8.58953546428       
2.84277267672       
2.84277826158       
4.02695349831       
4.02694559132       
12.1675308135       
12.1675308135       
24.4407518247       
24.4407597875       
24.2992033085       
24.2992033085       
12.253331023        
12.2533386975       
4.50070765836       
4.50070234102       
4.50070234102       
4.50070765836       
12.2533386975       
12.253331023        
24.2992033085       
24.2992033085       
24.4407597875       
24.4407518247       
12.1675308135       
12.1675308135       
4.02694559132       
4.02695349831       
4.56235162155       
4.56236953541       
13.7853203711       
13.7853024185       
27.6903473896       
27.6903473896       
27.529978794        
27.529978794        
13.8825192091       
13.8825105036       
5.0991073579        
5.09911341711       
5.09911341711       
5.0991073579        
13.8825105036       
13.8825192091       
27.529978794        
27.529978794        
27.6903473896       
27.6903473896       
13.7853024185       
13.7853203711       
4.56236953541       
4.56235162155       
4.02693678757       
4.02693678757       
12.1675280736       
12.1675439268       
24.4407622366       
24.440746311        
24.299197774        
24.299197774        
12.2533282321       
12.2533205577       
4.50070715798       
4.50071247533       
4.50071247533       
4.50070715798       
12.2533205577       
12.2533282321       
24.299197774        
24.299197774        
24.440746311        
24.4407622366       
12.1675439268       
12.1675280736       
4.02693678757       
4.02693678757       
2.84277291368       
2.84277291368       
8.5895361807        
8.5895361807        
17.2536943687       
17.2536943687       
17.1537585267       
17.1537585267       
8.65010040994       
8.65010040994       
3.17722978832       
3.17722978832       
3.17722978832       
3.17722978832       
8.65010040994       
8.65010040994       
17.1537585267       
17.1537585267       
17.2536943687       
17.2536943687       
8.5895361807        
8.5895361807        
2.84277291368       
2.84277291368       
1.70546121096       
1.70546121096       
5.153109734         
5.153109734         
10.3509873761       
10.3509873761       
10.2910330952       
10.2910330952       
5.18944386016       
5.18944386016       
1.90611100503       
1.90610680358       
1.90610680358       
1.90611100503       
5.18944386016       
5.18944386016       
10.2910330952       
10.2910330952       
10.3509873761       
10.3509873761       
5.153109734         
5.153109734         
1.70546121096       
1.70546121096       
0.925083599806      
0.925083599806      
2.79517192965       
2.79517192965       
5.61462341526       
5.61462715546       
5.58210633527       
5.58210633527       
2.81488065454       
2.81488405753       
1.0339186321        
1.0339186321        
1.0339186321        
1.0339186321        
2.81488405753       
2.81488065454       
5.58210633527       
5.58210633527       
5.61462715546       
5.61462341526       
2.79517192965       
2.79517192965       
0.925083599806      
0.925083599806      
0.0358950379383     
0.108415532522      
0.438993127333      
0.884972602976      
2.11144693774       
2.17037238431       
2.29890210373       
1.22448861673       
0.640966331806      
0.242467007276      
0.242467007276      
0.640966331806      
1.22448861673       
2.29890210373       
2.17037238431       
2.11144693774       
0.884972602976      
0.438993127333      
0.108415532522      
0.0358950379383     
0.0338034431418     
0.102034645168      
0.413171058482      
0.837662934188      
1.99856079719       
2.15940385468       
2.28729112384       
1.31213272107       
0.686847083194      
0.276542529704      
0.276542529704      
0.686847083194      
1.31213272107       
2.28729112384       
2.15940385468       
1.99856079719       
0.837662934188      
0.413171058482      
0.102034645168      
0.0338034431418     
VECTORS panel_centroids float
19.9658120473        1.28250249227        -0.0338389327129    
19.0075689952        0.641251246134       -0.0676778654257    
18.3742300669        1.28250249227        -0.204701026281     
16.7753801346        0.641251246134       -0.307885254423     
14.5319350561        1.28250249227        -0.600966771444     
11.9635858536        0.641251246134       -0.790864060322     
8.1022307078         0.641251246134       -1.00012254715      
6.80922444661        1.28250249227        -1.0194837451       
3.28655856848        0.641251246134       -0.873826960723     
2.98065267007        1.28250249227        -0.708808978399     
1.14191327492        0.641251246134       -0.362527330716     
1.53283349673        1.28250249227        -0.181263665358     
1.53283349673        1.28250249227        0.181263665358      
1.14191327492        0.641251246134       0.362527330716      
2.98065267007        1.28250249227        0.708808978399      
3.28655856848        0.641251246134       0.873826960723      
6.80922444661        1.28250249227        1.0194837451        
8.1022307078         0.641251246134       1.00012254715       
11.9635858536        0.641251246134       0.790864060322      
14.5319350561        1.28250249227        0.600966771444      
16.7753801346        0.641251246134       0.307885254423      
18.3742300669        1.28250249227        0.204701026281      
19.0075689952        0.641251246134       0.0676778654257     
19.9658120473        1.28250249227        0.0338389327129     
22.9714488983        4.28813902537        -0.0338389327129    
21.4722646077        3.10594638189        -0.0676778654257    
21.3798669179        4.28813902537        -0.204701026281     
19.2400754293        3.10594638189        -0.307885254423     
17.5375715892        4.28813902537        -0.600966771444     
14.4282811483        3.10594638189        -0.790864060322     
10.5669256846        3.10594638189        -1.00012254715      
9.81486097972        4.28813902537        -1.0194837451       
5.75125384331        3.10594638189        -0.873826960723     
5.98628942172        4.28813902537        -0.708808978399     
3.60660847028        3.10594638189        -0.362527330716     
4.5384701093         4.28813902537        -0.181263665358     
4.5384701093         4.28813902537        0.181263665358      
3.60660847028        3.10594638189        0.362527330716      
5.98628942172        4.28813902537        0.708808978399      
5.75125384331        3.10594638189        0.873826960723      
9.81486097972        4.28813902537        1.0194837451        
10.5669256846        3.10594638189        1.00012254715       
14.4282811483        3.10594638189        0.790864060322      
17.5375715892        4.28813902537        0.600966771444      
19.2400754293        3.10594638189        0.307885254423      
21.3798669179        4.28813902537        0.204701026281      
21.4722646077        3.10594638189        0.0676778654257     
22.9714488983        4.28813902537        0.0338389327129     
28.0947545369        9.41144514084        -0.0338389327129    
25.8072064718        7.44088840485        -0.0676778654257    
26.5031731923        9.41144514084        -0.204701026281     
23.5750179291        7.44088840485        -0.307885254423     
22.6608778636        9.41144514084        -0.600966771444     
18.7632230123        7.44088840485        -0.790864060322     
14.9018678665        7.44088840485        -1.00012254715      
14.9381672541        9.41144514084        -1.0194837451       
10.0861959457        7.44088840485        -0.873826960723     
11.1095956167        9.41144514084        -0.708808978399     
7.94155073166        7.44088840485        -0.362527330716     
9.66177638372        9.41144514084        -0.181263665358     
9.66177638372        9.41144514084        0.181263665358      
7.94155073166        7.44088840485        0.362527330716      
11.1095956167        9.41144514084        0.708808978399      
10.0861959457        7.44088840485        0.873826960723      
14.9381672541        9.41144514084        1.0194837451        
14.9018678665        7.44088840485        1.00012254715       
18.7632230123        7.44088840485        0.790864060322      
22.6608778636        9.41144514084        0.600966771444      
23.5750179291        7.44088840485        0.307885254423      
26.5031731923        9.41144514084        0.204701026281      
25.8072064718        7.44088840485        0.0676778654257     
28.0947545369        9.41144514084        0.0338389327129     
35.6481062571        16.9647973378        -0.0338389327129    
32.5397167206        14.1733996073        -0.0676778654257    
34.056523641         16.9647973378        -0.204701026281     
30.3075281779        14.1733996073        -0.307885254423     
30.2142295837        16.9647973378        -0.600966771444     
25.4957345327        14.1733996073        -0.790864060322     
21.634379069         14.1733996073        -1.00012254715      
22.4915192922        16.9647973378        -1.0194837451       
16.8187071482        14.1733996073        -0.873826960723     
18.6629473368        16.9647973378        -0.708808978399     
14.6740614573        14.1733996073        -0.362527330716     
17.2151279449        16.9647973378        -0.181263665358     
17.2151279449        16.9647973378        0.181263665358      
14.6740614573        14.1733996073        0.362527330716      
18.6629473368        16.9647973378        0.708808978399      
16.8187071482        14.1733996073        0.873826960723      
22.4915192922        16.9647973378        1.0194837451        
21.634379069         14.1733996073        1.00012254715       
25.4957345327        14.1733996073        0.790864060322      
30.2142295837        16.9647973378        0.600966771444      
30.3075281779        14.1733996073        0.307885254423      
34.056523641         16.9647973378        0.204701026281      
32.5397167206        14.1733996073        0.0676778654257     
35.6481062571        16.9647973378        0.0338389327129     
44.7645785014        26.0812683105        -0.0338389327129    
41.2850494385        22.9187316895        -0.0676778654257    
43.1729952494        26.0812683105        -0.204701026281     
39.0528589884        22.9187316895        -0.307885254423     
39.3306999207        26.0812683105        -0.600966771444     
34.241065979         22.9187316895        -0.790864060322     
30.3797111511        22.9187316895        -1.00012254715      
31.6079902649        26.0812683105        -1.0194837451       
25.5640385946        22.9187316895        -0.873826960723     
27.7794183095        26.0812683105        -0.708808978399     
23.4193935394        22.9187316895        -0.362527330716     
26.3315995534        26.0812683105        -0.181263665358     
26.3315995534        26.0812683105        0.181263665358      
23.4193935394        22.9187316895        0.362527330716      
27.7794183095        26.0812683105        0.708808978399      
25.5640385946        22.9187316895        0.873826960723      
31.6079902649        26.0812683105        1.0194837451        
30.3797111511        22.9187316895        1.00012254715       
34.241065979         22.9187316895        0.790864060322      
39.3306999207        26.0812683105        0.600966771444      
39.0528589884        22.9187316895        0.307885254423      
43.1729952494        26.0812683105        0.204701026281      
41.2850494385        22.9187316895        0.0676778654257     
44.7645785014        26.0812683105        0.0338389327129     
53.5099093119        34.8265991211        -0.0338389327129    
50.401521047         32.0352020264        -0.0676778654257    
51.9183286031        34.8265991211        -0.204701026281     
48.1693318685        32.0352020264        -0.307885254423     
48.0760320028        34.8265991211        -0.600966771444     
43.3575363159        32.0352020264        -0.790864060322     
39.496181488         32.0352020264        -1.00012254715      
40.3533210754        34.8265991211        -1.0194837451       
34.6805095673        32.0352020264        -0.873826960723     
36.5247503916        34.8265991211        -0.708808978399     
32.5358651479        32.0352020264        -0.362527330716     
35.0769309998        34.8265991211        -0.181263665358     
35.0769309998        34.8265991211        0.181263665358      
32.5358651479        32.0352020264        0.362527330716      
36.5247503916        34.8265991211        0.708808978399      
34.6805095673        32.0352020264        0.873826960723      
40.3533210754        34.8265991211        1.0194837451        
39.496181488         32.0352020264        1.00012254715       
43.3575363159        32.0352020264        0.790864060322      
48.0760320028        34.8265991211        0.600966771444      
48.1693318685        32.0352020264        0.307885254423      
51.9183286031        34.8265991211        0.204701026281      
50.401521047         32.0352020264        0.0676778654257     
53.5099093119        34.8265991211        0.0338389327129     
60.2424201965        41.5591100057        -0.0338389327129    
57.9548721313        39.5885531108        -0.0676778654257    
58.6508394877        41.5591100057        -0.204701026281     
55.7226842244        39.5885531108        -0.307885254423     
54.8085441589        41.5591100057        -0.600966771444     
50.9108886719        39.5885531108        -0.790864060322     
47.0495325724        39.5885531108        -1.00012254715      
47.08583196          41.5591100057        -1.0194837451       
42.2338612874        39.5885531108        -0.873826960723     
43.257261912         41.5591100057        -0.708808978399     
40.0892168681        39.5885531108        -0.362527330716     
41.8094418844        41.5591100057        -0.181263665358     
41.8094418844        41.5591100057        0.181263665358      
40.0892168681        39.5885531108        0.362527330716      
43.257261912         41.5591100057        0.708808978399      
42.2338612874        39.5885531108        0.873826960723      
47.08583196          41.5591100057        1.0194837451        
47.0495325724        39.5885531108        1.00012254715       
50.9108886719        39.5885531108        0.790864060322      
54.8085441589        41.5591100057        0.600966771444      
55.7226842244        39.5885531108        0.307885254423      
58.6508394877        41.5591100057        0.204701026281      
57.9548721313        39.5885531108        0.0676778654257     
60.2424201965        41.5591100057        0.0338389327129     
64.5773620605        45.8940544128        -0.0338389327129    
63.0781784058        44.7118606567        -0.0676778654257    
62.9857813517        45.8940544128        -0.204701026281     
60.8459904989        44.7118606567        -0.307885254423     
59.1434860229        45.8940544128        -0.600966771444     
56.0341949463        44.7118606567        -0.790864060322     
52.1728388468        44.7118606567        -1.00012254715      
51.4207738241        45.8940544128        -1.0194837451       
47.3571675618        44.7118606567        -0.873826960723     
47.592203776         45.8940544128        -0.708808978399     
45.2125231425        44.7118606567        -0.362527330716     
46.1443850199        45.8940544128        -0.181263665358     
46.1443850199        45.8940544128        0.181263665358      
45.2125231425        44.7118606567        0.362527330716      
47.592203776         45.8940544128        0.708808978399      
47.3571675618        44.7118606567        0.873826960723      
51.4207738241        45.8940544128        1.0194837451        
52.1728388468        44.7118606567        1.00012254715       
56.0341949463        44.7118606567        0.790864060322      
59.1434860229        45.8940544128        0.600966771444      
60.8459904989        44.7118606567        0.307885254423      
62.9857813517        45.8940544128        0.204701026281      
63.0781784058        44.7118606567        0.0676778654257     
64.5773620605        45.8940544128        0.0338389327129     
67.0420557658        48.3587493896        -0.0338389327129    
66.0838139852        47.7174987793        -0.0676778654257    
65.450475057         48.3587493896        -0.204701026281     
63.8516260783        47.7174987793        -0.307885254423     
61.6081809998        48.3587493896        -0.600966771444     
59.0398317973        47.7174987793        -0.790864060322     
55.1784756978        47.7174987793        -1.00012254715      
53.8854700724        48.3587493896        -1.0194837451       
50.3628044128        47.7174987793        -0.873826960723     
50.0568987528        48.3587493896        -0.708808978399     
48.2181599935        47.7174987793        -0.362527330716     
48.6090799967        48.3587493896        -0.181263665358     
48.6090799967        48.3587493896        0.181263665358      
48.2181599935        47.7174987793        0.362527330716      
50.0568987528        48.3587493896        0.708808978399      
50.3628044128        47.7174987793        0.873826960723      
53.8854700724        48.3587493896        1.0194837451        