# vtk DataFile Version 3.0
PyPan mesh file. Generated by PyPan, USU AeroLab (c) 2020.
ASCII
DATASET POLYDATA
POINTS 293 float
0.0                 0.0                 0.0                 
0.42013117671       0.0                 -0.412075400352     
0.42013117671       0.0                 0.412075400352      
0.928174138069      0.928174138069      0.0                 
1.34830534458       0.928174138069      -0.412075400352     
1.34830534458       0.928174138069      0.412075400352      
1.81353092194       0.0                 -0.806821227074     
1.81353092194       0.0                 0.806821227074      
2.26196575165       2.26196575165       0.0                 
2.68209695816       2.26196575165       -0.412075400352     
2.68209695816       2.26196575165       0.412075400352      
2.74170517921       0.928174138069      -0.806821227074     
2.74170517921       0.928174138069      0.806821227074      
4.07549667358       2.26196575165       -0.806821227074     
4.07549667358       2.26196575165       0.806821227074      
4.13893461227       4.13893461227       0.0                 
4.55906581879       4.13893461227       -0.412075400352     
4.55906581879       4.13893461227       0.412075400352      
4.79629611969       0.0                 -1.11707651615      
4.79629611969       0.0                 1.11707651615       
5.72447013855       0.928174138069      -1.11707651615      
5.72447013855       0.928174138069      1.11707651615       
5.95246553421       4.13893461227       -0.806821227074     
5.95246553421       4.13893461227       0.806821227074      
6.70394468307       6.70394468307       0.0                 
7.05826187134       2.26196575165       -1.11707651615      
7.05826187134       2.26196575165       1.11707651615       
7.12407588959       6.70394468307       -0.412075400352     
7.12407588959       6.70394468307       0.412075400352      
8.51747608185       6.70394468307       -0.806821227074     
8.51747608185       6.70394468307       0.806821227074      
8.9352312088        4.13893461227       -1.11707651615      
8.9352312088        4.13893461227       1.11707651615       
9.39523696899       0.0                 -0.980761349201     
9.39523696899       0.0                 0.980761349201      
10.0722141266       10.0722141266       0.0                 
10.3234109879       0.928174138069      -0.980761349201     
10.3234109879       0.928174138069      0.980761349201      
10.4923458099       10.0722141266       -0.412075400352     
10.4923458099       10.0722141266       0.412075400352      
11.5002412796       6.70394468307       -1.11707651615      
11.5002412796       6.70394468307       1.11707651615       
11.6572027206       2.26196575165       -0.980761349201     
11.6572027206       2.26196575165       0.980761349201      
11.8857450485       10.0722141266       -0.806821227074     
11.8857450485       10.0722141266       0.806821227074      
13.5341711044       4.13893461227       -0.980761349201     
13.5341711044       4.13893461227       0.980761349201      
13.9772081375       0.0                 -0.540150463581     
13.9772081375       0.0                 0.540150463581      
14.2710342407       14.2710342407       0.0                 
14.6911659241       14.2710342407       -0.412075400352     
14.6911659241       14.2710342407       0.412075400352      
14.8685102463       10.0722141266       -1.11707651615      
14.8685102463       10.0722141266       1.11707651615       
14.9053821564       0.928174138069      -0.540150463581     
14.9053821564       0.928174138069      0.540150463581      
16.0845661163       14.2710342407       -0.806821227074     
16.0845661163       14.2710342407       0.806821227074      
16.0991821289       6.70394468307       -0.980761349201     
16.0991821289       6.70394468307       0.980761349201      
16.2391738892       2.26196575165       -0.540150463581     
16.2391738892       2.26196575165       0.540150463581      
16.9605827332       0.0                 -0.218344569206     
16.9605827332       0.0                 0.218344569206      
17.8887577057       0.928174138069      -0.218344569206     
17.8887577057       0.928174138069      0.218344569206      
18.1161422729       4.13893461227       -0.540150463581     
18.1161422729       4.13893461227       0.540150463581      
18.403219223        0.0                 -0.0636830478907    
18.403219223        0.0                 0.0636830478907     
19.0003013611       0.0                 0.0                 
19.0673313141       14.2710342407       -1.11707651615      
19.0673313141       14.2710342407       1.11707651615       
19.1784667969       19.1784667969       0.0                 
19.2225494385       2.26196575165       -0.218344569206     
19.2225494385       2.26196575165       0.218344569206      
19.3313941956       0.928174138069      -0.0636830478907    
19.3313941956       0.928174138069      0.0636830478907     
19.4674510956       10.0722141266       -0.980761349201     
19.4674510956       10.0722141266       0.980761349201      
19.5985984802       19.1784667969       -0.412075400352     
19.5985984802       19.1784667969       0.412075400352      
19.9284744263       0.928174138069      0.0                 
20.665184021        2.26196575165       -0.0636830478907    
20.665184021        2.26196575165       0.0636830478907     
20.6811523438       6.70394468307       -0.540150463581     
20.6811523438       6.70394468307       0.540150463581      
20.9919986725       19.1784667969       -0.806821227074     
20.9919986725       19.1784667969       0.806821227074      
21.0995178223       4.13893461227       -0.218344569206     
21.0995178223       4.13893461227       0.218344569206      
21.2622661591       2.26196575165       0.0                 
22.5421543121       4.13893461227       -0.0636830478907    
22.5421543121       4.13893461227       0.0636830478907     
23.1392364502       4.13893461227       0.0                 
23.6645278931       6.70394468307       -0.218344569206     
23.6645278931       6.70394468307       0.218344569206      
23.6662712097       14.2710342407       -0.980761349201     
23.6662712097       14.2710342407       0.980761349201      
23.9747638702       19.1784667969       -1.11707651615      
23.9747638702       19.1784667969       1.11707651615       
24.0494232178       10.0722141266       -0.540150463581     
24.0494232178       10.0722141266       0.540150463581      
24.5                24.5                0.0                 
24.9201316833       24.5                -0.412075400352     
24.9201316833       24.5                0.412075400352      
25.1071643829       6.70394468307       -0.0636830478907    
25.1071643829       6.70394468307       0.0636830478907     
25.704246521        6.70394468307       0.0                 
26.3135318756       24.5                -0.806821227074     
26.3135318756       24.5                0.806821227074      
27.0327968597       10.0722141266       -0.218344569206     
27.0327968597       10.0722141266       0.218344569206      
28.2482414246       14.2710342407       -0.540150463581     
28.2482414246       14.2710342407       0.540150463581      
28.4754333496       10.0722141266       -0.0636830478907    
28.4754333496       10.0722141266       0.0636830478907     
28.5737037659       19.1784667969       -0.980761349201     
28.5737037659       19.1784667969       0.980761349201      
29.0725154877       10.0722141266       0.0                 
29.296295166        24.5                -1.11707651615      
29.296295166        24.5                1.11707651615       
29.8215332031       29.8215332031       0.0                 
30.2416648865       29.8215332031       -0.412075400352     
30.2416648865       29.8215332031       0.412075400352      
31.2316169739       14.2710342407       -0.218344569206     
31.2316169739       14.2710342407       0.218344569206      
31.6350631714       29.8215332031       -0.806821227074     
31.6350631714       29.8215332031       0.806821227074      
32.6742553711       14.2710342407       -0.0636830478907    
32.6742553711       14.2710342407       0.0636830478907     
33.1556739807       19.1784667969       -0.540150463581     
33.1556739807       19.1784667969       0.540150463581      
33.2713356018       14.2710342407       0.0                 
33.895236969        24.5                -0.980761349201     
33.895236969        24.5                0.980761349201      
34.6178283691       29.8215332031       -1.11707651615      
34.6178283691       29.8215332031       1.11707651615       
34.7289657593       34.7289657593       0.0                 
35.1490974426       34.7289657593       -0.412075400352     
35.1490974426       34.7289657593       0.412075400352      
36.13904953         19.1784667969       -0.218344569206     
36.13904953         19.1784667969       0.218344569206      
36.5424957275       34.7289657593       -0.806821227074     
36.5424957275       34.7289657593       0.806821227074      
37.5816879272       19.1784667969       -0.0636830478907    
37.5816879272       19.1784667969       0.0636830478907     
38.178768158        19.1784667969       0.0                 
38.4772071838       24.5                -0.540150463581     
38.4772071838       24.5                0.540150463581      
38.9277839661       38.9277839661       0.0                 
39.2167701721       29.8215332031       -0.980761349201     
39.2167701721       29.8215332031       0.980761349201      
39.3479156494       38.9277839661       -0.412075400352     
39.3479156494       38.9277839661       0.412075400352      
39.5252609253       34.7289657593       -1.11707651615      
39.5252609253       34.7289657593       1.11707651615       
40.741317749        38.9277839661       -0.806821227074     
40.741317749        38.9277839661       0.806821227074      
41.4605827332       24.5                -0.218344569206     
[...]
CELL_DATA 568
SCALARS panel_area float 1
LOOKUP_TABLE default
0.280231687339      
0.280232569019      
0.677160200419      
0.677160200419      
1.40056279208       
1.40056233819       
2.14600683638       
2.14600683638       
2.13618328024       
2.13618328024       
1.39915939349       
1.39915928783       
0.696627220085      
0.69662725396       
0.333407878963      
0.333407883529      
0.333407883529      
0.333407878963      
0.69662725396       
0.696627220085      
1.39915928783       
1.39915939349       
2.13618328024       
2.13618328024       
2.14600683638       
2.14600683638       
1.40056233819       
1.40056279208       
0.677160200419      
0.677160200419      
0.280232569019      
0.280231687339      
0.40269582152       
0.402694557339      
0.973081848866      
0.97308312213       
2.01261682754       
2.01261682754       
3.0838242624        
3.0838242624        
3.0697077498        
3.0697077498        
2.0106000015        
2.010600155         
1.00105739129       
1.00105732368       
0.479109060157      
0.479109060157      
0.479109060157      
0.479109060157      
1.00105732368       
1.00105739129       
2.010600155         
2.0106000015        
3.0697077498        
3.0697077498        
3.0838242624        
3.0838242624        
2.01261682754       
2.01261682754       
0.97308312213       
0.973081848866      
0.402694557339      
0.40269582152       
0.566690864793      
0.566690864793      
1.36936438515       
1.36936259972       
2.83224085416       
2.83224085416       
4.33968997495       
4.33968997495       
4.31982462418       
4.31982373188       
2.82940292727       
2.8294033624        
1.40873087304       
1.40873087304       
0.674222852808      
0.674222852808      
0.674222852808      
0.674222852808      
1.40873087304       
1.40873087304       
2.8294033624        
2.82940292727       
4.31982373188       
4.31982462418       
4.33968997495       
4.33968997495       
2.83224085416       
2.83224085416       
1.36936259972       
1.36936438515       
0.566690864793      
0.566690864793      
0.774422950426      
0.774422950426      
1.87133280797       
1.87133280797       
3.87045650422       
3.87045650422       
5.93049063003       
5.93049186198       
5.90334320933       
5.90334442943       
3.86657886082       
3.86657826339       
1.92512992551       
1.92513046844       
0.921372987957      
0.921372987957      
0.921372987957      
0.921372987957      
1.92513046844       
1.92512992551       
3.86657826339       
3.86657886082       
5.90334442943       
5.90334320933       
5.93049186198       
5.93049063003       
3.87045650422       
3.87045650422       
1.87133280797       
1.87133280797       
0.774422950426      
0.774422950426      
1.01694148723       
1.01694148723       
2.45735998367       
2.45735998367       
5.08252671514       
5.08252992336       
7.78768818214       
7.78768495917       
7.75203765477       
7.75203765477       
5.07743712924       
5.07743712924       
2.52800491583       
2.52800347442       
1.20991050339       
1.20991091666       
1.20991091666       
1.20991050339       
2.52800347442       
2.52800491583       
5.07743712924       
5.07743712924       
7.75203765477       
7.75203765477       
7.78768495917       
7.78768818214       
5.08252992336       
5.08252671514       
2.45735998367       
2.45735998367       
1.01694148723       
1.01694148723       
1.26769580436       
1.26769977028       
3.0633018244        
3.0632978497        
6.33578433309       
6.33578034186       
9.70797874239       
9.70798275022       
9.66354152489       
9.66353952642       
6.32943580889       
6.32943580889       
3.15136068471       
3.15136249375       
1.50825175313       
1.50825175313       
1.50825175313       
1.50825175313       
3.15136249375       
3.15136068471       
6.32943580889       
6.32943580889       
9.66353952642       
9.66354152489       
9.70798275022       
9.70797874239       
6.33578034186       
6.33578433309       
3.0632978497        
3.0633018244        
1.26769977028       
1.26769580436       
1.48163805367       
1.48163805367       
3.58027889193       
3.58027889193       
7.40504081142       
7.40504081142       
11.3463425049       
11.3463425049       
11.2944034708       
11.2944034708       
7.39762086291       
7.39762086291       
3.68320110833       
3.68320110833       
1.76279134495       
1.76279134495       
1.76279134495       
1.76279134495       
3.68320110833       
3.68320110833       
7.39762086291       
7.39762086291       
11.2944034708       
11.2944034708       
11.3463425049       
11.3463425049       
7.40504081142       
7.40504081142       
3.58027889193       
3.58027889193       
1.48163805367       
1.48163805367       
1.60667217751       
1.60666212822       
3.88238113936       
3.88239120596       
8.02989548966       
8.02989548966       
12.3037734463       
12.3037734463       
12.2474516749       
12.2474567416       
8.02184939808       
8.02184440755       
3.99399823992       
3.99399823992       
1.91153980518       
1.91153980518       
1.91153980518       
1.91153980518       
3.99399823992       
3.99399823992       
8.02184440755       
8.02184939808       
12.2474567416       
12.2474516749       
12.3037734463       
12.3037734463       
8.02989548966       
8.02989548966       
3.88239120596       
3.88238113936       
1.60666212822       
1.60667217751       
1.60667217751       
1.60667217751       
3.88238117062       
3.88238117062       
8.02989548966       
8.02989548966       
12.3037734463       
12.3037734463       
12.2474567454       
12.2474567454       
8.02184440755       
8.02184939808       
3.99399814092       
3.99399352893       
1.91153980518       
1.91153980518       
1.91153980518       
1.91153980518       
3.99399352893       
3.99399814092       
8.02184939808       
8.02184440755       
12.2474567454       
12.2474567454       
12.3037734463       
12.3037734463       
8.02989548966       
8.02989548966       
3.88238117062       
3.88238117062       
1.60667217751       
1.60667217751       
1.48164730916       
1.48164730916       
3.5802696375        
3.5802696375        
7.40504081142       
7.40504081142       
11.3463425049       
11.3463425049       
11.2944081467       
11.2944081467       
7.39762086291       
7.39762086291       
3.68319676394       
3.68319676394       
1.76279134495       
1.76279134495       
1.76279134495       
1.76279134495       
3.68319676394       
3.68319676394       
7.39762086291       
7.39762086291       
11.2944081467       
11.2944081467       
11.3463425049       
11.3463425049       
7.40504081142       
7.40504081142       
3.5802696375        
3.5802696375        
1.48164730916       
1.48164730916       
1.2676952285        
1.26770316034       
3.0633004485        
3.06329249911       
6.33577353799       
6.33578152046       
9.70798238815       
9.7079743725        
9.66353913555       
9.66353114166       
6.32943297937       
6.32943297937       
3.15135754314       
3.1513647793        
1.508251068         
1.508251068         
1.508251068         
1.508251068         
3.1513647793        
3.15135754314       
6.32943297937       
6.32943297937       
9.66353114166       
9.66353913555       
9.7079743725        
9.70798238815       
6.33578152046       
6.33577353799       
3.06329249911       
3.0633004485        
1.26770316034       
1.2676952285        
1.01693874443       
1.01693874443       
2.45736420716       
2.45736420716       
5.08253205738       
5.08252564093       
7.78768819655       
7.78769464249       
7.75203613391       
7.75204254504       
5.07743923236       
5.07743923236       
2.52800879805       
2.52800303241       
1.20991143052       
1.20991143052       
1.20991143052       
1.20991143052       
2.52800303241       
2.52800879805       
5.07743923236       
5.07743923236       
7.75204254504       
7.75203613391       
7.78769464249       
7.78768819655       
5.08252564093       
5.08253205738       
2.45736420716       
2.45736420716       
1.01693874443       
1.01693874443       
0.774420531603      
0.774420531603      
1.87133522651       
1.87133522651       
3.87045650422       
3.87045650422       
5.93049063003       
5.93049063003       
5.90334565145       
5.90334565145       
3.86657825578       
3.86657825578       
1.92512819772       
1.92512819772       
0.92137334559       
0.92137334559       
0.92137334559       
0.92137334559       
1.92512819772       
1.92512819772       
3.86657825578       
3.86657825578       
5.90334565145       
5.90334565145       
5.93049063003       
5.93049063003       
3.87045650422       
3.87045650422       
1.87133522651       
1.87133522651       
0.774420531603      
0.774420531603      
0.566692486018      
0.566688933218      
1.36936222448       
1.36936579533       
2.83224014282       
2.83224014282       
4.33968799563       
4.33968799563       
4.31982442193       
4.31982085274       
2.82940226176       
2.82940226176       
1.40872946694       
1.40873259218       
0.674222943225      
0.674222943225      
0.674222943225      
0.674222943225      
1.40873259218       
1.40872946694       
2.82940226176       
2.82940226176       
4.31982085274       
4.31982442193       
4.33968799563       
4.33968799563       
2.83224014282       
2.83224014282       
1.36936579533       
1.36936222448       
0.566688933218      
0.566692486018      
0.402697690751      
0.402697690751      
0.973083342019      
0.973083342019      
2.01261988345       
2.01261988345       
3.08382831524       
3.08382831524       
3.06971050733       
3.06971304141       
2.0106031509        
2.0106031509        
1.00106012264       
1.00105795911       
0.479109974081      
0.479109974081      
0.479109974081      
0.479109974081      
1.00105795911       
1.00106012264       
2.0106031509        
2.0106031509        
3.06971304141       
3.06971050733       
3.08382831524       
3.08382831524       
2.01261988345       
2.01261988345       
0.973083342019      
0.973083342019      
0.402697690751      
0.402697690751      
0.280229603662      
0.280233130378      
0.67715856694       
0.67715856694       
1.40056297439       
1.40056115884       
2.14600391975       
2.14600391975       
2.13618125345       
2.13618125345       
1.39915777809       
1.39915777809       
0.69662577956       
0.69662577956       
0.333407627553      
0.333407627553      
0.333407627553      
0.333407627553      
0.69662577956       
0.69662577956       
1.39915777809       
1.39915777809       
2.13618125345       
2.13618125345       
2.14600391975       
2.14600391975       
1.40056115884       
1.40056297439       
0.67715856694       
0.67715856694       
0.280233130378      
0.280229603662      
0.0141382625069     
0.034156749878      
0.117106247202      
0.242146794263      
0.599036103095      
0.922065438873      
1.67421738352       
1.70920619468       
1.94676773229       
1.3324710069        
0.962387099613      
0.497520180829      
0.254104401313      
0.121004986787      
0.121004986787      
0.254104401313      
0.497520180829      
0.962387099613      
1.3324710069        
1.94676773229       
1.70920619468       
1.67421738352       
0.922065438873      
0.599036103095      
0.242146794263      
0.117106247202      
0.034156749878      
0.0141382625069     
0.0133148979301     
0.032156942357      
0.110255832582      
0.227888487223      
0.563758825147      
0.874040072802      
1.58701188047       
1.68317133465       
1.91711316493       
1.39448374706       
1.00718211065       
0.547689180952      
0.279726385309      
0.137649360966      
0.137649360966      
0.279726385309      
0.547689180952      
1.00718211065       
1.39448374706       
1.91711316493       
1.68317133465       
1.58701188047       
0.874040072802      
0.563758825147      
0.227888487223      
0.110255832582      
0.032156942357      
0.0133148979301     
VECTORS panel_centroids float
19.420056661         0.618782758713       -0.0212276826302    
18.9116382599        0.309391379356       -0.0424553652604    
18.5411237081        0.618782758713       -0.115236888329     
17.7508532206        0.309391379356       -0.166790728768     
16.5849075317        0.618782758713       -0.325613200665     
15.2810576757        0.309391379356       -0.432881832123     
13.0686670939        0.618782758713       -0.687020758788     
11.2319520315        0.309391379356       -0.833891053994     
8.17164802551        0.309391379356       -1.02619973818      
6.94805908203        0.618782758713       -1.07163812717      
4.11143239339        0.309391379356       -1.01365808646      
3.42656874657        0.618782758713       -0.910239656766     
1.65845575929        0.309391379356       -0.675239284833     
1.50338056684        0.618782758713       -0.543657342593     
0.589478840431       0.309391379356       -0.274716933568     
0.758826494217       0.618782758713       -0.137358466784     
0.758826494217       0.618782758713       0.137358466784      
0.589478840431       0.309391379356       0.274716933568      
1.50338056684        0.618782758713       0.543657342593      
1.65845575929        0.309391379356       0.675239284833      
3.42656874657        0.618782758713       0.910239656766      
4.11143239339        0.309391379356       1.01365808646       
6.94805908203        0.618782758713       1.07163812717       
8.17164802551        0.309391379356       1.02619973818       
11.2319520315        0.309391379356       0.833891053994      
13.0686670939        0.618782758713       0.687020758788      
15.2810576757        0.309391379356       0.432881832123      
16.5849075317        0.618782758713       0.325613200665      
17.7508532206        0.309391379356       0.166790728768      
18.5411237081        0.618782758713       0.115236888329      
18.9116382599        0.309391379356       0.0424553652604     
19.420056661         0.618782758713       0.0212276826302     
20.6186415354        1.81736854712        -0.0212276826302    
19.9750175476        1.3727713426         -0.0424553652604    
19.7397092183        1.81736854712        -0.115236888329     
18.8142337799        1.3727713426         -0.166790728768     
17.7834936778        1.81736854712        -0.325613200665     
16.3444379171        1.3727713426         -0.432881832123     
14.2672529221        1.81736854712        -0.687020758788     
12.295331955         1.3727713426         -0.833891053994     
9.23502794902        1.3727713426         -1.02619973818      
8.14664491018        1.81736854712        -1.07163812717      
5.17481239637        1.3727713426         -1.01365808646      
4.62515457471        1.81736854712        -0.910239656766     
2.72183573246        1.3727713426         -0.675239284833     
2.70196632544        1.81736854712        -0.543657342593     
1.6528588136         1.3727713426         -0.274716933568     
1.95741228263        1.81736854712        -0.137358466784     
1.95741228263        1.81736854712        0.137358466784      
1.6528588136         1.3727713426         0.274716933568      
2.70196632544        1.81736854712        0.543657342593      
2.72183573246        1.3727713426         0.675239284833      
4.62515457471        1.81736854712        0.910239656766      
5.17481239637        1.3727713426         1.01365808646       
8.14664491018        1.81736854712        1.07163812717       
9.23502794902        1.3727713426         1.02619973818       
12.295331955         1.3727713426         0.833891053994      
14.2672529221        1.81736854712        0.687020758788      
16.3444379171        1.3727713426         0.432881832123      
17.7834936778        1.81736854712        0.325613200665      
18.8142337799        1.3727713426         0.166790728768      
19.7397092183        1.81736854712        0.115236888329      
19.9750175476        1.3727713426         0.0424553652604     
20.6186415354        1.81736854712        0.0212276826302     
22.3145523071        3.5132783254         -0.0212276826302    
21.4898681641        2.88762203852        -0.0424553652604    
21.4356187185        3.5132783254         -0.115236888329     
20.3290837606        2.88762203852        -0.166790728768     
19.4794031779        3.5132783254         -0.325613200665     
17.8592885335        2.88762203852        -0.432881832123     
15.9631624222        3.5132783254         -0.687020758788     
13.8101825714        2.88762203852        -0.833891053994     
10.7498785655        2.88762203852        -1.02619973818      
9.84255472819        3.5132783254         -1.07163812717      
6.68966325124        2.88762203852        -1.01365808646      
6.3210644722         3.5132783254         -0.910239656766     
4.23668638865        2.88762203852        -0.675239284833     
4.39787610372        3.5132783254         -0.543657342593     
3.16770950953        2.88762203852        -0.274716933568     
3.6533220609         3.5132783254         -0.137358466784     
3.6533220609         3.5132783254         0.137358466784      
3.16770950953        2.88762203852        0.274716933568      
4.39787610372        3.5132783254         0.543657342593      
4.23668638865        2.88762203852        0.675239284833      
6.3210644722         3.5132783254         0.910239656766      
6.68966325124        2.88762203852        1.01365808646       
9.84255472819        3.5132783254         1.07163812717       
10.7498785655        2.88762203852        1.02619973818       
13.8101825714        2.88762203852        0.833891053994      
15.9631624222        3.5132783254         0.687020758788      
17.8592885335        2.88762203852        0.432881832123      
19.4794031779        3.5132783254         0.325613200665      
20.3290837606        2.88762203852        0.166790728768      
21.4356187185        3.5132783254         0.115236888329      
21.4898681641        2.88762203852        0.0424553652604     
22.3145523071        3.5132783254         0.0212276826302     
24.6502157847        5.84894132614        -0.0212276826302    
23.5961850484        4.99393796921        -0.0424553652604    
23.771282196         5.84894132614        -0.115236888329     
22.4354000092        4.99393796921        -0.166790728768     
21.8150660197        5.84894132614        -0.325613200665     
19.9656041463        4.99393796921        -0.432881832123     
18.2988255819        5.84894132614        -0.687020758788     
15.9164985021        4.99393796921        -0.833891053994     
12.856194814         4.99393796921        -1.02619973818      
12.1782182058        5.84894132614        -1.07163812717      
8.79597934087        4.99393796921        -1.01365808646      
8.65672763189        5.84894132614        -0.910239656766     
6.34300247828        4.99393796921        -0.675239284833     
6.73353926341        5.84894132614        -0.543657342593     
5.27402544022        4.99393796921        -0.274716933568     
5.98898506165        5.84894132614        -0.137358466784     
5.98898506165        5.84894132614        0.137358466784      
5.27402544022        4.99393796921        0.274716933568      
6.73353926341        5.84894132614        0.543657342593      
6.34300247828        4.99393796921        0.675239284833      
8.65672763189        5.84894132614        0.910239656766      
8.79597934087        4.99393796921        1.01365808646       
12.1782182058        5.84894132614        1.07163812717       
12.856194814         4.99393796921        1.02619973818       
15.9164985021        4.99393796921        0.833891053994      
18.2988255819        5.84894132614        0.687020758788      
19.9656041463        4.99393796921        0.432881832123      
21.8150660197        5.84894132614        0.325613200665      
22.4354000092        4.99393796921        0.166790728768      
23.771282196         5.84894132614        0.115236888329      