# vtk DataFile Version 3.0
PyPan mesh file. Generated by PyPan, USU AeroLab (c) 2020.
ASCII
DATASET POLYDATA
POINTS 463 float
0.0                 0.0                 0.0                 
0.473465979099      0.0                 -0.436293870211     
0.473465979099      0.0                 0.436293870211      
0.757896304131      0.757896304131      0.0                 
1.23136246204       0.757896304131      -0.43629398942      
1.23136246204       0.757896304131      0.43629398942       
1.57641971111       0.0                 -0.760520398617     
1.57641971111       0.0                 0.760520398617      
1.78897356987       1.78897356987       0.0                 
2.26243972778       1.78897356987       -0.436294138432     
2.26243972778       1.78897356987       0.436294138432      
2.33431649208       0.757896304131      -0.760520577431     
2.33431649208       0.757896304131      0.760520577431      
3.1727976799        3.1727976799        0.0                 
3.36539411545       1.78897356987       -0.760520815849     
3.36539411545       1.78897356987       0.760520815849      
3.42464399338       0.0                 -1.02348911762      
3.42464399338       0.0                 1.02348911762       
3.64626431465       3.1727976799        -0.436294317245     
3.64626431465       3.1727976799        0.436294317245      
4.18254137039       0.757896304131      -1.02348935604      
4.18254137039       0.757896304131      1.02348935604       
4.74921894073       3.1727976799        -0.760521173477     
4.74921894073       3.1727976799        0.760521173477      
4.99661636353       4.99661636353       0.0                 
5.21361970901       1.78897356987       -1.02348971367      
5.21361970901       1.78897356987       1.02348971367       
5.47008323669       4.99661636353       -0.436294585466     
5.47008323669       4.99661636353       0.436294585466      
6.11307668686       0.0                 -1.14008128643      
6.11307668686       0.0                 1.14008128643       
6.57303857803       4.99661636353       -0.760521650314     
6.57303857803       4.99661636353       0.760521650314      
6.59744548798       3.1727976799        -1.02349019051      
6.59744548798       3.1727976799        1.02349019051       
6.87097454071       0.757896304131      -1.14008152485      
6.87097454071       0.757896304131      1.14008152485       
7.34362459183       7.34362459183       0.0                 
7.81709194183       7.34362459183       -0.436294913292     
7.81709194183       7.34362459183       0.436294913292      
7.90205335617       1.78897356987       -1.14008200169      
7.90205335617       1.78897356987       1.14008200169       
8.42126560211       4.99661636353       -1.02349078655      
8.42126560211       4.99661636353       1.02349078655       
8.92004776001       7.34362459183       -0.760522186756     
8.92004776001       7.34362459183       0.760522186756      
9.28588008881       3.1727976799        -1.14008247852      
9.28588008881       3.1727976799        1.14008247852       
9.3950881958        0.0                 -0.980745851994     
9.3950881958        0.0                 0.980745851994      
10.1529865265       0.757896304131      -0.980746090412     
10.1529865265       0.757896304131      0.980746090412      
10.2728376389       10.2728376389       0.0                 
10.7463054657       10.2728376389       -0.436295330524     
10.7463054657       10.2728376389       0.436295330524      
10.7682771683       7.34362459183       -1.02349150181      
10.7682771683       7.34362459183       1.02349150181       
11.109703064        4.99661636353       -1.14008307457      
11.109703064        4.99661636353       1.14008307457       
11.1840667725       1.78897356987       -0.980746388435     
11.1840667725       1.78897356987       0.980746388435      
11.8492631912       10.2728376389       -0.760522902012     
11.8492631912       10.2728376389       0.760522902012      
12.5678949356       3.1727976799        -0.980746865273     
12.5678949356       3.1727976799        0.980746865273      
12.6670312881       0.0                 -0.678052663803     
12.6670312881       0.0                 0.678052663803      
13.4249305725       0.757896304131      -0.678052842617     
13.4249305725       0.757896304131      0.678052842617      
13.4567155838       7.34362459183       -1.14008402824      
13.4567155838       7.34362459183       1.14008402824       
13.6974935532       10.2728376389       -1.02349245548      
13.6974935532       10.2728376389       1.02349245548       
13.7921218872       13.7921218872       0.0                 
14.2655897141       13.7921218872       -0.436295837164     
14.2655897141       13.7921218872       0.436295837164      
14.3917188644       4.99661636353       -0.980747401714     
14.3917188644       4.99661636353       0.980747401714      
14.4560117722       1.78897356987       -0.678053081036     
14.4560117722       1.78897356987       0.678053081036      
15.3437566757       0.0                 -0.393031150103     
15.3437566757       0.0                 0.393031150103      
15.3685483932       13.7921218872       -0.760523796082     
15.3685483932       13.7921218872       0.760523796082      
15.8398418427       3.1727976799        -0.678053379059     
15.8398418427       3.1727976799        0.678053379059      
16.1016559601       0.757896304131      -0.39303123951      
16.1016559601       0.757896304131      0.39303123951       
16.3859348297       10.2728376389       -1.14008510113      
16.3859348297       10.2728376389       1.14008510113       
16.738735199        7.34362459183       -0.980748176575     
16.738735199        7.34362459183       0.980748176575      
17.1327381134       1.78897356987       -0.393031388521     
17.1327381134       1.78897356987       0.393031388521      
17.2004318237       0.0                 -0.192506864667     
17.2004318237       0.0                 0.192506864667      
17.2167816162       13.7921218872       -1.02349364758      
17.2167816162       13.7921218872       1.02349364758       
17.6636676788       4.99661636353       -0.678053736687     
17.6636676788       4.99661636353       0.678053736687      
17.8320064545       17.8320064545       0.0                 
17.9583320618       0.757896304131      -0.192506924272     
17.9583320618       0.757896304131      0.192506924272      
18.305475235        17.8320064545       -0.436296403408     
18.305475235        17.8320064545       0.436296403408      
18.345041275        0.0                 -0.0698660761118    
18.345041275        0.0                 0.0698660761118     
18.5165691376       3.1727976799        -0.393031567335     
18.5165691376       3.1727976799        0.393031567335      
18.9894161224       1.78897356987       -0.192506983876     
18.9894161224       1.78897356987       0.192506983876      
19.0                0.0                 0.0                 
19.1029415131       0.757896304131      -0.069866091013     
19.1029415131       0.757896304131      0.069866091013      
19.4084339142       17.8320064545       -0.760524809361     
19.4084339142       17.8320064545       0.760524809361      
19.6679573059       10.2728376389       -0.980749070644     
19.6679573059       10.2728376389       0.980749070644      
19.757900238        0.757896304131      0.0                 
19.9052257538       13.7921218872       -1.14008641243      
19.9052257538       13.7921218872       1.14008641243       
20.010684967        7.34362459183       -0.678054273129     
20.010684967        7.34362459183       0.678054273129      
20.1340255737       1.78897356987       -0.0698661133647    
20.1340255737       1.78897356987       0.0698661133647     
20.3403968811       4.99661636353       -0.393031775951     
20.3403968811       4.99661636353       0.393031775951      
20.3732471466       3.1727976799        -0.192507073283     
20.3732471466       3.1727976799        0.192507073283      
20.7889842987       1.78897356987       0.0                 
21.2566699982       17.8320064545       -1.02349495888      
21.2566699982       17.8320064545       1.02349495888       
21.5178565979       3.1727976799        -0.069866143167     
21.5178565979       3.1727976799        0.069866143167      
22.1728172302       3.1727976799        0.0                 
22.1970767975       4.99661636353       -0.192507177591     
22.1970767975       4.99661636353       0.192507177591      
22.2339305878       22.2339305878       0.0                 
22.687417984        7.34362459183       -0.393032073975     
22.687417984        7.34362459183       0.393032073975      
22.7074012756       22.2339305878       -0.436297029257     
22.7074012756       22.2339305878       0.436297029257      
22.9399108887       10.2728376389       -0.67805492878      
22.9399108887       10.2728376389       0.67805492878       
23.1872520447       13.7921218872       -0.980750203133     
23.1872520447       13.7921218872       0.980750203133      
23.3416862488       4.99661636353       -0.0698661878705    
23.3416862488       4.99661636353       0.0698661878705     
23.8103618622       22.2339305878       -0.760525882244     
23.8103618622       22.2339305878       0.760525882244      
23.9451179504       17.8320064545       -1.14008784294      
23.9451179504       17.8320064545       1.14008784294       
23.9966468811       4.99661636353       0.0                 
24.5440979004       7.34362459183       -0.192507326603     
24.5440979004       7.34362459183       0.192507326603      
25.616645813        10.2728376389       -0.393032461405     
25.616645813        10.2728376389       0.393032461405      
25.6585998535       22.2339305878       -1.0234965086       
25.6585998535       22.2339305878       1.0234965086        
25.688709259        7.34362459183       -0.0698662400246    
25.688709259        7.34362459183       0.0698662400246     
[...]
CELL_DATA 904
SCALARS panel_area float 1
LOOKUP_TABLE default
0.251003746327      
0.251003745651      
0.438698981975      
0.438698981096      
0.711743585297      
0.711743218381      
1.02577661739       
1.02577662285       
1.25046375736       
1.25046339059       
1.24664010491       
1.24664028334       
1.02069089804       
1.02069107719       
0.714419081037      
0.714419305522      
0.452641247605      
0.452641359958      
0.294721974435      
0.294722060318      
0.294722060318      
0.294721974435      
0.452641359958      
0.452641247605      
0.714419305522      
0.714419081037      
1.02069107719       
1.02069089804       
1.24664028334       
1.24664010491       
1.25046339059       
1.25046375736       
1.02577662285       
1.02577661739       
0.711743218381      
0.711743585297      
0.438698981096      
0.438698981975      
0.251003745651      
0.251003746327      
0.341477139967      
0.341477138308      
0.596826445302      
0.596826443492      
0.968289962748      
0.968288969311      
1.39551457419       
1.3955140766        
1.70118935368       
1.70118885624       
1.69598723291       
1.69598798628       
1.38859544867       
1.38859570509       
0.971929134419      
0.971929515308      
0.615794282684      
0.615794475599      
0.400953533421      
0.4009536394        
0.4009536394        
0.400953533421      
0.615794475599      
0.615794282684      
0.971929515308      
0.971929134419      
1.38859570509       
1.38859544867       
1.69598798628       
1.69598723291       
1.70118885624       
1.70118935368       
1.3955140766        
1.39551457419       
0.968288969311      
0.968289962748      
0.596826443492      
0.596826445302      
0.341477138308      
0.341477139967      
0.45830284875       
0.458301533449      
0.801009629619      
0.801009624495      
1.29955632882       
1.29955632447       
1.87294150587       
1.87294083848       
2.28319283196       
2.28319150105       
2.27621065676       
2.2762116387        
1.86365491987       
1.86365557608       
1.30444103741       
1.30444170519       
0.826466918236      
0.826467154005      
0.538125868279      
0.538126173337      
0.538126173337      
0.538125868279      
0.826467154005      
0.826466918236      
1.30444170519       
1.30444103741       
1.86365557608       
1.86365491987       
2.2762116387        
2.27621065676       
2.28319150105       
2.28319283196       
1.87294083848       
1.87294150587       
1.29955632447       
1.29955632882       
0.801009624495      
0.801009629619      
0.458301533449      
0.45830284875       
0.604022795086      
0.60402278803       
1.05569512103       
1.05569511313       
1.71275925083       
1.71275750105       
2.46845542024       
2.46845366406       
3.00914843312       
3.00914667893       
2.99994579072       
2.99994666466       
2.45621524064       
2.45621783752       
1.71919619445       
1.71919665769       
1.08924696123       
1.08924766653       
0.709226377145      
0.709226790369      
0.709226790369      
0.709226377145      
1.08924766653       
1.08924696123       
1.71919665769       
1.71919619445       
2.45621783752       
2.45621524064       
2.99994666466       
2.99994579072       
3.00914667893       
3.00914843312       
2.46845366406       
2.46845542024       
1.71275750105       
1.71275925083       
1.05569511313       
1.05569512103       
0.60402278803       
0.604022795086      
0.777295742673      
0.777295731564      
1.35853922612       
1.3585369825        
2.20408976916       
2.20408974659       
3.17657311895       
3.17656860973       
3.87236863555       
3.87236749708       
3.86052604295       
3.86053052882       
3.16082049076       
3.16082164349       
2.21237384209       
2.21237662283       
1.40171457758       
1.40171523743       
0.912679069854      
0.91267982731       
0.91267982731       
0.912679069854      
1.40171523743       
1.40171457758       
2.21237662283       
2.21237384209       
3.16082164349       
3.16082049076       
3.86053052882       
3.86052604295       
3.87236749708       
3.87236863555       
3.17656860973       
3.17657311895       
2.20408974659       
2.20408976916       
1.3585369825        
1.35853922612       
0.777295731564      
0.777295742673      
0.970116481201      
0.970113693511      
1.69554193842       
1.69554191052       
2.7508447048        
2.75084187833       
3.96456473818       
3.96456190226       
4.83296385241       
4.83295823135       
4.81818352207       
4.81818773104       
3.9449030784        
3.94490727565       
2.76118438651       
2.76118586648       
1.74942831023       
1.74943108736       
1.13908150495       
1.13908261277       
1.13908261277       
1.13908150495       
1.74943108736       
1.74942831023       
2.76118586648       
2.76118438651       
3.94490727565       
3.9449030784        
4.81818773104       
4.81818352207       
4.83295823135       
4.83296385241       
3.96456190226       
3.96456473818       
2.75084187833       
2.7508447048        
1.69554191052       
1.69554193842       
0.970113693511      
0.970116481201      
1.16553693415       
1.16554023228       
2.03710470069       
2.03709799497       
3.3049881283        
3.30498472828       
4.76320431885       
4.76320089611       
5.80654020961       
5.80653343909       
5.7887807794        
5.78878750611       
4.73958356903       
4.73958861184       
3.31740904334       
3.31741411104       
2.10184272954       
2.10184466523       
1.36854343991       
1.36854450742       
1.36854450742       
1.36854343991       
2.10184466523       
2.10184272954       
3.31741411104       
3.31740904334       
4.73958861184       
4.73958356903       
5.78878750611       
5.7887807794        
5.80653343909       
5.80654020961       
4.76320089611       
4.76320431885       
3.30498472828       
3.3049881283        
2.03709799497       
2.03710470069       
1.16554023228       
1.16553693415       
1.33796002607       
1.33795235774       
2.33844935826       
2.33844929805       
3.79389199221       
3.79388807907       
5.4678229086        
5.46781512159       
6.66549727301       
6.66548948769       
6.64511066906       
6.64511837451       
5.44070599392       
5.44071370309       
3.80815221816       
3.80815803758       
2.41276610438       
2.41276666151       
1.57099046029       
1.57099287478       
1.57099287478       
1.57099046029       
2.41276666151       
2.41276610438       
3.80815803758       
3.80815221816       
5.44071370309       
5.44070599392       
6.64511837451       
6.64511066906       
6.66548948769       
6.66549727301       
5.46781512159       
5.4678229086        
3.79388807907       
3.79389199221       
2.33844929805       
2.33844935826       
1.33795235774       
1.33796002607       
1.45786313046       
1.45786308883       
2.54802100232       
2.54801260677       
4.13389509043       
4.13388663932       
5.95783341053       
5.95782910573       
7.26284728656       
7.26283461367       
7.24062940472       
7.24064203429       
5.92829041317       
5.92829881345       
4.1494311545        
4.14943558928       
2.62898997143       
2.62899436493       
1.71177961667       
1.71178356747       
1.71178356747       
1.71177961667       
2.62899436493       
2.62898997143       
4.14943558928       
4.1494311545        
5.92829881345       
5.92829041317       
7.24064203429       
7.24062940472       
7.26283461367       
7.26284728656       
5.95782910573       
5.95783341053       
4.13388663932       
4.13389509043       
2.54801260677       
2.54802100232       
1.45786308883       
1.45786313046       
1.50098865299       
1.50098860673       
2.62339483726       
2.62339476225       
4.25618121925       
4.25618111032       
6.13409123625       
6.13407387545       
7.47770478521       
7.47769173794       
7.45482970138       
7.45483838202       
6.10366566555       
6.10367003547       
4.27218129396       
4.27218576842       
2.70676340084       
2.70677183193       
1.76242005471       
1.76241933119       
1.76241933119       
1.76242005471       
2.70677183193       
2.70676340084       
4.27218576842       
4.27218129396       
6.10367003547       
6.10366566555       
7.45483838202       
7.45482970138       
7.47769173794       
7.47770478521       
6.13407387545       
6.13409123625       
4.25618111032       
4.25618121925       
2.62339476225       
2.62339483726       
1.50098860673       
1.50098865299       
1.45787152593       
1.45786316818       
2.54802114779       
2.54802107222       
4.13390365778       
4.13389521219       
5.95785870449       
5.95785021988       
7.26286843374       
7.26285993474       
7.24065046454       
7.24065886099       
5.92830306345       
5.92831146373       
4.14943994824       
4.14944833071       
2.62900265991       
2.62900713356       
1.71178270759       
1.71178665839       
1.71178665839       
1.71178270759       
2.62900713356       
2.62900265991       
4.14944833071       
4.14943994824       
5.92831146373       
5.92830306345       
7.24065886099       
7.24065046454       
7.26285993474       
7.26286843374       
5.95785021988       
5.95785870449       
4.13389521219       
4.13390365778       
2.54802107222       
2.54802114779       
1.45786316818       
1.45787152593       
1.33796781359       
1.33796777566       
2.33846491704       
2.33845721628       
3.79391532563       
3.79390758351       
5.46785023301       
5.4678501228        
6.66553611975       
6.66552834757       
6.64514541647       
6.64515317112       
5.44073301458       
5.44074840515       
3.80817374758       
3.80817407774       
2.41278241172       
2.41278289456       
1.5709996335        
1.57100310401       
1.57100310401       
1.5709996335        
2.41278289456       
2.41278241172       
3.80817407774       
3.80817374758       
5.44074840515       
5.44073301458       
6.64515317112       
6.64514541647       
6.66552834757       
6.66553611975       
5.4678501228        
5.46785023301       
3.79390758351       
3.79391532563       
2.33845721628       
2.33846491704       
1.33796777566       
1.33796781359       
1.16555011107       
1.16555008599       
2.03711779733       
2.03711775546       
3.3050177469        
3.30501100457       
4.76324043956       
4.76323366938       
5.80658602873       
5.80657925821       
5.78882295654       
5.78882968325       
4.73962428864       
4.73963102912       
3.31743227445       
3.31743889592       
2.10185856932       
2.10185899742       
1.36855511982       
1.36855618733       
1.36855618733       
1.36855511982       
2.10185899742       
2.10185856932       
3.31743889592       
3.31743227445       
4.73963102912       
4.73962428864       
5.78882968325       
5.78882295654       
5.80657925821       
5.80658602873       
4.76323366938       
4.76324043956       
3.30501100457       
3.3050177469        
2.03711775546       
2.03711779733       
1.16555008599       
1.16555011107       
0.970125448144      
0.970125429743      
1.6955597152        
1.69555968729       
2.75087428624       
2.75087424167       
3.9646062371        
3.96460062017       
4.83301687505       
4.83301124691       
4.81823208265       
4.81823768142       
3.94494976251       
3.94494978456       
2.76121283221       
2.76121836765       
1.74944587713       
1.7494461587        
1.13909397641       
1.13909471743       
1.13909471743       
1.13909397641       
1.7494461587        
1.74944587713       
2.76121836765       
2.76121283221       
3.94494978456       
3.94494976251       
4.81823768142       
4.81823208265       
4.83301124691       
4.83301687505       
3.96460062017       
3.9646062371        
2.75087424167       
2.75087428624       
1.69555968729       
1.6955597152        
0.970125429743      
0.970125448144      
0.777304644198      
0.777304633088      
1.35855701859       
1.35855254956       
2.20411424603       
2.20411422346       
3.17661091089       
3.17660640167       
3.87241298624       
3.87241297069       
3.86057125737       
3.86057572021       
3.16085687413       
3.16085687413       
2.21240235848       
2.21240246726       
1.40172872409       
1.40173290084       
0.912689741372      
0.91269021653       
0.91269021653       
0.912689741372      
1.40173290084       
1.40172872409       
2.21240246726       
2.21240235848       
3.16085687413       
3.16085687413       
3.86057572021       
3.86057125737       
3.87241297069       
3.87241298624       
3.17660640167       
3.17661091089       
2.20411422346       
2.20411424603       
1.35855254956       
1.35855701859       
0.777304633088      
0.777304644198      
0.604029696124      
0.604029689069      
1.05571063922       
1.05571062934       
1.71278167523       
1.71277818707       
2.46848816476       
2.46848815409       
3.00918713426       
3.00918362895       
2.99998510049       
2.99998512049       
2.45624596186       
2.45624944072       
1.71921875001       
1.71921881855       
1.08926181728       
1.08926193257       
0.70923539077       
0.709235666365      
0.709235666365      
0.70923539077       
1.08926193257       
1.08926181728       
1.71921881855       
1.71921875001       
2.45624944072       
2.45624596186       
2.99998512049       
2.99998510049       
3.00918362895       
3.00918713426       
2.46848815409       
2.46848816476       
1.71277818707       
1.71278167523       
1.05571062934       
1.05571063922       
0.604029689069      
0.604029696124      
0.458307987064      
0.458307983744      
0.801023853657      
0.801021214108      
1.29957434729       
1.29957434294       
1.87296724352       
1.87296724295       
2.28322297106       
2.28322297381       
2.2762409068        
2.27624353404       
1.86368106304       
1.86368106304       
1.30445858196       
1.30445862033       
0.826478427303      
0.826480774932      
0.538133051498      
0.538133241151      
0.538133241151      
0.538133051498      
0.826480774932      
0.826478427303      
1.30445862033       
1.30445858196       
1.86368106304       
1.86368106304       
2.27624353404       
2.2762409068        
2.28322297381       
2.28322297106       
1.87296724295       
1.87296724352       
1.29957434294       
1.29957434729       
0.801021214108      
0.801023853657      
0.458307983744      
0.458307987064      
0.341482460117      
0.341482458459      
0.596837942346      
0.596837940536      
0.968304878308      
0.968304877327      
1.39553640928       
1.39553641217       
1.70121738824       
1.70121538858       
1.69601510479       
1.69601511251       
1.38861734188       
1.38861734188       
0.971944067238      
0.971945957769      
0.615805584769      
0.615803975086      
0.400959763329      
0.400959869309      
0.400959869309      
0.400959763329      
0.615803975086      
0.615805584769      
0.971945957769      
0.971944067238      
1.38861734188       
1.38861734188       
1.69601511251       
1.69601510479       
1.70121538858       
1.70121738824       
1.39553641217       
1.39553640928       
0.968304877327      
0.968304878308      
0.596837940536      
0.596837942346      
0.341482458459      
0.341482460117      
0.25100743177       
0.251007431093      
0.438704180964      
0.438707088455      
0.711754707243      
0.711754708057      
1.02579363923       
1.02579215435       
1.25048363438       
1.25048364398       
1.24665968891       
1.24665970277       
1.02070626607       
1.02070771015       
0.714431078715      
0.714429745495      
0.452648237386      
0.452649436119      
0.294726430792      
0.294726480678      
0.294726480678      
0.294726430792      
0.452649436119      
0.452648237386      
0.714429745495      
0.714431078715      
1.02070771015       
1.02070626607       
1.24665970277       
1.24665968891       
1.25048364398       
1.25048363438       
1.02579215435       
1.02579363923       
0.711754708057      
0.711754707243      
0.438707088455      
0.438704180964      
0.251007431093      
0.25100743177       
0.00899649610585    
0.0157225639453     
0.0433209513008     
0.0702720021611     
0.1434741493        
0.20683875741       
0.35683362413       
0.436199842687      
0.630927724702      
0.634525213395      
0.737615275277      
0.614768884854      
0.551898969881      
0.392870911878      
0.291927005295      
0.188439583961      
0.108103083292      
0.0709141771165     
0.0709141771165     
0.108103083292      
0.188439583961      
0.291927005295      
0.392870911878      
0.551898969881      
0.614768884854      
0.737615275277      
0.634525213395      
0.630927724702      
0.436199842687      
0.35683362413       
0.20683875741       
0.1434741493        
0.0702720021611     
0.0433209513008     
0.0157225639453     
0.00899649610585    
0.0083439535713     
0.0145794246423     
0.0401704090469     
0.065139619376      
0.132991431985      
0.191840533164      
0.330961376807      
0.406781257434      
0.588377508479      
0.601779988603      
0.699542262912      
0.602379315012      
0.540776952768      
0.396405678947      
0.294556619263      
0.196211955337      
0.112562300158      
0.075624699092      
0.075624699092      
0.112562300158      
0.196211955337      
0.294556619263      
0.396405678947      
0.540776952768      
0.602379315012      
0.699542262912      
0.601779988603      
0.588377508479      
0.406781257434      
0.330961376807      
0.191840533164      
0.132991431985      
0.065139619376      
0.0401704090469     
0.0145794246423     
0.0083439535713     
0.008078577665      
0.0141133158474     
0.038889223595      
0.0630438020824     
0.12871034725       
0.185760997114      
0.320471892876      
0.39572728719       
0.57238410065       
0.593579151         
0.69001543629       
0.608936363344      
0.546660816304      
0.408726989233      
0.303712939993      
0.206226664379      
0.118308257973      
0.0805315432023     
0.0805315432023     
0.118308257973      
0.206226664379      
0.303712939993      
0.408726989233      
0.546660816304      
0.608936363344      
0.69001543629       
0.593579151         
0.57238410065       
0.39572728719       
0.320471892876      
0.185760997114      
0.12871034725       
0.0630438020824     
0.038889223595      
0.0141133158474     
0.008078577665      
0.008211740951      
0.0143446212401     
0.0395245654563     
0.064062837444      
0.130794044155      
0.188827676431      
0.325764889413      
0.40340992002       
0.583498287772      
0.610089981913      
0.709206324726      
0.634487043784      
0.569601142994      
0.430269451105      
0.319718126267      
0.219125600898      
0.125707769177      
0.0860605234055     
0.0860605234055     
0.125707769177      
0.219125600898      
0.319718126267      
0.430269451105      
0.569601142994      
0.634487043784      
0.709206324726      
0.610089981913      
0.583498287772      
0.40340992002       
0.325764889413      
0.188827676431      
0.130794044155      
0.064062837444      
0.0395245654563     
0.0143446212401     
0.008211740951      
VECTORS panel_centroids float
19.2869472504        0.505264202754       -0.0232886970043    
18.8159942627        0.252632101377       -0.0465773890416    
18.4687716166        0.505264202754       -0.110746363799     
17.8346017202        0.252632101377       -0.151626621683     
17.0868066152        0.505264202754       -0.259348342816     
16.2152814865        0.252632101377       -0.326189751426     
14.9567810694        0.505264202754       -0.488038410743     
13.8119061788        0.252632101377       -0.583045552174     
12.0816494624        0.505264202754       -0.778950532277     
10.7383686701        0.252632101377       -0.87984820207      
8.55371713638        0.252632101377       -1.03385774295      
7.71234591802        0.505264202754       -1.0869696339       
5.46956507365        0.252632101377       -1.10121730963      
4.82605330149        0.505264202754       -1.06235333284      