# vtk DataFile Version 3.0
TriPan results file. Generated by TriPan, USU AeroLab (c) 2021.
ASCII
DATASET POLYDATA
POINTS                 482 float
  0.000000000000E+00  0.000000000000E+00  0.000000000000E+00
  0.473465979099E+00  0.000000000000E+00 -0.436293870211E+00
  0.473465979099E+00  0.000000000000E+00  0.436293870211E+00
  0.757896304131E+00  0.757896304131E+00  0.000000000000E+00
  0.123136246204E+01  0.757896304131E+00 -0.436293989420E+00
  0.123136246204E+01  0.757896304131E+00  0.436293989420E+00
  0.157641971111E+01  0.000000000000E+00 -0.760520398617E+00
  0.157641971111E+01  0.000000000000E+00  0.760520398617E+00
  0.178897356987E+01  0.178897356987E+01  0.000000000000E+00
  0.226243972778E+01  0.178897356987E+01 -0.436294138432E+00
  0.226243972778E+01  0.178897356987E+01  0.436294138432E+00
  0.233431649208E+01  0.757896304131E+00 -0.760520577431E+00
  0.233431649208E+01  0.757896304131E+00  0.760520577431E+00
  0.317279767990E+01  0.317279767990E+01  0.000000000000E+00
  0.336539411545E+01  0.178897356987E+01 -0.760520815849E+00
  0.336539411545E+01  0.178897356987E+01  0.760520815849E+00
  0.342464399338E+01  0.000000000000E+00 -0.102348911762E+01
  0.342464399338E+01  0.000000000000E+00  0.102348911762E+01
  0.364626431465E+01  0.317279767990E+01 -0.436294317245E+00
  0.364626431465E+01  0.317279767990E+01  0.436294317245E+00
  0.418254137039E+01  0.757896304131E+00 -0.102348935604E+01
  0.418254137039E+01  0.757896304131E+00  0.102348935604E+01
  0.474921894073E+01  0.317279767990E+01 -0.760521173477E+00
  0.474921894073E+01  0.317279767990E+01  0.760521173477E+00
  0.499661636353E+01  0.499661636353E+01  0.000000000000E+00
  0.521361970901E+01  0.178897356987E+01 -0.102348971367E+01
  0.521361970901E+01  0.178897356987E+01  0.102348971367E+01
  0.547008323669E+01  0.499661636353E+01 -0.436294585466E+00
  0.547008323669E+01  0.499661636353E+01  0.436294585466E+00
  0.611307668686E+01  0.000000000000E+00 -0.114008128643E+01
  0.611307668686E+01  0.000000000000E+00  0.114008128643E+01
  0.657303857803E+01  0.499661636353E+01 -0.760521650314E+00
  0.657303857803E+01  0.499661636353E+01  0.760521650314E+00
  0.659744548798E+01  0.317279767990E+01 -0.102349019051E+01
  0.659744548798E+01  0.317279767990E+01  0.102349019051E+01
  0.687097454071E+01  0.757896304131E+00 -0.114008152485E+01
  0.687097454071E+01  0.757896304131E+00  0.114008152485E+01
  0.734362459183E+01  0.734362459183E+01  0.000000000000E+00
  0.781709194183E+01  0.734362459183E+01 -0.436294913292E+00
  0.781709194183E+01  0.734362459183E+01  0.436294913292E+00
  0.790205335617E+01  0.178897356987E+01 -0.114008200169E+01
  0.790205335617E+01  0.178897356987E+01  0.114008200169E+01
  0.842126560211E+01  0.499661636353E+01 -0.102349078655E+01
  0.842126560211E+01  0.499661636353E+01  0.102349078655E+01
  0.892004776001E+01  0.734362459183E+01 -0.760522186756E+00
  0.892004776001E+01  0.734362459183E+01  0.760522186756E+00
  0.928588008881E+01  0.317279767990E+01 -0.114008247852E+01
  0.928588008881E+01  0.317279767990E+01  0.114008247852E+01
  0.939508819580E+01  0.000000000000E+00 -0.980745851994E+00
  0.939508819580E+01  0.000000000000E+00  0.980745851994E+00
  0.101529865265E+02  0.757896304131E+00 -0.980746090412E+00
  0.101529865265E+02  0.757896304131E+00  0.980746090412E+00
  0.102728376389E+02  0.102728376389E+02  0.000000000000E+00
  0.107463054657E+02  0.102728376389E+02 -0.436295330524E+00
  0.107463054657E+02  0.102728376389E+02  0.436295330524E+00
  0.107682771683E+02  0.734362459183E+01 -0.102349150181E+01
  0.107682771683E+02  0.734362459183E+01  0.102349150181E+01
  0.111097030640E+02  0.499661636353E+01 -0.114008307457E+01
  0.111097030640E+02  0.499661636353E+01  0.114008307457E+01
  0.111840667725E+02  0.178897356987E+01 -0.980746388435E+00
  0.111840667725E+02  0.178897356987E+01  0.980746388435E+00
  0.118492631912E+02  0.102728376389E+02 -0.760522902012E+00
  0.118492631912E+02  0.102728376389E+02  0.760522902012E+00
  0.125678949356E+02  0.317279767990E+01 -0.980746865273E+00
  0.125678949356E+02  0.317279767990E+01  0.980746865273E+00
  0.126670312881E+02  0.000000000000E+00 -0.678052663803E+00
  0.126670312881E+02  0.000000000000E+00  0.678052663803E+00
  0.134249305725E+02  0.757896304131E+00 -0.678052842617E+00
  0.134249305725E+02  0.757896304131E+00  0.678052842617E+00
  0.134567155838E+02  0.734362459183E+01 -0.114008402824E+01
  0.134567155838E+02  0.734362459183E+01  0.114008402824E+01
  0.136974935532E+02  0.102728376389E+02 -0.102349245548E+01
  0.136974935532E+02  0.102728376389E+02  0.102349245548E+01
  0.137921218872E+02  0.137921218872E+02  0.000000000000E+00
  0.142655897141E+02  0.137921218872E+02 -0.436295837164E+00
  0.142655897141E+02  0.137921218872E+02  0.436295837164E+00
  0.143917188644E+02  0.499661636353E+01 -0.980747401714E+00
  0.143917188644E+02  0.499661636353E+01  0.980747401714E+00
  0.144560117722E+02  0.178897356987E+01 -0.678053081036E+00
  0.144560117722E+02  0.178897356987E+01  0.678053081036E+00
  0.153437566757E+02  0.000000000000E+00 -0.393031150103E+00
  0.153437566757E+02  0.000000000000E+00  0.393031150103E+00
  0.153685483932E+02  0.137921218872E+02 -0.760523796082E+00
  0.153685483932E+02  0.137921218872E+02  0.760523796082E+00
  0.158398418427E+02  0.317279767990E+01 -0.678053379059E+00
  0.158398418427E+02  0.317279767990E+01  0.678053379059E+00
  0.161016559601E+02  0.757896304131E+00 -0.393031239510E+00
  0.161016559601E+02  0.757896304131E+00  0.393031239510E+00
  0.163859348297E+02  0.102728376389E+02 -0.114008510113E+01
  0.163859348297E+02  0.102728376389E+02  0.114008510113E+01
  0.167387351990E+02  0.734362459183E+01 -0.980748176575E+00
  0.167387351990E+02  0.734362459183E+01  0.980748176575E+00
  0.171327381134E+02  0.178897356987E+01 -0.393031388521E+00
  0.171327381134E+02  0.178897356987E+01  0.393031388521E+00
  0.172004318237E+02  0.000000000000E+00 -0.192506864667E+00
  0.172004318237E+02  0.000000000000E+00  0.192506864667E+00
  0.172167816162E+02  0.137921218872E+02 -0.102349364758E+01
  0.172167816162E+02  0.137921218872E+02  0.102349364758E+01
  0.176636676788E+02  0.499661636353E+01 -0.678053736687E+00
  0.176636676788E+02  0.499661636353E+01  0.678053736687E+00
  0.178320064545E+02  0.178320064545E+02  0.000000000000E+00
  0.179583320618E+02  0.757896304131E+00 -0.192506924272E+00
  0.179583320618E+02  0.757896304131E+00  0.192506924272E+00
  0.183054752350E+02  0.178320064545E+02 -0.436296403408E+00
  0.183054752350E+02  0.178320064545E+02  0.436296403408E+00
  0.183450412750E+02  0.000000000000E+00 -0.698660761118E-01
  0.183450412750E+02  0.000000000000E+00  0.698660761118E-01
  0.185165691376E+02  0.317279767990E+01 -0.393031567335E+00
  0.185165691376E+02  0.317279767990E+01  0.393031567335E+00
  0.189894161224E+02  0.178897356987E+01 -0.192506983876E+00
  0.189894161224E+02  0.178897356987E+01  0.192506983876E+00
  0.190000000000E+02  0.000000000000E+00  0.000000000000E+00
  0.191029415131E+02  0.757896304131E+00 -0.698660910130E-01
  0.191029415131E+02  0.757896304131E+00  0.698660910130E-01
  0.194084339142E+02  0.178320064545E+02 -0.760524809361E+00
  0.194084339142E+02  0.178320064545E+02  0.760524809361E+00
  0.196679573059E+02  0.102728376389E+02 -0.980749070644E+00
  0.196679573059E+02  0.102728376389E+02  0.980749070644E+00
  0.197579002380E+02  0.757896304131E+00  0.000000000000E+00
  0.199052257538E+02  0.137921218872E+02 -0.114008641243E+01
  0.199052257538E+02  0.137921218872E+02  0.114008641243E+01
  0.200106849670E+02  0.734362459183E+01 -0.678054273129E+00
  0.200106849670E+02  0.734362459183E+01  0.678054273129E+00
  0.201340255737E+02  0.178897356987E+01 -0.698661133647E-01
  0.201340255737E+02  0.178897356987E+01  0.698661133647E-01
  0.203403968811E+02  0.499661636353E+01 -0.393031775951E+00
  0.203403968811E+02  0.499661636353E+01  0.393031775951E+00
  0.203732471466E+02  0.317279767990E+01 -0.192507073283E+00
  0.203732471466E+02  0.317279767990E+01  0.192507073283E+00
  0.207889842987E+02  0.178897356987E+01  0.000000000000E+00
  0.212566699982E+02  0.178320064545E+02 -0.102349495888E+01
  0.212566699982E+02  0.178320064545E+02  0.102349495888E+01
  0.215178565979E+02  0.317279767990E+01 -0.698661431670E-01
  0.215178565979E+02  0.317279767990E+01  0.698661431670E-01
  0.221728172302E+02  0.317279767990E+01  0.000000000000E+00
  0.221970767975E+02  0.499661636353E+01 -0.192507177591E+00
  0.221970767975E+02  0.499661636353E+01  0.192507177591E+00
  0.222339305878E+02  0.222339305878E+02  0.000000000000E+00
  0.226874179840E+02  0.734362459183E+01 -0.393032073975E+00
  0.226874179840E+02  0.734362459183E+01  0.393032073975E+00
  0.227074012756E+02  0.222339305878E+02 -0.436297029257E+00
  0.227074012756E+02  0.222339305878E+02  0.436297029257E+00
  0.229399108887E+02  0.102728376389E+02 -0.678054928780E+00
  0.229399108887E+02  0.102728376389E+02  0.678054928780E+00
  0.231872520447E+02  0.137921218872E+02 -0.980750203133E+00
  0.231872520447E+02  0.137921218872E+02  0.980750203133E+00
  0.233416862488E+02  0.499661636353E+01 -0.698661878705E-01
  0.233416862488E+02  0.499661636353E+01  0.698661878705E-01
  0.238103618622E+02  0.222339305878E+02 -0.760525882244E+00
  0.238103618622E+02  0.222339305878E+02  0.760525882244E+00
  0.239451179504E+02  0.178320064545E+02 -0.114008784294E+01
  0.239451179504E+02  0.178320064545E+02  0.114008784294E+01
  0.239966468811E+02  0.499661636353E+01  0.000000000000E+00
  0.245440979004E+02  0.734362459183E+01 -0.192507326603E+00
  0.245440979004E+02  0.734362459183E+01  0.192507326603E+00
  0.256166458130E+02  0.102728376389E+02 -0.393032461405E+00
  0.256166458130E+02  0.102728376389E+02  0.393032461405E+00
  0.256585998535E+02  0.222339305878E+02 -0.102349650860E+01
  0.256585998535E+02  0.222339305878E+02  0.102349650860E+01
  0.256887092590E+02  0.734362459183E+01 -0.698662400246E-01
  0.256887092590E+02  0.734362459183E+01  0.698662400246E-01
[...]
CELL_DATA                 904
SCALARS sigma float 1
LOOKUP_TABLE default
 -0.691744456329E-01
 -0.691744233217E-01
 -0.696358637032E-01
 -0.696358252535E-01
 -0.704682967031E-01
 -0.704683357818E-01
 -0.689883985316E-01
 -0.689883651570E-01
 -0.553343348638E-01
 -0.553343436345E-01
 -0.118439070314E-01
 -0.118439000252E-01
  0.798326573855E-01
  0.798326498601E-01
  0.175316072425E+00
  0.175316060519E+00
  0.305094190110E+00
  0.305094173389E+00
  0.582909697820E+00
  0.582909689557E+00
  0.538294215792E+00
  0.538294227904E+00
  0.237421647283E+00
  0.237421665491E+00
  0.103468696124E+00
  0.103468708626E+00
  0.668268222525E-02
  0.668268988543E-02
 -0.849591918523E-01
 -0.849591987008E-01
 -0.128002471444E+00
 -0.128002462540E+00
 -0.141458694003E+00
 -0.141458727764E+00
 -0.142915567934E+00
 -0.142915528719E+00
 -0.142096089469E+00
 -0.142096127773E+00
 -0.141641866879E+00
 -0.141641888994E+00
 -0.691744777698E-01
 -0.691744443994E-01
 -0.696358942770E-01
 -0.696358623313E-01
 -0.704682346375E-01
 -0.704682965750E-01
 -0.689883933088E-01
 -0.689883978074E-01
 -0.553343263613E-01
 -0.553343350816E-01
 -0.118439000163E-01
 -0.118439331401E-01
  0.798326503572E-01
  0.798326863312E-01
  0.175316061774E+00
  0.175316070163E+00
  0.305094176550E+00
  0.305094166742E+00
  0.582909718327E+00
  0.582909755721E+00
  0.538294291546E+00
  0.538294242360E+00
  0.237421639192E+00
  0.237421649743E+00
  0.103468705606E+00
  0.103468696866E+00
  0.668271877453E-02
  0.668268226686E-02
 -0.849592243021E-01
 -0.849591917886E-01
 -0.128002463043E+00
 -0.128002454255E+00
 -0.141458726279E+00
 -0.141458721760E+00
 -0.142915528459E+00
 -0.142915466618E+00
 -0.142096124974E+00
 -0.142096156699E+00
 -0.141641886468E+00
 -0.141641919487E+00
 -0.691742197671E-01
 -0.691744788410E-01
 -0.696359462158E-01
 -0.696358952093E-01
 -0.704682827209E-01
 -0.704682353864E-01
 -0.689883996469E-01
 -0.689883931312E-01
 -0.553343269190E-01
 -0.553343262035E-01
 -0.118439331679E-01
 -0.118439121227E-01
  0.798326861955E-01
  0.798326710562E-01
  0.175316069950E+00
  0.175316061927E+00
  0.305094163834E+00
  0.305094233716E+00
  0.582909718234E+00
  0.582909640015E+00
  0.538294159068E+00
  0.538294256928E+00
  0.237421711489E+00
  0.237421636929E+00
  0.103468697165E+00
  0.103468705480E+00
  0.668270343215E-02
  0.668271876317E-02
 -0.849592037835E-01
 -0.849592245019E-01
 -0.128002453890E+00
 -0.128002454608E+00
 -0.141458721396E+00
 -0.141458727908E+00
 -0.142915468137E+00
 -0.142915515229E+00
 -0.142096158602E+00
 -0.142096209145E+00
 -0.141641921680E+00
 -0.141641665666E+00
 -0.691742865050E-01
 -0.691742198683E-01
 -0.696359960915E-01
 -0.696359451610E-01
 -0.704682286660E-01
 -0.704682823740E-01
 -0.689883800968E-01
 -0.689883999885E-01
 -0.553343279046E-01
 -0.553343271890E-01
 -0.118439121243E-01
 -0.118439161596E-01
  0.798326708233E-01
  0.798326253448E-01
  0.175316062654E+00
  0.175316087870E+00
  0.305094239820E+00
  0.305094238742E+00
  0.582909645311E+00
  0.582909661562E+00
  0.538294183739E+00
  0.538294163959E+00
  0.237421715094E+00
  0.237421716238E+00
  0.103468723633E+00
  0.103468697594E+00
  0.668265742742E-02
  0.668270341265E-02
 -0.849592077760E-01
 -0.849592037951E-01
 -0.128002455232E+00
 -0.128002455947E+00
 -0.141458728609E+00
 -0.141458708798E+00
 -0.142915514525E+00
 -0.142915461228E+00
 -0.142096206992E+00
 -0.142096257381E+00
 -0.141641665873E+00
 -0.141641731664E+00
 -0.691743638065E-01
 -0.691742861255E-01
 -0.696359044573E-01
 -0.696359962197E-01
 -0.704683071332E-01
 -0.704682285709E-01
 -0.689883185713E-01
 -0.689883801236E-01
 -0.553343727945E-01
 -0.553343274477E-01
 -0.118439161271E-01
 -0.118439141891E-01
  0.798326254629E-01
  0.798326977778E-01
  0.175316085841E+00
  0.175316006611E+00
  0.305094238778E+00
  0.305094284319E+00
  0.582909652098E+00
  0.582909612020E+00
  0.538294127016E+00
  0.538294174999E+00
  0.237421763263E+00
  0.237421715123E+00
  0.103468640829E+00
  0.103468722435E+00
  0.668273048089E-02
  0.668265743731E-02
 -0.849592056283E-01
 -0.849592075429E-01
 -0.128002454890E+00
 -0.128002500053E+00
 -0.141458708853E+00
 -0.141458647708E+00
 -0.142915461036E+00
 -0.142915538856E+00
 -0.142096257642E+00
 -0.142096166958E+00
 -0.141641730886E+00
 -0.141641807532E+00
 -0.691741609991E-01
 -0.691743641036E-01
 -0.696359999607E-01
 -0.696359046436E-01
 -0.704683083563E-01
 -0.704683069744E-01
 -0.689883425638E-01
 -0.689883187096E-01
 -0.553343382473E-01
 -0.553343727659E-01
 -0.118439142118E-01
 -0.118439263181E-01
  0.798326978862E-01
  0.798326961027E-01
  0.175316006436E+00
  0.175316057379E+00
  0.305094278581E+00
  0.305094102114E+00
  0.582909610516E+00
  0.582909602192E+00
  0.538294115763E+00
  0.538294125627E+00
  0.237421572731E+00
  0.237421758798E+00
  0.103468693105E+00
  0.103468640725E+00
  0.668272868976E-02
  0.668273048996E-02
 -0.849592177635E-01
 -0.849592057913E-01
 -0.128002499987E+00
 -0.128002465672E+00
 -0.141458647991E+00
 -0.141458671646E+00
 -0.142915538534E+00
 -0.142915539901E+00
 -0.142096167338E+00
 -0.142096261463E+00
 -0.141641808140E+00
 -0.141641607832E+00
 -0.691745858226E-01
 -0.691741609204E-01
 -0.696357723271E-01
 -0.696360000933E-01
 -0.704683179577E-01
 -0.704683087418E-01
 -0.689883883128E-01
 -0.689883426831E-01
 -0.553343398386E-01
 -0.553343384128E-01
 -0.118439263195E-01
 -0.118439243831E-01
  0.798326961516E-01
  0.798326943581E-01
  0.175316058724E+00
  0.175316004498E+00
  0.305094108216E+00
  0.305094180646E+00
  0.582909630845E+00
  0.582909827107E+00
  0.538294373281E+00
  0.538294142223E+00
  0.237421653721E+00
  0.237421577480E+00
  0.103468638209E+00
  0.103468693899E+00
  0.668272688455E-02
  0.668272869385E-02
 -0.849592158575E-01
 -0.849592177738E-01
 -0.128002466055E+00
 -0.128002467471E+00
 -0.141458671891E+00
 -0.141458717084E+00
 -0.142915540683E+00
 -0.142915549793E+00
 -0.142096261733E+00
 -0.142096036934E+00
 -0.141641607670E+00
 -0.141642026598E+00
 -0.691741134344E-01
 -0.691745860457E-01
 -0.696359125511E-01
 -0.696357728518E-01
 -0.704683427297E-01
 -0.704683178407E-01
 -0.689883814104E-01
 -0.689883882702E-01
 -0.553343592471E-01
 -0.553343398867E-01
 -0.118439243845E-01
 -0.118439043716E-01
  0.798326942908E-01
  0.798326772998E-01
  0.175316003893E+00
  0.175315949566E+00
  0.305094183511E+00
  0.305094487044E+00
  0.582909811709E+00
  0.582909688358E+00
  0.538294214419E+00
  0.538294359061E+00
  0.237421975108E+00
  0.237421655951E+00
  0.103468582101E+00
  0.103468637852E+00
  0.668270974308E-02
  0.668272687891E-02
 -0.849591960549E-01
 -0.849592158681E-01
 -0.128002467582E+00
 -0.128002486788E+00
 -0.141458716997E+00
 -0.141458710208E+00
 -0.142915549555E+00
 -0.142915574144E+00
 -0.142096038004E+00
 -0.142096175838E+00
 -0.141642027055E+00
 -0.141641561178E+00
 -0.691742568180E-01
 -0.691741126637E-01
 -0.696357093185E-01
 -0.696359115860E-01
 -0.704682823094E-01
 -0.704683422344E-01
 -0.689884480851E-01
 -0.689883807206E-01
 -0.553343252006E-01
 -0.553343589382E-01
 -0.118439043522E-01
 -0.118439104880E-01
  0.798326773051E-01
  0.798326603077E-01
  0.175315948365E+00
  0.175316050825E+00
  0.305094480789E+00
  0.305094403427E+00
  0.582909637178E+00
  0.582909185864E+00
  0.538293639087E+00
  0.538294167157E+00
  0.237421888944E+00
  0.237421970241E+00
  0.103468686495E+00
  0.103468581391E+00
  0.668269260426E-02
  0.668270974353E-02
 -0.849592019916E-01
 -0.849591959155E-01
 -0.128002486073E+00
 -0.128002452620E+00
 -0.141458708794E+00
 -0.141458775435E+00
 -0.142915573139E+00
 -0.142915513955E+00
 -0.142096173869E+00
 -0.142095974340E+00
 -0.141641559600E+00
 -0.141641701685E+00
 -0.691744133230E-01
 -0.691742581008E-01
 -0.696358628579E-01
 -0.696357104946E-01
 -0.704684314897E-01
 -0.704682826494E-01
 -0.689883153071E-01
 -0.689884488049E-01
 -0.553342922051E-01
 -0.553343259419E-01
 -0.118439105260E-01
 -0.118439266681E-01
  0.798326603691E-01
  0.798327176195E-01
  0.175316052634E+00
  0.175316095652E+00
  0.305094410936E+00
  0.305093951650E+00
  0.582909290552E+00
  0.582910244129E+00
  0.538294850751E+00
  0.538293735762E+00
  0.237421412237E+00
  0.237421894788E+00
  0.103468731684E+00
  0.103468687562E+00
  0.668275033444E-02
  0.668269260940E-02
 -0.849592182506E-01
 -0.849592022646E-01
 -0.128002454335E+00
 -0.128002420888E+00
 -0.141458776911E+00
 -0.141458644865E+00
 -0.142915514645E+00
 -0.142915661631E+00
 -0.142095976740E+00
 -0.142096127031E+00
 -0.141641704312E+00
 -0.141641857301E+00
 -0.691739509262E-01
 -0.691744123824E-01
 -0.696360204832E-01
 -0.696358617626E-01
 -0.704683631242E-01
 -0.704684308776E-01
 -0.689883083397E-01
 -0.689883151970E-01
 -0.553343289408E-01
 -0.553342916484E-01
 -0.118439266316E-01
 -0.118439066180E-01
  0.798327174821E-01
  0.798327004863E-01
  0.175316093291E+00
  0.175315971244E+00
  0.305093931823E+00
  0.305093895049E+00
  0.582910192945E+00
  0.582909741594E+00
  0.538294275372E+00
  0.538294803484E+00
  0.237421358164E+00
  0.237421396808E+00
  0.103468605096E+00
  0.103468730291E+00
  0.668273318526E-02
  0.668275032294E-02
 -0.849591981704E-01
 -0.849592179890E-01
 -0.128002419600E+00
 -0.128002456578E+00
 -0.141458644639E+00
 -0.141458637855E+00
 -0.142915660390E+00
 -0.142915593474E+00
 -0.142096124796E+00
 -0.142096281368E+00
 -0.141641855375E+00
 -0.141641400542E+00
 -0.691740955327E-01
 -0.691739513651E-01
 -0.696358058663E-01
 -0.696360208684E-01
 -0.704682806842E-01
 -0.704683641294E-01
 -0.689884500394E-01
 -0.689883084010E-01
 -0.553343303720E-01
 -0.553343289505E-01
 -0.118439066225E-01
 -0.118439408403E-01
  0.798327005947E-01
  0.798326227890E-01
  0.175315974911E+00
  0.175316212466E+00
  0.305093901356E+00
  0.305094164433E+00
  0.582909682891E+00
  0.582909212637E+00
  0.538293669740E+00
  0.538294221162E+00
  0.237421639691E+00
  0.237421363072E+00
  0.103468851044E+00
  0.103468607260E+00
  0.668265472539E-02
  0.668273319433E-02
 -0.849592320794E-01
 -0.849591982032E-01
 -0.128002456600E+00
 -0.128002458010E+00
 -0.141458637981E+00
 -0.141458778158E+00
 -0.142915595512E+00
 -0.142915513074E+00
 -0.142096282154E+00
 -0.142096070023E+00
 -0.141641401441E+00
 -0.141641543554E+00
 -0.691742060161E-01
 -0.691740950983E-01
 -0.696359196477E-01
 -0.696358053228E-01
 -0.704681886958E-01
 -0.704682800241E-01
 -0.689884206210E-01
 -0.689884492924E-01
 -0.553343317561E-01
 -0.553343303306E-01
 -0.118439408509E-01
 -0.118439389178E-01
  0.798326225992E-01
  0.798326494183E-01
  0.175316212029E+00
  0.175316031036E+00
  0.305094183754E+00
  0.305094445746E+00
  0.582909241295E+00
  0.582909437591E+00
  0.538293927303E+00
  0.538293696205E+00
  0.237421930502E+00
  0.237421654727E+00
  0.103468664908E+00
  0.103468850786E+00
  0.668268176574E-02
  0.668265470950E-02
 -0.849592302425E-01
 -0.849592321556E-01
 -0.128002457914E+00
 -0.128002459330E+00
 -0.141458776627E+00
 -0.141458748229E+00
 -0.142915511735E+00
 -0.142915421459E+00
 -0.142096068914E+00
 -0.142096181750E+00
 -0.141641542665E+00
 -0.141641652023E+00
 -0.691743067009E-01
 -0.691742068472E-01
 -0.696360157029E-01
 -0.696359203685E-01
 -0.704682990468E-01
 -0.704681891927E-01
 -0.689883488644E-01
 -0.689884212289E-01
 -0.553343155856E-01
 -0.553343321341E-01
 -0.118439389442E-01
 -0.118439370077E-01
  0.798326495974E-01
  0.798326933795E-01
  0.175316028308E+00
  0.175315877370E+00
  0.305094453410E+00
  0.305094653638E+00
  0.582909465946E+00
  0.582909622847E+00
  0.538294139412E+00
  0.538293953487E+00
  0.237422147586E+00
  0.237421936466E+00
  0.103468508104E+00
  0.103468663298E+00
  0.668272597172E-02
  0.668268178073E-02
 -0.849592285170E-01
 -0.849592304321E-01
 -0.128002460204E+00
 -0.128002443753E+00
 -0.141458749476E+00
 -0.141458677716E+00
 -0.142915422467E+00
 -0.142915531147E+00
 -0.142096183221E+00
 -0.142096277362E+00
 -0.141641653725E+00
 -0.141641752204E+00
 -0.691743832420E-01
 -0.691743055461E-01
 -0.696357494515E-01
 -0.696360156672E-01
 -0.704683773850E-01
 -0.704682988241E-01
 -0.689882881197E-01
 -0.689883496708E-01
 -0.553343872364E-01
 -0.553343152536E-01
 -0.118439369742E-01
 -0.118438988965E-01
  0.798326934346E-01
  0.798326934309E-01
  0.175315874496E+00
  0.175315992256E+00
  0.305094625629E+00
  0.305094057959E+00
  0.582909650653E+00
  0.582909768405E+00
  0.538294306070E+00
  0.538294165089E+00
  0.237421525714E+00
  0.237422125790E+00
  0.103468627700E+00
  0.103468506407E+00
  0.668272597262E-02
  0.668272597632E-02
 -0.849591906588E-01
 -0.849592282770E-01
 -0.128002442986E+00
 -0.128002514677E+00
 -0.141458679369E+00
 -0.141458618225E+00
 -0.142915530696E+00
 -0.142915608515E+00
 -0.142096277289E+00
 -0.142096014201E+00
 -0.141641749839E+00
 -0.141641826499E+00
 -0.691744498597E-01
 -0.691743832396E-01
 -0.696358129852E-01
 -0.696357493139E-01
 -0.704682071969E-01
 -0.704683775629E-01
 -0.689883646356E-01
 -0.689882879184E-01
 -0.553343346157E-01
 -0.553343872816E-01
 -0.118438989000E-01
 -0.118439350326E-01
  0.798326934875E-01
  0.798326765467E-01
  0.175315999546E+00
  0.175316087343E+00
  0.305094064772E+00
  0.305094182079E+00
  0.582909794429E+00
  0.582909874266E+00
  0.538294427275E+00
  0.538294330101E+00
  0.237421655485E+00
  0.237421531016E+00
  0.103468722664E+00
  0.103468632003E+00
  0.668270884780E-02
  0.668272597736E-02
 -0.849592263288E-01
 -0.849591906838E-01
 -0.128002514781E+00
 -0.128002462188E+00
 -0.141458617812E+00
 -0.141458694216E+00
 -0.142915608876E+00
 -0.142915439814E+00
 -0.142096013920E+00
 -0.142096076914E+00
 -0.141641826494E+00
 -0.141641892268E+00
 -0.691744926460E-01
 -0.691744481687E-01
 -0.696355145294E-01
 -0.696358132877E-01
 -0.704682546675E-01
 -0.704682073336E-01
 -0.689884068805E-01
 -0.689883628929E-01
 -0.553343697954E-01
 -0.553343336303E-01
 -0.118439349894E-01
 -0.118438969370E-01
  0.798326761956E-01
  0.798326761956E-01
  0.175316080717E+00
  0.175316138742E+00
  0.305094129877E+00
  0.305093504963E+00
  0.582909904263E+00
  0.582909966853E+00
  0.538294533282E+00
  0.538294454976E+00
  0.237420948125E+00
  0.237421614863E+00
  0.103468778892E+00
  0.103468718753E+00
  0.668270881841E-02
  0.668270881841E-02
 -0.849591885576E-01
 -0.849592260190E-01
 -0.128002459908E+00
 -0.128002496161E+00
 -0.141458690643E+00
 -0.141458734608E+00
 -0.142915440091E+00
 -0.142915487183E+00
 -0.142096077531E+00
 -0.142095781488E+00
 -0.141641888806E+00
 -0.141641932758E+00
 -0.691745293931E-01
 -0.691744960070E-01
 -0.696355497816E-01
 -0.696355178366E-01
 -0.704683030287E-01
 -0.704682555300E-01
 -0.689884406845E-01
 -0.689884075349E-01
 -0.553342826428E-01
 -0.553343719916E-01
 -0.118438970453E-01
 -0.118439150933E-01
  0.798326766158E-01
  0.798326766121E-01
  0.175316150265E+00
  0.175315946599E+00
  0.305093594285E+00
  0.305094349542E+00
  0.582909995640E+00
  0.582910033056E+00
  0.538294609082E+00
  0.538294559866E+00
  0.237421830047E+00
  0.237421017634E+00
  0.103468573488E+00
  0.103468785693E+00
  0.668270884988E-02
  0.668270885359E-02
 -0.849592070505E-01
 -0.849591893350E-01
 -0.128002501241E+00
 -0.128002411197E+00
 -0.141458735950E+00
 -0.141458769250E+00
 -0.142915488932E+00
 -0.142915536357E+00
 -0.142095788236E+00
 -0.142095819962E+00
 -0.141641939640E+00
 -0.141641972674E+00
 -0.691745543932E-01
 -0.691745320984E-01
 -0.696362732466E-01
 -0.696355445338E-01
 -0.704683213322E-01
 -0.704682974672E-01
 -0.689882990720E-01
 -0.689884395727E-01
 -0.553343181283E-01
 -0.553342816024E-01
 -0.118439149719E-01
 -0.118439510544E-01
  0.798326762904E-01
  0.798326594690E-01
  0.175315935977E+00
  0.175316220583E+00
  0.305094243385E+00
  0.305093627241E+00
  0.582910056540E+00
  0.582910072753E+00
  0.538294654534E+00
  0.538294630768E+00
  0.237421076457E+00
  0.237421747437E+00
  0.103468866038E+00
  0.103468567219E+00
  0.668269170003E-02
  0.668270882295E-02
 -0.849592414499E-01
 -0.849592061798E-01
 -0.128002408791E+00
 -0.128002445875E+00
 -0.141458766970E+00
 -0.141458624844E+00
 -0.142915525078E+00
 -0.142915549026E+00
 -0.142095809253E+00
 -0.142096535215E+00
 -0.141641978213E+00
 -0.141642000313E+00
 -0.692529677458E-01
 -0.697203850545E-01
 -0.697216002319E-01
 -0.705671871819E-01
 -0.705666266315E-01
 -0.690640348584E-01
 -0.690638310621E-01
 -0.552418799675E-01
 -0.552419222470E-01
 -0.117211833884E-01
 -0.117212568588E-01
  0.776116641158E-01
  0.776116385505E-01
  0.167585469940E+00
  0.167585687650E+00
  0.286254099083E+00
  0.286254681083E+00
  0.542854286608E+00
  0.501304702614E+00
  0.222761154115E+00
  0.222760327573E+00
  0.989065601729E-01
  0.989062990372E-01
  0.649674578586E-02
  0.649677496732E-02
 -0.840786830571E-01
 -0.840786022334E-01
 -0.127788710544E+00
 -0.127788671210E+00
 -0.141613501129E+00
 -0.141613689562E+00
 -0.143114920255E+00
 -0.143115430256E+00
 -0.142270649486E+00
 -0.142269576072E+00
 -0.141802559701E+00
 -0.780616097322E-01
 -0.785621225069E-01
 -0.785633964025E-01
 -0.794721954949E-01
 -0.794728011129E-01
 -0.778585940463E-01
 -0.778584994715E-01
 -0.631076742174E-01
 -0.631072793388E-01
 -0.176755808527E-01
 -0.176750572479E-01
  0.711252853735E-01
  0.711251448731E-01
  0.155458359519E+00
  0.155458085084E+00
  0.261197323954E+00
  0.261197446936E+00
  0.489191763479E+00
  0.457374828862E+00
  0.211401449180E+00
  0.211401239295E+00
  0.998741669060E-01
  0.998745607544E-01
  0.118578449628E-01
  0.118580405708E-01
 -0.799784113305E-01
 -0.799791476838E-01
 -0.126634659872E+00
 -0.126634948745E+00
 -0.141734884679E+00
 -0.141734949596E+00
 -0.143385915679E+00
 -0.143385536709E+00
 -0.142456075978E+00
 -0.142455398582E+00
 -0.141943469140E+00
 -0.913712818327E-01
 -0.919088216506E-01
 -0.919029394476E-01
 -0.928707649320E-01
 -0.928738202463E-01
 -0.911522822797E-01
 -0.911526281341E-01
 -0.755073690157E-01
 -0.755081067445E-01
 -0.282077709851E-01
 -0.282080690114E-01
  0.608095460826E-01
  0.608101822100E-01
  0.141990638654E+00
  0.141989669662E+00
  0.240797040416E+00
  0.240796211285E+00
  0.454523899796E+00
  0.434378211189E+00
  0.208852031912E+00
  0.208853507636E+00
  0.105643230949E+00
  0.105644769472E+00
  0.212811980137E-01
  0.212801881420E-01
 -0.707947171487E-01
 -0.707942200907E-01
 -0.119536097360E+00
 -0.119535658337E+00
 -0.135629575443E+00
 -0.135629393244E+00
 -0.137399443753E+00
 -0.137398091605E+00
 -0.136403014898E+00
 -0.136404882968E+00
 -0.135852189107E+00
 -0.107590520702E+00
 -0.108152790364E+00
 -0.108153577303E+00
 -0.109166420234E+00
 -0.109164586268E+00
 -0.107365194876E+00
 -0.107363307864E+00
 -0.910366648274E-01
 -0.910361525406E-01
 -0.422217481923E-01
 -0.422214428862E-01
  0.477031264375E-01
  0.477022382014E-01
  0.127993728797E+00
  0.127994674887E+00
  0.224378724681E+00
  0.224378070694E+00
  0.433656516355E+00
  0.426744361985E+00
  0.213354413583E+00
  0.213355504962E+00
  0.115334632170E+00
  0.115333122026E+00
  0.337908930895E-01
  0.337923518149E-01
 -0.574144310964E-01
 -0.574149678828E-01
 -0.106873045373E+00
 -0.106873311935E+00
 -0.123406967429E+00
 -0.123407791653E+00
 -0.125229739465E+00
 -0.125230360525E+00
 -0.124204824888E+00
 -0.124204671459E+00
 -0.123635345095E+00
SCALARS inclination float 1
LOOKUP_TABLE default
  0.100000000000E+01
  0.100000000000E+01
  0.100000000000E+01
  0.100000000000E+01
  0.100000000000E+01
  0.100000000000E+01
  0.100000000000E+01
  0.100000000000E+01
  0.100000000000E+01
  0.100000000000E+01
  0.100000000000E+01
  0.100000000000E+01
  0.100000000000E+01
  0.100000000000E+01
  0.100000000000E+01
  0.100000000000E+01
  0.100000000000E+01
  0.100000000000E+01
  0.100000000000E+01
  0.100000000000E+01
  0.100000000000E+01
  0.100000000000E+01
  0.100000000000E+01
  0.100000000000E+01
  0.100000000000E+01
  0.100000000000E+01
  0.100000000000E+01
  0.100000000000E+01
  0.100000000000E+01
  0.100000000000E+01
  0.100000000000E+01
  0.100000000000E+01
  0.100000000000E+01
  0.100000000000E+01
  0.100000000000E+01
  0.100000000000E+01
  0.100000000000E+01
  0.100000000000E+01
  0.100000000000E+01
  0.100000000000E+01
  0.100000000000E+01
  0.100000000000E+01