# vtk DataFile Version 3.0
TriPan results file. Generated by TriPan, USU AeroLab (c) 2021.
ASCII
DATASET POLYDATA
POINTS                 144 float
  0.000000000000E+00  0.000000000000E+00  0.000000000000E+00
  0.113538098335E+01  0.000000000000E+00 -0.658124566078E+00
  0.113538098335E+01  0.000000000000E+00  0.658124566078E+00
  0.192375373840E+01  0.192375373840E+01  0.000000000000E+00
  0.305913543701E+01  0.192375373840E+01 -0.658124983311E+00
  0.305913543701E+01  0.192375373840E+01  0.658124983311E+00
  0.423028087616E+01  0.000000000000E+00 -0.108747220039E+01
  0.423028087616E+01  0.000000000000E+00  0.108747220039E+01
  0.547033166885E+01  0.547033166885E+01  0.000000000000E+00
  0.615403699875E+01  0.192375373840E+01 -0.108747279644E+01
  0.615403699875E+01  0.192375373840E+01  0.108747279644E+01
  0.660571479797E+01  0.547033166885E+01 -0.658125698566E+00
  0.660571479797E+01  0.547033166885E+01  0.658125698566E+00
  0.939508819580E+01  0.000000000000E+00 -0.980745851994E+00
  0.939508819580E+01  0.000000000000E+00  0.980745851994E+00
  0.970061969757E+01  0.547033166885E+01 -0.108747410774E+01
  0.970061969757E+01  0.547033166885E+01  0.108747410774E+01
  0.113188476562E+02  0.192375373840E+01 -0.980746448040E+00
  0.113188476562E+02  0.192375373840E+01  0.980746448040E+00
  0.113820018768E+02  0.113820018768E+02  0.000000000000E+00
  0.125173873901E+02  0.113820018768E+02 -0.658127009869E+00
  0.125173873901E+02  0.113820018768E+02  0.658127009869E+00
  0.145402030945E+02  0.000000000000E+00 -0.479613035917E+00
  0.145402030945E+02  0.000000000000E+00  0.479613035917E+00
  0.148654365540E+02  0.547033166885E+01 -0.980747580528E+00
  0.148654365540E+02  0.547033166885E+01  0.980747580528E+00
  0.156122989655E+02  0.113820018768E+02 -0.108747613430E+01
  0.156122989655E+02  0.113820018768E+02  0.108747613430E+01
  0.164639663696E+02  0.192375373840E+01 -0.479613333941E+00
  0.164639663696E+02  0.192375373840E+01  0.479613333941E+00
  0.176505107880E+02  0.000000000000E+00 -0.144198849797E+00
  0.176505107880E+02  0.000000000000E+00  0.144198849797E+00
  0.190000000000E+02  0.000000000000E+00  0.000000000000E+00
  0.195742740631E+02  0.192375373840E+01 -0.144198939204E+00
  0.195742740631E+02  0.192375373840E+01  0.144198939204E+00
  0.197561950684E+02  0.197561950684E+02  0.000000000000E+00
  0.200105609894E+02  0.547033166885E+01 -0.479613870382E+00
  0.200105609894E+02  0.547033166885E+01  0.479613870382E+00
  0.207771244049E+02  0.113820018768E+02 -0.980749428272E+00
  0.207771244049E+02  0.113820018768E+02  0.980749428272E+00
  0.208915824890E+02  0.197561950684E+02 -0.658128738403E+00
  0.208915824890E+02  0.197561950684E+02  0.658128738403E+00
  0.209237651825E+02  0.192375373840E+01  0.000000000000E+00
  0.231208724976E+02  0.547033166885E+01 -0.144199103117E+00
  0.231208724976E+02  0.547033166885E+01  0.144199103117E+00
  0.239865016937E+02  0.197561950684E+02 -0.108747911453E+01
  0.239865016937E+02  0.197561950684E+02  0.108747911453E+01
  0.244703655243E+02  0.547033166885E+01  0.000000000000E+00
  0.259222583771E+02  0.113820018768E+02 -0.479614794254E+00
  0.259222583771E+02  0.113820018768E+02  0.479614794254E+00
  0.290325775146E+02  0.113820018768E+02 -0.144199386239E+00
  0.290325775146E+02  0.113820018768E+02  0.144199386239E+00
  0.291513423920E+02  0.197561950684E+02 -0.980752110481E+00
  0.291513423920E+02  0.197561950684E+02  0.980752110481E+00
  0.292438049316E+02  0.292438049316E+02  0.000000000000E+00
  0.303791980743E+02  0.292438049316E+02 -0.658130764961E+00
  0.303791980743E+02  0.292438049316E+02  0.658130764961E+00
  0.303820724487E+02  0.113820018768E+02  0.000000000000E+00
  0.334741249084E+02  0.292438049316E+02 -0.108748245239E+01
  0.334741249084E+02  0.292438049316E+02  0.108748245239E+01
  0.342964897156E+02  0.197561950684E+02 -0.479616105556E+00
  0.342964897156E+02  0.197561950684E+02  0.479616105556E+00
  0.374068183899E+02  0.197561950684E+02 -0.144199773669E+00
  0.374068183899E+02  0.197561950684E+02  0.144199773669E+00
  0.376179962158E+02  0.376179962158E+02  0.000000000000E+00
  0.386389808655E+02  0.292438049316E+02 -0.980755090714E+00
  0.386389808655E+02  0.292438049316E+02  0.980755090714E+00
  0.387533912659E+02  0.376179962158E+02 -0.658132553101E+00
  0.387533912659E+02  0.376179962158E+02  0.658132553101E+00
  0.387563171387E+02  0.197561950684E+02  0.000000000000E+00
  0.418483314514E+02  0.376179962158E+02 -0.108748543262E+01
  0.418483314514E+02  0.376179962158E+02  0.108748543262E+01
  0.435296669006E+02  0.435296669006E+02  0.000000000000E+00
  0.437841453552E+02  0.292438049316E+02 -0.479617565870E+00
  0.437841453552E+02  0.292438049316E+02  0.479617565870E+00
  0.446650657654E+02  0.435296669006E+02 -0.658133804798E+00
  0.446650657654E+02  0.435296669006E+02  0.658133804798E+00
  0.468944816589E+02  0.292438049316E+02 -0.144200220704E+00
  0.468944816589E+02  0.292438049316E+02  0.144200220704E+00
  0.470131988525E+02  0.376179962158E+02 -0.980757772923E+00
  0.470131988525E+02  0.376179962158E+02  0.980757772923E+00
  0.470762481689E+02  0.470762481689E+02  0.000000000000E+00
  0.477600097656E+02  0.435296669006E+02 -0.108748745918E+01
  0.477600097656E+02  0.435296669006E+02  0.108748745918E+01
  0.482116432190E+02  0.470762481689E+02 -0.658134579659E+00
  0.482116432190E+02  0.470762481689E+02  0.658134579659E+00
  0.482439842224E+02  0.292438049316E+02  0.000000000000E+00
  0.490000000000E+02  0.490000000000E+02  0.000000000000E+00
  0.501353988647E+02  0.490000000000E+02 -0.658134996891E+00
  0.501353988647E+02  0.490000000000E+02  0.658134996891E+00
  0.506007728577E+02  0.494653701782E+02 -0.465371757746E+00
  0.506007728577E+02  0.494653701782E+02  0.465371757746E+00
  0.507935333252E+02  0.496581344604E+02 -0.771266485397E-15
  0.513065910339E+02  0.470762481689E+02 -0.108748877048E+01
  0.513065910339E+02  0.470762481689E+02  0.108748877048E+01
  0.521583786011E+02  0.376179962158E+02 -0.479618877172E+00
  0.521583786011E+02  0.376179962158E+02  0.479618877172E+00
  0.529248886108E+02  0.435296669006E+02 -0.980759620667E+00
  0.529248886108E+02  0.435296669006E+02  0.980759620667E+00
  0.532303466797E+02  0.490000000000E+02 -0.108748936653E+01
  0.532303466797E+02  0.490000000000E+02  0.108748936653E+01
  0.539993209839E+02  0.497689704895E+02 -0.768971264362E+00
  0.539993209839E+02  0.497689704895E+02  0.768971264362E+00
  0.543178405762E+02  0.500874900818E+02 -0.157378642191E-15
  0.552687225342E+02  0.376179962158E+02 -0.144200608134E+00
  0.552687225342E+02  0.376179962158E+02  0.144200608134E+00
  0.564714775085E+02  0.470762481689E+02 -0.980760753155E+00
  0.564714775085E+02  0.470762481689E+02  0.980760753155E+00
  0.566182289124E+02  0.376179962158E+02  0.000000000000E+00
  0.580700759888E+02  0.435296669006E+02 -0.479619771242E+00
  0.580700759888E+02  0.435296669006E+02  0.479619771242E+00
  0.583952369690E+02  0.490000000000E+02 -0.980761349201E+00
  0.583952369690E+02  0.490000000000E+02  0.980761349201E+00
  0.590887413025E+02  0.496935043335E+02 -0.693503141403E+00
  0.590887413025E+02  0.496935043335E+02  0.693503141403E+00
  0.593759994507E+02  0.499807624817E+02  0.000000000000E+00
  0.611804275513E+02  0.435296669006E+02 -0.144200876355E+00
  0.611804275513E+02  0.435296669006E+02  0.144200876355E+00
  0.616166725159E+02  0.470762481689E+02 -0.479620337486E+00
  0.616166725159E+02  0.470762481689E+02  0.479620337486E+00
  0.625299339294E+02  0.435296669006E+02  0.000000000000E+00
  0.635404319763E+02  0.490000000000E+02 -0.479620635509E+00
  0.635404319763E+02  0.490000000000E+02  0.479620635509E+00
  0.638795776367E+02  0.493391418457E+02 -0.339143037796E+00
  0.638795776367E+02  0.493391418457E+02  0.339143037796E+00
  0.640200576782E+02  0.494796218872E+02  0.296956834055E-15
  0.647270278931E+02  0.470762481689E+02 -0.144201040268E+00
  0.647270278931E+02  0.470762481689E+02  0.144201040268E+00
  0.660765380859E+02  0.470762481689E+02  0.000000000000E+00
  0.666507873535E+02  0.490000000000E+02 -0.144201144576E+00
  0.666507873535E+02  0.490000000000E+02  0.144201144576E+00
  0.667527542114E+02  0.491019668579E+02 -0.101965606213E+00
  0.667527542114E+02  0.491019668579E+02  0.101965606213E+00
  0.667949905396E+02  0.491441993713E+02 -0.260488604752E-16
  0.680002975464E+02  0.490000000000E+02  0.000000000000E+00
  0.209237651825E+02  0.192375373840E+01  0.000000000000E+00
  0.190000000000E+02  0.000000000000E+00  0.000000000000E+00
  0.244703655243E+02  0.547033166885E+01  0.000000000000E+00
  0.303820724487E+02  0.113820018768E+02  0.000000000000E+00
  0.387563171387E+02  0.197561950684E+02  0.000000000000E+00
  0.482439842224E+02  0.292438049316E+02  0.000000000000E+00
  0.566182289124E+02  0.376179962158E+02  0.000000000000E+00
  0.625299339294E+02  0.435296669006E+02  0.000000000000E+00
  0.660765380859E+02  0.470762481689E+02  0.000000000000E+00
POLYGONS                 256                1024
3                  32                  33                  42
3                  32                  30                  33
3                  30                  28                  33
3                  30                  22                  28
3                  22                  17                  28
3                  22                  13                  17
3                  13                   6                  17
3                  17                   6                   9
3                   6                   1                   9
3                   9                   1                   4
3                   1                   0                   4
3                   4                   0                   3
3                   0                   5                   3
3                   0                   2                   5
3                   2                  10                   5
3                   2                   7                  10
[...]
CELL_DATA                 256
SCALARS sigma float 1
LOOKUP_TABLE default
 -0.693514558851E-01
 -0.693515388575E-01
 -0.703105116636E-01
 -0.703104455925E-01
 -0.601229036236E-01
 -0.601229178268E-01
  0.159866127405E-01
  0.159866261002E-01
  0.171999090458E+00
  0.171999075169E+00
  0.476318065585E+00
  0.476318066385E+00
  0.419640323395E+00
  0.419640322477E+00
  0.100082641970E+00
  0.100082657850E+00
 -0.572695166316E-01
 -0.572695298966E-01
 -0.132724814420E+00
 -0.132724800150E+00
 -0.142760156244E+00
 -0.142760222119E+00
 -0.141816230418E+00
 -0.141816148279E+00
 -0.693514268188E-01
 -0.693514556799E-01
 -0.703104988532E-01
 -0.703105110882E-01
 -0.601229111502E-01
 -0.601229037227E-01
  0.159866260844E-01
  0.159866162646E-01
  0.171999075581E+00
  0.171999114884E+00
  0.476318061080E+00
  0.476318021970E+00
  0.419640275036E+00
  0.419640318721E+00
  0.100082682699E+00
  0.100082642210E+00
 -0.572695263436E-01
 -0.572695165751E-01
 -0.132724800369E+00
 -0.132724807768E+00
 -0.142760220951E+00
 -0.142760208823E+00
 -0.141816147860E+00
 -0.141816119361E+00
 -0.693514841211E-01
 -0.693514268055E-01
 -0.703104418183E-01
 -0.703104989836E-01
 -0.601229102291E-01
 -0.601229111867E-01
  0.159866162723E-01
  0.159866159903E-01
  0.171999114527E+00
  0.171999051666E+00
  0.476318019995E+00
  0.476317994415E+00
  0.419640245034E+00
  0.419640273296E+00
  0.100082617978E+00
  0.100082682491E+00
 -0.572695266518E-01
 -0.572695263711E-01
 -0.132724807848E+00
 -0.132724806898E+00
 -0.142760209088E+00
 -0.142760152581E+00
 -0.141816119334E+00
 -0.141816175861E+00
 -0.693514696040E-01
 -0.693514841859E-01
 -0.703104092694E-01
 -0.703104420780E-01
 -0.601229236555E-01
 -0.601229102027E-01
  0.159866159880E-01
  0.159866193351E-01
  0.171999052402E+00
  0.171999110250E+00
  0.476318006699E+00
  0.476318237250E+00
  0.419640509432E+00
  0.419640255857E+00
  0.100082677676E+00
  0.100082618406E+00
 -0.572695233097E-01
 -0.572695266436E-01
 -0.132724806840E+00
 -0.132724820161E+00
 -0.142760153108E+00
 -0.142760120718E+00
 -0.141816175994E+00
 -0.141816161620E+00
 -0.693514981344E-01
 -0.693514696657E-01
 -0.703104689229E-01
 -0.703104091663E-01
 -0.601228946028E-01
 -0.601229236121E-01
  0.159866193361E-01
  0.159866111449E-01
  0.171999109831E+00
  0.171999185593E+00
  0.476318214793E+00
  0.476317734300E+00
  0.419639961823E+00
  0.419640489647E+00
  0.100082755021E+00
  0.100082677433E+00
 -0.572695314729E-01
 -0.572695233133E-01
 -0.132724820065E+00
 -0.132724791355E+00
 -0.142760120508E+00
 -0.142760179483E+00
 -0.141816161746E+00
 -0.141816189804E+00
 -0.693514833019E-01
 -0.693514978837E-01
 -0.703105003313E-01
 -0.703104686057E-01
 -0.601228725551E-01
 -0.601228945625E-01
  0.159866111432E-01
  0.159865992308E-01
  0.171999184977E+00
  0.171998987431E+00
  0.476317747759E+00
  0.476318000347E+00
  0.419640251493E+00
  0.419639973680E+00
  0.100082552261E+00
  0.100082754663E+00
 -0.572695433319E-01
 -0.572695314666E-01
 -0.132724791266E+00
 -0.132724769474E+00
 -0.142760178839E+00
 -0.142760210160E+00
 -0.141816189291E+00
 -0.141816174918E+00
 -0.693516772625E-01
 -0.693514834144E-01
 -0.703104388276E-01
 -0.703105006761E-01
 -0.601229129080E-01
 -0.601228726576E-01
  0.159865992355E-01
  0.159866103990E-01
  0.171998987014E+00
  0.171999060249E+00
  0.476317973545E+00
  0.476317626333E+00
  0.419639844270E+00
  0.419640227881E+00
  0.100082627178E+00
  0.100082552018E+00
 -0.572695322338E-01
 -0.572695433488E-01
 -0.132724769700E+00
 -0.132724809630E+00
 -0.142760210860E+00
 -0.142760149724E+00
 -0.141816175148E+00
 -0.141816366330E+00
 -0.693515009385E-01
 -0.693516772602E-01
 -0.703104363349E-01
 -0.703104391834E-01
 -0.601228793459E-01
 -0.601229132664E-01
  0.159866104009E-01
  0.159866063044E-01
  0.171999065936E+00
  0.171999068074E+00
  0.476317765366E+00
  0.476318790304E+00
  0.419641111594E+00
  0.419639966758E+00
  0.100082632690E+00
  0.100082630487E+00
 -0.572695363156E-01
 -0.572695322406E-01
 -0.132724810421E+00
 -0.132724776631E+00
 -0.142760150447E+00
 -0.142760147623E+00
 -0.141816366325E+00
 -0.141816192218E+00
 -0.693515781109E-01
 -0.693515024716E-01
 -0.703104980085E-01
 -0.703104366579E-01
 -0.601229362399E-01
 -0.601228786712E-01
  0.159866062971E-01
  0.159866215654E-01
  0.171999060424E+00
  0.171999112288E+00
  0.476318636317E+00
  0.476318091036E+00
  0.419640350235E+00
  0.419640975930E+00
  0.100082682105E+00
  0.100082628238E+00
 -0.572695211294E-01
 -0.572695362895E-01
 -0.132724775142E+00
 -0.132724832982E+00
 -0.142760148279E+00
 -0.142760209447E+00
 -0.141816195353E+00
 -0.141816270232E+00
 -0.666967160356E-01
 -0.676443902991E-01
 -0.676448362084E-01
 -0.576088416968E-01
 -0.576087042013E-01
  0.148796697943E-01
  0.148797914961E-01
  0.152272400951E+00
  0.152272614471E+00
  0.404033185667E+00
  0.355956724573E+00
  0.886043915006E-01
  0.886041218181E-01
 -0.533038945717E-01
 -0.533040430212E-01
 -0.127174521432E+00
 -0.127174637010E+00
 -0.137347782460E+00
 -0.137347429405E+00
 -0.136387372322E+00
 -0.925022004059E-01
 -0.935723584242E-01
 -0.935686921370E-01
 -0.823306850802E-01
 -0.823317363926E-01
 -0.514473659931E-02
 -0.514494694214E-02
  0.126113623015E+00
  0.126113442066E+00
  0.343035959790E+00
  0.325517627240E+00
  0.101223408568E+00
  0.101223680601E+00
 -0.336882966295E-01
 -0.336879610207E-01
 -0.112753128848E+00
 -0.112752517540E+00
 -0.124247229757E+00
 -0.124248925929E+00
 -0.123154506477E+00
SCALARS inclination float 1
LOOKUP_TABLE default
  0.100000000000E+01
  0.100000000000E+01
  0.100000000000E+01
  0.100000000000E+01
  0.100000000000E+01
  0.100000000000E+01
  0.100000000000E+01
  0.100000000000E+01
  0.100000000000E+01
  0.100000000000E+01
  0.100000000000E+01
  0.100000000000E+01
  0.100000000000E+01
  0.100000000000E+01
  0.100000000000E+01
  0.100000000000E+01
  0.100000000000E+01
  0.100000000000E+01
  0.100000000000E+01
  0.100000000000E+01
  0.100000000000E+01
  0.100000000000E+01
  0.100000000000E+01
  0.100000000000E+01
  0.100000000000E+01
  0.100000000000E+01
  0.100000000000E+01
  0.100000000000E+01
  0.100000000000E+01
  0.100000000000E+01
  0.100000000000E+01
  0.100000000000E+01
  0.100000000000E+01
  0.100000000000E+01
  0.100000000000E+01
  0.100000000000E+01
  0.100000000000E+01
  0.100000000000E+01
  0.100000000000E+01
  0.100000000000E+01
  0.100000000000E+01
  0.100000000000E+01
  0.100000000000E+01
  0.100000000000E+01
  0.100000000000E+01
  0.100000000000E+01
  0.100000000000E+01
  0.100000000000E+01
  0.100000000000E+01
  0.100000000000E+01
  0.100000000000E+01
  0.100000000000E+01
  0.100000000000E+01
  0.100000000000E+01
  0.100000000000E+01
  0.100000000000E+01
  0.100000000000E+01
  0.100000000000E+01
  0.100000000000E+01
  0.100000000000E+01
  0.100000000000E+01
  0.100000000000E+01
  0.100000000000E+01
  0.100000000000E+01
  0.100000000000E+01
  0.100000000000E+01
  0.100000000000E+01
  0.100000000000E+01
  0.100000000000E+01
  0.100000000000E+01
  0.100000000000E+01
  0.100000000000E+01
  0.100000000000E+01
  0.100000000000E+01
  0.100000000000E+01
  0.100000000000E+01
  0.100000000000E+01
  0.100000000000E+01
  0.100000000000E+01
  0.100000000000E+01
  0.100000000000E+01
  0.100000000000E+01
  0.100000000000E+01
  0.100000000000E+01
  0.100000000000E+01
  0.100000000000E+01
  0.100000000000E+01
  0.100000000000E+01
  0.100000000000E+01
  0.100000000000E+01
  0.100000000000E+01
  0.100000000000E+01
  0.100000000000E+01
  0.100000000000E+01
  0.100000000000E+01
  0.100000000000E+01
  0.100000000000E+01
  0.100000000000E+01
  0.100000000000E+01
  0.100000000000E+01
  0.100000000000E+01
  0.100000000000E+01
  0.100000000000E+01
  0.100000000000E+01
  0.100000000000E+01
  0.100000000000E+01
  0.100000000000E+01
  0.100000000000E+01
  0.100000000000E+01
  0.100000000000E+01
  0.100000000000E+01
  0.100000000000E+01
  0.100000000000E+01
  0.100000000000E+01
  0.100000000000E+01
  0.100000000000E+01
  0.100000000000E+01
  0.100000000000E+01
  0.100000000000E+01
  0.100000000000E+01
  0.100000000000E+01
  0.100000000000E+01
  0.100000000000E+01
  0.100000000000E+01
  0.100000000000E+01
  0.100000000000E+01
  0.100000000000E+01
  0.100000000000E+01
  0.100000000000E+01
  0.100000000000E+01
  0.100000000000E+01
  0.100000000000E+01
  0.100000000000E+01
  0.100000000000E+01
  0.100000000000E+01
  0.100000000000E+01
  0.100000000000E+01
  0.100000000000E+01
  0.100000000000E+01
  0.100000000000E+01
  0.100000000000E+01
  0.100000000000E+01
  0.100000000000E+01
  0.100000000000E+01
  0.100000000000E+01
  0.100000000000E+01
  0.100000000000E+01
  0.100000000000E+01
  0.100000000000E+01
  0.100000000000E+01
  0.100000000000E+01
  0.100000000000E+01
  0.100000000000E+01
  0.100000000000E+01
  0.100000000000E+01
  0.100000000000E+01
  0.100000000000E+01
  0.100000000000E+01
  0.100000000000E+01
  0.100000000000E+01
  0.100000000000E+01
  0.100000000000E+01
  0.100000000000E+01
  0.100000000000E+01
  0.100000000000E+01
  0.100000000000E+01
  0.100000000000E+01
  0.100000000000E+01
  0.100000000000E+01
  0.100000000000E+01
  0.100000000000E+01
  0.100000000000E+01
  0.100000000000E+01
  0.100000000000E+01
  0.100000000000E+01
  0.100000000000E+01
  0.100000000000E+01
  0.100000000000E+01
  0.100000000000E+01
  0.100000000000E+01
  0.100000000000E+01
  0.100000000000E+01
  0.100000000000E+01
  0.100000000000E+01
  0.100000000000E+01
  0.100000000000E+01
  0.100000000000E+01
  0.100000000000E+01
  0.100000000000E+01
  0.100000000000E+01
  0.100000000000E+01
  0.100000000000E+01
  0.100000000000E+01
  0.100000000000E+01
  0.100000000000E+01
  0.100000000000E+01
  0.100000000000E+01
  0.100000000000E+01
  0.100000000000E+01
  0.100000000000E+01
  0.100000000000E+01
  0.100000000000E+01
  0.100000000000E+01
  0.100000000000E+01
  0.100000000000E+01
  0.100000000000E+01
  0.100000000000E+01
  0.100000000000E+01
  0.100000000000E+01
  0.100000000000E+01
  0.100000000000E+01
  0.100000000000E+01
  0.100000000000E+01
  0.100000000000E+01
  0.100000000000E+01
  0.100000000000E+01
  0.100000000000E+01
  0.100000000000E+01
  0.100000000000E+01
  0.100000000000E+01
  0.100000000000E+01
  0.100000000000E+01
  0.100000000000E+01
  0.100000000000E+01
  0.100000000000E+01
  0.100000000000E+01
  0.100000000000E+01
  0.100000000000E+01
  0.100000000000E+01
  0.100000000000E+01
  0.100000000000E+01
  0.100000000000E+01
  0.100000000000E+01
  0.100000000000E+01
  0.100000000000E+01
  0.100000000000E+01
  0.100000000000E+01
  0.100000000000E+01
  0.100000000000E+01
  0.100000000000E+01
  0.100000000000E+01
  0.100000000000E+01
  0.100000000000E+01
  0.100000000000E+01
  0.100000000000E+01
  0.100000000000E+01
  0.100000000000E+01
  0.100000000000E+01
  0.100000000000E+01
  0.100000000000E+01
  0.100000000000E+01
  0.100000000000E+01
  0.100000000000E+01
  0.100000000000E+01
  0.100000000000E+01
  0.100000000000E+01
VECTORS v float
  0.153345596567E+03  0.443546366326E+01  0.159116863297E+02
  0.157331681247E+03  0.328667655340E+01  0.164603834849E+02
  0.161904965555E+03 -0.128663037322E+01  0.175985201767E+02
  0.165214047799E+03  0.777766097679E+00  0.177327343024E+02
  0.170515377118E+03 -0.452358960725E+01  0.170487489625E+02
  0.172955832545E+03 -0.477741875497E+00  0.168923840841E+02
  0.175182071223E+03 -0.270399126940E+01  0.367586511766E+01
  0.176088486257E+03 -0.604878474479E+01  0.376371131692E+01
  0.161915453757E+03  0.812425754400E+01 -0.213350647925E+02
  0.169787319456E+03 -0.133193837785E+02 -0.254019244943E+02
  0.106751221636E+03  0.497167358174E+02 -0.330600889557E+02
  0.115786243892E+03  0.295607054131E+02 -0.499807079348E+02
  0.136824958006E+03  0.852199129950E+01  0.743709255890E+02
  0.122193117221E+03  0.411638398179E+02  0.469686905772E+02
  0.184376841018E+03 -0.210199030929E+02  0.284941638352E+02
  0.175738739603E+03  0.251103037001E+01  0.240314423096E+02
  0.185194112642E+03 -0.694434571098E+01 -0.397037751012E+01
  0.184896723113E+03 -0.584693843192E+01 -0.394155762821E+01
  0.179450554887E+03 -0.400749800708E+00 -0.175174692508E+02
  0.176146365734E+03 -0.587851659638E+01 -0.177291760398E+02
  0.169311225587E+03  0.956657500954E+00 -0.181552804247E+02
  0.164873500969E+03 -0.181185181700E+01 -0.179752858882E+02
  0.159506330061E+03  0.355534563704E+01 -0.166640456361E+02
  0.154084957270E+03  0.511778222414E+01 -0.159177810945E+02
  0.152851210044E+03  0.873439588690E+01  0.153994922356E+02
  0.153390399099E+03  0.840414543131E+01  0.154924001701E+02
  0.160347463331E+03  0.144704105431E+01  0.171357579463E+02
  0.161934353896E+03  0.126981974787E+01  0.173260012146E+02
  0.168541441899E+03 -0.533729940553E+01  0.169357450106E+02
  0.170516233273E+03 -0.443248691496E+01  0.170399588407E+02
  0.176086798433E+03 -0.100030735147E+02  0.384539020366E+01
  0.176222326668E+03 -0.103362607579E+02  0.385507791128E+01
  0.169961856000E+03 -0.407579202561E+01 -0.241437990128E+02
  0.172292858899E+03 -0.855531410664E+01 -0.250886130729E+02
  0.119481933598E+03  0.442556287612E+02 -0.436049912216E+02
  0.120413544936E+03  0.427652601869E+02 -0.450088876015E+02
  0.146094060608E+03  0.170847445147E+02  0.747803486753E+02
  0.141019936816E+03  0.252022058453E+02  0.671338470896E+02
  0.188506910676E+03 -0.222847795273E+02  0.292426002549E+02
  0.184498408728E+03 -0.145815836868E+02  0.276178577598E+02
  0.185170136221E+03 -0.152533003393E+02 -0.414158512631E+01
  0.185190544690E+03 -0.153034731440E+02 -0.414304146041E+01
  0.176142820960E+03 -0.625571708469E+01 -0.177655701338E+02
  0.173315102070E+03 -0.755132508936E+01 -0.176163450478E+02
  0.164904211398E+03  0.859605174016E+00 -0.176905071676E+02
  0.162450724615E+03  0.113360660859E+01 -0.173963736713E+02
  0.154133869522E+03  0.945050969478E+01 -0.154600339637E+02
  0.153151514970E+03  0.100521968279E+02 -0.152907675436E+02
  0.152594290311E+03  0.978618824219E+01  0.152596585459E+02
  0.152860775956E+03  0.958176052752E+01  0.153099692674E+02
  0.159922241169E+03  0.252025381534E+01  0.169741573529E+02
  0.160357474627E+03  0.231790967524E+01  0.170429228893E+02
  0.167659535075E+03 -0.498418438058E+01  0.168154538101E+02
  0.168543759710E+03 -0.509066148539E+01  0.169119481162E+02
  0.176221288635E+03 -0.127682173885E+02  0.390531143636E+01
  0.175414852515E+03 -0.112563593317E+02  0.385740535772E+01
  0.172300659798E+03 -0.814217174571E+01 -0.250323812533E+02
  0.172146910143E+03 -0.790398023378E+01 -0.249779957183E+02
  0.120627389775E+03  0.436155565513E+02 -0.446399674664E+02
  0.119848335130E+03  0.446620386350E+02 -0.435817895472E+02
  0.148749340980E+03  0.157610327855E+02  0.770867662078E+02
  0.146515725547E+03  0.187613828854E+02  0.740529021421E+02
  0.189733661807E+03 -0.244565609694E+02  0.297140547689E+02
  0.188501933800E+03 -0.225483560560E+02  0.292784754489E+02
  0.184389110209E+03 -0.184355146879E+02 -0.419120452893E+01
  0.185168154565E+03 -0.198960203092E+02 -0.423748340044E+01
  0.173310525191E+03 -0.803835135070E+01 -0.176633357312E+02
  0.171992082694E+03 -0.787958632657E+01 -0.175194558592E+02
  0.162456727767E+03  0.165581241326E+01 -0.173407062601E+02
  0.161683190561E+03  0.201543755714E+01 -0.172184968398E+02
  0.153157040279E+03  0.105416379479E+02 -0.152390587191E+02
  0.152717889416E+03  0.108785212767E+02 -0.151561443993E+02
  0.152530207771E+03  0.102646480677E+02  0.152016831627E+02
  0.152599042415E+03  0.102071381923E+02  0.152151858131E+02
  0.159826547544E+03  0.297959198750E+01  0.169142974553E+02
  0.159926805201E+03  0.291727372827E+01  0.169318349194E+02
  0.167445252440E+03 -0.460120778703E+01  0.167572830335E+02
  0.167662363771E+03 -0.468318264260E+01  0.167864116775E+02
  0.175414349348E+03 -0.124351953065E+02  0.388175512723E+01
  0.175009423616E+03 -0.117802492778E+02  0.385985288308E+01
  0.172128123163E+03 -0.889895585493E+01 -0.251134194082E+02
  0.171475013411E+03 -0.799338503560E+01 -0.248971992335E+02
  0.119641603922E+03  0.438400323279E+02 -0.439384374516E+02
  0.118713441914E+03  0.449886400564E+02 -0.427346736059E+02
  0.149363605345E+03  0.143384766252E+02  0.782674847412E+02
  0.148622293540E+03  0.152558642225E+02  0.773059455169E+02
  0.189838565264E+03 -0.259604071122E+02  0.299372454607E+02
  0.189708667303E+03 -0.257802959532E+02  0.298942246506E+02
  0.184058517709E+03 -0.201301277847E+02 -0.421939089989E+01
  0.184388159313E+03 -0.206633057049E+02 -0.423722125690E+01
  0.171988474072E+03 -0.826357948323E+01 -0.175565054782E+02
  0.171601761383E+03 -0.811756824419E+01 -0.175046206189E+02
  0.161680753992E+03  0.180348429849E+01 -0.172410912327E+02
  0.161364814731E+03  0.199986660828E+01 -0.171858371963E+02
  0.152715303159E+03  0.106494273389E+02 -0.151803479747E+02
  0.152466529207E+03  0.108572727608E+02 -0.151315539338E+02
  0.152670991105E+03  0.106703737346E+02  0.151733769457E+02
  0.152536089717E+03  0.107856813591E+02  0.151466367644E+02
  0.159992068546E+03  0.332966064199E+01  0.168944053122E+02
  0.159831798573E+03  0.343637178643E+01  0.168656044629E+02
  0.167556614835E+03 -0.428848176667E+01  0.167376651039E+02
  0.167448648145E+03 -0.423987055636E+01  0.167224194375E+02
  0.175009414903E+03 -0.118006641539E+02  0.386027453149E+01
  0.175028519091E+03 -0.118301796079E+02  0.386128080956E+01
  0.171469763390E+03 -0.827142902993E+01 -0.249350433592E+02
  0.171324778971E+03 -0.807701952072E+01 -0.248879749962E+02
  0.118622151090E+03  0.446256363005E+02 -0.428921662777E+02
  0.118332043149E+03  0.449762290186E+02 -0.425207060467E+02
  0.149437891555E+03  0.138703806126E+02  0.785817232155E+02
  0.149290634704E+03  0.140483253003E+02  0.783933718859E+02
  0.189754156805E+03 -0.264152108655E+02  0.299886482404E+02
  0.189828105363E+03 -0.265143679456E+02  0.300126443678E+02
  0.183830952898E+03 -0.205171949964E+02 -0.422268873165E+01
  0.184058202639E+03 -0.208682894697E+02 -0.423463808528E+01
  0.171599021983E+03 -0.840906706468E+01 -0.175327459496E+02
  0.171278280393E+03 -0.826465657055E+01 -0.174874349968E+02
  0.161360825475E+03  0.165284615712E+01 -0.172228297197E+02
  0.160969729885E+03  0.191324706341E+01 -0.171525822604E+02
  0.152461608802E+03  0.104214159458E+02 -0.151776017267E+02
  0.152075085714E+03  0.107517986983E+02 -0.151010011977E+02
  0.152782426218E+03  0.115068422614E+02  0.150959008924E+02
  0.152681387037E+03  0.115912583560E+02  0.150760862731E+02
  0.160289392012E+03  0.398320840962E+01  0.168559947666E+02
  0.160001637751E+03  0.416207091449E+01  0.168056697584E+02
  0.167955689929E+03 -0.379202113254E+01  0.167281757008E+02
  0.167562674884E+03 -0.364363163772E+01  0.166754467591E+02
  0.175028826566E+03 -0.111098112365E+02  0.384640114715E+01
  0.175502694230E+03 -0.118762691295E+02  0.387203403727E+01
  0.171331796331E+03 -0.770537384767E+01 -0.248373912505E+02
  0.171765809096E+03 -0.830715480061E+01 -0.249810452742E+02
  0.118362263592E+03  0.450963991332E+02 -0.424685703844E+02
  0.118742846440E+03  0.446254196880E+02 -0.429622194435E+02
  0.149076060937E+03  0.142922051909E+02  0.781275584133E+02
  0.149432916110E+03  0.138505989878E+02  0.785903067479E+02
  0.189365568085E+03 -0.260820516836E+02  0.298884746402E+02
  0.189750372833E+03 -0.266156074661E+02  0.300159245211E+02
  0.183333839128E+03 -0.201990498907E+02 -0.420584465876E+01
  0.183830745635E+03 -0.210027719273E+02 -0.423271877976E+01
  0.171276552375E+03 -0.844853438459E+01 -0.175051765080E+02
  0.170492222131E+03 -0.815239788316E+01 -0.173999352831E+02
  0.160963557446E+03  0.137631451900E+01 -0.172098194969E+02
  0.159908815544E+03  0.203192271960E+01 -0.170253807691E+02
  0.152065194214E+03  0.987559041470E+01 -0.151935711383E+02
  0.150944833207E+03  0.108116278522E+02 -0.149738332591E+02
  0.152561989832E+03  0.127975850398E+02  0.149344525257E+02
  0.152794979713E+03  0.126188527946E+02  0.149784185786E+02
  0.160056166760E+03  0.535762365512E+01  0.166826167826E+02
  0.160303868124E+03  0.524246660117E+01  0.167217573372E+02
  0.167836331559E+03 -0.229003088077E+01  0.165702627248E+02