# vtk DataFile Version 3.0
MachLine results file. Generated by MachLine, USU AeroLab (c) 2022.
ASCII
DATASET POLYDATA
POINTS                  80 float
  0.609892082214E+02  0.419889526367E+02  0.000000000000E+00
  0.999336583174E+04  0.419889526367E+02  0.364203717238E+03
  0.596738929749E+02  0.406736450195E+02  0.000000000000E+00
  0.999336406559E+04  0.406736450195E+02  0.364251882897E+03
  0.228628253937E+02  0.386280250549E+01  0.000000000000E+00
  0.999331463711E+04  0.386280250549E+01  0.365599871009E+03
  0.220518741608E+02  0.305185556412E+01  0.000000000000E+00
  0.999331354819E+04  0.305185556412E+01  0.365629567312E+03
  0.621668891907E+02  0.431666221619E+02  0.000000000000E+00
  0.999336741308E+04  0.431666221619E+02  0.364160591623E+03
  0.237868041992E+02  0.478677463531E+01  0.000000000000E+00
  0.999331587779E+04  0.478677463531E+01  0.365566035738E+03
  0.632134971619E+02  0.442132263184E+02  0.000000000000E+00
  0.999336881843E+04  0.442132263184E+02  0.364122265782E+03
  0.248334121704E+02  0.583337688446E+01  0.000000000000E+00
  0.999331728313E+04  0.583337688446E+01  0.365527709898E+03
  0.641374740601E+02  0.451371994019E+02  0.000000000000E+00
  0.999337005911E+04  0.451371994019E+02  0.364088430581E+03
  0.260110912323E+02  0.701104879379E+01  0.000000000000E+00
  0.999331886448E+04  0.701104879379E+01  0.365484584352E+03
  0.649484252930E+02  0.459481430054E+02  0.000000000000E+00
  0.999337114802E+04  0.459481430054E+02  0.364058734278E+03
  0.273264064789E+02  0.832635498047E+01  0.000000000000E+00
  0.999332063063E+04  0.832635498047E+01  0.365436418693E+03
  0.656565246582E+02  0.466562423706E+02  0.000000000000E+00
  0.999337209883E+04  0.466562423706E+02  0.364032804318E+03
  0.193396415710E+02  0.339639574289E+00  0.000000000000E+00
  0.999330990631E+04  0.339639574289E+00  0.365728886825E+03
  0.190000000000E+02  0.000000000000E+00  0.000000000000E+00
  0.999330945025E+04  0.000000000000E+00  0.365741324193E+03
  0.197353687286E+02  0.735364913940E+00  0.000000000000E+00
  0.999331043768E+04  0.735364913940E+00  0.365714395653E+03
  0.201952877045E+02  0.119528055191E+01  0.000000000000E+00
  0.999331105524E+04  0.119528055191E+01  0.365697553835E+03
  0.207282505035E+02  0.172824025154E+01  0.000000000000E+00
  0.999331177088E+04  0.172824025154E+01  0.365678037217E+03
  0.213437728882E+02  0.234375929832E+01  0.000000000000E+00
  0.999331259738E+04  0.234375929832E+01  0.365655497342E+03
  0.582170410156E+02  0.392168006897E+02  0.000000000000E+00
  0.999336210938E+04  0.392168006897E+02  0.364305231503E+03
  0.401973724365E+02  0.211972446442E+02  0.000000000000E+00
  0.999333791327E+04  0.211972446442E+02  0.364965095522E+03
  0.380459861755E+02  0.190458717346E+02  0.000000000000E+00
  0.999333502447E+04  0.190458717346E+02  0.365043877348E+03
  0.423940925598E+02  0.233939495087E+02  0.000000000000E+00
  0.999334086294E+04  0.233939495087E+02  0.364884653612E+03
  0.446062088013E+02  0.256060504913E+02  0.000000000000E+00
  0.999334383328E+04  0.256060504913E+02  0.364803647909E+03
  0.468029289246E+02  0.278027553558E+02  0.000000000000E+00
  0.999334678295E+04  0.278027553558E+02  0.364723205998E+03
  0.489543113708E+02  0.299541282654E+02  0.000000000000E+00
  0.999334967175E+04  0.299541282654E+02  0.364644424312E+03
  0.510328712463E+02  0.320326728821E+02  0.000000000000E+00
  0.999335246276E+04  0.320326728821E+02  0.364568309323E+03
  0.530148696899E+02  0.340146598816E+02  0.000000000000E+00
  0.999335512411E+04  0.340146598816E+02  0.364495730327E+03
  0.548812789917E+02  0.358810577393E+02  0.000000000000E+00
  0.999335763025E+04  0.358810577393E+02  0.364427384101E+03
  0.566182289124E+02  0.376179962158E+02  0.000000000000E+00
  0.999335996256E+04  0.376179962158E+02  0.364363778561E+03
  0.287832584381E+02  0.978319931030E+01  0.000000000000E+00
  0.999332258683E+04  0.978319931030E+01  0.365383070088E+03
  0.303820724487E+02  0.113820018768E+02  0.000000000000E+00
  0.999332473366E+04  0.113820018768E+02  0.365324522960E+03
  0.321190223694E+02  0.131189413071E+02  0.000000000000E+00
  0.999332706597E+04  0.131189413071E+02  0.365260917420E+03
  0.339854316711E+02  0.149853391647E+02  0.000000000000E+00
  0.999332957211E+04  0.149853391647E+02  0.365192571193E+03
  0.359674301147E+02  0.169673271179E+02  0.000000000000E+00
  0.999333223346E+04  0.169673271179E+02  0.365119992197E+03
  0.662720489502E+02  0.472717590332E+02  0.000000000000E+00
  0.999337292533E+04  0.472717590332E+02  0.364010264373E+03
  0.668050155640E+02  0.478047180176E+02  0.000000000000E+00
  0.999337364098E+04  0.478047180176E+02  0.363990747616E+03
  0.672649307251E+02  0.482646369934E+02  0.000000000000E+00
  0.999337425854E+04  0.482646369934E+02  0.363973905937E+03
  0.676606597900E+02  0.486603622437E+02  0.000000000000E+00
  0.999337478991E+04  0.486603622437E+02  0.363959414696E+03
  0.680002975464E+02  0.490000000000E+02  0.000000000000E+00
  0.999337524596E+04  0.490000000000E+02  0.363946977467E+03
POLYGONS                  78                 312
3                  26                  27                  29
3                  26                  29                  28
3                  30                  31                  27
3                  30                  27                  26
3                  32                  33                  31
3                  32                  31                  30
3                  34                  35                  33
3                  34                  33                  32
3                  36                  37                  35
3                  36                  35                  34
3                   6                   7                  37
3                   6                  37                  36
3                   4                   5                   7
3                   4                   7                   6
3                  10                  11                   5
3                  10                   5                   4
3                  14                  15                  11
3                  14                  11                  10
3                  18                  19                  15
3                  18                  15                  14
3                  22                  23                  19
3                  22                  19                  18
3                  60                  61                  23
3                  60                  23                  22
3                  62                  63                  61
3                  62                  61                  60
3                  64                  65                  63
3                  64                  63                  62
3                  66                  67                  65
3                  66                  65                  64
3                  68                  69                  67
3                  68                  67                  66
3                  42                  43                  69
3                  42                  69                  68
3                  40                  41                  43
3                  40                  43                  42
3                  44                  45                  41
3                  44                  41                  40
3                  46                  47                  45
3                  46                  45                  44
3                  48                  49                  47
3                  48                  47                  46
3                  50                  51                  49
3                  50                  49                  48
3                  52                  53                  51
3                  52                  51                  50
3                  54                  55                  53
3                  54                  53                  52
3                  56                  57                  55
3                  56                  55                  54
3                  58                  59                  57
3                  58                  57                  56
3                  38                  39                  59
3                  38                  59                  58
3                   0                   1                   3
3                   0                   3                   2
3                   8                   9                   1
3                   8                   1                   0
3                  12                  13                   9
3                  12                   9                   8
3                  16                  17                  13
3                  16                  13                  12
3                  20                  21                  17
3                  20                  17                  16
3                  24                  25                  21
3                  24                  21                  20
3                  70                  71                  25
3                  70                  25                  24
3                  72                  73                  71
3                  72                  71                  70
3                  74                  75                  73
3                  74                  73                  72
3                  76                  77                  75
3                  76                  75                  74
3                  78                  79                  77
3                  78                  77                  76
3                   2                   3                  39
3                   2                  39                  38
CELL_DATA                  78
NORMALS normals float
  0.366191312874E-01 -0.366193465683E-01 -0.998658131034E+00
  0.366191312874E-01 -0.366193465680E-01 -0.998658131034E+00
  0.366191313505E-01 -0.366192995775E-01 -0.998658132755E+00
  0.366191313505E-01 -0.366192995776E-01 -0.998658132755E+00
  0.366191312197E-01 -0.366193969904E-01 -0.998658129188E+00
  0.366191312197E-01 -0.366193969905E-01 -0.998658129188E+00
  0.366191312906E-01 -0.366193442454E-01 -0.998658131119E+00
  0.366191312906E-01 -0.366193442452E-01 -0.998658131119E+00
  0.366191313098E-01 -0.366193298929E-01 -0.998658131645E+00
  0.366191313098E-01 -0.366193298930E-01 -0.998658131645E+00
  0.366191312289E-01 -0.366193901551E-01 -0.998658129438E+00
  0.366191312289E-01 -0.366193901551E-01 -0.998658129438E+00
  0.366191313163E-01 -0.366193251047E-01 -0.998658131820E+00
  0.366191313163E-01 -0.366193251047E-01 -0.998658131820E+00
  0.366191312213E-01 -0.366193957939E-01 -0.998658129232E+00
  0.366191312213E-01 -0.366193957938E-01 -0.998658129232E+00
  0.366191313077E-01 -0.366193315140E-01 -0.998658131585E+00
  0.366191313077E-01 -0.366193315140E-01 -0.998658131585E+00
  0.366191312779E-01 -0.366193536836E-01 -0.998658130774E+00
  0.366191312779E-01 -0.366193536836E-01 -0.998658130774E+00
  0.366191312379E-01 -0.366193834730E-01 -0.998658129683E+00
  0.366191312379E-01 -0.366193834730E-01 -0.998658129683E+00
  0.366191313190E-01 -0.366193230902E-01 -0.998658131894E+00
  0.366191313190E-01 -0.366193230902E-01 -0.998658131894E+00
  0.366191312246E-01 -0.366193933415E-01 -0.998658129321E+00
  0.366191312246E-01 -0.366193933414E-01 -0.998658129321E+00
  0.366191312796E-01 -0.366193524440E-01 -0.998658130819E+00
  0.366191312796E-01 -0.366193524440E-01 -0.998658130819E+00
  0.366191312750E-01 -0.366193558108E-01 -0.998658130696E+00
  0.366191312750E-01 -0.366193558108E-01 -0.998658130696E+00
  0.366191313162E-01 -0.366193251364E-01 -0.998658131819E+00
  0.366191313162E-01 -0.366193251364E-01 -0.998658131819E+00
  0.366191313058E-01 -0.366193329243E-01 -0.998658131534E+00
  0.366191313058E-01 -0.366193329242E-01 -0.998658131534E+00
  0.366191312714E-01 -0.366193585293E-01 -0.998658130596E+00
  0.366191312714E-01 -0.366193585293E-01 -0.998658130596E+00
  0.366191312350E-01 -0.366193855997E-01 -0.998658129605E+00
  0.366191312350E-01 -0.366193855997E-01 -0.998658129605E+00
  0.366191312374E-01 -0.366193838333E-01 -0.998658129670E+00
  0.366191312374E-01 -0.366193838333E-01 -0.998658129670E+00
  0.366191312350E-01 -0.366193855997E-01 -0.998658129605E+00
  0.366191312350E-01 -0.366193855997E-01 -0.998658129605E+00
  0.366191313585E-01 -0.366192936836E-01 -0.998658132971E+00
  0.366191313585E-01 -0.366192936836E-01 -0.998658132971E+00
  0.366191312156E-01 -0.366194000403E-01 -0.998658129076E+00
  0.366191312156E-01 -0.366194000403E-01 -0.998658129076E+00
  0.366191312926E-01 -0.366193427334E-01 -0.998658131175E+00
  0.366191312926E-01 -0.366193427334E-01 -0.998658131175E+00
  0.366191312750E-01 -0.366193558107E-01 -0.998658130696E+00
  0.366191312750E-01 -0.366193558108E-01 -0.998658130696E+00
  0.366191312526E-01 -0.366193725259E-01 -0.998658130084E+00
  0.366191312526E-01 -0.366193725258E-01 -0.998658130084E+00
  0.366191313418E-01 -0.366193060838E-01 -0.998658132517E+00
  0.366191313418E-01 -0.366193060838E-01 -0.998658132517E+00
  0.366191312913E-01 -0.366193436966E-01 -0.998658131139E+00
  0.366191312913E-01 -0.366193436966E-01 -0.998658131139E+00
  0.366191310989E-01 -0.366194869483E-01 -0.998658125894E+00
  0.366191310989E-01 -0.366194869484E-01 -0.998658125894E+00
  0.366191313971E-01 -0.366192648679E-01 -0.998658134026E+00
  0.366191313971E-01 -0.366192648679E-01 -0.998658134026E+00
  0.366191313734E-01 -0.366192825585E-01 -0.998658133378E+00
  0.366191313734E-01 -0.366192825586E-01 -0.998658133378E+00
  0.366191311141E-01 -0.366194756289E-01 -0.998658126308E+00
  0.366191311141E-01 -0.366194756288E-01 -0.998658126308E+00
  0.366191315761E-01 -0.366191315760E-01 -0.998658138907E+00
  0.366191315761E-01 -0.366191315761E-01 -0.998658138907E+00
  0.366191309675E-01 -0.366195848659E-01 -0.998658122308E+00
  0.366191309675E-01 -0.366195848659E-01 -0.998658122308E+00
  0.366191308732E-01 -0.366196550823E-01 -0.998658119737E+00
  0.366191308732E-01 -0.366196550823E-01 -0.998658119737E+00
  0.366191319834E-01 -0.366188282538E-01 -0.998658150014E+00
  0.366191319834E-01 -0.366188282538E-01 -0.998658150014E+00
  0.366191311028E-01 -0.366194840937E-01 -0.998658125998E+00
  0.366191311028E-01 -0.366194840936E-01 -0.998658125998E+00
  0.366191315761E-01 -0.366191315868E-01 -0.998658138907E+00
  0.366191315761E-01 -0.366191315867E-01 -0.998658138907E+00
  0.366191313190E-01 -0.366193230936E-01 -0.998658131894E+00
  0.366191313190E-01 -0.366193230935E-01 -0.998658131894E+00
POINT_DATA                  80
SCALARS mu float 1
LOOKUP_TABLE default
 -0.112792922021E+01
 -0.112792922021E+01
 -0.118056204212E+01
 -0.118056204212E+01
 -0.121347019340E+01
 -0.121347019340E+01
 -0.120260306311E+01
 -0.120260306311E+01
 -0.106834759423E+01
 -0.106834759423E+01
 -0.122547723770E+01
 -0.122547723770E+01
 -0.100228499216E+01
 -0.100228499216E+01
 -0.123844808074E+01
 -0.123844808074E+01
 -0.929994934048E+00
 -0.929994934048E+00
 -0.125216378326E+01
 -0.125216378326E+01
 -0.851373947410E+00
 -0.851373947410E+00
 -0.126623558274E+01
 -0.126623558274E+01
 -0.766121828104E+00
 -0.766121828104E+00
 -0.116804609344E+01
 -0.116804609344E+01
 -0.116561968976E+01
 -0.116561968976E+01
 -0.117194997869E+01
 -0.117194997869E+01
 -0.117748958314E+01
 -0.117748958314E+01
 -0.118445299772E+01
 -0.118445299772E+01
 -0.119297256250E+01
 -0.119297256250E+01
 -0.122602820657E+01
 -0.122602820657E+01
 -0.134938745772E+01
 -0.134938745772E+01
 -0.134195040360E+01
 -0.134195040360E+01
 -0.135414237925E+01
 -0.135414237925E+01
 -0.135576766709E+01
 -0.135576766709E+01
 -0.135360414221E+01
 -0.135360414221E+01
 -0.134711470458E+01
 -0.134711470458E+01
 -0.133559378872E+01
 -0.133559378872E+01
 -0.131835115286E+01
 -0.131835115286E+01
 -0.129462329515E+01
 -0.129462329515E+01
 -0.126393332748E+01
 -0.126393332748E+01
 -0.128056110621E+01
 -0.128056110621E+01
 -0.129467216731E+01
 -0.129467216731E+01
 -0.130826521589E+01
 -0.130826521589E+01
 -0.132098117380E+01
 -0.132098117380E+01
 -0.133230529212E+01
 -0.133230529212E+01
 -0.672457279708E+00
 -0.672457279708E+00
 -0.566839913767E+00
 -0.566839913767E+00
 -0.440024614826E+00
 -0.440024614826E+00
 -0.270212012265E+00
 -0.270212012265E+00
  0.000000000000E+00
  0.000000000000E+00
