# vtk DataFile Version 3.0
MachLine results file. Generated by MachLine, USU AeroLab (c) 2022.
ASCII
DATASET POLYDATA
POINTS                1848 float
  0.000000000000E+00  0.000000000000E+00  0.000000000000E+00
  0.147665724158E+00  0.000000000000E+00 -0.234920635819E+00
  0.147665724158E+00  0.000000000000E+00  0.234920635819E+00
  0.339639574289E+00  0.339639574289E+00  0.000000000000E+00
  0.473465979099E+00  0.000000000000E+00 -0.436293870211E+00
  0.473465979099E+00  0.000000000000E+00  0.436293870211E+00
  0.487305283546E+00  0.339639574289E+00 -0.234920650721E+00
  0.487305283546E+00  0.339639574289E+00  0.234920650721E+00
  0.735364913940E+00  0.735364913940E+00  0.000000000000E+00
  0.813105583191E+00  0.339639574289E+00 -0.436293929815E+00
  0.813105583191E+00  0.339639574289E+00  0.436293929815E+00
  0.883030653000E+00  0.735364913940E+00 -0.234920680523E+00
  0.883030653000E+00  0.735364913940E+00  0.234920680523E+00
  0.944064557552E+00  0.000000000000E+00 -0.604293465614E+00
  0.944064557552E+00  0.000000000000E+00  0.604293465614E+00
  0.119528055191E+01  0.119528055191E+01  0.000000000000E+00
  0.120883107185E+01  0.735364913940E+00 -0.436293989420E+00
  0.120883107185E+01  0.735364913940E+00  0.436293989420E+00
  0.128370416164E+01  0.339639574289E+00 -0.604293525219E+00
  0.128370416164E+01  0.339639574289E+00  0.604293525219E+00
  0.134294629097E+01  0.119528055191E+01 -0.234920725226E+00
  0.134294629097E+01  0.119528055191E+01  0.234920725226E+00
  0.157641971111E+01  0.000000000000E+00 -0.760520398617E+00
  0.157641971111E+01  0.000000000000E+00  0.760520398617E+00
  0.166874670982E+01  0.119528055191E+01 -0.436294049025E+00
  0.166874670982E+01  0.119528055191E+01  0.436294049025E+00
  0.167942965031E+01  0.735364913940E+00 -0.604293584824E+00
  0.167942965031E+01  0.735364913940E+00  0.604293584824E+00
  0.172824025154E+01  0.172824025154E+01  0.000000000000E+00
  0.187590610981E+01  0.172824025154E+01 -0.234920769930E+00
  0.187590610981E+01  0.172824025154E+01  0.234920769930E+00
  0.191605937481E+01  0.339639574289E+00 -0.760520458221E+00
  0.191605937481E+01  0.339639574289E+00  0.760520458221E+00
  0.213934540749E+01  0.119528055191E+01 -0.604293704033E+00
  0.213934540749E+01  0.119528055191E+01  0.604293704033E+00
  0.220170640945E+01  0.172824025154E+01 -0.436294138432E+00
  0.220170640945E+01  0.172824025154E+01  0.436294138432E+00
  0.231178498268E+01  0.735364913940E+00 -0.760520577431E+00
  0.231178498268E+01  0.735364913940E+00  0.760520577431E+00
  0.234375929832E+01  0.234375929832E+01  0.000000000000E+00
  0.239635515213E+01  0.000000000000E+00 -0.902061045170E+00
  0.239635515213E+01  0.000000000000E+00  0.902061045170E+00
  0.249142503738E+01  0.234375929832E+01 -0.234920814633E+00
  0.249142503738E+01  0.234375929832E+01  0.234920814633E+00
  0.267230534554E+01  0.172824025154E+01 -0.604293823242E+00
  0.267230534554E+01  0.172824025154E+01  0.604293823242E+00
  0.273599505424E+01  0.339639574289E+00 -0.902061164379E+00
  0.273599505424E+01  0.339639574289E+00  0.902061164379E+00
  0.277170085907E+01  0.119528055191E+01 -0.760520696640E+00
  0.277170085907E+01  0.119528055191E+01  0.760520696640E+00
  0.281722569466E+01  0.234375929832E+01 -0.436294227839E+00
  0.281722569466E+01  0.234375929832E+01  0.436294227839E+00
  0.305185556412E+01  0.305185556412E+01  0.000000000000E+00
  0.313172078133E+01  0.735364913940E+00 -0.902061283588E+00
  0.313172078133E+01  0.735364913940E+00  0.902061283588E+00
  0.319952154160E+01  0.305185556412E+01 -0.234920859337E+00
  0.319952154160E+01  0.305185556412E+01  0.234920859337E+00
  0.328782463074E+01  0.234375929832E+01 -0.604293942451E+00
  0.328782463074E+01  0.234375929832E+01  0.604293942451E+00
  0.330466079712E+01  0.172824025154E+01 -0.760520815849E+00
  0.330466079712E+01  0.172824025154E+01  0.760520815849E+00
  0.342464399338E+01  0.000000000000E+00 -0.102348911762E+01
  0.342464399338E+01  0.000000000000E+00  0.102348911762E+01
  0.352532196045E+01  0.305185556412E+01 -0.436294317245E+00
  0.352532196045E+01  0.305185556412E+01  0.436294317245E+00
  0.359163665771E+01  0.119528055191E+01 -0.902061402798E+00
  0.359163665771E+01  0.119528055191E+01  0.902061402798E+00
  0.376428389549E+01  0.339639574289E+00 -0.102348923683E+01
  0.376428389549E+01  0.339639574289E+00  0.102348923683E+01
  0.386280250549E+01  0.386280250549E+01  0.000000000000E+00
  0.392018008232E+01  0.234375929832E+01 -0.760520994663E+00
  0.392018008232E+01  0.234375929832E+01  0.760520994663E+00
  0.399592113495E+01  0.305185556412E+01 -0.604294061661E+00
  0.399592113495E+01  0.305185556412E+01  0.604294061661E+00
  0.401046848297E+01  0.386280250549E+01 -0.234920918941E+00
  0.401046848297E+01  0.386280250549E+01  0.234920918941E+00
  0.412459707260E+01  0.172824025154E+01 -0.902061522007E+00
  0.412459707260E+01  0.172824025154E+01  0.902061522007E+00
  0.416000986099E+01  0.735364913940E+00 -0.102348935604E+01
  0.416000986099E+01  0.735364913940E+00  0.102348935604E+01
  0.433626890182E+01  0.386280250549E+01 -0.436294436455E+00
  0.433626890182E+01  0.386280250549E+01  0.436294436455E+00
  0.461992597580E+01  0.119528055191E+01 -0.102348947525E+01
  0.461992597580E+01  0.119528055191E+01  0.102348947525E+01
  0.462827682495E+01  0.305185556412E+01 -0.760521173477E+00
  0.462827682495E+01  0.305185556412E+01  0.760521173477E+00
  0.466872262955E+01  0.000000000000E+00 -0.111146688461E+01
  0.466872262955E+01  0.000000000000E+00  0.111146688461E+01
  0.474011659622E+01  0.234375929832E+01 -0.902061700821E+00
  0.474011659622E+01  0.234375929832E+01  0.902061700821E+00
  0.478677463531E+01  0.478677463531E+01  0.000000000000E+00
  0.480686807632E+01  0.386280250549E+01 -0.604294240475E+00
  0.480686807632E+01  0.386280250549E+01  0.604294240475E+00
  0.493444061279E+01  0.478677463531E+01 -0.234920993447E+00
  0.493444061279E+01  0.478677463531E+01  0.234920993447E+00
  0.500836277008E+01  0.339639574289E+00 -0.111146700382E+01
  0.500836277008E+01  0.339639574289E+00  0.111146700382E+01
  0.515288639069E+01  0.172824025154E+01 -0.102348971367E+01
  0.515288639069E+01  0.172824025154E+01  0.102348971367E+01
  0.526024150848E+01  0.478677463531E+01 -0.436294555664E+00
  0.526024150848E+01  0.478677463531E+01  0.436294555664E+00
  0.540408849716E+01  0.735364913940E+00 -0.111146712303E+01
  0.540408849716E+01  0.735364913940E+00  0.111146712303E+01
  0.543922424316E+01  0.386280250549E+01 -0.760521352291E+00
  0.543922424316E+01  0.386280250549E+01  0.760521352291E+00
  0.544821310043E+01  0.305185556412E+01 -0.902061939240E+00
  0.544821310043E+01  0.305185556412E+01  0.902061939240E+00
  0.573084068298E+01  0.478677463531E+01 -0.604294419289E+00
  0.573084068298E+01  0.478677463531E+01  0.604294419289E+00
  0.576840591431E+01  0.234375929832E+01 -0.102348983288E+01
  0.576840591431E+01  0.234375929832E+01  0.102348983288E+01
  0.583337688446E+01  0.583337688446E+01  0.000000000000E+00
  0.586400508881E+01  0.119528055191E+01 -0.111146736145E+01
  0.586400508881E+01  0.119528055191E+01  0.111146736145E+01
  0.598104286194E+01  0.583337688446E+01 -0.234921067953E+00
  0.598104286194E+01  0.583337688446E+01  0.234921067953E+00
  0.611307668686E+01  0.000000000000E+00 -0.114008128643E+01
  0.611307668686E+01  0.000000000000E+00  0.114008128643E+01
  0.625916051865E+01  0.386280250549E+01 -0.902062177658E+00
  0.625916051865E+01  0.386280250549E+01  0.902062177658E+00
  0.630684375763E+01  0.583337688446E+01 -0.436294704676E+00
  0.630684375763E+01  0.583337688446E+01  0.436294704676E+00
  0.636319684982E+01  0.478677463531E+01 -0.760521590710E+00
  0.636319684982E+01  0.478677463531E+01  0.760521590710E+00
  0.639696550369E+01  0.172824025154E+01 -0.111146748066E+01
  0.639696550369E+01  0.172824025154E+01  0.111146748066E+01
  0.645271682739E+01  0.339639574289E+00 -0.114008140564E+01
  0.645271682739E+01  0.339639574289E+00  0.114008140564E+01
  0.647650289536E+01  0.305185556412E+01 -0.102349007130E+01
  0.647650289536E+01  0.305185556412E+01  0.102349007130E+01
  0.677744340897E+01  0.583337688446E+01 -0.604294598103E+00
  0.677744340897E+01  0.583337688446E+01  0.604294598103E+00
  0.684844303131E+01  0.735364913940E+00 -0.114008152485E+01
  0.684844303131E+01  0.735364913940E+00  0.114008152485E+01
  0.701104879379E+01  0.701104879379E+01  0.000000000000E+00
  0.701248550415E+01  0.234375929832E+01 -0.111146771908E+01
  0.701248550415E+01  0.234375929832E+01  0.111146771908E+01
  0.715871477127E+01  0.701104879379E+01 -0.234921157360E+00
  0.715871477127E+01  0.701104879379E+01  0.234921157360E+00
  0.718313360214E+01  0.478677463531E+01 -0.902062416077E+00
  0.718313360214E+01  0.478677463531E+01  0.902062416077E+00
  0.728745079041E+01  0.386280250549E+01 -0.102349042892E+01
  0.728745079041E+01  0.386280250549E+01  0.102349042892E+01
  0.730835962296E+01  0.119528055191E+01 -0.114008176327E+01
  0.730835962296E+01  0.119528055191E+01  0.114008176327E+01
  0.740979957581E+01  0.583337688446E+01 -0.760521829128E+00
  0.740979957581E+01  0.583337688446E+01  0.760521829128E+00
  0.748451566696E+01  0.701104879379E+01 -0.436294883490E+00
  0.748451566696E+01  0.701104879379E+01  0.436294883490E+00
  0.771254587173E+01  0.000000000000E+00 -0.108925735950E+01
  0.771254587173E+01  0.000000000000E+00  0.108925735950E+01
  0.772058296204E+01  0.305185556412E+01 -0.111146795750E+01
  0.772058296204E+01  0.305185556412E+01  0.111146795750E+01
  0.784132003784E+01  0.172824025154E+01 -0.114008188248E+01
  0.784132003784E+01  0.172824025154E+01  0.114008188248E+01
  0.795511531830E+01  0.701104879379E+01 -0.604294836521E+00
  0.795511531830E+01  0.701104879379E+01  0.604294836521E+00
  0.805218601227E+01  0.339639574289E+00 -0.108925747871E+01
  0.805218601227E+01  0.339639574289E+00  0.108925747871E+01
  0.821142387390E+01  0.478677463531E+01 -0.102349066734E+01
  0.821142387390E+01  0.478677463531E+01  0.102349066734E+01
[...]
CELL_DATA                3576
SCALARS C_p_inc float 1
LOOKUP_TABLE default
  0.169310011912E+00
  0.129024275121E+00
  0.951421903708E-01
  0.634191295076E-01
  0.511445590888E-01
  0.317066593210E-01
  0.190724747474E-01
  0.638017344312E-02
 -0.791223528447E-02
 -0.174792392115E-01
 -0.337913952774E-01
 -0.416932338553E-01
 -0.606271825353E-01
 -0.678189302373E-01
 -0.897462608454E-01
 -0.966856369139E-01
 -0.121015227214E+00
 -0.127760602368E+00
 -0.149901215574E+00
 -0.155268072363E+00
 -0.175084919143E+00
 -0.171646905480E+00
 -0.180128328921E+00
 -0.181261509212E+00
 -0.146155120301E+00
 -0.159065498192E+00
 -0.866084345464E-01
 -0.106616292230E+00
 -0.215651920560E-01
 -0.468389963632E-01
  0.506091464642E-01
  0.150589172193E-01
  0.143665417335E+00
  0.905946982910E-01
  0.271233520644E+00
  0.195086948058E+00
  0.483849549630E+00
  0.407176737788E+00
  0.720236577652E+00
  0.729045302591E+00
  0.557107555194E+00
  0.602736653610E+00
  0.117193806368E+00
  0.269508061771E+00
 -0.668714896474E-01
  0.419209156530E-01
 -0.137909901748E+00
 -0.730406536834E-01
 -0.190583012276E+00
 -0.151818410225E+00
 -0.234617372107E+00
 -0.209358965523E+00
 -0.279751878927E+00
 -0.260876063025E+00
 -0.318076179985E+00
 -0.307340111010E+00
 -0.323784465930E+00
 -0.326056962991E+00
 -0.296460831123E+00
 -0.303246736113E+00
 -0.266685946511E+00
 -0.258321886576E+00
 -0.224093943997E+00
 -0.214461071383E+00
 -0.179632197910E+00
 -0.169901774799E+00
 -0.139190912080E+00
 -0.129164262637E+00
 -0.102947861083E+00
 -0.919951574125E-01
 -0.696890887820E-01
 -0.566324341269E-01
 -0.374826206204E-01
 -0.205518303479E-01
 -0.411431354749E-02
  0.208359291847E-01
  0.359887343152E-01
  0.752044508492E-01
  0.112313406361E+00
  0.161463493992E+00
  0.168080187970E+00
  0.166776257730E+00
  0.105120464306E+00
  0.946790052452E-01
  0.679032989447E-01
  0.510426020587E-01
  0.334045797332E-01
  0.190431812692E-01
  0.302759771180E-02
 -0.791609519785E-02
 -0.249873299978E-01
 -0.337778428019E-01
 -0.530303790319E-01
 -0.605954227050E-01
 -0.829018188456E-01
 -0.896961938183E-01
 -0.115008303562E+00
 -0.120966382769E+00
 -0.145643067607E+00
 -0.149945315900E+00
 -0.172142358202E+00
 -0.170117016274E+00
 -0.181808238777E+00
 -0.185102641953E+00
 -0.158953069645E+00
 -0.171310460892E+00
 -0.105882731310E+00
 -0.124778974435E+00
 -0.457938589307E-01
 -0.692536906497E-01
  0.163855265354E-01
 -0.121996197722E-01
  0.912035718498E-01
  0.579280566243E-01
  0.189754571539E+00
  0.156522147755E+00
  0.363622961876E+00
  0.345956446529E+00
  0.594213527148E+00
  0.595214844939E+00
  0.418482335737E+00
  0.435737132953E+00
  0.402092666279E-01
  0.101394025115E+00
 -0.126121732488E+00
 -0.611357239576E-01
 -0.185048357218E+00
 -0.133936476690E+00
 -0.226193032591E+00
 -0.188638587522E+00
 -0.261100236912E+00
 -0.233800223044E+00
 -0.299364526958E+00
 -0.279553546021E+00
 -0.329832967989E+00
 -0.318689118993E+00
 -0.325505085802E+00
 -0.324992182642E+00
 -0.292123242079E+00
 -0.297377243228E+00
 -0.258327802308E+00
 -0.251238508223E+00
 -0.214359412735E+00
 -0.205538559593E+00
 -0.169812017461E+00
 -0.160077308024E+00
 -0.129107191870E+00
 -0.118426658187E+00
 -0.919678039298E-01
 -0.797259243923E-01
 -0.566322700876E-01
 -0.416895248998E-01
 -0.205891764502E-01
 -0.146918358585E-02
  0.206979035970E-01
  0.429719805638E-01
  0.745888249088E-01
  0.900917371343E-01
  0.158244867852E+00
  0.163012491857E+00
  0.167169189614E+00
  0.166732313543E+00
  0.107637608170E+00
  0.104464837424E+00
  0.758071381013E-01
  0.676062344660E-01
  0.451853023490E-01
  0.333075716602E-01
  0.144145955510E-01
  0.300549815987E-02
 -0.153936281899E-01
 -0.249725111816E-01
 -0.448852912516E-01
 -0.529864851673E-01
 -0.758130646294E-01
 -0.828314133008E-01
 -0.109036943646E+00
 -0.114938143273E+00
 -0.141543326137E+00
 -0.145686815557E+00
 -0.170796105402E+00
 -0.169004726445E+00
 -0.185492949766E+00
 -0.188830300933E+00
 -0.170669865150E+00
 -0.181493921959E+00
 -0.123391105041E+00
 -0.140461823636E+00
 -0.677176252372E-01
 -0.886772515908E-01
 -0.110009980025E-01
 -0.345737462891E-01
  0.573180993719E-01
  0.330200372904E-01
  0.150498101128E+00
  0.129487781681E+00
  0.324017591659E+00
  0.314815926140E+00
  0.551952676315E+00
  0.551421164866E+00
  0.358161992912E+00
  0.372330003743E+00
 -0.150891671084E-01
  0.294847196772E-01
 -0.173286354050E+00
 -0.123361731777E+00
 -0.224055967481E+00
 -0.181013188773E+00
 -0.257685031211E+00
 -0.222965047887E+00
 -0.285810003610E+00
 -0.258968010720E+00
 -0.317575711185E+00
 -0.298225921172E+00
 -0.340386910676E+00
 -0.330022332606E+00
 -0.327893821218E+00
 -0.326872885431E+00
 -0.288656565719E+00
 -0.293559665685E+00
 -0.251244598021E+00
 -0.244403103872E+00
 -0.205399549146E+00
 -0.196591458228E+00
 -0.159949606048E+00
 -0.149823003910E+00
 -0.118343752196E+00
 -0.106854166248E+00
 -0.796892150444E-01
 -0.663172376289E-01
 -0.417084262530E-01
 -0.260314732167E-01
 -0.159488506433E-02
  0.147786290211E-01
  0.425685340420E-01
  0.547409700898E-01
  0.891748134893E-01
  0.950972986320E-01
  0.161113511647E+00
  0.162636096893E+00
  0.166690928560E+00
  0.166218447054E+00
  0.108844679419E+00
  0.107093132780E+00
  0.794571873500E-01
  0.754577034619E-01
  0.523894012530E-01
  0.450097636658E-01
  0.241298369128E-01
  0.143601941058E-01
 -0.569163911091E-02
 -0.153821814373E-01
 -0.363085012583E-01
 -0.448328136676E-01
 -0.684267480005E-01
 -0.757322354101E-01
 -0.102953460953E+00
 -0.108965810105E+00
 -0.137392769410E+00
 -0.141606179752E+00
 -0.169780087605E+00
 -0.167841884059E+00
 -0.189230520979E+00
 -0.192064361468E+00
 -0.180921769388E+00
 -0.190089060518E+00
 -0.139144877605E+00
 -0.153921532857E+00
 -0.872814041937E-01
 -0.105370868187E+00
 -0.337095125674E-01
 -0.531922879938E-01
  0.321767248531E-01
  0.135242468589E-01
  0.124762888700E+00
  0.110075680830E+00
  0.300821787666E+00
  0.295348384382E+00
  0.527163741483E+00
  0.526217961793E+00
  0.316801712374E+00
  0.329899209917E+00
 -0.586720262749E-01
 -0.221703432859E-01
 -0.212672799375E+00
 -0.171309627059E+00
 -0.257923719208E+00
 -0.220649750761E+00
 -0.286127449280E+00
 -0.254558662022E+00
 -0.308672846794E+00
 -0.283554089768E+00
 -0.334385647281E+00
 -0.316411571664E+00
 -0.350043607605E+00
 -0.340701714925E+00
 -0.330349121937E+00
 -0.329421089719E+00
 -0.285479127787E+00
 -0.290393387112E+00
 -0.244466607246E+00
 -0.237613748045E+00
 -0.196456768791E+00
 -0.187478915230E+00
 -0.149676921012E+00
 -0.139100947512E+00
 -0.106752546965E+00
 -0.946156817938E-01
 -0.662780457057E-01
 -0.526354577262E-01
 -0.260888555469E-01
 -0.122703325914E-01
  0.145468304146E-01
  0.255078827981E-01
  0.542554514797E-01
  0.609013223517E-01
  0.943246261920E-01
  0.977098684906E-01
  0.161337611020E+00
  0.162549860459E+00
  0.166981077503E+00
  0.165991908935E+00
  0.109853042752E+00
  0.108413670991E+00
  0.816562263160E-01
  0.791490363954E-01
  0.566415543812E-01
  0.521914363598E-01
  0.310138471814E-01
  0.240403019653E-01
  0.288609972223E-02
 -0.569359827456E-02
 -0.277668469925E-01
 -0.362540755548E-01
 -0.608334947960E-01
 -0.683415615969E-01
 -0.967036493245E-01
 -0.102886035969E+00
 -0.133075545673E+00
 -0.137469559186E+00
 -0.168699882819E+00
 -0.166380957826E+00
 -0.192552665055E+00
 -0.194564089680E+00
 -0.189720410713E+00
 -0.197099106010E+00
 -0.152855357419E+00
 -0.164953170124E+00
 -0.104221054165E+00
 -0.119184890519E+00
 -0.525593600553E-01
 -0.684197223676E-01
  0.127505428690E-01
 -0.181738280805E-02
  0.106532372194E+00
  0.957974362903E-01
  0.285921631504E+00
  0.282568211696E+00
  0.511122536219E+00
  0.510104323412E+00
  0.285123872176E+00
  0.297717430807E+00
 -0.951241170743E-01
 -0.634804164596E-01
 -0.246709914069E+00
 -0.211087394207E+00
 -0.287772144113E+00
 -0.255112926102E+00
 -0.311592737527E+00
 -0.283404748266E+00
 -0.329209627511E+00
 -0.306683068134E+00
 -0.349339696345E+00
 -0.333500933406E+00
 -0.358664580978E+00
 -0.350620162790E+00
 -0.332517993170E+00
 -0.332065856360E+00
 -0.282290724734E+00
 -0.287445051919E+00
 -0.237744372483E+00
 -0.230755011536E+00
 -0.187366206093E+00
 -0.178162834231E+00
 -0.138951133779E+00
 -0.128052991878E+00
 -0.945077125612E-01
 -0.823261381781E-01
 -0.526096292682E-01
 -0.402541775806E-01
 -0.123729020404E-01
 -0.199048719456E-02
  0.252453292935E-01
  0.323474332717E-01
  0.604781134362E-01
  0.647856280810E-01
  0.971162031045E-01
  0.995029365394E-01
  0.161614909982E+00
  0.162363140512E+00
  0.166982294935E+00
  0.166420021769E+00
  0.110692826525E+00
  0.109508505406E+00
  0.832591042001E-01
  0.814013756131E-01
  0.594345855836E-01
  0.564610921323E-01
  0.356128997970E-01
  0.309104559180E-01
  0.950317318774E-02
  0.286535766708E-02
 -0.200485739927E-01
 -0.277186918428E-01
 -0.533476907673E-01
 -0.607479764582E-01
 -0.903315899496E-01
 -0.966378793458E-01
 -0.128514863845E+00
 -0.133151946978E+00
 -0.167300829427E+00
 -0.164439088169E+00
 -0.195163315620E+00
 -0.196114286668E+00
 -0.196969213328E+00
 -0.202440791078E+00
 -0.164205001789E+00
 -0.173567601024E+00
 -0.118320117547E+00
 -0.130105859667E+00
 -0.679576369293E-01
 -0.804349816825E-01
 -0.242400607687E-02
 -0.136381243781E-01
  0.932325944767E-01
  0.853930974989E-01
  0.276153435410E+00
  0.274254128619E+00
  0.500474744072E+00
  0.499500905584E+00
  0.259521016905E+00
  0.271760712904E+00
 -0.126542700519E+00
 -0.983975000039E-01
 -0.276531361052E+00
 -0.245401387960E+00
 -0.314036774562E+00
 -0.285531041046E+00
 -0.334006875029E+00
 -0.309422918540E+00
 -0.347159781137E+00
 -0.327701475767E+00
 -0.362251693131E+00
 -0.348880611898E+00
 -0.366006546533E+00
 -0.359539778091E+00
 -0.334073737459E+00
 -0.334416414497E+00
 -0.278854162886E+00
 -0.284419709476E+00
 -0.230939064361E+00
 -0.223747079809E+00
 -0.178075368439E+00
 -0.168725427345E+00
 -0.127909227913E+00
 -0.117110149457E+00
 -0.822263323156E-01
 -0.710255235769E-01
 -0.402524705465E-01
 -0.303308884971E-01
 -0.211022689816E-02
  0.527269764388E-02
  0.321165690862E-01
  0.370562243067E-01
  0.644558707700E-01
  0.676469882601E-01
  0.990696293704E-01
  0.101114081817E+00
  0.161732084543E+00
  0.162987027448E+00
  0.167345315289E+00
  0.166567337322E+00
  0.111504597307E+00
  0.110421547833E+00
  0.845481390216E-01
  0.830528161954E-01
  0.614623941215E-01
  0.592821848565E-01
  0.387879541463E-01
  0.355150173326E-01
  0.142556724604E-01
  0.946944049941E-02
 -0.137906079697E-01
 -0.200139955170E-01
 -0.464990895824E-01
 -0.532668455845E-01
 -0.840451910925E-01
 -0.902638795027E-01
 -0.123721900995E+00
 -0.128575755286E+00
 -0.165394078522E+00
 -0.161928975983E+00
 -0.196826579683E+00
 -0.196594258734E+00
 -0.202555877384E+00
 -0.206084032717E+00
 -0.173142111181E+00
 -0.179859848654E+00
 -0.129524279661E+00
 -0.138237414546E+00
 -0.801112023739E-01
 -0.894042175868E-01
 -0.140600883793E-01
 -0.222915186806E-01
  0.836371086973E-01
  0.782130675525E-01
  0.270025463131E+00
  0.269299954475E+00
  0.493591304298E+00
  0.492696916305E+00
  0.238311535605E+00
  0.250156176657E+00
 -0.153868896295E+00
 -0.128719165582E+00
 -0.302597996131E+00
 -0.275475748082E+00
 -0.336851854203E+00
 -0.312350674591E+00
 -0.353302291989E+00
 -0.332447481034E+00
 -0.362408602887E+00
 -0.346216101755E+00
 -0.373033761257E+00
 -0.362263601209E+00
 -0.371887655200E+00
 -0.367192381983E+00
 -0.334790915026E+00
 -0.336133412921E+00
 -0.275032600380E+00
 -0.281077669062E+00
 -0.223960000469E+00
 -0.216610670008E+00
 -0.168659064922E+00
 -0.159457873379E+00
 -0.116981785173E+00
 -0.106991972296E+00
 -0.709475624347E-01
 -0.616080854123E-01
 -0.303478060538E-01
 -0.228936926035E-01
  0.516528006701E-02
  0.105071894470E-01
  0.368778707830E-01
  0.405707548749E-01
  0.674073119820E-01
  0.699639005144E-01
  0.100807004047E+00
  0.102570839673E+00
  0.162531468444E+00
  0.163571077219E+00
  0.167791537435E+00
  0.167018541458E+00
  0.112308292163E+00
  0.111291128889E+00
  0.856663938776E-01
  0.843835580470E-01
  0.630495671078E-01
  0.613378333249E-01
  0.411035339875E-01
  0.387032704427E-01
  0.176478380659E-01
  0.142182539268E-01
 -0.908350593564E-02
 -0.137709643734E-01
 -0.407724797393E-01
 -0.464292479837E-01
 -0.782160899174E-01
 -0.839747492987E-01
 -0.118850317547E+00
 -0.123756045629E+00
 -0.162879887166E+00
 -0.158883872440E+00
 -0.197396292345E+00
 -0.195995356936E+00
 -0.206419355933E+00
 -0.208068175135E+00
 -0.179725623814E+00
 -0.183969858331E+00
 -0.137912603352E+00
 -0.143783272541E+00
 -0.891995077966E-01
 -0.955570792565E-01
 -0.225486161816E-01
 -0.280674897796E-01
  0.771185974882E-01
  0.738474414812E-01
  0.266746974564E+00
  0.267062791516E+00
  0.489530686658E+00
  0.488720822737E+00
  0.220619133968E+00
  0.231934402212E+00
 -0.177518026135E+00
 -0.155244518532E+00
 -0.325087889837E+00
 -0.301799997742E+00
 -0.356280792312E+00
 -0.335696844222E+00
 -0.369489841872E+00
 -0.352343256887E+00
 -0.374959270644E+00
 -0.362021528175E+00
 -0.381649054168E+00
 -0.373494100987E+00
 -0.376205055970E+00
 -0.373354741682E+00
 -0.334568473035E+00
 -0.336961538063E+00
 -0.270828774457E+00
 -0.277264919228E+00
 -0.216826037784E+00
 -0.209542426030E+00
 -0.159408686313E+00
 -0.150868733970E+00
 -0.106889502890E+00
 -0.983884017386E-01
 -0.615567524954E-01
 -0.543032170039E-01
 -0.229162417003E-01
 -0.173982904196E-01
  0.104252051764E-01
  0.144169052670E-01
  0.404449744508E-01
  0.433196743171E-01
  0.698001031396E-01
  0.718919467947E-01
  0.102364909929E+00
  0.103887419811E+00
  0.163276493696E+00
  0.164265129680E+00
  0.168329921484E+00
  0.167534495874E+00
  0.113089543684E+00
  0.112138336395E+00
  0.866597354800E-01
  0.855345623623E-01
  0.643517259110E-01
  0.629487246245E-01
  0.428767958908E-01
  0.410329560499E-01
  0.201295245294E-01
  0.176124217966E-01
 -0.563946790985E-02
 -0.907491959733E-02
 -0.363219514341E-01
 -0.407175801519E-01
 -0.732179273736E-01
 -0.781465502408E-01
 -0.114192882966E+00
 -0.118853752024E+00
 -0.159778511302E+00
 -0.155479744682E+00
 -0.196839626889E+00
 -0.194439269933E+00
 -0.208572962120E+00
 -0.208532559739E+00
 -0.184074823360E+00
 -0.186102557471E+00
 -0.143674475203E+00
 -0.147012741853E+00
 -0.954552324761E-01
 -0.991949525499E-01
 -0.281952474192E-01
 -0.312913574393E-01
  0.732752018104E-01
  0.719279952257E-01
  0.265802618394E+00
  0.267051683822E+00
  0.487624978243E+00
  0.486894830482E+00
  0.205901221798E+00
  0.216524145585E+00
 -0.197719686427E+00
 -0.178318346727E+00
 -0.344121852551E+00
 -0.324550158886E+00
 -0.372428084657E+00
 -0.355610311905E+00
 -0.382668599258E+00
 -0.369070953853E+00
 -0.384898791344E+00
 -0.375063697057E+00
 -0.388145245030E+00
 -0.382488747654E+00
 -0.378978238969E+00
 -0.377880648524E+00
 -0.333462508369E+00
 -0.336763533803E+00
 -0.266424216404E+00
 -0.272961764940E+00
 -0.209740505998E+00
 -0.202920875191E+00
 -0.150837731085E+00
 -0.143485959747E+00
 -0.983183661351E-01
 -0.915842798494E-01
 -0.542738339401E-01
 -0.488298571689E-01
 -0.174175109567E-01
 -0.133058268830E-01
  0.143619845871E-01
  0.174119264576E-01
  0.432394976628E-01
  0.455200885014E-01
  0.717903641139E-01
  0.735170138269E-01
  0.103762292583E+00
  0.105063678161E+00
  0.164089020445E+00
  0.164948805330E+00
  0.168863474434E+00
  0.168121035661E+00
  0.113814286807E+00
  0.112951523134E+00
  0.875373170009E-01
  0.865525793723E-01
  0.654424135905E-01
  0.642694366524E-01
  0.442812662516E-01
  0.428183806610E-01
  0.220014821736E-01
  0.200980923860E-01
 -0.310731920087E-02
 -0.563739130369E-02
 -0.329925006842E-01
 -0.362812763245E-01
 -0.692192953716E-01
 -0.731544004399E-01
 -0.110064333311E+00
 -0.114169891497E+00
 -0.156262350882E+00
 -0.152010568890E+00
 -0.195261900981E+00
 -0.192183355968E+00
 -0.209136768466E+00
 -0.207734517661E+00
 -0.186380511606E+00
 -0.186548353853E+00
 -0.147070546004E+00
 -0.148259670531E+00
 -0.991777493885E-01
 -0.100682103939E+00
 -0.313275654065E-01
 -0.323455224363E-01
  0.717457632049E-01
  0.720546154211E-01
  0.266755082357E+00
  0.268798839478E+00
  0.487315335038E+00
  0.486657564208E+00
  0.193740024019E+00
  0.203523004845E+00
 -0.214683794130E+00
 -0.198125374595E+00
 -0.359864848787E+00
 -0.343830591593E+00
 -0.385477420980E+00
 -0.372171320758E+00
 -0.393028659443E+00
 -0.382695490715E+00
 -0.392410393230E+00
 -0.385392335171E+00
 -0.392690780354E+00
 -0.389257380997E+00
 -0.380383600925E+00
 -0.380750774722E+00
 -0.331707043900E+00
 -0.335565736789E+00
 -0.262157846091E+00
 -0.268340679515E+00
 -0.203094188304E+00
 -0.197164975954E+00
 -0.143476518535E+00
 -0.137584013257E+00
 -0.915451697644E-01
 -0.864488633005E-01
 -0.488151118819E-01
 -0.447741404106E-01
 -0.133183446238E-01
 -0.102276784314E-01
  0.173806472802E-01
  0.197397781592E-01
  0.454765803587E-01
  0.473010571624E-01
  0.734640600873E-01
  0.748931459210E-01
  0.105001062160E+00
  0.106117209096E+00
  0.164865594999E+00
  0.165638130907E+00
  0.169218527923E+00
  0.168687964819E+00
  0.114417159984E+00
  0.113698896601E+00
  0.882847540223E-01
  0.874479898907E-01
  0.663529921362E-01
  0.653738395972E-01
  0.454129174884E-01
  0.442322719870E-01
  0.234496357991E-01
  0.219740131992E-01
 -0.121142551965E-02
 -0.310867525890E-02
 -0.305193336184E-01
 -0.329627201369E-01
 -0.661512879345E-01
 -0.691644143135E-01
 -0.106643631778E+00
 -0.110024132338E+00
 -0.152640499926E+00
 -0.148780302200E+00
 -0.192919147428E+00
 -0.189576714804E+00
 -0.208359644466E+00
 -0.206038344230E+00
 -0.186925535289E+00
 -0.185688866025E+00
 -0.148429612006E+00
 -0.147928425255E+00
 -0.100727754905E+00
 -0.100443173989E+00
 -0.323232011666E-01
 -0.316653497202E-01
  0.721418992839E-01
  0.737845787747E-01
  0.269171475830E+00
  0.271829758934E+00
  0.488103517355E+00
  0.487510682111E+00
  0.183762212594E+00
  0.192597762127E+00
 -0.228668410496E+00
 -0.214837335430E+00
 -0.372566772724E+00
 -0.359786132245E+00
 -0.395708646766E+00
 -0.385543567338E+00
 -0.400866614396E+00
 -0.393384217067E+00
 -0.397795915208E+00
 -0.393165517672E+00
 -0.395595612042E+00
 -0.393941585074E+00
 -0.380754492168E+00
 -0.382117951554E+00
 -0.329669167092E+00
 -0.333595521148E+00
 -0.258391715600E+00
 -0.263765241565E+00
 -0.197316392655E+00
 -0.192526414209E+00
 -0.137596245971E+00
 -0.133115497226E+00
 -0.864339665639E-01
 -0.826664484661E-01
 -0.447683027825E-01
 -0.417746415290E-01
 -0.102334628933E-01
 -0.789497514503E-02
  0.197270417557E-01
  0.215659147207E-01
  0.472853186501E-01
  0.487561606783E-01
  0.748766677021E-01
  0.760771458344E-01
  0.106101358881E+00
  0.107101401331E+00
  0.165624046895E+00
  0.166451061780E+00
  0.169723072128E+00
  0.169077490335E+00
  0.115004587643E+00
  0.114320860468E+00
  0.889469352786E-01
  0.882090469170E-01
  0.671220967409E-01
  0.662944558996E-01
  0.463347487003E-01
  0.453708056071E-01
  0.245902991442E-01
  0.234253577724E-01
  0.236918755426E-03
 -0.121455421013E-02
 -0.286634236276E-01
 -0.304970228482E-01
 -0.638283931108E-01
 -0.661046839342E-01
 -0.103928580329E+00
 -0.106595066231E+00
 -0.149247700582E+00
 -0.145980017851E+00
 -0.190179413880E+00
 -0.186956581324E+00
 -0.206613553727E+00
 -0.203855196783E+00
 -0.186093696305E+00
 -0.183966778366E+00
 -0.148155913272E+00
 -0.146479865571E+00
 -0.100527439963E+00
 -0.989514471365E-01
 -0.316104041267E-01
 -0.297253901626E-01
  0.740365191822E-01
  0.766453881663E-01
  0.272612481141E+00
  0.275673457184E+00
  0.489548030700E+00
  0.489013690979E+00
  0.175611442640E+00
  0.183445754680E+00
 -0.240004849844E+00
 -0.228676920528E+00
 -0.382580695454E+00
 -0.372649433097E+00
 -0.403506110496E+00
 -0.395994239662E+00
 -0.406590536348E+00
 -0.401422223507E+00
 -0.401473393559E+00
 -0.398674460063E+00
 -0.397285439225E+00
 -0.396844702086E+00
 -0.380513949888E+00
 -0.382321643567E+00
 -0.327719631974E+00
 -0.331251134289E+00
 -0.255347677957E+00
 -0.259655242007E+00
 -0.192661883986E+00
 -0.189011323913E+00
 -0.133145183395E+00
 -0.129846052634E+00
 -0.826682838983E-01
 -0.799122297238E-01
 -0.417740993180E-01
 -0.395537749486E-01