# vtk DataFile Version 3.0
MachLine results file. Generated by MachLine, USU AeroLab (c) 2022.
ASCII
DATASET POLYDATA
POINTS                 482 float
  0.000000000000E+00  0.000000000000E+00  0.000000000000E+00
  0.473465979099E+00  0.000000000000E+00 -0.436293870211E+00
  0.473465979099E+00  0.000000000000E+00  0.436293870211E+00
  0.757896304131E+00  0.757896304131E+00  0.000000000000E+00
  0.123136246204E+01  0.757896304131E+00 -0.436293989420E+00
  0.123136246204E+01  0.757896304131E+00  0.436293989420E+00
  0.157641971111E+01  0.000000000000E+00 -0.760520398617E+00
  0.157641971111E+01  0.000000000000E+00  0.760520398617E+00
  0.178897356987E+01  0.178897356987E+01  0.000000000000E+00
  0.226243972778E+01  0.178897356987E+01 -0.436294138432E+00
  0.226243972778E+01  0.178897356987E+01  0.436294138432E+00
  0.233431649208E+01  0.757896304131E+00 -0.760520577431E+00
  0.233431649208E+01  0.757896304131E+00  0.760520577431E+00
  0.317279767990E+01  0.317279767990E+01  0.000000000000E+00
  0.336539411545E+01  0.178897356987E+01 -0.760520815849E+00
  0.336539411545E+01  0.178897356987E+01  0.760520815849E+00
  0.342464399338E+01  0.000000000000E+00 -0.102348911762E+01
  0.342464399338E+01  0.000000000000E+00  0.102348911762E+01
  0.364626431465E+01  0.317279767990E+01 -0.436294317245E+00
  0.364626431465E+01  0.317279767990E+01  0.436294317245E+00
  0.418254137039E+01  0.757896304131E+00 -0.102348935604E+01
  0.418254137039E+01  0.757896304131E+00  0.102348935604E+01
  0.474921894073E+01  0.317279767990E+01 -0.760521173477E+00
  0.474921894073E+01  0.317279767990E+01  0.760521173477E+00
  0.499661636353E+01  0.499661636353E+01  0.000000000000E+00
  0.521361970901E+01  0.178897356987E+01 -0.102348971367E+01
  0.521361970901E+01  0.178897356987E+01  0.102348971367E+01
  0.547008323669E+01  0.499661636353E+01 -0.436294585466E+00
  0.547008323669E+01  0.499661636353E+01  0.436294585466E+00
  0.611307668686E+01  0.000000000000E+00 -0.114008128643E+01
  0.611307668686E+01  0.000000000000E+00  0.114008128643E+01
  0.657303857803E+01  0.499661636353E+01 -0.760521650314E+00
  0.657303857803E+01  0.499661636353E+01  0.760521650314E+00
  0.659744548798E+01  0.317279767990E+01 -0.102349019051E+01
  0.659744548798E+01  0.317279767990E+01  0.102349019051E+01
  0.687097454071E+01  0.757896304131E+00 -0.114008152485E+01
  0.687097454071E+01  0.757896304131E+00  0.114008152485E+01
  0.734362459183E+01  0.734362459183E+01  0.000000000000E+00
  0.781709194183E+01  0.734362459183E+01 -0.436294913292E+00
  0.781709194183E+01  0.734362459183E+01  0.436294913292E+00
  0.790205335617E+01  0.178897356987E+01 -0.114008200169E+01
  0.790205335617E+01  0.178897356987E+01  0.114008200169E+01
  0.842126560211E+01  0.499661636353E+01 -0.102349078655E+01
  0.842126560211E+01  0.499661636353E+01  0.102349078655E+01
  0.892004776001E+01  0.734362459183E+01 -0.760522186756E+00
  0.892004776001E+01  0.734362459183E+01  0.760522186756E+00
  0.928588008881E+01  0.317279767990E+01 -0.114008247852E+01
  0.928588008881E+01  0.317279767990E+01  0.114008247852E+01
  0.939508819580E+01  0.000000000000E+00 -0.980745851994E+00
  0.939508819580E+01  0.000000000000E+00  0.980745851994E+00
  0.101529865265E+02  0.757896304131E+00 -0.980746090412E+00
  0.101529865265E+02  0.757896304131E+00  0.980746090412E+00
  0.102728376389E+02  0.102728376389E+02  0.000000000000E+00
  0.107463054657E+02  0.102728376389E+02 -0.436295330524E+00
  0.107463054657E+02  0.102728376389E+02  0.436295330524E+00
  0.107682771683E+02  0.734362459183E+01 -0.102349150181E+01
  0.107682771683E+02  0.734362459183E+01  0.102349150181E+01
  0.111097030640E+02  0.499661636353E+01 -0.114008307457E+01
  0.111097030640E+02  0.499661636353E+01  0.114008307457E+01
  0.111840667725E+02  0.178897356987E+01 -0.980746388435E+00
  0.111840667725E+02  0.178897356987E+01  0.980746388435E+00
  0.118492631912E+02  0.102728376389E+02 -0.760522902012E+00
  0.118492631912E+02  0.102728376389E+02  0.760522902012E+00
  0.125678949356E+02  0.317279767990E+01 -0.980746865273E+00
  0.125678949356E+02  0.317279767990E+01  0.980746865273E+00
  0.126670312881E+02  0.000000000000E+00 -0.678052663803E+00
  0.126670312881E+02  0.000000000000E+00  0.678052663803E+00
  0.134249305725E+02  0.757896304131E+00 -0.678052842617E+00
  0.134249305725E+02  0.757896304131E+00  0.678052842617E+00
  0.134567155838E+02  0.734362459183E+01 -0.114008402824E+01
  0.134567155838E+02  0.734362459183E+01  0.114008402824E+01
  0.136974935532E+02  0.102728376389E+02 -0.102349245548E+01
  0.136974935532E+02  0.102728376389E+02  0.102349245548E+01
  0.137921218872E+02  0.137921218872E+02  0.000000000000E+00
  0.142655897141E+02  0.137921218872E+02 -0.436295837164E+00
  0.142655897141E+02  0.137921218872E+02  0.436295837164E+00
  0.143917188644E+02  0.499661636353E+01 -0.980747401714E+00
  0.143917188644E+02  0.499661636353E+01  0.980747401714E+00
  0.144560117722E+02  0.178897356987E+01 -0.678053081036E+00
  0.144560117722E+02  0.178897356987E+01  0.678053081036E+00
  0.153437566757E+02  0.000000000000E+00 -0.393031150103E+00
  0.153437566757E+02  0.000000000000E+00  0.393031150103E+00
  0.153685483932E+02  0.137921218872E+02 -0.760523796082E+00
  0.153685483932E+02  0.137921218872E+02  0.760523796082E+00
  0.158398418427E+02  0.317279767990E+01 -0.678053379059E+00
  0.158398418427E+02  0.317279767990E+01  0.678053379059E+00
  0.161016559601E+02  0.757896304131E+00 -0.393031239510E+00
  0.161016559601E+02  0.757896304131E+00  0.393031239510E+00
  0.163859348297E+02  0.102728376389E+02 -0.114008510113E+01
  0.163859348297E+02  0.102728376389E+02  0.114008510113E+01
  0.167387351990E+02  0.734362459183E+01 -0.980748176575E+00
  0.167387351990E+02  0.734362459183E+01  0.980748176575E+00
  0.171327381134E+02  0.178897356987E+01 -0.393031388521E+00
  0.171327381134E+02  0.178897356987E+01  0.393031388521E+00
  0.172004318237E+02  0.000000000000E+00 -0.192506864667E+00
  0.172004318237E+02  0.000000000000E+00  0.192506864667E+00
  0.172167816162E+02  0.137921218872E+02 -0.102349364758E+01
  0.172167816162E+02  0.137921218872E+02  0.102349364758E+01
  0.176636676788E+02  0.499661636353E+01 -0.678053736687E+00
  0.176636676788E+02  0.499661636353E+01  0.678053736687E+00
  0.178320064545E+02  0.178320064545E+02  0.000000000000E+00
  0.179583320618E+02  0.757896304131E+00 -0.192506924272E+00
  0.179583320618E+02  0.757896304131E+00  0.192506924272E+00
  0.183054752350E+02  0.178320064545E+02 -0.436296403408E+00
  0.183054752350E+02  0.178320064545E+02  0.436296403408E+00
  0.183450412750E+02  0.000000000000E+00 -0.698660761118E-01
  0.183450412750E+02  0.000000000000E+00  0.698660761118E-01
  0.185165691376E+02  0.317279767990E+01 -0.393031567335E+00
  0.185165691376E+02  0.317279767990E+01  0.393031567335E+00
  0.189894161224E+02  0.178897356987E+01 -0.192506983876E+00
  0.189894161224E+02  0.178897356987E+01  0.192506983876E+00
  0.190000000000E+02  0.000000000000E+00  0.000000000000E+00
  0.191029415131E+02  0.757896304131E+00 -0.698660910130E-01
  0.191029415131E+02  0.757896304131E+00  0.698660910130E-01
  0.194084339142E+02  0.178320064545E+02 -0.760524809361E+00
  0.194084339142E+02  0.178320064545E+02  0.760524809361E+00
  0.196679573059E+02  0.102728376389E+02 -0.980749070644E+00
  0.196679573059E+02  0.102728376389E+02  0.980749070644E+00
  0.197579002380E+02  0.757896304131E+00  0.000000000000E+00
  0.199052257538E+02  0.137921218872E+02 -0.114008641243E+01
  0.199052257538E+02  0.137921218872E+02  0.114008641243E+01
  0.200106849670E+02  0.734362459183E+01 -0.678054273129E+00
  0.200106849670E+02  0.734362459183E+01  0.678054273129E+00
  0.201340255737E+02  0.178897356987E+01 -0.698661133647E-01
  0.201340255737E+02  0.178897356987E+01  0.698661133647E-01
  0.203403968811E+02  0.499661636353E+01 -0.393031775951E+00
  0.203403968811E+02  0.499661636353E+01  0.393031775951E+00
  0.203732471466E+02  0.317279767990E+01 -0.192507073283E+00
  0.203732471466E+02  0.317279767990E+01  0.192507073283E+00
  0.207889842987E+02  0.178897356987E+01  0.000000000000E+00
  0.212566699982E+02  0.178320064545E+02 -0.102349495888E+01
  0.212566699982E+02  0.178320064545E+02  0.102349495888E+01
  0.215178565979E+02  0.317279767990E+01 -0.698661431670E-01
  0.215178565979E+02  0.317279767990E+01  0.698661431670E-01
  0.221728172302E+02  0.317279767990E+01  0.000000000000E+00
  0.221970767975E+02  0.499661636353E+01 -0.192507177591E+00
  0.221970767975E+02  0.499661636353E+01  0.192507177591E+00
  0.222339305878E+02  0.222339305878E+02  0.000000000000E+00
  0.226874179840E+02  0.734362459183E+01 -0.393032073975E+00
  0.226874179840E+02  0.734362459183E+01  0.393032073975E+00
  0.227074012756E+02  0.222339305878E+02 -0.436297029257E+00
  0.227074012756E+02  0.222339305878E+02  0.436297029257E+00
  0.229399108887E+02  0.102728376389E+02 -0.678054928780E+00
  0.229399108887E+02  0.102728376389E+02  0.678054928780E+00
  0.231872520447E+02  0.137921218872E+02 -0.980750203133E+00
  0.231872520447E+02  0.137921218872E+02  0.980750203133E+00
  0.233416862488E+02  0.499661636353E+01 -0.698661878705E-01
  0.233416862488E+02  0.499661636353E+01  0.698661878705E-01
  0.238103618622E+02  0.222339305878E+02 -0.760525882244E+00
  0.238103618622E+02  0.222339305878E+02  0.760525882244E+00
  0.239451179504E+02  0.178320064545E+02 -0.114008784294E+01
  0.239451179504E+02  0.178320064545E+02  0.114008784294E+01
  0.239966468811E+02  0.499661636353E+01  0.000000000000E+00
  0.245440979004E+02  0.734362459183E+01 -0.192507326603E+00
  0.245440979004E+02  0.734362459183E+01  0.192507326603E+00
  0.256166458130E+02  0.102728376389E+02 -0.393032461405E+00
  0.256166458130E+02  0.102728376389E+02  0.393032461405E+00
  0.256585998535E+02  0.222339305878E+02 -0.102349650860E+01
  0.256585998535E+02  0.222339305878E+02  0.102349650860E+01
  0.256887092590E+02  0.734362459183E+01 -0.698662400246E-01
  0.256887092590E+02  0.734362459183E+01  0.698662400246E-01
[...]
CELL_DATA                 904
SCALARS C_p_inc float 1
LOOKUP_TABLE default
  0.134393771662E+00
  0.920126046119E-01
  0.483525329959E-01
  0.168023916958E-01
 -0.133400563196E-01
 -0.323307080601E-01
 -0.712792252150E-01
 -0.865141432107E-01
 -0.132128475003E+00
 -0.145152819161E+00
 -0.178089398039E+00
 -0.175582670887E+00
 -0.115744580516E+00
 -0.147389551710E+00
  0.522947139268E-02
 -0.536238638033E-01
  0.202326632601E+00
  0.957508273205E-01
  0.578422308891E+00
  0.562269074832E+00
  0.315033319559E+00
  0.433454680426E+00
 -0.171989730836E+00
 -0.121025817338E-01
 -0.252396410543E+00
 -0.184998757066E+00
 -0.307610443352E+00
 -0.278049072388E+00
 -0.301963161505E+00
 -0.311043911034E+00
 -0.246182096734E+00
 -0.227239904330E+00
 -0.161507520109E+00
 -0.140373935697E+00
 -0.872555505687E-01
 -0.613116701982E-01
 -0.217065363076E-01
  0.196199117620E-01
  0.701593335558E-01
  0.124731063764E+00
  0.135493886714E+00
  0.132075205455E+00
  0.635396615275E-01
  0.480422584068E-01
  0.743832613470E-02
 -0.133083809520E-01
 -0.552071464001E-01
 -0.711122014748E-01
 -0.121842242712E+00
 -0.132102059823E+00
 -0.177091760991E+00
 -0.178195852422E+00
 -0.146106050277E+00
 -0.172072902872E+00
 -0.501304954918E-01
 -0.904710840990E-01
  0.935506871674E-01
  0.556598400322E-01
  0.461970634139E+00
  0.459826439267E+00
  0.190231015865E+00
  0.239205594884E+00
 -0.244084707527E+00
 -0.158996736870E+00
 -0.306175932053E+00
 -0.247726889440E+00
 -0.336538262230E+00
 -0.308010936772E+00
 -0.301161890516E+00
 -0.305147970951E+00
 -0.227107688944E+00
 -0.211237122301E+00
 -0.140086223102E+00
 -0.117453080603E+00
 -0.612352319525E-01
 -0.324536513443E-01
  0.192175623579E-01
  0.423850872673E-01
  0.121685887218E+00
  0.129174116094E+00
  0.136372164923E+00
  0.134363629597E+00
  0.687551038518E-01
  0.630617341456E-01
  0.208205345450E-01
  0.737717283858E-02
 -0.391151866432E-01
 -0.550401939243E-01
 -0.110927746985E+00
 -0.121841031224E+00
 -0.179636141395E+00
 -0.178318846698E+00
 -0.170464838456E+00
 -0.186704304766E+00
 -0.881703811239E-01
 -0.115294685670E+00
  0.520434841261E-01
  0.301806315632E-01
  0.432600687010E+00
  0.432700893550E+00
  0.127204928038E+00
  0.165202781443E+00
 -0.303065291278E+00
 -0.238848705804E+00
 -0.348120076138E+00
 -0.301210509898E+00
 -0.356968991023E+00
 -0.336202599301E+00
 -0.299482324840E+00
 -0.304973326457E+00
 -0.211260703001E+00
 -0.194740640684E+00
 -0.117162861581E+00
 -0.942363934718E-01
 -0.324824647085E-01
 -0.123511553636E-01
  0.417494842118E-01
  0.517776034505E-01
  0.127668786213E+00
  0.131602178700E+00
  0.137657590033E+00
  0.135713504590E+00
  0.717001895902E-01
  0.684191242206E-01
  0.274230491307E-01
  0.207020634224E-01
 -0.273547631093E-01
 -0.389784540924E-01
 -0.997961720624E-01
 -0.110901218625E+00
 -0.179991471586E+00
 -0.174955194126E+00
 -0.186364824299E+00
 -0.193550100495E+00
 -0.114207347282E+00
 -0.128601104805E+00
  0.283331729313E-01
  0.174439815138E-01
  0.421784813818E+00
  0.423322327843E+00
  0.842418752307E-01
  0.115647044353E+00
 -0.347516177362E+00
 -0.300030971252E+00
 -0.378152881599E+00
 -0.345594462280E+00
 -0.370296611961E+00
 -0.358195184921E+00
 -0.295138594360E+00
 -0.303756576392E+00
 -0.194875948857E+00
 -0.178506584229E+00
 -0.940085412740E-01
 -0.765651988976E-01
 -0.124559995967E-01
 -0.140622190181E-02
  0.513841166417E-01
  0.571282984023E-01
  0.130862942602E+00
  0.133758190321E+00
  0.138863749487E+00
  0.137253512640E+00
  0.737713695298E-01
  0.714852768570E-01
  0.310176858435E-01
  0.273272527512E-01
 -0.207404400822E-01
 -0.272840191583E-01
 -0.910066074365E-01
 -0.997121314152E-01
 -0.176641786093E+00
 -0.169228550209E+00
 -0.194154281779E+00
 -0.193658237308E+00
 -0.128369698885E+00
 -0.132441031894E+00
  0.169008186825E-01
  0.148022406015E-01
  0.420897221241E+00
  0.423581013801E+00
  0.550690573036E-01
  0.797201660008E-01
 -0.378171702400E+00
 -0.346258756598E+00
 -0.396997447544E+00
 -0.377924339367E+00
 -0.376495322106E+00
 -0.372789406475E+00
 -0.289014263194E+00
 -0.299316047929E+00
 -0.178648031127E+00
 -0.165891790845E+00
 -0.764630341788E-01
 -0.661537630690E-01
 -0.147072879633E-02
  0.472422876333E-02
  0.569627629246E-01
  0.606738595763E-01
  0.133479011803E+00
  0.135735582030E+00
  0.139936862196E+00
  0.138599911564E+00
  0.752846850841E-01
  0.736277232205E-01
  0.332191441397E-01
  0.309492408163E-01
 -0.171445455172E-01
 -0.207094113133E-01
 -0.855827487644E-01
 -0.909061464099E-01
 -0.170491314363E+00
 -0.163719430545E+00
 -0.194617624320E+00
 -0.189890016150E+00
 -0.132683699358E+00
 -0.130017987206E+00
  0.149517098101E-01
  0.188347692157E-01
  0.425502354942E+00
  0.428807845741E+00
  0.363492899796E-01
  0.541962249983E-01
 -0.396999387210E+00
 -0.378187141922E+00
 -0.406932634993E+00
 -0.398156587302E+00
 -0.377992165634E+00
 -0.379328837559E+00
 -0.283866267819E+00
 -0.292244032886E+00
 -0.166034299077E+00
 -0.158394058364E+00
 -0.661353693711E-01
 -0.605601136253E-01
  0.470958730270E-02
  0.830564240143E-02
  0.606474126115E-01
  0.630476383358E-01
  0.135705703595E+00
  0.137270604102E+00
  0.140676541836E+00
  0.139732111341E+00
  0.763159901894E-01
  0.751735748230E-01
  0.346119956464E-01
  0.331650520342E-01
 -0.150701869004E-01
 -0.171290146902E-01
 -0.824526859446E-01
 -0.854930067650E-01
 -0.164414968809E+00
 -0.159772925591E+00
 -0.190673475612E+00
 -0.185514346307E+00
 -0.130372134807E+00
 -0.125199434305E+00
  0.192038150342E-01
  0.255356305751E-01
  0.432050934672E+00
  0.435282231996E+00
  0.246939925752E-01
  0.368819420810E-01
 -0.407697850826E+00
 -0.397584910112E+00
 -0.411718501131E+00
 -0.408387297006E+00
 -0.378099806482E+00
 -0.380216763110E+00
 -0.280969168709E+00
 -0.285842970548E+00
 -0.158543468863E+00
 -0.154552084405E+00
 -0.605765241586E-01
 -0.575693850781E-01
  0.831843187153E-02
  0.104603820579E-01
  0.630903565984E-01
  0.646683928104E-01
  0.137366310144E+00
  0.138503110392E+00
  0.141115653227E+00
  0.140486831578E+00
  0.769229438056E-01
  0.762126235314E-01
  0.354182989120E-01
  0.345610960946E-01
 -0.138851323993E-01
 -0.150609661389E-01
 -0.806331386682E-01
 -0.823716164871E-01
 -0.160067442595E+00
 -0.157211441523E+00
 -0.185955493789E+00
 -0.182085055526E+00
 -0.125456482250E+00
 -0.120747116918E+00
  0.258571601869E-01
  0.317482775302E-01
  0.438020670162E+00
  0.440645402825E+00
  0.170666537627E-01
  0.253649816101E-01
 -0.414070577681E+00
 -0.408271375757E+00
 -0.414399089410E+00
 -0.412790861553E+00
 -0.378273469100E+00
 -0.379445839215E+00
 -0.279609661394E+00
 -0.282028067844E+00
 -0.154689684573E+00
 -0.152602800358E+00
 -0.575969417322E-01
 -0.558445906023E-01
  0.104831873318E-01
  0.118935243533E-01
  0.647382094163E-01
  0.658787733748E-01
  0.138648474168E+00
  0.139509413029E+00
  0.141234117605E+00
  0.140903807433E+00
  0.771124859679E-01
  0.768077845566E-01
  0.356990964811E-01
  0.353614152831E-01
 -0.133883156757E-01
 -0.138793110775E-01
 -0.797273513972E-01
 -0.805538904348E-01
 -0.157284440065E+00
 -0.155753698127E+00
 -0.182263389950E+00
 -0.179888641983E+00
 -0.120877256502E+00
 -0.117639378586E+00
  0.319433685199E-01
  0.361830227472E-01
  0.442341872149E+00
  0.444175210762E+00
  0.118751623860E-01
  0.174631207270E-01
 -0.418088949502E+00
 -0.414424978133E+00
 -0.416071296683E+00
 -0.415012360063E+00
 -0.378454448385E+00
 -0.379000942323E+00
 -0.278840278808E+00
 -0.280183924149E+00
 -0.152715669539E+00
 -0.151373466342E+00
 -0.558734861935E-01
 -0.545441214803E-01
  0.119182306724E-01
  0.131516461895E-01
  0.659583472192E-01
  0.670518647962E-01
  0.139678083070E+00
  0.140539349880E+00
  0.141051115522E+00
  0.140960376125E+00
  0.768865821657E-01
  0.769630712735E-01
  0.354420564715E-01
  0.356248492634E-01
 -0.135740083090E-01
 -0.133855405523E-01
 -0.796768612632E-01
 -0.796413679984E-01
 -0.155682417963E+00
 -0.155355657061E+00
 -0.179887732222E+00
 -0.178978608961E+00
 -0.117672950680E+00
 -0.116077857276E+00
  0.362625290595E-01
  0.386206993513E-01
  0.444974088639E+00
  0.446021963595E+00
  0.875136463613E-02
  0.120153999668E-01
 -0.420262169242E+00
 -0.418256318576E+00
 -0.416806186668E+00
 -0.416385505601E+00
 -0.378236432378E+00
 -0.378856773900E+00
 -0.277953439376E+00
 -0.279197379957E+00
 -0.151456203573E+00
 -0.150087467684E+00
 -0.545708696756E-01
 -0.530179616762E-01
  0.131765806968E-01
  0.147782550000E-01
  0.671411147772E-01
  0.686559742954E-01
  0.140737820621E+00
  0.141972698478E+00
  0.140747618892E+00
  0.140660665541E+00
  0.763764742163E-01
  0.766693649254E-01
  0.346947055379E-01
  0.353314443247E-01
 -0.144801915250E-01
 -0.135765702798E-01
 -0.805761811833E-01
 -0.795715861994E-01
 -0.155141029180E+00
 -0.156151774909E+00
 -0.178817726878E+00
 -0.179494206696E+00
 -0.116031913265E+00
 -0.116181362106E+00
  0.385994403398E-01
  0.390280999094E-01
  0.446108543428E+00
  0.446401360272E+00
  0.773534748694E-02
  0.871671449058E-02
 -0.420592131096E+00
 -0.420306901547E+00
 -0.416430395327E+00
 -0.416951401216E+00
 -0.377235033724E+00
 -0.378485162603E+00
 -0.276401698094E+00
 -0.278233682588E+00
 -0.150134442932E+00
 -0.148104051775E+00
 -0.530416196187E-01
 -0.505842294379E-01
  0.148055099614E-01
  0.174800960844E-01
  0.687688794066E-01
  0.713942776652E-01
  0.142240546023E+00
  0.144456361247E+00
  0.140995571560E+00
  0.140173143456E+00
  0.761660326269E-01
  0.760418343547E-01
  0.338576634950E-01
  0.345136318564E-01
 -0.159540567833E-01
 -0.144968413332E-01
 -0.825176270634E-01
 -0.804328523149E-01
 -0.155739833089E+00
 -0.158399473003E+00
 -0.179132042327E+00
 -0.181720957251E+00
 -0.116047061751E+00
 -0.118179130300E+00
  0.388967638660E-01
  0.372792097495E-01
  0.445793123607E+00
  0.445354881175E+00
  0.882566708800E-02
  0.755473379359E-02
 -0.419063654029E+00
 -0.420541252489E+00
 -0.414823238248E+00
 -0.416459940530E+00
 -0.375161849035E+00
 -0.377406184295E+00
 -0.273691806940E+00
 -0.276685137975E+00
 -0.148099611977E+00
 -0.144710163730E+00
 -0.506039671922E-01
 -0.463194026825E-01
  0.175147131145E-01
  0.223177997996E-01
  0.715616896284E-01
  0.763820827790E-01
  0.144878749038E+00
  0.149057329242E+00
  0.142887259941E+00
  0.140170980859E+00
  0.773749516703E-01
  0.756484101635E-01
  0.339164472643E-01
  0.335475346212E-01
 -0.172743943155E-01
 -0.160116077679E-01
 -0.852484837255E-01
 -0.823124135943E-01
 -0.157684632569E+00
 -0.162349827036E+00
 -0.181051205529E+00
 -0.186110250143E+00
 -0.117920303942E+00
 -0.122473266168E+00
  0.369972544994E-01
  0.331017003692E-01
  0.443876357616E+00
  0.442741574450E+00
  0.117810702999E-01
  0.846132406360E-02
 -0.415866968318E+00
 -0.418898788136E+00
 -0.412045066613E+00
 -0.414718599933E+00
 -0.371837678544E+00
 -0.375262315748E+00
 -0.269244025114E+00
 -0.274039351638E+00
 -0.144617373669E+00
 -0.138891648946E+00
 -0.463337163883E-01
 -0.389735335688E-01
  0.223685415985E-01
  0.306097941023E-01
  0.766555115014E-01
  0.850149149207E-01
  0.149775788769E+00
  0.157195068546E+00
  0.146901180309E+00
  0.141635138787E+00
  0.803309427755E-01
  0.765333658137E-01
  0.350595981557E-01
  0.333700597401E-01
 -0.177017759507E-01
 -0.174406406307E-01
 -0.876087516005E-01
 -0.849721274896E-01
 -0.161207417559E+00
 -0.167646388879E+00
 -0.184945928475E+00
 -0.193195982396E+00
 -0.122020641977E+00
 -0.129711495817E+00
  0.325852976222E-01
  0.260181437979E-01
  0.440000406927E+00
  0.438233897864E+00
  0.160323308526E-01
  0.111182116142E-01
 -0.411507262359E+00
 -0.415518524088E+00
 -0.408385898122E+00
 -0.411705950011E+00
 -0.367070456692E+00
 -0.371815369470E+00
 -0.261954156982E+00
 -0.269771364118E+00
 -0.138654102091E+00
 -0.129298739447E+00
 -0.389847103002E-01
 -0.280766943492E-01
  0.306828394879E-01
  0.423111122712E-01
  0.854174311510E-01
  0.977296309537E-01
  0.158283969105E+00
  0.169905307707E+00
  0.153496490254E+00
  0.144056894098E+00
  0.821768945908E-01
  0.784177110826E-01
  0.320268673139E-01
  0.339426202814E-01
 -0.203806370073E-01
 -0.181021978398E-01
 -0.886158587973E-01
 -0.873315346567E-01
 -0.166112155925E+00
 -0.171719355860E+00
 -0.191299145170E+00
 -0.202823101270E+00
 -0.128956110632E+00
 -0.140877096384E+00
  0.251044059178E-01
  0.151699098960E-01
  0.433525085941E+00
  0.431233645685E+00
  0.206493924885E-01
  0.148390975181E-01
 -0.406844686530E+00
 -0.410834178843E+00
 -0.404239331707E+00
 -0.407600725783E+00
 -0.359833112948E+00
 -0.366908361414E+00
 -0.249324121136E+00
 -0.263097984547E+00
 -0.128911458046E+00
 -0.116108390799E+00
 -0.280952938812E-01
 -0.176918171267E-01
  0.423715644161E-01
  0.521398620148E-01
  0.980278844318E-01
  0.112610210325E+00
  0.170858272908E+00
  0.189198353887E+00
  0.170635217126E+00
  0.141128126357E+00
  0.665575469404E-01
  0.743647559227E-01
  0.247856009435E-03
  0.289531840456E-01
 -0.380998605465E-01
 -0.211575956127E-01
 -0.913011443670E-01
 -0.885081912518E-01
 -0.170254056934E+00
 -0.170449093938E+00
 -0.200199975691E+00
 -0.211098803747E+00
 -0.139703385601E+00
 -0.157011157175E+00
  0.135054165135E-01
 -0.113612896637E-02
  0.423245512652E+00
  0.420591533339E+00
  0.242560666538E-01
  0.184556484122E-01
 -0.403106195901E+00
 -0.405582930030E+00
 -0.399269934713E+00
 -0.402687641005E+00
 -0.345720427082E+00
 -0.360106219144E+00
 -0.229465178047E+00
 -0.252184283494E+00
 -0.115760532722E+00
 -0.104193369960E+00
 -0.177537046676E-01
 -0.204817926815E-01
  0.520197596418E-01
  0.380433212936E-01
  0.111144187447E+00
  0.118569024673E+00
  0.186370524368E+00
  0.230852273255E+00
  0.221565020786E+00
  0.214318870688E-01
 -0.204284380055E+00
  0.781180802591E-02
 -0.181521552982E+00
 -0.955565080518E-02
 -0.100448838603E+00
 -0.388768401019E-01
 -0.101490749814E+00
 -0.914240644701E-01
 -0.169629127206E+00
 -0.164422079787E+00
 -0.208602304613E+00
 -0.208834800397E+00
 -0.155577024233E+00
 -0.175666267537E+00
 -0.449269155991E-02
 -0.264623248076E-01
  0.406451239817E+00
  0.403730253675E+00
  0.245582355076E-01
  0.199560690475E-01
 -0.401723755688E+00
 -0.400760436672E+00
 -0.388125903953E+00
 -0.397015310648E+00
 -0.317937206384E+00
 -0.348618010176E+00
 -0.206396029702E+00
 -0.235332046631E+00
 -0.104422687050E+00
 -0.999199149167E-01
 -0.209533138445E-01
 -0.621790814122E-01
  0.367678845836E-01
 -0.106994279273E+00
  0.909895626874E-01
 -0.919581180619E-01
  0.140597147987E+00
  0.367842748378E+00
 -0.955023385384E+02
 -0.563256355045E-01
 -0.483296523667E+00
 -0.130254161053E+01
 -0.178600253567E+01
 -0.196389447143E+00
 -0.263963786723E+00
 -0.973083760655E-01
 -0.122460124657E+00
 -0.101508440105E+00
 -0.164197940282E+00
 -0.157332477874E+00
 -0.207758810045E+00
 -0.194476622124E+00
 -0.175088660912E+00
 -0.179914167202E+00
 -0.346672052566E-01
 -0.664703185951E-01
  0.374949539056E+00
  0.373094851786E+00
  0.160885299592E-01
  0.146927852010E-01
 -0.400325185128E+00
 -0.397607460201E+00
 -0.352004405132E+00
 -0.387698418535E+00
 -0.280779413231E+00
 -0.326512529874E+00
 -0.185148465248E+00
 -0.216337842275E+00
 -0.102207627583E+00
 -0.105734952521E+00
 -0.655522922406E-01
 -0.185327033194E+00
 -0.108035011794E+00
 -0.152240051171E+01
 -0.946192051256E+00
 -0.373236750815E+00
 -0.261653165927E+00
 -0.950511879399E+02
 -0.157243332324E+09
 -0.949121206276E+05
 -0.558715839667E+05
 -0.121118372168E+00
 -0.683043267956E+00
 -0.145018523983E+01
 -0.756449902272E+00
 -0.239686410408E+00
 -0.157621021326E+00
 -0.121505614821E+00
 -0.157339996262E+00
 -0.150895148030E+00
 -0.194462955907E+00
 -0.174958651974E+00
 -0.182403034524E+00
 -0.160352104414E+00
 -0.883747078286E-01
 -0.912121936899E-01
  0.279236025291E+00
  0.286034729940E+00
 -0.182185206173E-01
 -0.204122978262E-01
 -0.333811345196E+00
 -0.396482620134E+00
 -0.287512723611E+00
 -0.359108898572E+00
 -0.243241605675E+00
 -0.298665068545E+00
 -0.167290656302E+00
 -0.204392349481E+00
 -0.115756430104E+00
 -0.123048537359E+00
 -0.204032084748E+00
 -0.533628854008E+00
 -0.132512248515E+01
 -0.115311051805E+01
 -0.517369866618E-02
 -0.557719559843E+05
 -0.947400580604E+05
 -0.157246978380E+09
 -0.358374518051E+09
 -0.215329224002E+07
 -0.936689494492E+05
 -0.132456758302E+03
 -0.168206262781E+01
 -0.156788328944E+01
 -0.590504536510E+00
 -0.198325056357E+00
 -0.153454078246E+00
 -0.152042591626E+00
 -0.151399228083E+00
 -0.175657475431E+00
 -0.168227044682E+00
 -0.167049147192E+00
 -0.161745372015E+00
 -0.134463532774E+00
 -0.144078829749E+00
  0.863813271359E-01
 -0.941216563069E-01
 -0.286123842000E+00
 -0.333704312219E+00
 -0.252561023202E+00
 -0.298408098483E+00
 -0.226918232585E+00
 -0.268095241310E+00
 -0.168548910938E+00
 -0.202889108350E+00
 -0.153874189792E+00
 -0.150698433256E+00
 -0.611264346727E+00
 -0.908651058892E+00
 -0.605731123591E+00
 -0.145675494778E+03
 -0.938650272151E+05
 -0.215100098813E+07
 -0.358359009230E+09
 -0.376331759582E+09
 -0.824953577817E+07
 -0.135036576687E+06
 -0.895157366842E+03
 -0.357656678753E+01
 -0.205410355078E+01
 -0.743180490901E+00
 -0.235958280113E+00
 -0.175895188321E+00
 -0.157299447158E+00
 -0.157890433971E+00
 -0.171920060144E+00
 -0.169929426514E+00
 -0.166362163455E+00
 -0.164867724820E+00
 -0.153453993356E+00
 -0.162168174173E+00
  0.190112412294E-01
 -0.118939077251E+00
 -0.249417065101E+00
 -0.289877186768E+00
 -0.232268271727E+00
 -0.263732927031E+00
 -0.219594010657E+00
 -0.245805527912E+00
 -0.173976021981E+00
 -0.200901071166E+00
 -0.185571583193E+00
 -0.181662847921E+00
 -0.816482736272E+00
 -0.114017808262E+01
 -0.160426291753E+01
 -0.939228706282E+03
 -0.135359554095E+06
 -0.824365299731E+07
 -0.376307687940E+09
 -0.300480944229E+09
 -0.635406810283E+07
 -0.181272042316E+06
 -0.705233490363E+03
 -0.775785626740E+01
 -0.197160675373E+01
 -0.921534359233E+00
 -0.262594325676E+00
 -0.198951125723E+00
 -0.168779284802E+00
 -0.167889858329E+00
 -0.178704962493E+00
 -0.178502819906E+00
 -0.174052649477E+00
 -0.173921082960E+00
 -0.171932185224E+00
 -0.177330483631E+00
 -0.364029028259E-01
 -0.124131137738E+00
 -0.224942203185E+00
 -0.250652006135E+00
 -0.216564132596E+00
 -0.233092129382E+00
 -0.211178809286E+00
 -0.225935930831E+00
 -0.176490684616E+00
 -0.198013371990E+00
 -0.211014939316E+00
 -0.209764712266E+00
 -0.101320586073E+01
 -0.113889063517E+01
 -0.506682952138E+01
 -0.750553712561E+03
 -0.181625201333E+06
 -0.634808620326E+07
 -0.300458716351E+09
 -0.216106932222E+09
 -0.123380808119E+07
 -0.202151006666E+06
 -0.122299825275E+03
 -0.946859034347E+01
 -0.147350827114E+01
 -0.108394022328E+01
 -0.264752922624E+00
 -0.216254047599E+00
 -0.179408960544E+00
 -0.177381983091E+00
 -0.190992859560E+00
 -0.190985827958E+00
 -0.187783316361E+00
 -0.187653647407E+00
 -0.191892927736E+00
 -0.192962794874E+00
 -0.805172082393E-01
 -0.110574026938E+00
 -0.210945964609E+00
 -0.215607660674E+00
 -0.203448230893E+00
 -0.206531242813E+00
 -0.201169330994E+00
 -0.208102904009E+00
 -0.175602281759E+00
 -0.194354293007E+00
 -0.227540986847E+00
 -0.233443721457E+00
 -0.113742191338E+01
 -0.110741552312E+01
 -0.803904989853E+01
 -0.142205555704E+03
 -0.202319082419E+06
 -0.123120527917E+07
 -0.216097753864E+09
SCALARS sigma float 1
LOOKUP_TABLE default
  0.000000000000E+00
  0.000000000000E+00
  0.000000000000E+00
  0.000000000000E+00
  0.000000000000E+00
  0.000000000000E+00
  0.000000000000E+00
  0.000000000000E+00
  0.000000000000E+00
  0.000000000000E+00
  0.000000000000E+00
  0.000000000000E+00
  0.000000000000E+00
  0.000000000000E+00
  0.000000000000E+00
  0.000000000000E+00
  0.000000000000E+00
  0.000000000000E+00
  0.000000000000E+00
  0.000000000000E+00
  0.000000000000E+00
  0.000000000000E+00
  0.000000000000E+00
  0.000000000000E+00
  0.000000000000E+00
  0.000000000000E+00
  0.000000000000E+00
  0.000000000000E+00
  0.000000000000E+00
  0.000000000000E+00
  0.000000000000E+00
  0.000000000000E+00
  0.000000000000E+00
  0.000000000000E+00
  0.000000000000E+00
  0.000000000000E+00
  0.000000000000E+00
  0.000000000000E+00
  0.000000000000E+00
  0.000000000000E+00
  0.000000000000E+00
  0.000000000000E+00