# vtk DataFile Version 3.0
TriPan results file. Generated by TriPan, USU AeroLab (c) 2021.
ASCII
DATASET POLYDATA
POINTS                 144 float
  0.000000000000E+00  0.000000000000E+00  0.000000000000E+00
  0.750993072987E+00  0.000000000000E+00 -0.543790996075E+00
  0.750993072987E+00  0.000000000000E+00  0.543790996075E+00
  0.192375373840E+01  0.192375373840E+01  0.000000000000E+00
  0.267474675179E+01  0.192375373840E+01 -0.543790996075E+00
  0.267474675179E+01  0.192375373840E+01  0.543790996075E+00
  0.359246444702E+01  0.000000000000E+00 -0.103884494305E+01
  0.359246444702E+01  0.000000000000E+00  0.103884494305E+01
  0.547033166885E+01  0.547033166885E+01  0.000000000000E+00
  0.551621818542E+01  0.192375373840E+01 -0.103884494305E+01
  0.551621818542E+01  0.192375373840E+01  0.103884494305E+01
  0.622132492065E+01  0.547033166885E+01 -0.543790996075E+00
  0.622132492065E+01  0.547033166885E+01  0.543790996075E+00
  0.906279659271E+01  0.547033166885E+01 -0.103884494305E+01
  0.906279659271E+01  0.547033166885E+01  0.103884494305E+01
  0.939523696899E+01  0.000000000000E+00 -0.980761349201E+00
  0.939523696899E+01  0.000000000000E+00  0.980761349201E+00
  0.113189907074E+02  0.192375373840E+01 -0.980761349201E+00
  0.113189907074E+02  0.192375373840E+01  0.980761349201E+00
  0.113820018768E+02  0.113820018768E+02  0.000000000000E+00
  0.121329956055E+02  0.113820018768E+02 -0.543790996075E+00
  0.121329956055E+02  0.113820018768E+02  0.543790996075E+00
  0.148655681610E+02  0.547033166885E+01 -0.980761349201E+00
  0.148655681610E+02  0.547033166885E+01  0.980761349201E+00
  0.149744663239E+02  0.113820018768E+02 -0.103884494305E+01
  0.149744663239E+02  0.113820018768E+02  0.103884494305E+01
  0.151765298843E+02  0.000000000000E+00 -0.411069482565E+00
  0.151765298843E+02  0.000000000000E+00  0.411069482565E+00
  0.171002845764E+02  0.192375373840E+01 -0.411069482565E+00
  0.171002845764E+02  0.192375373840E+01  0.411069482565E+00
  0.180493259430E+02  0.000000000000E+00 -0.101516798139E+00
  0.180493259430E+02  0.000000000000E+00  0.101516798139E+00
  0.190003013611E+02  0.000000000000E+00  0.000000000000E+00
  0.197561950684E+02  0.197561950684E+02  0.000000000000E+00
  0.199730796814E+02  0.192375373840E+01 -0.101516798139E+00
  0.199730796814E+02  0.192375373840E+01  0.101516798139E+00
  0.205071868896E+02  0.197561950684E+02 -0.543790996075E+00
  0.205071868896E+02  0.197561950684E+02  0.543790996075E+00
  0.206468620300E+02  0.547033166885E+01 -0.411069482565E+00
  0.206468620300E+02  0.547033166885E+01  0.411069482565E+00
  0.207772388458E+02  0.113820018768E+02 -0.980761349201E+00
  0.207772388458E+02  0.113820018768E+02  0.980761349201E+00
  0.209240550995E+02  0.192375373840E+01  0.000000000000E+00
  0.233486595154E+02  0.197561950684E+02 -0.103884494305E+01
  0.233486595154E+02  0.197561950684E+02  0.103884494305E+01
  0.235196590424E+02  0.547033166885E+01 -0.101516798139E+00
  0.235196590424E+02  0.547033166885E+01  0.101516798139E+00
  0.244706325531E+02  0.547033166885E+01  0.000000000000E+00
  0.265585327148E+02  0.113820018768E+02 -0.411069482565E+00
  0.265585327148E+02  0.113820018768E+02  0.411069482565E+00
  0.291514320374E+02  0.197561950684E+02 -0.980761349201E+00
  0.291514320374E+02  0.197561950684E+02  0.980761349201E+00
  0.292438049316E+02  0.292438049316E+02  0.000000000000E+00
  0.294313278198E+02  0.113820018768E+02 -0.101516798139E+00
  0.294313278198E+02  0.113820018768E+02  0.101516798139E+00
  0.299947986603E+02  0.292438049316E+02 -0.543790996075E+00
  0.299947986603E+02  0.292438049316E+02  0.543790996075E+00
  0.303823032379E+02  0.113820018768E+02  0.000000000000E+00
  0.328362693787E+02  0.292438049316E+02 -0.103884494305E+01
  0.328362693787E+02  0.292438049316E+02  0.103884494305E+01
  0.349327239990E+02  0.197561950684E+02 -0.411069482565E+00
  0.349327239990E+02  0.197561950684E+02  0.411069482565E+00
  0.376179962158E+02  0.376179962158E+02  0.000000000000E+00
  0.378055191040E+02  0.197561950684E+02 -0.101516798139E+00
  0.378055191040E+02  0.197561950684E+02  0.101516798139E+00
  0.383689918518E+02  0.376179962158E+02 -0.543790996075E+00
  0.383689918518E+02  0.376179962158E+02  0.543790996075E+00
  0.386390419006E+02  0.292438049316E+02 -0.980761349201E+00
  0.386390419006E+02  0.292438049316E+02  0.980761349201E+00
  0.387564964294E+02  0.197561950684E+02  0.000000000000E+00
  0.412104606628E+02  0.376179962158E+02 -0.103884494305E+01
  0.412104606628E+02  0.376179962158E+02  0.103884494305E+01
  0.435296669006E+02  0.435296669006E+02  0.000000000000E+00
  0.442806625366E+02  0.435296669006E+02 -0.543790996075E+00
  0.442806625366E+02  0.435296669006E+02  0.543790996075E+00
  0.444203338623E+02  0.292438049316E+02 -0.411069482565E+00
  0.444203338623E+02  0.292438049316E+02  0.411069482565E+00
  0.470132331848E+02  0.376179962158E+02 -0.980761349201E+00
  0.470132331848E+02  0.376179962158E+02  0.980761349201E+00
  0.470762481689E+02  0.470762481689E+02  0.000000000000E+00
  0.471221313477E+02  0.435296669006E+02 -0.103884494305E+01
  0.471221313477E+02  0.435296669006E+02  0.103884494305E+01
  0.472931327820E+02  0.292438049316E+02 -0.101516798139E+00
  0.472931327820E+02  0.292438049316E+02  0.101516798139E+00
  0.478272399902E+02  0.470762481689E+02 -0.543790996075E+00
  0.478272399902E+02  0.470762481689E+02  0.543790996075E+00
  0.482441062927E+02  0.292438049316E+02  0.000000000000E+00
  0.490000000000E+02  0.490000000000E+02  0.000000000000E+00
  0.497509918213E+02  0.490000000000E+02 -0.543790996075E+00
  0.497509918213E+02  0.490000000000E+02  0.543790996075E+00
  0.501355133057E+02  0.493845176697E+02 -0.384518325329E+00
  0.501355133057E+02  0.493845176697E+02  0.384518325329E+00
  0.502947845459E+02  0.495437927246E+02 -0.938680429840E-15
  0.506687088013E+02  0.470762481689E+02 -0.103884494305E+01
  0.506687088013E+02  0.470762481689E+02  0.103884494305E+01
  0.525924644470E+02  0.490000000000E+02 -0.103884494305E+01
  0.525924644470E+02  0.490000000000E+02  0.103884494305E+01
  0.527945289612E+02  0.376179962158E+02 -0.411069482565E+00
  0.527945289612E+02  0.376179962158E+02  0.411069482565E+00
  0.529249038696E+02  0.435296669006E+02 -0.980761349201E+00
  0.529249038696E+02  0.435296669006E+02  0.980761349201E+00
  0.533270378113E+02  0.497345733643E+02 -0.734574317932E+00
  0.533270378113E+02  0.497345733643E+02  0.734574317932E+00
  0.536313095093E+02  0.500388450623E+02 -0.204183803501E-15
  0.556673240662E+02  0.376179962158E+02 -0.101516798139E+00
  0.556673240662E+02  0.376179962158E+02  0.101516798139E+00
  0.564714813232E+02  0.470762481689E+02 -0.980761349201E+00
  0.564714813232E+02  0.470762481689E+02  0.980761349201E+00
  0.566182975769E+02  0.376179962158E+02  0.000000000000E+00
  0.583952369690E+02  0.490000000000E+02 -0.980761349201E+00
  0.583952369690E+02  0.490000000000E+02  0.980761349201E+00
  0.587061996460E+02  0.435296669006E+02 -0.411069482565E+00
  0.587061996460E+02  0.435296669006E+02  0.411069482565E+00
  0.590887413025E+02  0.496935043335E+02 -0.693503022194E+00
  0.590887413025E+02  0.496935043335E+02  0.693503022194E+00
  0.593759994507E+02  0.499807624817E+02  0.000000000000E+00
  0.615789947510E+02  0.435296669006E+02 -0.101516798139E+00
  0.615789947510E+02  0.435296669006E+02  0.101516798139E+00
  0.622527770996E+02  0.470762481689E+02 -0.411069482565E+00
  0.622527770996E+02  0.470762481689E+02  0.411069482565E+00
  0.625299682617E+02  0.435296669006E+02  0.000000000000E+00
  0.641765289307E+02  0.490000000000E+02 -0.411069482565E+00
  0.641765289307E+02  0.490000000000E+02  0.411069482565E+00
  0.644672012329E+02  0.492906684875E+02 -0.290670007467E+00
  0.644672012329E+02  0.492906684875E+02  0.290670007467E+00
  0.645876007080E+02  0.494110679626E+02  0.400788329721E-15
  0.651255722046E+02  0.470762481689E+02 -0.101516798139E+00
  0.651255722046E+02  0.470762481689E+02  0.101516798139E+00
  0.660765457153E+02  0.470762481689E+02  0.000000000000E+00
  0.670493240356E+02  0.490000000000E+02 -0.101516798139E+00
  0.670493240356E+02  0.490000000000E+02  0.101516798139E+00
  0.671211090088E+02  0.490717849731E+02 -0.717832148075E-01
  0.671211090088E+02  0.490717849731E+02  0.717832148075E-01
  0.671508407593E+02  0.491015167236E+02 -0.511051538462E-16
  0.680002975464E+02  0.490000000000E+02  0.000000000000E+00
  0.190003013611E+02  0.000000000000E+00  0.000000000000E+00
  0.209240550995E+02  0.192375373840E+01  0.000000000000E+00
  0.244706325531E+02  0.547033166885E+01  0.000000000000E+00
  0.303823032379E+02  0.113820018768E+02  0.000000000000E+00
  0.387564964294E+02  0.197561950684E+02  0.000000000000E+00
  0.482441062927E+02  0.292438049316E+02  0.000000000000E+00
  0.566182975769E+02  0.376179962158E+02  0.000000000000E+00
  0.625299682617E+02  0.435296669006E+02  0.000000000000E+00
  0.660765457153E+02  0.470762481689E+02  0.000000000000E+00
POLYGONS                 256                1024
3                 135                  34                 136
3                  32                  30                  34
3                  30                  28                  34
3                  30                  26                  28
3                  26                  17                  28
3                  26                  15                  17
3                  15                   6                  17
3                  17                   6                   9
3                   6                   1                   9
3                   9                   1                   4
3                   1                   0                   4
3                   4                   0                   3
3                   0                   5                   3
3                   0                   2                   5
3                   2                  10                   5
3                   2                   7                  10
[...]
CELL_DATA                 256
SCALARS sigma float 1
LOOKUP_TABLE default
  0.000000000000E+00
  0.000000000000E+00
  0.000000000000E+00
  0.000000000000E+00
  0.000000000000E+00
  0.000000000000E+00
  0.000000000000E+00
  0.000000000000E+00
  0.000000000000E+00
  0.000000000000E+00
  0.000000000000E+00
  0.000000000000E+00
  0.000000000000E+00
  0.000000000000E+00
  0.000000000000E+00
  0.000000000000E+00
  0.000000000000E+00
  0.000000000000E+00
  0.000000000000E+00
  0.000000000000E+00
  0.000000000000E+00
  0.000000000000E+00
  0.000000000000E+00
  0.000000000000E+00
  0.000000000000E+00
  0.000000000000E+00
  0.000000000000E+00
  0.000000000000E+00
  0.000000000000E+00
  0.000000000000E+00
  0.000000000000E+00
  0.000000000000E+00
  0.000000000000E+00
  0.000000000000E+00
  0.000000000000E+00
  0.000000000000E+00
  0.000000000000E+00
  0.000000000000E+00
  0.000000000000E+00
  0.000000000000E+00
  0.000000000000E+00
  0.000000000000E+00
  0.000000000000E+00
  0.000000000000E+00
  0.000000000000E+00
  0.000000000000E+00
  0.000000000000E+00
  0.000000000000E+00
  0.000000000000E+00
  0.000000000000E+00
  0.000000000000E+00
  0.000000000000E+00
  0.000000000000E+00
  0.000000000000E+00
  0.000000000000E+00
  0.000000000000E+00
  0.000000000000E+00
  0.000000000000E+00
  0.000000000000E+00
  0.000000000000E+00
  0.000000000000E+00
  0.000000000000E+00
  0.000000000000E+00
  0.000000000000E+00
  0.000000000000E+00
  0.000000000000E+00
  0.000000000000E+00
  0.000000000000E+00
  0.000000000000E+00
  0.000000000000E+00
  0.000000000000E+00
  0.000000000000E+00
  0.000000000000E+00
  0.000000000000E+00
  0.000000000000E+00
  0.000000000000E+00
  0.000000000000E+00
  0.000000000000E+00
  0.000000000000E+00
  0.000000000000E+00
  0.000000000000E+00
  0.000000000000E+00
  0.000000000000E+00
  0.000000000000E+00
  0.000000000000E+00
  0.000000000000E+00
  0.000000000000E+00
  0.000000000000E+00
  0.000000000000E+00
  0.000000000000E+00
  0.000000000000E+00
  0.000000000000E+00
  0.000000000000E+00
  0.000000000000E+00
  0.000000000000E+00
  0.000000000000E+00
  0.000000000000E+00
  0.000000000000E+00
  0.000000000000E+00
  0.000000000000E+00
  0.000000000000E+00
  0.000000000000E+00
  0.000000000000E+00
  0.000000000000E+00
  0.000000000000E+00
  0.000000000000E+00
  0.000000000000E+00
  0.000000000000E+00
  0.000000000000E+00
  0.000000000000E+00
  0.000000000000E+00
  0.000000000000E+00
  0.000000000000E+00
  0.000000000000E+00
  0.000000000000E+00
  0.000000000000E+00
  0.000000000000E+00
  0.000000000000E+00
  0.000000000000E+00
  0.000000000000E+00
  0.000000000000E+00
  0.000000000000E+00
  0.000000000000E+00
  0.000000000000E+00
  0.000000000000E+00
  0.000000000000E+00
  0.000000000000E+00
  0.000000000000E+00
  0.000000000000E+00
  0.000000000000E+00
  0.000000000000E+00
  0.000000000000E+00
  0.000000000000E+00
  0.000000000000E+00
  0.000000000000E+00
  0.000000000000E+00
  0.000000000000E+00
  0.000000000000E+00
  0.000000000000E+00
  0.000000000000E+00
  0.000000000000E+00
  0.000000000000E+00
  0.000000000000E+00
  0.000000000000E+00
  0.000000000000E+00
  0.000000000000E+00
  0.000000000000E+00
  0.000000000000E+00
  0.000000000000E+00
  0.000000000000E+00
  0.000000000000E+00
  0.000000000000E+00
  0.000000000000E+00
  0.000000000000E+00
  0.000000000000E+00
  0.000000000000E+00
  0.000000000000E+00
  0.000000000000E+00
  0.000000000000E+00
  0.000000000000E+00
  0.000000000000E+00
  0.000000000000E+00
  0.000000000000E+00
  0.000000000000E+00
  0.000000000000E+00
  0.000000000000E+00
  0.000000000000E+00
  0.000000000000E+00
  0.000000000000E+00
  0.000000000000E+00
  0.000000000000E+00
  0.000000000000E+00
  0.000000000000E+00
  0.000000000000E+00
  0.000000000000E+00
  0.000000000000E+00
  0.000000000000E+00
  0.000000000000E+00
  0.000000000000E+00
  0.000000000000E+00
  0.000000000000E+00
  0.000000000000E+00
  0.000000000000E+00
  0.000000000000E+00
  0.000000000000E+00
  0.000000000000E+00
  0.000000000000E+00
  0.000000000000E+00
  0.000000000000E+00
  0.000000000000E+00
  0.000000000000E+00
  0.000000000000E+00
  0.000000000000E+00
  0.000000000000E+00
  0.000000000000E+00
  0.000000000000E+00
  0.000000000000E+00
  0.000000000000E+00
  0.000000000000E+00
  0.000000000000E+00
  0.000000000000E+00
  0.000000000000E+00
  0.000000000000E+00
  0.000000000000E+00
  0.000000000000E+00
  0.000000000000E+00
  0.000000000000E+00
  0.000000000000E+00
  0.000000000000E+00
  0.000000000000E+00
  0.000000000000E+00
  0.000000000000E+00
  0.000000000000E+00
  0.000000000000E+00
  0.000000000000E+00
  0.000000000000E+00
  0.000000000000E+00
  0.000000000000E+00
  0.000000000000E+00
  0.000000000000E+00
  0.000000000000E+00
  0.000000000000E+00
  0.000000000000E+00
  0.000000000000E+00
  0.000000000000E+00
  0.000000000000E+00
  0.000000000000E+00
  0.000000000000E+00
  0.000000000000E+00
  0.000000000000E+00
  0.000000000000E+00
  0.000000000000E+00
  0.000000000000E+00
  0.000000000000E+00
  0.000000000000E+00
  0.000000000000E+00
  0.000000000000E+00
  0.000000000000E+00
  0.000000000000E+00
  0.000000000000E+00
  0.000000000000E+00
  0.000000000000E+00
  0.000000000000E+00
  0.000000000000E+00
  0.000000000000E+00
  0.000000000000E+00
  0.000000000000E+00
  0.000000000000E+00
  0.000000000000E+00
  0.000000000000E+00
  0.000000000000E+00
  0.000000000000E+00
  0.000000000000E+00
  0.000000000000E+00
  0.000000000000E+00
  0.000000000000E+00
SCALARS C_p_inc float 1
LOOKUP_TABLE default
 -0.786918179996E+00
 -0.175725346348E+01
 -0.342866026388E+00
 -0.287325466101E+00
 -0.181088492018E+00
 -0.165358596998E+00
 -0.401151846590E-01
 -0.847351627537E-01
  0.222636404160E+00
  0.129074562556E+00
  0.589767312533E+00
  0.592824815676E+00
 -0.315869500433E+00
  0.154470922023E+00
 -0.513126978841E+00
 -0.316184195217E+00
 -0.313536208525E+00
 -0.334731001473E+00
 -0.137920211910E+00
 -0.487166550245E-01
  0.199002542854E+00
  0.329594196222E+00
  0.625738501878E+00
  0.523104647628E+00
 -0.610912554224E+00
 -0.763487835868E+00
 -0.271615727438E+00
 -0.355801458019E+00
 -0.191628841084E+00
 -0.184289423440E+00
 -0.822033334668E-01
 -0.119411748751E+00
  0.123603522586E+00
  0.988026128789E-01
  0.508031066849E+00
  0.506052420721E+00
 -0.505787348663E+00
 -0.319570946518E+00
 -0.592812181942E+00
 -0.504142118790E+00
 -0.295019770237E+00
 -0.329148230465E+00
 -0.449330456553E-01
  0.209116067410E-01
  0.308623592394E+00
  0.285299591911E+00
  0.513514008697E+00
  0.487391937671E+00
 -0.562617296897E+00
 -0.607330894595E+00
 -0.243227340706E+00
 -0.272066080768E+00
 -0.179617898859E+00
 -0.194921363565E+00
 -0.118567899580E+00
 -0.128195545871E+00
  0.969838852536E-01
  0.860637564668E-01
  0.499956033978E+00
  0.499632134674E+00
 -0.555937087107E+00
 -0.505833719895E+00
 -0.605843727722E+00
 -0.596624754745E+00
 -0.270543953165E+00
 -0.305753970536E+00
  0.213542462198E-01
  0.334793506046E-01
  0.282042577323E+00
  0.273814954297E+00
  0.486107318666E+00
  0.479192394002E+00
 -0.543780512592E+00
 -0.561325122409E+00
 -0.233282668561E+00
 -0.243208109422E+00
 -0.173305781654E+00
 -0.180225207498E+00
 -0.129026079131E+00
 -0.127279471370E+00
  0.863932015644E-01
  0.842382742460E-01
  0.503921413810E+00
  0.503935240341E+00
 -0.545587370587E+00
 -0.556045523745E+00
 -0.597162925435E+00
 -0.610283612202E+00
 -0.263764360148E+00
 -0.274016549824E+00
  0.333981396897E-01
  0.349224990710E-01
  0.273396388667E+00
  0.271319153086E+00
  0.479209439419E+00
  0.476736505276E+00
 -0.521171456803E+00
 -0.542526705568E+00
 -0.224675306472E+00
 -0.233013613862E+00
 -0.170211652247E+00
 -0.173202092676E+00
 -0.127549241419E+00
 -0.127730296073E+00
  0.844088887017E-01
  0.823212124537E-01
  0.505584821491E+00
  0.505514238844E+00
 -0.533614888286E+00
 -0.545640539783E+00
 -0.590475517830E+00
 -0.598466048798E+00
 -0.260293726792E+00
 -0.264361538769E+00
  0.349029027791E-01
  0.362324397277E-01
  0.271340987905E+00
  0.270308805778E+00
  0.476984217499E+00
  0.474243866071E+00
 -0.447483741722E+00
 -0.519543517648E+00
 -0.197185483086E+00
 -0.223637125789E+00
 -0.165464971162E+00
 -0.169382832562E+00
 -0.127144103032E+00
 -0.133456980011E+00
  0.820192424281E-01
  0.750011622681E-01
  0.503607680194E+00
  0.503462050099E+00
 -0.518614694718E+00
 -0.533605475143E+00
 -0.581558242392E+00
 -0.590444292393E+00
 -0.254583896625E+00
 -0.260462984379E+00
  0.362149415576E-01
  0.409017969738E-01
  0.270672108153E+00
  0.272248754454E+00
  0.475712804241E+00
  0.470106378110E+00
 -0.994608093821E-01
 -0.445058903499E+00
 -0.107234284899E+00
 -0.193772947021E+00
 -0.153659775367E+00
 -0.162709508814E+00
 -0.130988201056E+00
 -0.154686802319E+00
  0.735677031023E-01
  0.516176896743E-01
  0.495648721484E+00
  0.495573492077E+00
 -0.492413754074E+00
 -0.518598341959E+00
 -0.567433430941E+00
 -0.580374656952E+00
 -0.244230437564E+00
 -0.254603828189E+00
  0.408055437107E-01
  0.512023674590E-01
  0.272775540391E+00
  0.291151000468E+00
  0.476182410762E+00
  0.510176158272E+00
 -0.238208843480E+02
 -0.137798158458E+01
  0.395909580182E+00
 -0.144597431679E+00
 -0.395635121522E+00
 -0.150772239265E+00
 -0.150478399225E+00
 -0.182605481990E+00
  0.455843957297E-01
 -0.751696732989E-02
  0.472284358810E+00
  0.473680518319E+00
 -0.449842105413E+00
 -0.492660915038E+00
 -0.543841038129E+00
 -0.564366274506E+00
 -0.219476131418E+00
 -0.245635184252E+00
  0.510905317546E-01
 -0.183846428908E+00
  0.196263524523E+00
 -0.375175035976E-02
  0.163670083634E+00
 -0.194704458114E+02
 -0.952695103059E+08
 -0.304393278659E+05
 -0.178699330235E+05
  0.547993082849E+00
 -0.112162730213E+01
 -0.391390396612E+00
 -0.194991128098E+00
 -0.221018384623E+00
 -0.326120731522E-01
 -0.566324196002E-01
  0.363443561797E+00
  0.379677812308E+00
 -0.386629635153E+00
 -0.453995299215E+00
 -0.397141623038E+00
 -0.553758216978E+00
 -0.224173556522E+00
 -0.223243329755E+00
 -0.184048058087E+00
 -0.135849424407E+01
  0.289690091257E+00
 -0.178430797917E+05
 -0.305121081899E+05
 -0.952724062583E+08
 -0.169336405591E+09
 -0.772556002775E+06
 -0.307288418873E+05
 -0.791064064390E+02
 -0.105176428335E+00
 -0.336243745960E+00
 -0.295866718075E+00
 -0.169448779515E+00
 -0.199010805271E+00
 -0.606635161402E-02
 -0.417703237605E+00
 -0.322060549253E+00
 -0.435625455653E+00
 -0.308537127011E+00
 -0.243187121453E+00
  0.613831018634E+00
 -0.885976124029E+02
 -0.308267267447E+05
 -0.771734616160E+06
 -0.169329485067E+09
 -0.116913481381E+09
 -0.110378937068E+07
 -0.321596198967E+05
 -0.100726216145E+03
 -0.366306944211E-01
 -0.454145360874E+00
 -0.401713609141E+00
 -0.293632350565E+00
 -0.326152214585E+00
 -0.212111273630E+00
 -0.354028175270E+00
 -0.369793284946E+00
 -0.366408271236E+00
 -0.421472387711E+00
 -0.329713757571E+00
  0.857049014433E+00
 -0.117701576660E+03
 -0.322659807038E+05
 -0.110213858474E+07
 -0.116906509782E+09
SCALARS inclination float 1
LOOKUP_TABLE default
  0.100000000000E+01
  0.100000000000E+01
  0.100000000000E+01
  0.100000000000E+01
  0.100000000000E+01
  0.100000000000E+01
  0.100000000000E+01
  0.100000000000E+01
  0.100000000000E+01
  0.100000000000E+01
  0.100000000000E+01
  0.100000000000E+01
  0.100000000000E+01
  0.100000000000E+01
  0.100000000000E+01
  0.100000000000E+01
  0.100000000000E+01
  0.100000000000E+01
  0.100000000000E+01
  0.100000000000E+01
  0.100000000000E+01
  0.100000000000E+01
  0.100000000000E+01
  0.100000000000E+01
  0.100000000000E+01
  0.100000000000E+01
  0.100000000000E+01
  0.100000000000E+01
  0.100000000000E+01
  0.100000000000E+01
  0.100000000000E+01
  0.100000000000E+01
  0.100000000000E+01
  0.100000000000E+01
  0.100000000000E+01
  0.100000000000E+01
  0.100000000000E+01
  0.100000000000E+01
  0.100000000000E+01
  0.100000000000E+01
  0.100000000000E+01
  0.100000000000E+01
  0.100000000000E+01
  0.100000000000E+01
  0.100000000000E+01
  0.100000000000E+01
  0.100000000000E+01
  0.100000000000E+01
  0.100000000000E+01
  0.100000000000E+01
  0.100000000000E+01
  0.100000000000E+01
  0.100000000000E+01
  0.100000000000E+01
  0.100000000000E+01
  0.100000000000E+01
  0.100000000000E+01
  0.100000000000E+01
  0.100000000000E+01
  0.100000000000E+01
  0.100000000000E+01
  0.100000000000E+01
  0.100000000000E+01
  0.100000000000E+01
  0.100000000000E+01
  0.100000000000E+01
  0.100000000000E+01
  0.100000000000E+01
  0.100000000000E+01
  0.100000000000E+01
  0.100000000000E+01
  0.100000000000E+01
  0.100000000000E+01
  0.100000000000E+01
  0.100000000000E+01
  0.100000000000E+01
  0.100000000000E+01
  0.100000000000E+01
  0.100000000000E+01
  0.100000000000E+01
  0.100000000000E+01
  0.100000000000E+01
  0.100000000000E+01
  0.100000000000E+01
  0.100000000000E+01
  0.100000000000E+01
  0.100000000000E+01
  0.100000000000E+01
  0.100000000000E+01
  0.100000000000E+01
  0.100000000000E+01
  0.100000000000E+01
  0.100000000000E+01
  0.100000000000E+01
  0.100000000000E+01
  0.100000000000E+01
  0.100000000000E+01
  0.100000000000E+01
  0.100000000000E+01
  0.100000000000E+01
  0.100000000000E+01
  0.100000000000E+01
  0.100000000000E+01
  0.100000000000E+01
  0.100000000000E+01
  0.100000000000E+01
  0.100000000000E+01
  0.100000000000E+01
  0.100000000000E+01
  0.100000000000E+01
  0.100000000000E+01
  0.100000000000E+01
  0.100000000000E+01
  0.100000000000E+01
  0.100000000000E+01
  0.100000000000E+01
  0.100000000000E+01
  0.100000000000E+01
  0.100000000000E+01
  0.100000000000E+01
  0.100000000000E+01
  0.100000000000E+01
  0.100000000000E+01
  0.100000000000E+01
  0.100000000000E+01
  0.100000000000E+01
  0.100000000000E+01
  0.100000000000E+01
  0.100000000000E+01
  0.100000000000E+01
  0.100000000000E+01
  0.100000000000E+01
  0.100000000000E+01
  0.100000000000E+01
  0.100000000000E+01
  0.100000000000E+01
  0.100000000000E+01
  0.100000000000E+01
  0.100000000000E+01
  0.100000000000E+01
  0.100000000000E+01
  0.100000000000E+01
  0.100000000000E+01
  0.100000000000E+01
  0.100000000000E+01
  0.100000000000E+01
  0.100000000000E+01
  0.100000000000E+01
  0.100000000000E+01
  0.100000000000E+01
  0.100000000000E+01
  0.100000000000E+01
  0.100000000000E+01
  0.100000000000E+01
  0.100000000000E+01
  0.100000000000E+01
  0.100000000000E+01
  0.100000000000E+01
  0.100000000000E+01
  0.100000000000E+01
  0.100000000000E+01
  0.100000000000E+01
  0.100000000000E+01
  0.100000000000E+01
  0.100000000000E+01
  0.100000000000E+01
  0.100000000000E+01
  0.100000000000E+01
  0.100000000000E+01
  0.100000000000E+01
  0.100000000000E+01
  0.100000000000E+01
  0.100000000000E+01
  0.100000000000E+01
  0.100000000000E+01
  0.100000000000E+01
  0.100000000000E+01
  0.100000000000E+01
  0.100000000000E+01
  0.100000000000E+01
  0.100000000000E+01
  0.100000000000E+01
  0.100000000000E+01
  0.100000000000E+01
  0.100000000000E+01
  0.100000000000E+01
  0.100000000000E+01
  0.100000000000E+01
  0.100000000000E+01
  0.100000000000E+01
  0.100000000000E+01
  0.100000000000E+01
  0.100000000000E+01
  0.100000000000E+01
  0.100000000000E+01
  0.100000000000E+01
  0.100000000000E+01
  0.100000000000E+01
  0.100000000000E+01
  0.100000000000E+01
  0.100000000000E+01
  0.100000000000E+01
  0.100000000000E+01
  0.100000000000E+01
  0.100000000000E+01
  0.100000000000E+01
  0.100000000000E+01
  0.100000000000E+01
  0.100000000000E+01
  0.100000000000E+01
  0.100000000000E+01
  0.100000000000E+01
  0.100000000000E+01
  0.100000000000E+01
  0.100000000000E+01
  0.100000000000E+01
  0.100000000000E+01
  0.100000000000E+01
  0.100000000000E+01
  0.100000000000E+01
  0.100000000000E+01
  0.100000000000E+01
  0.100000000000E+01
  0.100000000000E+01
  0.100000000000E+01
  0.100000000000E+01
  0.100000000000E+01
  0.100000000000E+01
  0.100000000000E+01
  0.100000000000E+01
  0.100000000000E+01
  0.100000000000E+01
  0.100000000000E+01
  0.100000000000E+01
  0.100000000000E+01
  0.100000000000E+01
  0.100000000000E+01
  0.100000000000E+01
  0.100000000000E+01
  0.100000000000E+01
  0.100000000000E+01
  0.100000000000E+01
  0.100000000000E+01
  0.100000000000E+01
  0.100000000000E+01
  0.100000000000E+01
  0.100000000000E+01
  0.100000000000E+01
  0.100000000000E+01
  0.100000000000E+01
  0.100000000000E+01
  0.100000000000E+01
  0.100000000000E+01
  0.100000000000E+01
  0.100000000000E+01
  0.100000000000E+01
VECTORS v float
  0.209561223422E+03 -0.526967002642E+02  0.279960808581E+02
  0.257219730848E+03 -0.763386479002E+02  0.356074173512E+02
  0.187603228719E+03 -0.672214577096E+01  0.209391686935E+02
  0.183567420627E+03 -0.874797380065E+01  0.207225806244E+02
  0.176271184431E+03 -0.145173398840E+01  0.175129138637E+02
  0.175032295706E+03 -0.390066042255E+01  0.176321544805E+02
  0.166154896304E+03  0.497673898018E+01  0.161333338363E+01
  0.169537451160E+03 -0.861401674073E+01  0.178322990708E+01
  0.140730187292E+03  0.201932471274E+02 -0.210004888770E+02
  0.149714303017E+03 -0.352710236905E+01 -0.266984076012E+02
  0.803227233286E+02  0.658644751698E+02 -0.104691595171E+02
  0.825863756295E+02  0.613245803656E+02 -0.153955797441E+02
  0.149450736269E+03 -0.553978027413E+01  0.112228004616E+03
  0.128949399755E+03  0.355769227929E+02  0.676106274200E+02
  0.194382551711E+03 -0.298562271356E+02  0.390678895311E+02
  0.184124254012E+03 -0.277171338599E+01  0.325618576276E+02
  0.186726450335E+03 -0.537390970873E+01 -0.192285312732E+01
  0.188009684904E+03 -0.105298135457E+02 -0.198730650689E+01
  0.173024943062E+03  0.445492829602E+01 -0.166109843901E+02
  0.165722635840E+03 -0.997963680368E+01 -0.173137987380E+02
  0.144752067356E+03  0.109909420772E+02 -0.144131754810E+02
  0.132658761444E+03  0.492054877994E+01 -0.137641931251E+02
  0.534757615862E+02  0.841035486379E+02  0.326952181559E+01
  0.918338763160E+02  0.650306468418E+02 -0.286124960142E+01
  0.201230208102E+03 -0.405069532753E+02  0.258055369421E+02
  0.209608322625E+03 -0.465885002467E+02  0.273490592544E+02
  0.181591479348E+03 -0.185716456679E+02  0.215681911124E+02
  0.187455186766E+03 -0.196206241508E+02  0.223130679319E+02
  0.176764821736E+03 -0.893026055769E+01  0.182984950722E+02
  0.176195784831E+03 -0.929209331984E+01  0.182780770576E+02
  0.169538050218E+03 -0.263435960199E+01  0.172338175683E+01
  0.172180549733E+03 -0.960198883948E+01  0.181957588543E+01
  0.150183372945E+03  0.123951909060E+02 -0.240060771799E+02
  0.152464707281E+03  0.812679631160E+01 -0.251471985294E+02
  0.868555046191E+02  0.737360033838E+02 -0.949977406203E+01
  0.847569863882E+02  0.768585517986E+02 -0.571922264629E+01
  0.161906179962E+03 -0.290641775397E+00  0.117446023705E+03
  0.154861730826E+03  0.101913364125E+02  0.104755245529E+03
  0.198835743248E+03 -0.337826789658E+02  0.405278258843E+02
  0.194505557459E+03 -0.256808670846E+02  0.383618708813E+02
  0.184792756673E+03 -0.159680649929E+02 -0.200954147754E+01
  0.186724878601E+03 -0.210626011050E+02 -0.207987532993E+01
  0.165817119514E+03 -0.154844829047E+00 -0.163549683352E+02
  0.160435027793E+03 -0.357714854509E+01 -0.161618497056E+02
  0.132877519894E+03  0.239803556490E+02 -0.117340114015E+02
  0.135237101295E+03  0.235582408695E+02 -0.120337385299E+02
  0.918553893583E+02  0.669399703045E+02 -0.265972261474E+01
  0.989065258107E+02  0.618167152580E+02 -0.395935282348E+01
  0.198703784468E+03 -0.373997160106E+02  0.252040917652E+02
  0.201210192525E+03 -0.394893852717E+02  0.256947740461E+02
  0.179606645024E+03 -0.178858429981E+02  0.212804346453E+02
  0.181587854808E+03 -0.188874479068E+02  0.216018285734E+02
  0.175585644465E+03 -0.128852370793E+02  0.185720240725E+02
  0.176726650766E+03 -0.128994311090E+02  0.186858581464E+02
  0.172180674815E+03 -0.835345479120E+01  0.180707976794E+01
  0.172852251404E+03 -0.968443388081E+01  0.182712429365E+01
  0.152538433282E+03  0.106293826033E+02 -0.247240318336E+02
  0.153512339131E+03  0.915159387687E+01 -0.251511852289E+02
  0.850253096625E+02  0.776386288705E+02 -0.534865937888E+01
  0.844163762512E+02  0.784173452023E+02 -0.434386992177E+01