# vtk DataFile Version 3.0
TriPan results file. Generated by TriPan, USU AeroLab (c) 2021.
ASCII
DATASET POLYDATA
POINTS                  50 float
  0.190003013611E+02  0.000000000000E+00  0.000000000000E+00
  0.993327045009E+02  0.000000000000E+00  0.118624572338E+02
  0.195801982880E+02  0.579897820950E+00  0.000000000000E+00
  0.993450796470E+02  0.579897820950E+00  0.117786529084E+02
  0.203216114044E+02  0.132131123543E+01  0.000000000000E+00
  0.993609015891E+02  0.132131123543E+01  0.116715069257E+02
  0.212622661591E+02  0.226196575165E+01  0.000000000000E+00
  0.993809753979E+02  0.226196575165E+01  0.115355673587E+02
  0.224441299438E+02  0.344382953644E+01  0.000000000000E+00
  0.994061966680E+02  0.344382953644E+01  0.113647692520E+02
  0.239110069275E+02  0.491070652008E+01  0.000000000000E+00
  0.994375001914E+02  0.491070652008E+01  0.111527822067E+02
  0.257042465210E+02  0.670394468307E+01  0.000000000000E+00
  0.994757683748E+02  0.670394468307E+01  0.108936305757E+02
  0.278562793732E+02  0.885597801208E+01  0.000000000000E+00
  0.995216932966E+02  0.885597801208E+01  0.105826276145E+02
  0.303823032379E+02  0.113820018768E+02  0.000000000000E+00
  0.995755992805E+02  0.113820018768E+02  0.102175770062E+02
  0.332713356018E+02  0.142710342407E+02  0.000000000000E+00
  0.996372519569E+02  0.142710342407E+02  0.980006589838E+01
  0.364790649414E+02  0.174787635803E+02  0.000000000000E+00
  0.997057057069E+02  0.174787635803E+02  0.933649801081E+01
  0.399255523682E+02  0.209252490997E+02  0.000000000000E+00
  0.997792546145E+02  0.209252490997E+02  0.883842578375E+01
  0.435003013611E+02  0.245000000000E+02  0.000000000000E+00
  0.998555406561E+02  0.245000000000E+02  0.832181772123E+01
  0.470750503540E+02  0.280747509003E+02  0.000000000000E+00
  0.999318266977E+02  0.280747509003E+02  0.780520965871E+01
  0.505215377808E+02  0.315212364197E+02  0.000000000000E+00
  0.100005375605E+03  0.315212364197E+02  0.730713743165E+01
  0.537292671204E+02  0.347289657593E+02  0.000000000000E+00
  0.100073829355E+03  0.347289657593E+02  0.684356954408E+01
  0.566182975769E+02  0.376179962158E+02  0.000000000000E+00
  0.100135481991E+03  0.376179962158E+02  0.642605871195E+01
  0.591443214417E+02  0.401440200806E+02  0.000000000000E+00
  0.100189387975E+03  0.401440200806E+02  0.606100810356E+01
  0.612963562012E+02  0.422960548401E+02  0.000000000000E+00
  0.100235312937E+03  0.422960548401E+02  0.575000486675E+01
  0.630895957947E+02  0.440892944336E+02  0.000000000000E+00
  0.100273581121E+03  0.440892944336E+02  0.549085323572E+01
  0.645564727783E+02  0.455561714172E+02  0.000000000000E+00
  0.100304884644E+03  0.455561714172E+02  0.527886619049E+01
  0.657383346558E+02  0.467380332947E+02  0.000000000000E+00
  0.100330105874E+03  0.467380332947E+02  0.510806835939E+01
  0.666789932251E+02  0.476786880493E+02  0.000000000000E+00
  0.100350179764E+03  0.476786880493E+02  0.497212824109E+01
  0.674204025269E+02  0.484201011658E+02  0.000000000000E+00
  0.100366001625E+03  0.484201011658E+02  0.486498280971E+01
  0.680002975464E+02  0.490000000000E+02  0.000000000000E+00
  0.100378376730E+03  0.490000000000E+02  0.478117875994E+01
POLYGONS                  48                 192
3                   0                   1                   3
3                   0                   3                   2
3                   2                   3                   5
3                   2                   5                   4
3                   4                   5                   7
3                   4                   7                   6
3                   6                   7                   9
3                   6                   9                   8
3                   8                   9                  11
3                   8                  11                  10
3                  10                  11                  13
3                  10                  13                  12
3                  12                  13                  15
3                  12                  15                  14
3                  14                  15                  17
3                  14                  17                  16
3                  16                  17                  19
3                  16                  19                  18
3                  18                  19                  21
3                  18                  21                  20
3                  20                  21                  23
3                  20                  23                  22
3                  22                  23                  25
3                  22                  25                  24
3                  24                  25                  27
3                  24                  27                  26
3                  26                  27                  29
3                  26                  29                  28
3                  28                  29                  31
3                  28                  31                  30
3                  30                  31                  33
3                  30                  33                  32
3                  32                  33                  35
3                  32                  35                  34
3                  34                  35                  37
3                  34                  37                  36
3                  36                  37                  39
3                  36                  39                  38
3                  38                  39                  41
3                  38                  41                  40
3                  40                  41                  43
3                  40                  43                  42
3                  42                  43                  45
3                  42                  45                  44
3                  44                  45                  47
3                  44                  47                  46
3                  46                  47                  49
3                  46                  49                  48
POINT_DATA                  50
SCALARS mu float 1
LOOKUP_TABLE default
 -0.101977316660E-02
 -0.101977316660E-02
 -0.102022016335E-03
 -0.102022016335E-03
 -0.104233437892E-03
 -0.104233437892E-03
 -0.116903215243E-03
 -0.116903215243E-03
 -0.134407064607E-03
 -0.134407064607E-03
 -0.155594093485E-03
 -0.155594093485E-03
 -0.179495737761E-03
 -0.179495737761E-03
 -0.204581037405E-03
 -0.204581037405E-03
 -0.228890773368E-03
 -0.228890773368E-03
 -0.251070881646E-03
 -0.251070881646E-03
 -0.267669895258E-03
 -0.267669895258E-03
 -0.277431575391E-03
 -0.277431575391E-03
 -0.277496666243E-03
 -0.277496666243E-03
 -0.268850303648E-03
 -0.268850303648E-03
 -0.251129674957E-03
 -0.251129674957E-03
 -0.225788504579E-03
 -0.225788504579E-03
 -0.195365512589E-03
 -0.195365512589E-03
 -0.161397327567E-03
 -0.161397327567E-03
 -0.129609754040E-03
 -0.129609754040E-03
 -0.978912112686E-04
 -0.978912112686E-04
 -0.717459863750E-04
 -0.717459863750E-04
 -0.500917384443E-04
 -0.500917384443E-04
 -0.270125650417E-04
 -0.270125650417E-04
 -0.204884405549E-02
 -0.204884405549E-02
  0.000000000000E+00
  0.000000000000E+00
