# vtk DataFile Version 3.0
TriPan results file. Generated by TriPan, USU AeroLab (c) 2021.
ASCII
DATASET POLYDATA
POINTS                 309 float
  0.145119197349E-04  0.000000000000E+00  0.702222613473E-21
  0.420138497918E+00  0.000000000000E+00 -0.412059144854E+00
  0.420138497918E+00  0.000000000000E+00  0.412059144854E+00
  0.928185622804E+00  0.928162653334E+00  0.370492718948E-21
  0.134831331777E+01  0.928166164882E+00 -0.412060979457E+00
  0.134831331777E+01  0.928166164882E+00  0.412060979457E+00
  0.181353533969E+01  0.000000000000E+00 -0.806793832730E+00
  0.181353533969E+01  0.000000000000E+00  0.806793832730E+00
  0.226198092881E+01  0.226195057449E+01  0.000000000000E+00
  0.268210702775E+01  0.226195568206E+01 -0.412057187748E+00
  0.268210702775E+01  0.226195568206E+01  0.412057187748E+00
  0.274171014569E+01  0.928169171587E+00 -0.806795197448E+00
  0.274171014569E+01  0.928169171587E+00  0.806795197448E+00
  0.407550250541E+01  0.226195991982E+01 -0.806790662114E+00
  0.407550250541E+01  0.226195991982E+01  0.806790662114E+00
  0.413895454185E+01  0.413891468269E+01  0.321459894060E-20
  0.455907863241E+01  0.413892179865E+01 -0.412052224685E+00
  0.455907863241E+01  0.413892179865E+01  0.412052224685E+00
  0.479629669423E+01  0.000000000000E+00 -0.111703721841E+01
  0.479629669423E+01  0.000000000000E+00  0.111703721841E+01
  0.572447154981E+01  0.928172726805E+00 -0.111703822838E+01
  0.572447154981E+01  0.928172726805E+00  0.111703822838E+01
  0.595247250490E+01  0.413892764158E+01 -0.806784693282E+00
  0.595247250490E+01  0.413892764158E+01  0.806784693282E+00
  0.670397027304E+01  0.670391909310E+01  0.247656500064E-20
  0.705826345133E+01  0.226196417166E+01 -0.111703365070E+01
  0.705826345133E+01  0.226196417166E+01  0.111703365070E+01
  0.712409204420E+01  0.670392852846E+01 -0.412046181935E+00
  0.712409204420E+01  0.670392852846E+01  0.412046181935E+00
  0.851748444622E+01  0.670393631870E+01 -0.806777388893E+00
  0.851748444622E+01  0.670393631870E+01  0.806777388893E+00
  0.893523301137E+01  0.413893280970E+01 -0.111702761222E+01
  0.893523301137E+01  0.413893280970E+01  0.111702761222E+01
  0.939523493126E+01  0.000000000000E+00 -0.980728882398E+00
  0.939523493126E+01  0.000000000000E+00  0.980728882398E+00
  0.100722457449E+02  0.100721825083E+02  0.305997667590E-20
  0.103234084887E+02  0.928176637223E+00 -0.980721530569E+00
  0.103234084887E+02  0.928176637223E+00  0.980721530569E+00
  0.104923656357E+02  0.100721943008E+02 -0.412039541942E+00
  0.104923656357E+02  0.100721943008E+02  0.412039541942E+00
  0.115002433555E+02  0.670394260715E+01 -0.111702019620E+01
  0.115002433555E+02  0.670394260715E+01  0.111702019620E+01
  0.116572000425E+02  0.226196842976E+01 -0.980718679272E+00
  0.116572000425E+02  0.226196842976E+01  0.980718679272E+00
  0.118857549503E+02  0.100722042248E+02 -0.806769331235E+00
  0.118857549503E+02  0.100722042248E+02  0.806769331235E+00
  0.135341681758E+02  0.413893754088E+01 -0.980714688122E+00
  0.135341681758E+02  0.413893754088E+01  0.980714688122E+00
  0.139772048849E+02  0.000000000000E+00 -0.540117955762E+00
  0.139772048849E+02  0.000000000000E+00  0.540117955762E+00
  0.142710712716E+02  0.142709972098E+02  0.358380602499E-20
  0.146911892142E+02  0.142710109506E+02 -0.412033276042E+00
  0.146911892142E+02  0.142710109506E+02  0.412033276042E+00
  0.148685126249E+02  0.100722117480E+02 -0.111701198563E+01
  0.148685126249E+02  0.100722117480E+02  0.111701198563E+01
  0.149053790802E+02  0.928177214295E+00 -0.540120306661E+00
  0.149053790802E+02  0.928177214295E+00  0.540120306661E+00
  0.160845774727E+02  0.142710228843E+02 -0.806761707262E+00
  0.160845774727E+02  0.142710228843E+02  0.806761707262E+00
  0.160991788626E+02  0.670394794941E+01 -0.980709307171E+00
  0.160991788626E+02  0.670394794941E+01  0.980709307171E+00
  0.162391706293E+02  0.226196901156E+01 -0.540118505948E+00
  0.162391706293E+02  0.226196901156E+01  0.540118505948E+00
  0.169605804506E+02  0.000000000000E+00 -0.218323365097E+00
  0.169605804506E+02  0.000000000000E+00  0.218323365097E+00
  0.178887555873E+02  0.928176256456E+00 -0.218324870062E+00
  0.178887555873E+02  0.928176256456E+00  0.218324870062E+00
  0.181161386856E+02  0.413893819960E+01 -0.540115296205E+00
  0.181161386856E+02  0.413893819960E+01  0.540115296205E+00
  0.184032178921E+02  0.000000000000E+00 -0.636706128239E-01
  0.184032178921E+02  0.000000000000E+00  0.636706128239E-01
  0.190002907528E+02 -0.840944481527E-07 -0.788455474777E-06
  0.190673339798E+02  0.142710315750E+02 -0.111700419411E+01
  0.190673339798E+02  0.142710315750E+02  0.111700419411E+01
  0.191785074010E+02  0.191784261928E+02  0.261974574614E-20
  0.192225469940E+02  0.226196819618E+01 -0.218321837191E+00
  0.192225469940E+02  0.226196819618E+01  0.218321837191E+00
  0.193313927253E+02  0.928175608321E+00 -0.636692985335E-01
  0.193313927253E+02  0.928175608321E+00  0.636692985335E-01
  0.194674474091E+02  0.100722178131E+02 -0.980702613060E+00
  0.194674474091E+02  0.100722178131E+02  0.980702613060E+00
  0.195986242999E+02  0.191784409772E+02 -0.412028700899E+00
  0.195986242999E+02  0.191784409772E+02  0.412028700899E+00
  0.199284648759E+02  0.928183688477E+00 -0.100715878959E-05
  0.206651820729E+02  0.226196769971E+01 -0.636648302229E-01
  0.206651820729E+02  0.226196769971E+01  0.636648302229E-01
  0.206811482308E+02  0.670394879607E+01 -0.540110142948E+00
  0.206811482308E+02  0.670394879607E+01  0.540110142948E+00
  0.209920110930E+02  0.191784543764E+02 -0.806756130456E+00
  0.209920110930E+02  0.191784543764E+02  0.806756130456E+00
  0.210995148431E+02  0.413893759147E+01 -0.218316865234E+00
  0.210995148431E+02  0.413893759147E+01  0.218316865234E+00
  0.212622529717E+02  0.226197893907E+01 -0.139070631409E-05
  0.225421517127E+02  0.413893721166E+01 -0.636587391445E-01
  0.225421517127E+02  0.413893721166E+01  0.636587391445E-01
  0.231392185671E+02  0.413895249540E+01 -0.188590327224E-05
  0.236645241797E+02  0.670394839650E+01 -0.218310037539E+00
  0.236645241797E+02  0.670394839650E+01  0.218310037539E+00
  0.236662670754E+02  0.142710383750E+02 -0.980695478375E+00
  0.236662670754E+02  0.142710383750E+02  0.980695478375E+00
  0.239747667464E+02  0.191784639207E+02 -0.111699848317E+01
  0.239747667464E+02  0.191784639207E+02  0.111699848317E+01
  0.240494184145E+02  0.100722189299E+02 -0.540103376168E+00
  0.240494184145E+02  0.100722189299E+02  0.540103376168E+00
  0.245000413633E+02  0.244999586367E+02  0.000000000000E+00
  0.249201584372E+02  0.244999732461E+02 -0.412027011240E+00
  0.249201584372E+02  0.244999732461E+02  0.412027011240E+00
  0.251071609793E+02  0.670394808665E+01 -0.636512186147E-01
  0.251071609793E+02  0.670394808665E+01  0.636512186147E-01
  0.257042230406E+02  0.670396816347E+01 -0.247617573531E-05
  0.263135446900E+02  0.244999871856E+02 -0.806754065860E+00
  0.263135446900E+02  0.244999871856E+02  0.806754065860E+00
  0.270327922951E+02  0.100722186912E+02 -0.218302122370E+00
  0.270327922951E+02  0.100722186912E+02  0.218302122370E+00
  0.282482359082E+02  0.142710397571E+02 -0.540096384726E+00
  0.282482359082E+02  0.142710397571E+02  0.540096384726E+00
  0.284754290580E+02  0.100722184182E+02 -0.636429141243E-01
  0.284754290580E+02  0.100722184182E+02  0.636429141243E-01
  0.285736992607E+02  0.191784713021E+02 -0.980689568383E+00
  0.285736992607E+02  0.191784713021E+02  0.980689568383E+00
  0.290724860452E+02  0.100722435691E+02 -0.310492037916E-05
  0.292962981203E+02  0.244999970457E+02 -0.111699636567E+01
  0.292962981203E+02  0.244999970457E+02  0.111699636567E+01
  0.298215722923E+02  0.298214941139E+02 -0.252200432150E-20
  0.302416907090E+02  0.298215073806E+02 -0.412028695858E+00
  0.302416907090E+02  0.298215073806E+02  0.412028695858E+00
  0.312316115874E+02  0.142710396272E+02 -0.218294479658E+00
  0.312316115874E+02  0.142710396272E+02  0.218294479658E+00
  0.316350755952E+02  0.298215207793E+02 -0.806756113011E+00
  0.316350755952E+02  0.298215207793E+02  0.806756113011E+00
  0.326742502400E+02  0.142710393718E+02 -0.636350629714E-01
  0.326742502400E+02  0.142710393718E+02  0.636350629714E-01
  0.331556679204E+02  0.191784728572E+02 -0.540091052704E+00
  0.331556679204E+02  0.191784728572E+02  0.540091052704E+00
  0.332713008060E+02  0.142710690365E+02 -0.366946003233E-05
  0.338952322807E+02  0.245000046883E+02 -0.980686650712E+00
  0.338952322807E+02  0.245000046883E+02  0.980686650712E+00
  0.346178312461E+02  0.298215303261E+02 -0.111699846182E+01
  0.346178312461E+02  0.298215303261E+02  0.111699846182E+01
  0.347290001994E+02  0.347289313192E+02 -0.111102197025E-20
  0.351491207386E+02  0.347289424633E+02 -0.412033265542E+00
  0.351491207386E+02  0.347289424633E+02  0.412033265542E+00
  0.361390435369E+02  0.191784727900E+02 -0.218288838176E+00
  0.361390435369E+02  0.191784727900E+02  0.218288838176E+00
  0.365425070906E+02  0.347289543962E+02 -0.806761672327E+00
  0.365425070906E+02  0.347289543962E+02  0.806761672327E+00
  0.375816821825E+02  0.191784725416E+02 -0.636293256172E-01
  0.375816821825E+02  0.191784725416E+02  0.636293256172E-01
  0.381787298283E+02  0.191785051266E+02 -0.404213918334E-05
  0.384772009150E+02  0.245000062688E+02 -0.540089009297E+00
  0.384772009150E+02  0.245000062688E+02  0.540089009297E+00
  0.389278125514E+02  0.389277553808E+02 -0.922149802381E-21
  0.392167655509E+02  0.298215378243E+02 -0.980687720153E+00
  0.392167655509E+02  0.298215378243E+02  0.980687720153E+00
  0.393479354844E+02  0.389277641311E+02 -0.412039525323E+00
  0.393479354844E+02  0.389277641311E+02  0.412039525323E+00
  0.395252635926E+02  0.347289630920E+02 -0.111700415312E+01
  0.395252635926E+02  0.347289630920E+02  0.111700415312E+01
  0.407413276606E+02  0.389277740545E+02 -0.806769279584E+00
  0.407413276606E+02  0.389277740545E+02  0.806769279584E+00
  0.414605765133E+02  0.245000062199E+02 -0.218286729666E+00
[...]
POINT_DATA                 309
SCALARS phi float 1
LOOKUP_TABLE default
  0.333066907388E-15
  0.000000000000E+00
 -0.122124532709E-14
  0.111022302463E-15
 -0.777156117238E-15
  0.000000000000E+00
  0.666133814775E-15
  0.444089209850E-15
  0.166533453694E-14
  0.222044604925E-15
  0.666133814775E-15
 -0.444089209850E-15
  0.444089209850E-15
 -0.333066907388E-15
  0.777156117238E-15
  0.555111512313E-15
 -0.666133814775E-15
  0.111022302463E-15
 -0.111022302463E-14
  0.388578058619E-15
  0.444089209850E-15
  0.555111512313E-16
 -0.111022302463E-15
  0.000000000000E+00
  0.444089209850E-15
 -0.333066907388E-15
 -0.222044604925E-15
  0.333066907388E-15
  0.666133814775E-15
 -0.666133814775E-15
  0.222044604925E-15
 -0.999200722163E-15
 -0.277555756156E-16
  0.888178419700E-15
 -0.485722573274E-16
  0.888178419700E-15
 -0.277555756156E-15
 -0.610622663544E-15
 -0.777156117238E-15
 -0.333066907388E-15
  0.388578058619E-15
 -0.832667268469E-16
 -0.102695629778E-14
 -0.471844785466E-15
 -0.888178419700E-15
  0.166533453694E-15
  0.180411241502E-15
 -0.777156117238E-15
 -0.555111512313E-16
  0.555111512313E-16
  0.122124532709E-14
  0.888178419700E-15
 -0.222044604925E-15
  0.144328993201E-14
  0.527355936697E-15
  0.333066907388E-15
  0.333066907388E-15
  0.444089209850E-15
  0.333066907388E-15
 -0.329597460436E-15
 -0.360822483003E-15
  0.222044604925E-15
 -0.943689570931E-15
 -0.610622663544E-15
 -0.555111512313E-16
  0.166533453694E-15
 -0.499600361081E-15
  0.499600361081E-15
  0.666133814775E-15
  0.555111512313E-15
  0.388578058619E-15
  0.166533453694E-15
 -0.333066907388E-15
 -0.693889390391E-16
 -0.666133814775E-15
 -0.610622663544E-15
 -0.444089209850E-15
 -0.333066907388E-15
  0.111022302463E-15
 -0.721644966006E-15
 -0.277555756156E-15
 -0.444089209850E-15
 -0.111022302463E-15
 -0.832667268469E-15
  0.388578058619E-15
 -0.111022302463E-15
  0.222044604925E-15
  0.999200722163E-15
  0.111022302463E-15
  0.555111512313E-16
 -0.277555756156E-15
  0.127675647832E-14
 -0.222044604925E-15
 -0.111022302463E-15
  0.333066907388E-15
 -0.222044604925E-15
  0.777156117238E-15
  0.166533453694E-15
  0.565519853168E-15
 -0.444089209850E-15
  0.388578058619E-15
  0.555111512313E-16
  0.444089209850E-15
 -0.277555756156E-15
 -0.888178419700E-15
 -0.111022302463E-14
 -0.333066907388E-15
  0.499600361081E-15
 -0.555111512313E-16
  0.721644966006E-15
  0.111022302463E-15
  0.111022302463E-15
  0.555111512313E-16
 -0.999200722163E-15
 -0.444089209850E-15
 -0.111022302463E-14
 -0.499600361081E-15
  0.222044604925E-15
 -0.360822483003E-15
 -0.333066907388E-15
 -0.277555756156E-15
  0.111022302463E-15
  0.277555756156E-16
 -0.777156117238E-15
  0.111022302463E-15
 -0.144328993201E-14
  0.444089209850E-15
  0.943689570931E-15
 -0.444089209850E-15
 -0.333066907388E-15
  0.111022302463E-15
  0.222044604925E-15
 -0.499600361081E-15
  0.166533453694E-15
  0.277555756156E-15
 -0.423272528138E-15
 -0.277555756156E-15
  0.111022302463E-15
 -0.104083408559E-15
  0.444089209850E-15
 -0.222044604925E-15
  0.555111512313E-15
  0.166533453694E-15
  0.111022302463E-14
  0.555111512313E-15
  0.444089209850E-15
  0.555111512313E-16
  0.000000000000E+00
 -0.610622663544E-15
 -0.388578058619E-15
 -0.277555756156E-15
 -0.888178419700E-15
  0.111022302463E-15
 -0.721644966006E-15
 -0.111022302463E-15
  0.333066907388E-15
  0.943689570931E-15
 -0.346944695195E-15
  0.888178419700E-15
  0.222044604925E-15
  0.499600361081E-15
  0.666133814775E-15
  0.999200722163E-15
  0.777156117238E-15
  0.111022302463E-15
 -0.388578058619E-15
 -0.116573417586E-14
 -0.333066907388E-15
 -0.777156117238E-15
  0.131838984174E-15
  0.000000000000E+00
  0.444089209850E-15
 -0.777156117238E-15
  0.277555756156E-15
 -0.111022302463E-15
 -0.122124532709E-14
 -0.555111512313E-15
  0.222044604925E-15
 -0.610622663544E-15
  0.333066907388E-15
 -0.111022302463E-15
  0.999200722163E-15
  0.222044604925E-15
  0.277555756156E-15
  0.555111512313E-16
 -0.264545330086E-15
 -0.888178419700E-15
 -0.166533453694E-15
  0.000000000000E+00
 -0.166533453694E-15
 -0.333066907388E-15
 -0.111022302463E-15
 -0.888178419700E-15
 -0.555111512313E-16
 -0.388578058619E-15
  0.111022302463E-15
 -0.222044604925E-15
  0.721644966006E-15
  0.111022302463E-15
 -0.999200722163E-15
  0.333066907388E-15
 -0.721644966006E-15
 -0.499600361081E-15
  0.444089209850E-15
 -0.104083408559E-15
 -0.444089209850E-15
  0.166533453694E-15
  0.111022302463E-15
  0.388578058619E-15
  0.138777878078E-15
 -0.555111512313E-16
  0.832667268469E-16
  0.721644966006E-15
  0.416333634234E-16
  0.166533453694E-15
 -0.235922392733E-15
 -0.194289029309E-15
  0.000000000000E+00
 -0.111022302463E-15
 -0.416333634234E-15
 -0.277555756156E-15
  0.388578058619E-15
  0.444089209850E-15
 -0.388578058619E-15
  0.555111512313E-15
  0.388578058619E-15
 -0.222044604925E-15
  0.000000000000E+00
  0.555111512313E-16
  0.555111512313E-16
 -0.333066907388E-15
  0.610622663544E-15
 -0.346944695195E-16
 -0.222044604925E-15
  0.416333634234E-16
  0.444089209850E-15
 -0.111022302463E-15
  0.832667268469E-16
  0.555111512313E-16
  0.277555756156E-15
 -0.999200722163E-15
  0.149880108324E-14
 -0.555111512313E-16
  0.555111512313E-16
 -0.333066907388E-15
 -0.111022302463E-15
 -0.166533453694E-15
  0.499600361081E-15
 -0.333066907388E-15
  0.000000000000E+00
  0.832667268469E-16
  0.499600361081E-15
  0.000000000000E+00
 -0.999200722163E-15
 -0.555111512313E-16
  0.166533453694E-15
  0.999200722163E-15
 -0.777156117238E-15
  0.333066907388E-15
  0.777156117238E-15
 -0.166533453694E-15
  0.555111512313E-16
  0.444089209850E-15
  0.000000000000E+00
  0.000000000000E+00
  0.666133814775E-15
  0.000000000000E+00
  0.222044604925E-15
  0.111022302463E-15
  0.111022302463E-15
  0.555111512313E-16
 -0.333066907388E-15
 -0.222044604925E-15
 -0.111022302463E-15
 -0.222044604925E-15
 -0.555111512313E-16
  0.277555756156E-15
 -0.555111512313E-16
  0.555111512313E-16
 -0.832667268469E-15
  0.388578058619E-15
 -0.222044604925E-15
  0.111022302463E-15
 -0.277555756156E-15
  0.666133814775E-15
 -0.610622663544E-15
  0.444089209850E-15
  0.136002320517E-14
  0.416333634234E-15
  0.105471187339E-14
 -0.804911692853E-15
 -0.249800180541E-15
 -0.388578058619E-15
 -0.555111512313E-16
 -0.666133814775E-15
 -0.222044604925E-15
  0.000000000000E+00
  0.832667268469E-15
  0.610622663544E-15
 -0.277555756156E-15
  0.444089209850E-15
 -0.499600361081E-15
  0.000000000000E+00
  0.555111512313E-16
 -0.499600361081E-15
 -0.555111512313E-16
  0.166533453694E-15
  0.111022302463E-15
  0.222044604925E-15
SCALARS phi_mu float 1
LOOKUP_TABLE default
  0.666224569657E+00
  0.768218812670E+00
  0.710255625133E+00
  0.800729572956E+00
  0.842243675452E+00
  0.760528978255E+00
  0.824185106142E+00
  0.673001572750E+00
  0.822967718408E+00
  0.853113427969E+00
  0.765267829688E+00
  0.818441407640E+00
  0.647037194488E+00
  0.795467236962E+00
  0.615289546746E+00
  0.806662358992E+00
  0.830575460033E+00
  0.740239217732E+00
  0.696993210980E+00
  0.453125384456E+00
  0.632626451994E+00
  0.379452499328E+00
  0.752781276031E+00
  0.568846336587E+00
  0.767931101469E+00
  0.568514552164E+00
  0.310548924528E+00
  0.788529204422E+00
  0.697274883935E+00
  0.700763223142E+00
  0.515576083486E+00
  0.501024529976E+00
  0.241348771024E+00
  0.296150011789E+00
  0.416859660739E-01
  0.724077083857E+00
  0.218730085284E+00
 -0.334345681209E-01
  0.743499314252E+00
  0.652022048468E+00
  0.438725745454E+00
  0.178984470805E+00
  0.142971503089E+00
 -0.106275891148E+00
  0.652871190850E+00
  0.467502523276E+00
  0.751041646546E-01
 -0.171661945931E+00
 -0.131601198991E+00
 -0.296070161246E+00
  0.688526236345E+00
  0.707947760882E+00
  0.616484272740E+00
  0.391336292143E+00
  0.132033076838E+00
 -0.185390568345E+00
 -0.342599993632E+00
  0.617940325144E+00
  0.432693198597E+00
  0.237832311721E-01
 -0.221298437060E+00
 -0.232139065655E+00
 -0.384572620661E+00
 -0.339948379496E+00
 -0.414394881431E+00
 -0.361606357529E+00
 -0.429724649455E+00
 -0.265828348745E+00
 -0.415802054144E+00
 -0.397917254574E+00
 -0.421799471727E+00
 -0.397592668047E+00
  0.360400523524E+00
  0.101484165871E+00
  0.664248043275E+00
 -0.370734656053E+00
 -0.436762393708E+00
 -0.387743696603E+00
 -0.408644566644E+00
 -0.961601284911E-02
 -0.253758686490E+00
  0.683932020057E+00
  0.592522712711E+00
 -0.367406629656E+00
 -0.380872869349E+00
 -0.401333461523E+00
 -0.288366131517E+00
 -0.437199864979E+00
  0.595032109080E+00
  0.409919807423E+00
 -0.377783258850E+00
 -0.443002543449E+00
 -0.357830687465E+00
 -0.380947260228E+00
 -0.401221689659E+00
 -0.356189723036E+00
 -0.386099154568E+00
 -0.450951958437E+00
 -0.309063187776E-01
 -0.274577262065E+00
  0.340510766937E+00
  0.818409024677E-01
 -0.304662342871E+00
 -0.452976364814E+00
  0.647446788543E+00
  0.667301427057E+00
  0.575940875431E+00
 -0.385256756021E+00
 -0.405438154250E+00
 -0.359269295793E+00
  0.579055746743E+00
  0.394048896487E+00
 -0.394973785810E+00
 -0.459648029516E+00
 -0.317300867683E+00
 -0.465364795008E+00
 -0.391672333602E+00
 -0.411804746437E+00
 -0.457362766469E-01
 -0.289157125137E+00
 -0.364842315127E+00
  0.326055406567E+00
  0.675541197608E-01
  0.633846011036E+00
  0.653739718434E+00
  0.562426503157E+00
 -0.403635439686E+00
 -0.468217418235E+00
  0.565673459377E+00
  0.380766569214E+00
 -0.398845558847E+00
 -0.418950837476E+00
 -0.327867428813E+00
 -0.475794850482E+00
 -0.371471657610E+00
 -0.578638320903E-01
 -0.301116883487E+00
  0.313088272613E+00
  0.547477420164E-01
  0.620296510697E+00
  0.640089515098E+00
  0.548837486358E+00
 -0.412034737535E+00
 -0.476562894239E+00
  0.551737831632E+00
  0.366963146849E+00
 -0.406349716583E+00
 -0.426438377594E+00
 -0.378631164664E+00
 -0.337909699892E+00
 -0.485737866600E+00
  0.604435375188E+00
 -0.701145185318E-01
 -0.313193108981E+00
  0.623928601302E+00
  0.532774462437E+00
  0.298569194215E+00
  0.404576699297E-01
  0.534645256990E+00
  0.350091937411E+00
 -0.420819984344E+00
 -0.485306188523E+00
  0.584305071541E+00
  0.603150593173E+00
  0.512169033207E+00
 -0.414533414898E+00
 -0.434609183167E+00
 -0.386563935396E+00
  0.279522963744E+00
  0.218371758266E-01
 -0.349127762752E+00
 -0.496838843533E+00
  0.511789875870E+00
  0.327653623960E+00
 -0.851389749451E-01
 -0.327932892630E+00
  0.558134405179E+00
  0.575675842446E+00
  0.485013069603E+00
  0.480017535091E+00
  0.296733138996E+00
  0.523977022624E+00
 -0.430977871705E+00
 -0.495410983741E+00
  0.252367291041E+00
 -0.439487022770E-02
  0.538894025124E+00
  0.448859279215E+00
  0.478161048643E+00
 -0.424018706783E+00
 -0.444078615762E+00
 -0.105716842669E+00
 -0.347895646379E+00
  0.487287669931E+00
  0.398753115840E+00
  0.434555222418E+00
  0.253262613959E+00
 -0.363125208054E+00
 -0.510620542730E+00
 -0.395735420995E+00
  0.399203391765E+00
  0.395268032306E+00
  0.315159996687E+00
  0.212844418376E+00
 -0.416270697216E-01
  0.339744646722E+00
  0.286405019086E+00
  0.297847748554E+00
  0.368239713261E+00
  0.193049493296E+00
  0.281414061380E+00
  0.127886656378E+00
  0.204141592798E+00
  0.106438556378E+00
  0.160415318252E+00
 -0.878349063911E-01
  0.137675495973E+00
 -0.442815510830E+00
 -0.507146173746E+00
 -0.133447869766E+00
 -0.374086436071E+00
  0.105572369965E+00
 -0.127898058276E+00
 -0.379803525103E+00
 -0.526798410653E+00
 -0.434315830961E+00
 -0.454345134333E+00
 -0.405302676298E+00
  0.538389222534E-01
 -0.150182274993E+00
 -0.163548659962E+00
 -0.400291571410E+00
 -0.157372103402E-01
 -0.142986159803E+00
 -0.923194454214E-01
 -0.453032518358E+00
 -0.517129617533E+00
 -0.185691230160E+00
 -0.413846141038E+00
 -0.393176864038E+00
 -0.538976001166E+00
 -0.440592050248E+00
 -0.460552387927E+00
 -0.197050756027E+00
 -0.408917748206E+00
 -0.409857333658E+00
 -0.203978147164E+00
 -0.386446458238E+00
 -0.392409544722E+00
 -0.535654592036E+00
 -0.231914933652E+00
 -0.344624252638E+00
 -0.452074361459E+00
 -0.515666765246E+00
 -0.287629428599E+00
 -0.432767157356E+00
 -0.452585857903E+00
 -0.373480085003E+00
 -0.511780706272E+00
 -0.399354805166E+00
 -0.431298912140E+00
 -0.493943366243E+00
 -0.341957469354E+00
 -0.470453232291E+00
 -0.308550130350E+00
 -0.413837971619E+00
 -0.404434724987E+00
 -0.424005319151E+00
 -0.307007527477E+00
 -0.372100851707E+00
 -0.332084912654E+00
 -0.391374677577E+00
 -0.452348656192E+00
 -0.368496318407E+00
 -0.338622074233E+00
 -0.396214562433E+00
 -0.358618749641E+00
 -0.377787234845E+00
 -0.321409903342E+00
 -0.280245607858E+00
 -0.323989181279E+00
 -0.274705409566E+00
 -0.301809242295E+00
 -0.283165474045E+00
 -0.301631508198E+00
 -0.320063441894E+00
 -0.265086227502E+00
 -0.232511098899E+00
 -0.245508174231E+00
 -0.229644303762E+00
 -0.237715640878E+00
 -0.231668839667E+00
 -0.196149400859E+00
 -0.397593106283E+00
 -0.367406883929E+00
 -0.357831025480E+00
 -0.356190173476E+00
 -0.359269882275E+00
 -0.364843047732E+00
 -0.371472521918E+00
 -0.378632115582E+00
 -0.386564903155E+00
 -0.395736329796E+00
 -0.405303466145E+00
 -0.409857974132E+00
 -0.399355296707E+00
 -0.368496681905E+00
 -0.321410166803E+00
 -0.265086418016E+00
SCALARS phi_sigma float 1
LOOKUP_TABLE default
 -0.666224569657E+00
 -0.768218812670E+00
 -0.710255625133E+00
 -0.800729572956E+00
 -0.842243675452E+00
 -0.760528978255E+00
 -0.824185106142E+00
 -0.673001572750E+00
 -0.822967718408E+00
 -0.853113427969E+00
 -0.765267829688E+00
 -0.818441407641E+00
 -0.647037194488E+00
 -0.795467236962E+00
 -0.615289546746E+00
 -0.806662358992E+00
 -0.830575460033E+00
 -0.740239217732E+00
 -0.696993210980E+00
 -0.453125384456E+00
 -0.632626451994E+00
 -0.379452499328E+00
 -0.752781276031E+00
 -0.568846336587E+00
 -0.767931101469E+00
 -0.568514552164E+00
 -0.310548924528E+00
 -0.788529204422E+00
 -0.697274883935E+00
 -0.700763223142E+00
 -0.515576083486E+00
 -0.501024529976E+00
 -0.241348771024E+00
 -0.296150011789E+00
 -0.416859660739E-01
 -0.724077083857E+00
 -0.218730085284E+00
  0.334345681209E-01
 -0.743499314252E+00
 -0.652022048468E+00
 -0.438725745454E+00
 -0.178984470805E+00
 -0.142971503089E+00
  0.106275891148E+00
 -0.652871190850E+00
 -0.467502523276E+00
 -0.751041646546E-01
  0.171661945931E+00
  0.131601198991E+00
  0.296070161246E+00
 -0.688526236345E+00
 -0.707947760882E+00
 -0.616484272740E+00
 -0.391336292143E+00
 -0.132033076838E+00
  0.185390568345E+00
  0.342599993632E+00
 -0.617940325144E+00
 -0.432693198597E+00
 -0.237832311721E-01
  0.221298437060E+00
  0.232139065655E+00
  0.384572620661E+00
  0.339948379496E+00
  0.414394881431E+00
  0.361606357529E+00
  0.429724649455E+00
  0.265828348745E+00
  0.415802054144E+00
  0.397917254574E+00
  0.421799471727E+00
  0.397592668047E+00
 -0.360400523524E+00
 -0.101484165871E+00
 -0.664248043275E+00
  0.370734656053E+00
  0.436762393708E+00
  0.387743696603E+00
  0.408644566644E+00
  0.961601284911E-02
  0.253758686490E+00
 -0.683932020057E+00
 -0.592522712711E+00
  0.367406629656E+00
  0.380872869349E+00
  0.401333461523E+00
  0.288366131517E+00
  0.437199864979E+00
 -0.595032109080E+00
 -0.409919807423E+00
  0.377783258850E+00
  0.443002543449E+00
  0.357830687465E+00
  0.380947260228E+00
  0.401221689659E+00
  0.356189723036E+00
  0.386099154568E+00
  0.450951958437E+00
  0.309063187776E-01
  0.274577262065E+00
 -0.340510766937E+00
 -0.818409024677E-01
  0.304662342871E+00
  0.452976364814E+00
 -0.647446788543E+00
 -0.667301427057E+00
 -0.575940875431E+00
  0.385256756021E+00
  0.405438154250E+00
  0.359269295793E+00
 -0.579055746743E+00
 -0.394048896487E+00
  0.394973785810E+00
  0.459648029516E+00
  0.317300867683E+00
  0.465364795008E+00
  0.391672333602E+00
  0.411804746437E+00
  0.457362766469E-01
  0.289157125137E+00
  0.364842315127E+00
 -0.326055406567E+00
 -0.675541197608E-01
 -0.633846011036E+00
 -0.653739718434E+00
 -0.562426503157E+00
  0.403635439686E+00
  0.468217418235E+00
 -0.565673459377E+00
 -0.380766569214E+00
  0.398845558847E+00
  0.418950837476E+00
  0.327867428813E+00
  0.475794850482E+00
  0.371471657610E+00
  0.578638320903E-01
  0.301116883487E+00
 -0.313088272613E+00
 -0.547477420164E-01
 -0.620296510697E+00
 -0.640089515098E+00
 -0.548837486358E+00
  0.412034737535E+00
  0.476562894239E+00
 -0.551737831632E+00
 -0.366963146849E+00
  0.406349716583E+00
  0.426438377594E+00
  0.378631164664E+00
  0.337909699892E+00
  0.485737866600E+00
 -0.604435375188E+00
  0.701145185318E-01
  0.313193108981E+00
 -0.623928601302E+00
 -0.532774462437E+00
 -0.298569194215E+00
 -0.404576699297E-01
 -0.534645256990E+00
 -0.350091937411E+00
  0.420819984344E+00
  0.485306188523E+00
 -0.584305071541E+00
 -0.603150593173E+00
 -0.512169033207E+00
  0.414533414898E+00
  0.434609183167E+00
  0.386563935396E+00
 -0.279522963744E+00
 -0.218371758266E-01
  0.349127762752E+00
  0.496838843533E+00
 -0.511789875870E+00
 -0.327653623960E+00
  0.851389749451E-01
  0.327932892630E+00
 -0.558134405179E+00
 -0.575675842446E+00
 -0.485013069603E+00
 -0.480017535091E+00
 -0.296733138996E+00
 -0.523977022624E+00
  0.430977871705E+00
  0.495410983741E+00
 -0.252367291041E+00
  0.439487022770E-02
 -0.538894025124E+00
 -0.448859279215E+00
 -0.478161048643E+00
  0.424018706783E+00
  0.444078615762E+00
  0.105716842669E+00
  0.347895646379E+00
 -0.487287669931E+00
 -0.398753115840E+00
 -0.434555222418E+00
 -0.253262613959E+00
  0.363125208054E+00
  0.510620542730E+00
  0.395735420995E+00
 -0.399203391765E+00
 -0.395268032306E+00
 -0.315159996687E+00
 -0.212844418376E+00
  0.416270697216E-01
 -0.339744646722E+00
 -0.286405019086E+00
 -0.297847748554E+00
 -0.368239713261E+00
 -0.193049493296E+00
 -0.281414061380E+00
 -0.127886656378E+00
 -0.204141592798E+00
 -0.106438556378E+00
 -0.160415318252E+00
  0.878349063911E-01
 -0.137675495973E+00
  0.442815510830E+00
  0.507146173746E+00
  0.133447869766E+00
  0.374086436071E+00
 -0.105572369965E+00
  0.127898058276E+00
  0.379803525103E+00
  0.526798410653E+00
  0.434315830961E+00
  0.454345134333E+00
  0.405302676298E+00
 -0.538389222534E-01
  0.150182274993E+00
  0.163548659962E+00
  0.400291571410E+00
  0.157372103402E-01
  0.142986159803E+00
  0.923194454214E-01
  0.453032518358E+00
  0.517129617533E+00
  0.185691230160E+00
  0.413846141038E+00
  0.393176864038E+00
  0.538976001166E+00
  0.440592050248E+00
  0.460552387927E+00
  0.197050756027E+00
  0.408917748206E+00
  0.409857333658E+00
  0.203978147164E+00
  0.386446458238E+00
  0.392409544722E+00
  0.535654592036E+00
  0.231914933652E+00
  0.344624252638E+00
  0.452074361459E+00
  0.515666765246E+00
  0.287629428599E+00
  0.432767157356E+00
  0.452585857903E+00
  0.373480085003E+00
  0.511780706272E+00
  0.399354805166E+00
  0.431298912140E+00
  0.493943366243E+00
  0.341957469354E+00
  0.470453232291E+00
  0.308550130350E+00
  0.413837971619E+00
  0.404434724987E+00
  0.424005319151E+00
  0.307007527477E+00
  0.372100851707E+00
  0.332084912654E+00
  0.391374677577E+00
  0.452348656192E+00
  0.368496318407E+00
  0.338622074233E+00
  0.396214562433E+00
  0.358618749641E+00
  0.377787234845E+00
  0.321409903342E+00
  0.280245607858E+00
  0.323989181279E+00
  0.274705409566E+00
  0.301809242295E+00
  0.283165474045E+00
  0.301631508198E+00
  0.320063441894E+00
  0.265086227502E+00
  0.232511098899E+00
  0.245508174231E+00
  0.229644303762E+00
  0.237715640878E+00
  0.231668839667E+00
  0.196149400859E+00
  0.397593106283E+00
  0.367406883929E+00
  0.357831025480E+00
  0.356190173476E+00
  0.359269882275E+00
  0.364843047732E+00
  0.371472521918E+00
  0.378632115582E+00
  0.386564903155E+00
  0.395736329796E+00
  0.405303466145E+00
  0.409857974132E+00
  0.399355296707E+00
  0.368496681905E+00
  0.321410166803E+00
  0.265086418016E+00
