# vtk DataFile Version 3.0
TriPan results file. Generated by TriPan, USU AeroLab (c) 2021.
ASCII
DATASET POLYDATA
POINTS                  20 float
  0.190000000000E+02  0.000000000000E+00  0.000000000000E+00
  0.989312879440E+04  0.000000000000E+00  0.145808448355E+04
  0.209237651825E+02  0.192375373840E+01  0.000000000000E+00
  0.989316984804E+04  0.192375373840E+01  0.145780646890E+04
  0.244703655243E+02  0.547033166885E+01  0.000000000000E+00
  0.989324553338E+04  0.547033166885E+01  0.145729392876E+04
  0.303820724487E+02  0.113820018768E+02  0.000000000000E+00
  0.989337169069E+04  0.113820018768E+02  0.145643959313E+04
  0.387563171387E+02  0.197561950684E+02  0.000000000000E+00
  0.989355039917E+04  0.197561950684E+02  0.145522938163E+04
  0.482439842224E+02  0.292438049316E+02  0.000000000000E+00
  0.989375286837E+04  0.292438049316E+02  0.145385826290E+04
  0.566182289124E+02  0.376179962158E+02  0.000000000000E+00
  0.989393157686E+04  0.376179962158E+02  0.145264805140E+04
  0.625299339294E+02  0.435296669006E+02  0.000000000000E+00
  0.989405773413E+04  0.435296669006E+02  0.145179371604E+04
  0.660765380859E+02  0.470762481689E+02  0.000000000000E+00
  0.989413341955E+04  0.470762481689E+02  0.145128117535E+04
  0.680002975464E+02  0.490000000000E+02  0.000000000000E+00
  0.989417447306E+04  0.490000000000E+02  0.145100316153E+04
POLYGONS                  18                  72
3                   0                   1                   3
3                   0                   3                   2
3                   2                   3                   5
3                   2                   5                   4
3                   4                   5                   7
3                   4                   7                   6
3                   6                   7                   9
3                   6                   9                   8
3                   8                   9                  11
3                   8                  11                  10
3                  10                  11                  13
3                  10                  13                  12
3                  12                  13                  15
3                  12                  15                  14
3                  14                  15                  17
3                  14                  17                  16
3                  16                  17                  19
3                  16                  19                  18
POINT_DATA                  20
SCALARS mu float 1
LOOKUP_TABLE default
 -0.480666538513E-03
 -0.480666538513E-03
 -0.115119656673E-03
 -0.115119656673E-03
 -0.165304943280E-03
 -0.165304943280E-03
 -0.223119877137E-03
 -0.223119877137E-03
 -0.255635225008E-03
 -0.255635225008E-03
 -0.235400169138E-03
 -0.235400169138E-03
 -0.168507151978E-03
 -0.168507151978E-03
 -0.896025564636E-04
 -0.896025564636E-04
 -0.290250467586E-04
 -0.290250467586E-04
  0.000000000000E+00
  0.000000000000E+00
