# vtk DataFile Version 3.0
TriPan results file. Generated by TriPan, USU AeroLab (c) 2021.
ASCII
DATASET POLYDATA
POINTS                 144 float
  0.000000000000E+00  0.000000000000E+00  0.000000000000E+00
  0.113538098335E+01  0.000000000000E+00 -0.658124566078E+00
  0.113538098335E+01  0.000000000000E+00  0.658124566078E+00
  0.192375373840E+01  0.192375373840E+01  0.000000000000E+00
  0.305913543701E+01  0.192375373840E+01 -0.658124983311E+00
  0.305913543701E+01  0.192375373840E+01  0.658124983311E+00
  0.423028087616E+01  0.000000000000E+00 -0.108747220039E+01
  0.423028087616E+01  0.000000000000E+00  0.108747220039E+01
  0.547033166885E+01  0.547033166885E+01  0.000000000000E+00
  0.615403699875E+01  0.192375373840E+01 -0.108747279644E+01
  0.615403699875E+01  0.192375373840E+01  0.108747279644E+01
  0.660571479797E+01  0.547033166885E+01 -0.658125698566E+00
  0.660571479797E+01  0.547033166885E+01  0.658125698566E+00
  0.939508819580E+01  0.000000000000E+00 -0.980745851994E+00
  0.939508819580E+01  0.000000000000E+00  0.980745851994E+00
  0.970061969757E+01  0.547033166885E+01 -0.108747410774E+01
  0.970061969757E+01  0.547033166885E+01  0.108747410774E+01
  0.113188476562E+02  0.192375373840E+01 -0.980746448040E+00
  0.113188476562E+02  0.192375373840E+01  0.980746448040E+00
  0.113820018768E+02  0.113820018768E+02  0.000000000000E+00
  0.125173873901E+02  0.113820018768E+02 -0.658127009869E+00
  0.125173873901E+02  0.113820018768E+02  0.658127009869E+00
  0.145402030945E+02  0.000000000000E+00 -0.479613035917E+00
  0.145402030945E+02  0.000000000000E+00  0.479613035917E+00
  0.148654365540E+02  0.547033166885E+01 -0.980747580528E+00
  0.148654365540E+02  0.547033166885E+01  0.980747580528E+00
  0.156122989655E+02  0.113820018768E+02 -0.108747613430E+01
  0.156122989655E+02  0.113820018768E+02  0.108747613430E+01
  0.164639663696E+02  0.192375373840E+01 -0.479613333941E+00
  0.164639663696E+02  0.192375373840E+01  0.479613333941E+00
  0.176505107880E+02  0.000000000000E+00 -0.144198849797E+00
  0.176505107880E+02  0.000000000000E+00  0.144198849797E+00
  0.190000000000E+02  0.000000000000E+00  0.000000000000E+00
  0.195742740631E+02  0.192375373840E+01 -0.144198939204E+00
  0.195742740631E+02  0.192375373840E+01  0.144198939204E+00
  0.197561950684E+02  0.197561950684E+02  0.000000000000E+00
  0.200105609894E+02  0.547033166885E+01 -0.479613870382E+00
  0.200105609894E+02  0.547033166885E+01  0.479613870382E+00
  0.207771244049E+02  0.113820018768E+02 -0.980749428272E+00
  0.207771244049E+02  0.113820018768E+02  0.980749428272E+00
  0.208915824890E+02  0.197561950684E+02 -0.658128738403E+00
  0.208915824890E+02  0.197561950684E+02  0.658128738403E+00
  0.209237651825E+02  0.192375373840E+01  0.000000000000E+00
  0.231208724976E+02  0.547033166885E+01 -0.144199103117E+00
  0.231208724976E+02  0.547033166885E+01  0.144199103117E+00
  0.239865016937E+02  0.197561950684E+02 -0.108747911453E+01
  0.239865016937E+02  0.197561950684E+02  0.108747911453E+01
  0.244703655243E+02  0.547033166885E+01  0.000000000000E+00
  0.259222583771E+02  0.113820018768E+02 -0.479614794254E+00
  0.259222583771E+02  0.113820018768E+02  0.479614794254E+00
  0.290325775146E+02  0.113820018768E+02 -0.144199386239E+00
  0.290325775146E+02  0.113820018768E+02  0.144199386239E+00
  0.291513423920E+02  0.197561950684E+02 -0.980752110481E+00
  0.291513423920E+02  0.197561950684E+02  0.980752110481E+00
  0.292438049316E+02  0.292438049316E+02  0.000000000000E+00
  0.303791980743E+02  0.292438049316E+02 -0.658130764961E+00
  0.303791980743E+02  0.292438049316E+02  0.658130764961E+00
  0.303820724487E+02  0.113820018768E+02  0.000000000000E+00
  0.334741249084E+02  0.292438049316E+02 -0.108748245239E+01
  0.334741249084E+02  0.292438049316E+02  0.108748245239E+01
  0.342964897156E+02  0.197561950684E+02 -0.479616105556E+00
  0.342964897156E+02  0.197561950684E+02  0.479616105556E+00
  0.374068183899E+02  0.197561950684E+02 -0.144199773669E+00
  0.374068183899E+02  0.197561950684E+02  0.144199773669E+00
  0.376179962158E+02  0.376179962158E+02  0.000000000000E+00
  0.386389808655E+02  0.292438049316E+02 -0.980755090714E+00
  0.386389808655E+02  0.292438049316E+02  0.980755090714E+00
  0.387533912659E+02  0.376179962158E+02 -0.658132553101E+00
  0.387533912659E+02  0.376179962158E+02  0.658132553101E+00
  0.387563171387E+02  0.197561950684E+02  0.000000000000E+00
  0.418483314514E+02  0.376179962158E+02 -0.108748543262E+01
  0.418483314514E+02  0.376179962158E+02  0.108748543262E+01
  0.435296669006E+02  0.435296669006E+02  0.000000000000E+00
  0.437841453552E+02  0.292438049316E+02 -0.479617565870E+00
  0.437841453552E+02  0.292438049316E+02  0.479617565870E+00
  0.446650657654E+02  0.435296669006E+02 -0.658133804798E+00
  0.446650657654E+02  0.435296669006E+02  0.658133804798E+00
  0.468944816589E+02  0.292438049316E+02 -0.144200220704E+00
  0.468944816589E+02  0.292438049316E+02  0.144200220704E+00
  0.470131988525E+02  0.376179962158E+02 -0.980757772923E+00
  0.470131988525E+02  0.376179962158E+02  0.980757772923E+00
  0.470762481689E+02  0.470762481689E+02  0.000000000000E+00
  0.477600097656E+02  0.435296669006E+02 -0.108748745918E+01
  0.477600097656E+02  0.435296669006E+02  0.108748745918E+01
  0.482116432190E+02  0.470762481689E+02 -0.658134579659E+00
  0.482116432190E+02  0.470762481689E+02  0.658134579659E+00
  0.482439842224E+02  0.292438049316E+02  0.000000000000E+00
  0.490000000000E+02  0.490000000000E+02  0.000000000000E+00
  0.501353988647E+02  0.490000000000E+02 -0.658134996891E+00
  0.501353988647E+02  0.490000000000E+02  0.658134996891E+00
  0.506007728577E+02  0.494653701782E+02 -0.465371757746E+00
  0.506007728577E+02  0.494653701782E+02  0.465371757746E+00
  0.507935333252E+02  0.496581344604E+02 -0.771266485397E-15
  0.513065910339E+02  0.470762481689E+02 -0.108748877048E+01
  0.513065910339E+02  0.470762481689E+02  0.108748877048E+01
  0.521583786011E+02  0.376179962158E+02 -0.479618877172E+00
  0.521583786011E+02  0.376179962158E+02  0.479618877172E+00
  0.529248886108E+02  0.435296669006E+02 -0.980759620667E+00
  0.529248886108E+02  0.435296669006E+02  0.980759620667E+00
  0.532303466797E+02  0.490000000000E+02 -0.108748936653E+01
  0.532303466797E+02  0.490000000000E+02  0.108748936653E+01
  0.539993209839E+02  0.497689704895E+02 -0.768971264362E+00
  0.539993209839E+02  0.497689704895E+02  0.768971264362E+00
  0.543178405762E+02  0.500874900818E+02 -0.157378642191E-15
  0.552687225342E+02  0.376179962158E+02 -0.144200608134E+00
  0.552687225342E+02  0.376179962158E+02  0.144200608134E+00
  0.564714775085E+02  0.470762481689E+02 -0.980760753155E+00
  0.564714775085E+02  0.470762481689E+02  0.980760753155E+00
  0.566182289124E+02  0.376179962158E+02  0.000000000000E+00
  0.580700759888E+02  0.435296669006E+02 -0.479619771242E+00
  0.580700759888E+02  0.435296669006E+02  0.479619771242E+00
  0.583952369690E+02  0.490000000000E+02 -0.980761349201E+00
  0.583952369690E+02  0.490000000000E+02  0.980761349201E+00
  0.590887413025E+02  0.496935043335E+02 -0.693503141403E+00
  0.590887413025E+02  0.496935043335E+02  0.693503141403E+00
  0.593759994507E+02  0.499807624817E+02  0.000000000000E+00
  0.611804275513E+02  0.435296669006E+02 -0.144200876355E+00
  0.611804275513E+02  0.435296669006E+02  0.144200876355E+00
  0.616166725159E+02  0.470762481689E+02 -0.479620337486E+00
  0.616166725159E+02  0.470762481689E+02  0.479620337486E+00
  0.625299339294E+02  0.435296669006E+02  0.000000000000E+00
  0.635404319763E+02  0.490000000000E+02 -0.479620635509E+00
  0.635404319763E+02  0.490000000000E+02  0.479620635509E+00
  0.638795776367E+02  0.493391418457E+02 -0.339143037796E+00
  0.638795776367E+02  0.493391418457E+02  0.339143037796E+00
  0.640200576782E+02  0.494796218872E+02  0.296956834055E-15
  0.647270278931E+02  0.470762481689E+02 -0.144201040268E+00
  0.647270278931E+02  0.470762481689E+02  0.144201040268E+00
  0.660765380859E+02  0.470762481689E+02  0.000000000000E+00
  0.666507873535E+02  0.490000000000E+02 -0.144201144576E+00
  0.666507873535E+02  0.490000000000E+02  0.144201144576E+00
  0.667527542114E+02  0.491019668579E+02 -0.101965606213E+00
  0.667527542114E+02  0.491019668579E+02  0.101965606213E+00
  0.667949905396E+02  0.491441993713E+02 -0.260488604752E-16
  0.680002975464E+02  0.490000000000E+02  0.000000000000E+00
  0.190000000000E+02  0.000000000000E+00  0.000000000000E+00
  0.209237651825E+02  0.192375373840E+01  0.000000000000E+00
  0.244703655243E+02  0.547033166885E+01  0.000000000000E+00
  0.303820724487E+02  0.113820018768E+02  0.000000000000E+00
  0.387563171387E+02  0.197561950684E+02  0.000000000000E+00
  0.482439842224E+02  0.292438049316E+02  0.000000000000E+00
  0.566182289124E+02  0.376179962158E+02  0.000000000000E+00
  0.625299339294E+02  0.435296669006E+02  0.000000000000E+00
  0.660765380859E+02  0.470762481689E+02  0.000000000000E+00
POLYGONS                 256                1024
3                 135                  33                 136
3                  32                  30                  33
3                  30                  28                  33
3                  30                  22                  28
3                  22                  17                  28
3                  22                  13                  17
3                  13                   6                  17
3                  17                   6                   9
3                   6                   1                   9
3                   9                   1                   4
3                   1                   0                   4
3                   4                   0                   3
3                   0                   5                   3
3                   0                   2                   5
3                   2                  10                   5
3                   2                   7                  10
[...]
CELL_DATA                 256
SCALARS sigma float 1
LOOKUP_TABLE default
  0.399217681594E-01
  0.399216847733E-01
  0.389499154362E-01
  0.389499811365E-01
  0.492630309687E-01
  0.492630170087E-01
  0.125586941570E+00
  0.125586954936E+00
  0.278022178604E+00
  0.278022164354E+00
  0.556446402131E+00
  0.556446402746E+00
  0.330496119865E+00
  0.330496118779E+00
 -0.867835630546E-02
 -0.867833970104E-02
 -0.166454423210E+00
 -0.166454436200E+00
 -0.240170157418E+00
 -0.240170143192E+00
 -0.249876492058E+00
 -0.249876556976E+00
 -0.248964510994E+00
 -0.248964430930E+00
  0.399217971549E-01
  0.399217680412E-01
  0.389499273898E-01
  0.389499151174E-01
  0.492630236542E-01
  0.492630310499E-01
  0.125586954813E+00
  0.125586945015E+00
  0.278022165019E+00
  0.278022202150E+00
  0.556446396548E+00
  0.556446364687E+00
  0.330496066083E+00
  0.330496116184E+00
 -0.867831446801E-02
 -0.867835632622E-02
 -0.166454432639E+00
 -0.166454423046E+00
 -0.240170143588E+00
 -0.240170150869E+00
 -0.249876554932E+00
 -0.249876543086E+00
 -0.248964430193E+00
 -0.248964402525E+00
  0.399217392273E-01
  0.399217971472E-01
  0.389499850386E-01
  0.389499274620E-01
  0.492630246435E-01
  0.492630236841E-01
  0.125586945075E+00
  0.125586944794E+00
  0.278022201573E+00
  0.278022141819E+00
  0.556446362380E+00
  0.556446341075E+00
  0.330496032718E+00
  0.330496064713E+00
 -0.867838078879E-02
 -0.867831445002E-02
 -0.166454432995E+00
 -0.166454432719E+00
 -0.240170151015E+00
 -0.240170150086E+00
 -0.249876543549E+00
 -0.249876488598E+00
 -0.248964402477E+00
 -0.248964457254E+00
  0.399217540118E-01
  0.399217392647E-01
  0.389500182873E-01
  0.389499851824E-01
  0.492630111070E-01
  0.492630246218E-01
  0.125586944776E+00
  0.125586948109E+00
  0.278022143009E+00
  0.278022198144E+00
  0.556446355426E+00
  0.556446549160E+00
  0.330496326762E+00
  0.330496041241E+00
 -0.867832002212E-02
 -0.867838082592E-02
 -0.166454429691E+00
 -0.166454432971E+00
 -0.240170149980E+00
 -0.240170162970E+00
 -0.249876489521E+00
 -0.249876458082E+00
 -0.248964457487E+00
 -0.248964443570E+00
  0.399217252496E-01
  0.399217540474E-01
  0.389499579030E-01
  0.389500182302E-01
  0.492630402367E-01
  0.492630110714E-01
  0.125586948117E+00
  0.125586939961E+00
  0.278022197467E+00
  0.278022269732E+00
  0.556446522925E+00
  0.556446118185E+00
  0.330495717751E+00
  0.330496311180E+00
 -0.867824045683E-02
 -0.867832000099E-02
 -0.166454437731E+00
 -0.166454429701E+00
 -0.240170162796E+00
 -0.240170134823E+00
 -0.249876457716E+00
 -0.249876514925E+00
 -0.248964443791E+00
 -0.248964470951E+00
  0.399217398525E-01
  0.399217251053E-01
  0.389499257153E-01
  0.389499577273E-01
  0.492630623125E-01
  0.492630402036E-01
  0.125586939947E+00
  0.125586928084E+00
  0.278022268735E+00
  0.278022080452E+00
  0.556446133907E+00
  0.556446346159E+00
  0.330496039901E+00
  0.330495727089E+00
 -0.867844806556E-02
 -0.867824042573E-02
 -0.166454449388E+00
 -0.166454437713E+00
 -0.240170134662E+00
 -0.240170113412E+00
 -0.249876513798E+00
 -0.249876544198E+00
 -0.248964470052E+00
 -0.248964456135E+00
  0.399215440254E-01
  0.399217399172E-01
  0.389499881998E-01
  0.389499259063E-01
  0.492630220703E-01
  0.492630623964E-01
  0.125586928121E+00
  0.125586939245E+00
  0.278022079778E+00
  0.278022149392E+00
  0.556446314848E+00
  0.556446025668E+00
  0.330495587016E+00
  0.330496021305E+00
 -0.867837075818E-02
 -0.867844804450E-02
 -0.166454438507E+00
 -0.166454449437E+00
 -0.240170113821E+00
 -0.240170152869E+00
 -0.249876545424E+00
 -0.249876485970E+00
 -0.248964456538E+00
 -0.248964641802E+00
  0.399217218887E-01
  0.399215440240E-01
  0.389499912542E-01
  0.389499883970E-01
  0.492630561393E-01
  0.492630223639E-01
  0.125586939260E+00
  0.125586935172E+00
  0.278022158585E+00
  0.278022160605E+00
  0.556446188089E+00
  0.556447023069E+00
  0.330496996444E+00
  0.330495683484E+00
 -0.867836876787E-02
 -0.867837104514E-02
 -0.166454442528E+00
 -0.166454438526E+00
 -0.240170154300E+00
 -0.240170121047E+00
 -0.249876487235E+00
 -0.249876484477E+00
 -0.248964641794E+00
 -0.248964472756E+00
  0.399216467547E-01
  0.399217227712E-01
  0.389499304269E-01
  0.389499914331E-01
  0.492629990034E-01
  0.492630555865E-01
  0.125586935115E+00
  0.125586950392E+00
  0.278022148240E+00
  0.278022196580E+00
  0.556446843178E+00
  0.556446423870E+00
  0.330496149715E+00
  0.330496889599E+00
 -0.867831205620E-02
 -0.867836838188E-02
 -0.166454427607E+00
 -0.166454442453E+00
 -0.240170118352E+00
 -0.240170176016E+00
 -0.249876485625E+00
 -0.249876545905E+00
 -0.248964478259E+00
 -0.248964551247E+00
  0.383933979558E-01
  0.374738134026E-01
  0.374732328555E-01
  0.472027408724E-01
  0.472029098235E-01
  0.116891010691E+00
  0.116891091091E+00
  0.246135615631E+00
  0.246135742852E+00
  0.472001432489E+00
  0.280340836792E+00
 -0.768263860966E-02
 -0.768298972840E-02
 -0.154928539370E+00
 -0.154928726402E+00
 -0.230126695291E+00
 -0.230126776867E+00
 -0.240403047892E+00
 -0.240402837514E+00
 -0.239433887876E+00
 -0.456443810087E-01
 -0.466674188114E-01
 -0.466608375530E-01
 -0.359205431977E-01
 -0.359222431998E-01
  0.376739396270E-01
  0.376739190893E-01
  0.162137681849E+00
  0.162137639193E+00
  0.365832132312E+00
  0.295993920934E+00
  0.629115618464E-01
  0.629119676139E-01
 -0.761163907571E-01
 -0.761158708370E-01
 -0.157199518339E+00
 -0.157199572452E+00
 -0.168963242129E+00
 -0.168961969368E+00
 -0.167842211453E+00
SCALARS C_p_inc float 1
LOOKUP_TABLE default
 -0.683744891132E+00
 -0.130339416572E+01
 -0.321470275231E+00
 -0.264333588669E+00
 -0.175603571291E+00
 -0.157323382119E+00
 -0.571888807228E-01
 -0.984897596338E-01
  0.170545664115E+00
  0.784613764283E-01
  0.561618662310E+00
  0.561160334742E+00
 -0.329108555391E+00
  0.965038294731E-01
 -0.508335631767E+00
 -0.355126762490E+00
 -0.318059018929E+00
 -0.348929223739E+00
 -0.155572676368E+00
 -0.672741737305E-01
  0.150741451895E+00
  0.282256192632E+00
  0.633332457879E+00
  0.501122124232E+00
 -0.531977432208E+00
 -0.660960083044E+00
 -0.260060117198E+00
 -0.332640832213E+00
 -0.190116922874E+00
 -0.178534154234E+00
 -0.964728777851E-01
 -0.133152885420E+00
  0.775576963049E-01
  0.465429988103E-01
  0.486661391086E+00
  0.487914222180E+00
 -0.495930514814E+00
 -0.319733694368E+00
 -0.579346008370E+00
 -0.506619031120E+00
 -0.291533774299E+00
 -0.334424300150E+00
 -0.643858461999E-01
  0.530690712896E-02
  0.267277651755E+00
  0.255719731767E+00
  0.494375841089E+00
  0.463211820188E+00
 -0.488739855664E+00
 -0.528580555423E+00
 -0.232589573331E+00
 -0.261010160529E+00
 -0.179172162442E+00
 -0.193587934266E+00
 -0.132628982647E+00
 -0.142202013103E+00
  0.457014066380E-01
  0.329801170648E-01
  0.481853922871E+00
  0.482477351672E+00
 -0.539779013434E+00
 -0.494783656025E+00
 -0.585740125618E+00
 -0.585771936024E+00
 -0.265183362014E+00
 -0.302688575873E+00
  0.599816778433E-02
  0.197785003433E-01
  0.252404646188E+00
  0.244884312207E+00
  0.462374084952E+00
  0.454120630220E+00
 -0.472248986476E+00
 -0.487709558588E+00
 -0.223269391274E+00
 -0.232686143617E+00
 -0.173298754427E+00
 -0.179986765225E+00
 -0.143197724235E+00
 -0.141425367641E+00
  0.331250406611E-01
  0.308940379200E-01
  0.486304190616E+00
  0.485747008128E+00
 -0.529407106438E+00
 -0.540454518270E+00
 -0.576858987666E+00
 -0.590775091667E+00
 -0.258543521067E+00
 -0.268474478021E+00
  0.197619862010E-01
  0.212189629439E-01
  0.244447364358E+00
  0.242198954517E+00
  0.454240146171E+00
  0.451178966769E+00
 -0.454817132545E+00
 -0.471293146338E+00
 -0.217139268554E+00
 -0.223067979589E+00
 -0.171273595055E+00
 -0.173302670968E+00
 -0.141762324150E+00
 -0.142122163895E+00
  0.309669474261E-01
  0.288699541121E-01
  0.487384610994E+00
  0.486602577228E+00
 -0.518282129152E+00
 -0.529770254561E+00
 -0.570661033839E+00
 -0.578290996797E+00
 -0.255359278358E+00
 -0.259104022088E+00
  0.212142085276E-01
  0.219831217448E-01
  0.242261788612E+00
  0.240462067826E+00
  0.451497711621E+00
  0.447731150084E+00
 -0.404452468718E+00
 -0.453301123908E+00
 -0.201347572072E+00
 -0.216306724441E+00
 -0.169489422313E+00
 -0.170678436796E+00
 -0.141643365611E+00
 -0.147478413941E+00
  0.287958771517E-01
  0.220527153304E-01
  0.485515221880E+00
  0.484050987064E+00
 -0.503862527108E+00
 -0.518339863282E+00
 -0.561411175264E+00
 -0.571140444574E+00
 -0.249075577498E+00
 -0.255812091720E+00
  0.219908323376E-01
  0.255078042893E-01
  0.241068025393E+00
  0.238068742102E+00
  0.449198470438E+00
  0.438870247430E+00
 -0.288479078733E+00
 -0.402738813227E+00
 -0.155961370729E+00
 -0.199400787407E+00
 -0.155098403019E+00
 -0.167532686715E+00
 -0.145472557049E+00
 -0.160410062863E+00
  0.216427387424E-01
  0.189082558430E-02
  0.478699243526E+00
  0.475672938494E+00
 -0.476868276349E+00
 -0.503746245539E+00
 -0.542359324234E+00
 -0.562019238860E+00
 -0.229447990235E+00
 -0.250866865106E+00
  0.255316481445E-01
  0.423651052657E-01
  0.241175489168E+00
  0.236173336383E+00
  0.446802958893E+00
  0.418650327801E+00
 -0.156081033140E+00
 -0.287355858634E+00
 -0.857463331670E-01
 -0.153364860829E+00
 -0.120179178207E+00
 -0.152027408578E+00
 -0.156796213058E+00
 -0.154141957366E+00
 -0.451711064305E-03
 -0.463532279266E-01
  0.456970250011E+00
  0.452411473502E+00
 -0.432947558759E+00
 -0.476454169471E+00
 -0.502897081195E+00
 -0.544106796916E+00
 -0.171145958238E+00
 -0.238995550157E+00
  0.419516000092E-01
  0.676958206637E-01
  0.244190012584E+00
  0.231263108505E+00
  0.440455444519E+00
  0.359186088538E+00
 -0.317034334384E+03
 -0.276019787353E+00
 -0.672019672791E+00
 -0.835306517119E-01
 -0.806945201334E-01
 -0.119508959051E+00
 -0.153001130441E+00
 -0.121084525337E+00
 -0.587601238980E-01
 -0.621336512882E-01
  0.351324587738E+00
  0.355435110602E+00
 -0.360886209513E+00
 -0.432309373969E+00
 -0.341401727600E+00
 -0.526831583994E+00
 -0.102361056825E+00
 -0.212101048796E+00
  0.577873184790E-01
  0.782990838540E-01
  0.234107715791E+00
 -0.380566114929E+00
  0.123418146827E+00
 -0.322033519281E+03
 -0.704023730685E+03
 -0.564673204611E+01
 -0.671124460059E+00
 -0.760470656190E-01
 -0.105213191995E+00
 -0.142873252368E+00
 -0.150318037234E+00
 -0.140960483196E+00
 -0.164812644519E+00
  0.197208452615E-01
 -0.369346285109E+00
 -0.272375578060E+00
 -0.403785495463E+00
 -0.127189220916E+00
 -0.224096777312E+00
  0.242848630815E-03
 -0.384476950296E-01
 -0.766867850439E+00
 -0.364066423218E+01
 -0.689230566399E+03
 -0.471393255944E+03
 -0.778848389857E+01
 -0.936347373536E+00
 -0.132983480891E+00
 -0.148129417049E+00
 -0.210499261896E+00
 -0.218105900735E+00
 -0.250442105889E+00
 -0.276328984017E+00
 -0.172004357660E+00
 -0.306133312667E+00
 -0.316999872885E+00
 -0.329380177182E+00
 -0.207997532255E+00
 -0.244902203496E+00
 -0.108477321991E+00
 -0.153868653732E+00
 -0.114691341659E+01
 -0.429904540095E+01
 -0.456847296599E+03
SCALARS inclination float 1
LOOKUP_TABLE default
  0.100000000000E+01
  0.100000000000E+01
  0.100000000000E+01
  0.100000000000E+01
  0.100000000000E+01
  0.100000000000E+01
  0.100000000000E+01
  0.100000000000E+01
  0.100000000000E+01
  0.100000000000E+01
  0.100000000000E+01
  0.100000000000E+01
  0.100000000000E+01
  0.100000000000E+01
  0.100000000000E+01
  0.100000000000E+01
  0.100000000000E+01
  0.100000000000E+01
  0.100000000000E+01
  0.100000000000E+01
  0.100000000000E+01
  0.100000000000E+01
  0.100000000000E+01
  0.100000000000E+01
  0.100000000000E+01
  0.100000000000E+01
  0.100000000000E+01
  0.100000000000E+01
  0.100000000000E+01
  0.100000000000E+01
  0.100000000000E+01
  0.100000000000E+01
  0.100000000000E+01
  0.100000000000E+01
  0.100000000000E+01
  0.100000000000E+01
  0.100000000000E+01
  0.100000000000E+01
  0.100000000000E+01
  0.100000000000E+01
  0.100000000000E+01
  0.100000000000E+01
  0.100000000000E+01
  0.100000000000E+01
  0.100000000000E+01
  0.100000000000E+01
  0.100000000000E+01
  0.100000000000E+01
  0.100000000000E+01
  0.100000000000E+01
  0.100000000000E+01
  0.100000000000E+01
  0.100000000000E+01
  0.100000000000E+01
  0.100000000000E+01
  0.100000000000E+01
  0.100000000000E+01
  0.100000000000E+01
  0.100000000000E+01
  0.100000000000E+01
  0.100000000000E+01
  0.100000000000E+01
  0.100000000000E+01
  0.100000000000E+01
  0.100000000000E+01
  0.100000000000E+01
  0.100000000000E+01
  0.100000000000E+01
  0.100000000000E+01
  0.100000000000E+01
  0.100000000000E+01
  0.100000000000E+01
  0.100000000000E+01
  0.100000000000E+01
  0.100000000000E+01
  0.100000000000E+01
  0.100000000000E+01
  0.100000000000E+01
  0.100000000000E+01
  0.100000000000E+01
  0.100000000000E+01
  0.100000000000E+01
  0.100000000000E+01
  0.100000000000E+01
  0.100000000000E+01
  0.100000000000E+01
  0.100000000000E+01
  0.100000000000E+01
  0.100000000000E+01
  0.100000000000E+01
  0.100000000000E+01
  0.100000000000E+01
  0.100000000000E+01
  0.100000000000E+01
  0.100000000000E+01
  0.100000000000E+01
  0.100000000000E+01
  0.100000000000E+01
  0.100000000000E+01
  0.100000000000E+01
  0.100000000000E+01
  0.100000000000E+01
  0.100000000000E+01
  0.100000000000E+01
  0.100000000000E+01
  0.100000000000E+01
  0.100000000000E+01
  0.100000000000E+01
  0.100000000000E+01
  0.100000000000E+01
  0.100000000000E+01
  0.100000000000E+01
  0.100000000000E+01
  0.100000000000E+01
  0.100000000000E+01
  0.100000000000E+01
  0.100000000000E+01
  0.100000000000E+01
  0.100000000000E+01
  0.100000000000E+01
  0.100000000000E+01
  0.100000000000E+01
  0.100000000000E+01
  0.100000000000E+01
  0.100000000000E+01
  0.100000000000E+01
  0.100000000000E+01
  0.100000000000E+01
  0.100000000000E+01
  0.100000000000E+01
  0.100000000000E+01
  0.100000000000E+01
  0.100000000000E+01
  0.100000000000E+01
  0.100000000000E+01
  0.100000000000E+01
  0.100000000000E+01
  0.100000000000E+01
  0.100000000000E+01
  0.100000000000E+01
  0.100000000000E+01
  0.100000000000E+01
  0.100000000000E+01
  0.100000000000E+01
  0.100000000000E+01
  0.100000000000E+01
  0.100000000000E+01
  0.100000000000E+01
  0.100000000000E+01
  0.100000000000E+01
  0.100000000000E+01
  0.100000000000E+01
  0.100000000000E+01
  0.100000000000E+01
  0.100000000000E+01
  0.100000000000E+01
  0.100000000000E+01
  0.100000000000E+01
  0.100000000000E+01
  0.100000000000E+01
  0.100000000000E+01
  0.100000000000E+01
  0.100000000000E+01
  0.100000000000E+01
  0.100000000000E+01
  0.100000000000E+01
  0.100000000000E+01
  0.100000000000E+01
  0.100000000000E+01
  0.100000000000E+01
  0.100000000000E+01
  0.100000000000E+01
  0.100000000000E+01
  0.100000000000E+01
  0.100000000000E+01
  0.100000000000E+01
  0.100000000000E+01
  0.100000000000E+01
  0.100000000000E+01
  0.100000000000E+01
  0.100000000000E+01
  0.100000000000E+01
  0.100000000000E+01
  0.100000000000E+01
  0.100000000000E+01
  0.100000000000E+01
  0.100000000000E+01
  0.100000000000E+01
  0.100000000000E+01
  0.100000000000E+01
  0.100000000000E+01
  0.100000000000E+01
  0.100000000000E+01
  0.100000000000E+01
  0.100000000000E+01
  0.100000000000E+01
  0.100000000000E+01
  0.100000000000E+01
  0.100000000000E+01
  0.100000000000E+01
  0.100000000000E+01
  0.100000000000E+01
  0.100000000000E+01
  0.100000000000E+01
  0.100000000000E+01
  0.100000000000E+01
  0.100000000000E+01
  0.100000000000E+01
  0.100000000000E+01
  0.100000000000E+01
  0.100000000000E+01
  0.100000000000E+01
  0.100000000000E+01
  0.100000000000E+01
  0.100000000000E+01
  0.100000000000E+01
  0.100000000000E+01
  0.100000000000E+01
  0.100000000000E+01
  0.100000000000E+01
  0.100000000000E+01
  0.100000000000E+01
  0.100000000000E+01
  0.100000000000E+01
  0.100000000000E+01
  0.100000000000E+01
  0.100000000000E+01
  0.100000000000E+01
  0.100000000000E+01
  0.100000000000E+01
  0.100000000000E+01
  0.100000000000E+01
  0.100000000000E+01
  0.100000000000E+01
  0.100000000000E+01
  0.100000000000E+01
  0.100000000000E+01
  0.100000000000E+01
  0.100000000000E+01
  0.100000000000E+01
  0.100000000000E+01
  0.100000000000E+01
  0.100000000000E+01
  0.100000000000E+01
  0.100000000000E+01
  0.100000000000E+01
  0.100000000000E+01
  0.100000000000E+01
  0.100000000000E+01
  0.100000000000E+01
  0.100000000000E+01
  0.100000000000E+01
  0.100000000000E+01
  0.100000000000E+01
  0.100000000000E+01
  0.100000000000E+01
VECTORS v float
  0.204346546987E+03 -0.474747751056E+02  0.269082231942E+02
  0.238571407574E+03 -0.572979620064E+02  0.316149747303E+02
  0.186176022318E+03 -0.490231752043E+01  0.206058180990E+02
  0.181983350920E+03 -0.751795234301E+01  0.204357407013E+02
  0.175881762353E+03 -0.141633401950E+01  0.172687855724E+02
  0.174451110180E+03 -0.378810381210E+01  0.173604540787E+02
  0.167532413398E+03  0.313060922302E+01  0.339722222726E+01
  0.170601744422E+03 -0.819563572059E+01  0.369469607906E+01
  0.146478956313E+03  0.159271755287E+02 -0.181111205447E+02
  0.154728647828E+03 -0.654569608298E+01 -0.223731779968E+02
  0.882279162524E+02  0.599550615162E+02 -0.163883847106E+02
  0.917231522848E+02  0.521576171292E+02 -0.229341966634E+02
  0.158339634729E+03 -0.144588653146E+02  0.100162799961E+03
  0.138406892280E+03  0.300086469627E+02  0.628331364146E+02
  0.195862082349E+03 -0.274465575598E+02  0.309790344679E+02
  0.187768712258E+03 -0.539951938728E+01  0.267977394581E+02
  0.187034888026E+03 -0.466568471554E+01 -0.396132821805E+01
  0.188912871599E+03 -0.115956973235E+02 -0.414334326446E+01
  0.174398772214E+03  0.291844912276E+01 -0.167021358905E+02
  0.167281623228E+03 -0.888053638437E+01 -0.171581504122E+02
  0.149167592630E+03  0.923358369107E+01 -0.150904143710E+02
  0.137306014733E+03  0.183364182755E+01 -0.146092879308E+02
  0.750763601323E+02  0.640636042971E+02 -0.117672442068E+01
  0.999884410295E+02  0.568839516619E+02 -0.460586420793E+01
  0.196912899033E+03 -0.361679960916E+02  0.249057152001E+02
  0.204408671569E+03 -0.407538514774E+02  0.261966987145E+02
  0.180899380443E+03 -0.172444246589E+02  0.213677614016E+02
  0.186027556605E+03 -0.178171312588E+02  0.219825450862E+02
  0.176699751061E+03 -0.848928241774E+01  0.180373662906E+02
  0.175811468744E+03 -0.889627702957E+01  0.179904879550E+02
  0.170603668219E+03 -0.368846499460E+01  0.360159770936E+01
  0.173181641421E+03 -0.100262413434E+02  0.378583833926E+01
  0.155006117161E+03  0.814929842151E+01 -0.203730740161E+02
  0.157679858071E+03  0.301113207076E+01 -0.214568056109E+02
  0.951012594302E+02  0.655897568298E+02 -0.171063658924E+02
  0.936979814633E+02  0.678346880050E+02 -0.149916778204E+02
  0.170120636644E+03 -0.858796717541E+01  0.103588578790E+03
  0.162772529164E+03  0.316735856950E+01  0.925152750363E+02
  0.199478853684E+03 -0.335389686179E+02  0.323259742818E+02
  0.195877715641E+03 -0.266186095584E+02  0.308663437768E+02
  0.184562984949E+03 -0.153038507139E+02 -0.413008346446E+01
  0.187027760925E+03 -0.213633390599E+02 -0.430623016004E+01
  0.167349246368E+03 -0.168475976735E+01 -0.164638656522E+02
  0.161704731961E+03 -0.427097108009E+01 -0.161659905992E+02
  0.137513930634E+03  0.199199435554E+02 -0.126812775696E+02
  0.138631541909E+03  0.197951302906E+02 -0.128152585389E+02
  0.100005794106E+03  0.584211010160E+02 -0.444346479729E+01
  0.105989156423E+03  0.547563210782E+02 -0.547441066084E+01
  0.194569222101E+03 -0.332357554756E+02  0.243419718627E+02
  0.196906074001E+03 -0.350238646981E+02  0.247827298742E+02
  0.178918658085E+03 -0.170363430432E+02  0.211317102634E+02
  0.180891230124E+03 -0.179534121468E+02  0.214433395646E+02
  0.175593485636E+03 -0.126556437879E+02  0.183354210839E+02
  0.176659390986E+03 -0.127839986346E+02  0.184517419498E+02
  0.173181948613E+03 -0.930655047261E+01  0.377097238739E+01
  0.173843112829E+03 -0.105460614808E+02  0.381024873528E+01
  0.157728153883E+03  0.556891361964E+01 -0.211086712230E+02
  0.158794741714E+03  0.391654524237E+01 -0.214858545838E+02
  0.939348365695E+02  0.687764780756E+02 -0.145830609071E+02
  0.935291406347E+02  0.693214377817E+02 -0.140320119535E+02