# vtk DataFile Version 3.0
TriPan results file. Generated by TriPan, USU AeroLab (c) 2021.
ASCII
DATASET POLYDATA
POINTS                  40 float
  0.190003013611E+02  0.000000000000E+00  0.000000000000E+00
  0.993327045009E+02  0.000000000000E+00  0.118624572338E+02
  0.197581977844E+02  0.757896304131E+00  0.000000000000E+00
  0.993488782009E+02  0.757896304131E+00  0.117529291512E+02
  0.207892742157E+02  0.178897356987E+01  0.000000000000E+00
  0.993708816310E+02  0.178897356987E+01  0.116039222144E+02
  0.221730995178E+02  0.317279767990E+01  0.000000000000E+00
  0.994004128106E+02  0.317279767990E+01  0.114039374575E+02
  0.239969177246E+02  0.499661636353E+01  0.000000000000E+00
  0.994393335494E+02  0.499661636353E+01  0.111403667307E+02
  0.263439254761E+02  0.734362459183E+01  0.000000000000E+00
  0.994894192844E+02  0.734362459183E+01  0.108011867968E+02
  0.292731380463E+02  0.102728376389E+02  0.000000000000E+00
  0.995519294166E+02  0.102728376389E+02  0.103778690104E+02
  0.327924232483E+02  0.137921218872E+02  0.000000000000E+00
  0.996270318470E+02  0.137921218872E+02  0.986927634743E+01
  0.368323059082E+02  0.178320064545E+02  0.000000000000E+00
  0.997132439579E+02  0.178320064545E+02  0.928544907511E+01
  0.412342338562E+02  0.222339305878E+02  0.000000000000E+00
  0.998071822062E+02  0.222339305878E+02  0.864930050270E+01
  0.457663688660E+02  0.267660694122E+02  0.000000000000E+00
  0.999038991060E+02  0.267660694122E+02  0.799433493976E+01
  0.501682968140E+02  0.311679935455E+02  0.000000000000E+00
  0.999978373543E+02  0.311679935455E+02  0.735818636734E+01
  0.542081794739E+02  0.352078781128E+02  0.000000000000E+00
  0.100084049465E+03  0.352078781128E+02  0.677435909503E+01
  0.577274627686E+02  0.387271614075E+02  0.000000000000E+00
  0.100159151855E+03  0.387271614075E+02  0.626576670771E+01
  0.606566772461E+02  0.416563758850E+02  0.000000000000E+00
  0.100221662028E+03  0.416563758850E+02  0.584244864568E+01
  0.630036849976E+02  0.440033836365E+02  0.000000000000E+00
  0.100271747763E+03  0.440033836365E+02  0.550326871175E+01
  0.648275070190E+02  0.458272018433E+02  0.000000000000E+00
  0.100310668583E+03  0.458272018433E+02  0.523969743368E+01
  0.662113265991E+02  0.472110252380E+02  0.000000000000E+00
  0.100340199640E+03  0.472110252380E+02  0.503971350373E+01
  0.672424011230E+02  0.482421035767E+02  0.000000000000E+00
  0.100362203030E+03  0.482421035767E+02  0.489070684252E+01
  0.680002975464E+02  0.490000000000E+02  0.000000000000E+00
  0.100378376730E+03  0.490000000000E+02  0.478117875994E+01
POLYGONS                  38                 152
3                   0                   1                   3
3                   0                   3                   2
3                   2                   3                   5
3                   2                   5                   4
3                   4                   5                   7
3                   4                   7                   6
3                   6                   7                   9
3                   6                   9                   8
3                   8                   9                  11
3                   8                  11                  10
3                  10                  11                  13
3                  10                  13                  12
3                  12                  13                  15
3                  12                  15                  14
3                  14                  15                  17
3                  14                  17                  16
3                  16                  17                  19
3                  16                  19                  18
3                  18                  19                  21
3                  18                  21                  20
3                  20                  21                  23
3                  20                  23                  22
3                  22                  23                  25
3                  22                  25                  24
3                  24                  25                  27
3                  24                  27                  26
3                  26                  27                  29
3                  26                  29                  28
3                  28                  29                  31
3                  28                  31                  30
3                  30                  31                  33
3                  30                  33                  32
3                  32                  33                  35
3                  32                  35                  34
3                  34                  35                  37
3                  34                  37                  36
3                  36                  37                  39
3                  36                  39                  38
POINT_DATA                  40
SCALARS mu float 1
LOOKUP_TABLE default
 -0.103307349070E-02
 -0.103307349070E-02
 -0.975836734867E-04
 -0.975836734867E-04
 -0.113643669824E-03
 -0.113643669824E-03
 -0.116099729937E-03
 -0.116099729937E-03
 -0.141363052546E-03
 -0.141363052546E-03
 -0.156631337990E-03
 -0.156631337990E-03
 -0.185805881998E-03
 -0.185805881998E-03
 -0.221718209460E-03
 -0.221718209460E-03
 -0.236728872942E-03
 -0.236728872942E-03
 -0.244166350548E-03
 -0.244166350548E-03
 -0.236409551498E-03
 -0.236409551498E-03
 -0.220478510101E-03
 -0.220478510101E-03
 -0.191647410183E-03
 -0.191647410183E-03
 -0.156954753805E-03
 -0.156954753805E-03
 -0.120368460720E-03
 -0.120368460720E-03
 -0.858041504017E-04
 -0.858041504017E-04
 -0.588222357436E-04
 -0.588222357436E-04
 -0.299258974508E-04
 -0.299258974508E-04
 -0.113937692116E-02
 -0.113937692116E-02
  0.000000000000E+00
  0.000000000000E+00
