# vtk DataFile Version 3.0
TriPan results file. Generated by TriPan, USU AeroLab (c) 2021.
ASCII
DATASET POLYDATA
POINTS                 144 float
  0.000000000000E+00  0.000000000000E+00  0.000000000000E+00
  0.113538098335E+01  0.000000000000E+00 -0.658124566078E+00
  0.113538098335E+01  0.000000000000E+00  0.658124566078E+00
  0.192375373840E+01  0.192375373840E+01  0.000000000000E+00
  0.305913543701E+01  0.192375373840E+01 -0.658124983311E+00
  0.305913543701E+01  0.192375373840E+01  0.658124983311E+00
  0.423028087616E+01  0.000000000000E+00 -0.108747220039E+01
  0.423028087616E+01  0.000000000000E+00  0.108747220039E+01
  0.547033166885E+01  0.547033166885E+01  0.000000000000E+00
  0.615403699875E+01  0.192375373840E+01 -0.108747279644E+01
  0.615403699875E+01  0.192375373840E+01  0.108747279644E+01
  0.660571479797E+01  0.547033166885E+01 -0.658125698566E+00
  0.660571479797E+01  0.547033166885E+01  0.658125698566E+00
  0.939508819580E+01  0.000000000000E+00 -0.980745851994E+00
  0.939508819580E+01  0.000000000000E+00  0.980745851994E+00
  0.970061969757E+01  0.547033166885E+01 -0.108747410774E+01
  0.970061969757E+01  0.547033166885E+01  0.108747410774E+01
  0.113188476562E+02  0.192375373840E+01 -0.980746448040E+00
  0.113188476562E+02  0.192375373840E+01  0.980746448040E+00
  0.113820018768E+02  0.113820018768E+02  0.000000000000E+00
  0.125173873901E+02  0.113820018768E+02 -0.658127009869E+00
  0.125173873901E+02  0.113820018768E+02  0.658127009869E+00
  0.145402030945E+02  0.000000000000E+00 -0.479613035917E+00
  0.145402030945E+02  0.000000000000E+00  0.479613035917E+00
  0.148654365540E+02  0.547033166885E+01 -0.980747580528E+00
  0.148654365540E+02  0.547033166885E+01  0.980747580528E+00
  0.156122989655E+02  0.113820018768E+02 -0.108747613430E+01
  0.156122989655E+02  0.113820018768E+02  0.108747613430E+01
  0.164639663696E+02  0.192375373840E+01 -0.479613333941E+00
  0.164639663696E+02  0.192375373840E+01  0.479613333941E+00
  0.176505107880E+02  0.000000000000E+00 -0.144198849797E+00
  0.176505107880E+02  0.000000000000E+00  0.144198849797E+00
  0.190000000000E+02  0.000000000000E+00  0.000000000000E+00
  0.195742740631E+02  0.192375373840E+01 -0.144198939204E+00
  0.195742740631E+02  0.192375373840E+01  0.144198939204E+00
  0.197561950684E+02  0.197561950684E+02  0.000000000000E+00
  0.200105609894E+02  0.547033166885E+01 -0.479613870382E+00
  0.200105609894E+02  0.547033166885E+01  0.479613870382E+00
  0.207771244049E+02  0.113820018768E+02 -0.980749428272E+00
  0.207771244049E+02  0.113820018768E+02  0.980749428272E+00
  0.208915824890E+02  0.197561950684E+02 -0.658128738403E+00
  0.208915824890E+02  0.197561950684E+02  0.658128738403E+00
  0.209237651825E+02  0.192375373840E+01  0.000000000000E+00
  0.231208724976E+02  0.547033166885E+01 -0.144199103117E+00
  0.231208724976E+02  0.547033166885E+01  0.144199103117E+00
  0.239865016937E+02  0.197561950684E+02 -0.108747911453E+01
  0.239865016937E+02  0.197561950684E+02  0.108747911453E+01
  0.244703655243E+02  0.547033166885E+01  0.000000000000E+00
  0.259222583771E+02  0.113820018768E+02 -0.479614794254E+00
  0.259222583771E+02  0.113820018768E+02  0.479614794254E+00
  0.290325775146E+02  0.113820018768E+02 -0.144199386239E+00
  0.290325775146E+02  0.113820018768E+02  0.144199386239E+00
  0.291513423920E+02  0.197561950684E+02 -0.980752110481E+00
  0.291513423920E+02  0.197561950684E+02  0.980752110481E+00
  0.292438049316E+02  0.292438049316E+02  0.000000000000E+00
  0.303791980743E+02  0.292438049316E+02 -0.658130764961E+00
  0.303791980743E+02  0.292438049316E+02  0.658130764961E+00
  0.303820724487E+02  0.113820018768E+02  0.000000000000E+00
  0.334741249084E+02  0.292438049316E+02 -0.108748245239E+01
  0.334741249084E+02  0.292438049316E+02  0.108748245239E+01
  0.342964897156E+02  0.197561950684E+02 -0.479616105556E+00
  0.342964897156E+02  0.197561950684E+02  0.479616105556E+00
  0.374068183899E+02  0.197561950684E+02 -0.144199773669E+00
  0.374068183899E+02  0.197561950684E+02  0.144199773669E+00
  0.376179962158E+02  0.376179962158E+02  0.000000000000E+00
  0.386389808655E+02  0.292438049316E+02 -0.980755090714E+00
  0.386389808655E+02  0.292438049316E+02  0.980755090714E+00
  0.387533912659E+02  0.376179962158E+02 -0.658132553101E+00
  0.387533912659E+02  0.376179962158E+02  0.658132553101E+00
  0.387563171387E+02  0.197561950684E+02  0.000000000000E+00
  0.418483314514E+02  0.376179962158E+02 -0.108748543262E+01
  0.418483314514E+02  0.376179962158E+02  0.108748543262E+01
  0.435296669006E+02  0.435296669006E+02  0.000000000000E+00
  0.437841453552E+02  0.292438049316E+02 -0.479617565870E+00
  0.437841453552E+02  0.292438049316E+02  0.479617565870E+00
  0.446650657654E+02  0.435296669006E+02 -0.658133804798E+00
  0.446650657654E+02  0.435296669006E+02  0.658133804798E+00
  0.468944816589E+02  0.292438049316E+02 -0.144200220704E+00
  0.468944816589E+02  0.292438049316E+02  0.144200220704E+00
  0.470131988525E+02  0.376179962158E+02 -0.980757772923E+00
  0.470131988525E+02  0.376179962158E+02  0.980757772923E+00
  0.470762481689E+02  0.470762481689E+02  0.000000000000E+00
  0.477600097656E+02  0.435296669006E+02 -0.108748745918E+01
  0.477600097656E+02  0.435296669006E+02  0.108748745918E+01
  0.482116432190E+02  0.470762481689E+02 -0.658134579659E+00
  0.482116432190E+02  0.470762481689E+02  0.658134579659E+00
  0.482439842224E+02  0.292438049316E+02  0.000000000000E+00
  0.490000000000E+02  0.490000000000E+02  0.000000000000E+00
  0.501353988647E+02  0.490000000000E+02 -0.658134996891E+00
  0.501353988647E+02  0.490000000000E+02  0.658134996891E+00
  0.506007728577E+02  0.494653701782E+02 -0.465371757746E+00
  0.506007728577E+02  0.494653701782E+02  0.465371757746E+00
  0.507935333252E+02  0.496581344604E+02 -0.771266485397E-15
  0.513065910339E+02  0.470762481689E+02 -0.108748877048E+01
  0.513065910339E+02  0.470762481689E+02  0.108748877048E+01
  0.521583786011E+02  0.376179962158E+02 -0.479618877172E+00
  0.521583786011E+02  0.376179962158E+02  0.479618877172E+00
  0.529248886108E+02  0.435296669006E+02 -0.980759620667E+00
  0.529248886108E+02  0.435296669006E+02  0.980759620667E+00
  0.532303466797E+02  0.490000000000E+02 -0.108748936653E+01
  0.532303466797E+02  0.490000000000E+02  0.108748936653E+01
  0.539993209839E+02  0.497689704895E+02 -0.768971264362E+00
  0.539993209839E+02  0.497689704895E+02  0.768971264362E+00
  0.543178405762E+02  0.500874900818E+02 -0.157378642191E-15
  0.552687225342E+02  0.376179962158E+02 -0.144200608134E+00
  0.552687225342E+02  0.376179962158E+02  0.144200608134E+00
  0.564714775085E+02  0.470762481689E+02 -0.980760753155E+00
  0.564714775085E+02  0.470762481689E+02  0.980760753155E+00
  0.566182289124E+02  0.376179962158E+02  0.000000000000E+00
  0.580700759888E+02  0.435296669006E+02 -0.479619771242E+00
  0.580700759888E+02  0.435296669006E+02  0.479619771242E+00
  0.583952369690E+02  0.490000000000E+02 -0.980761349201E+00
  0.583952369690E+02  0.490000000000E+02  0.980761349201E+00
  0.590887413025E+02  0.496935043335E+02 -0.693503141403E+00
  0.590887413025E+02  0.496935043335E+02  0.693503141403E+00
  0.593759994507E+02  0.499807624817E+02  0.000000000000E+00
  0.611804275513E+02  0.435296669006E+02 -0.144200876355E+00
  0.611804275513E+02  0.435296669006E+02  0.144200876355E+00
  0.616166725159E+02  0.470762481689E+02 -0.479620337486E+00
  0.616166725159E+02  0.470762481689E+02  0.479620337486E+00
  0.625299339294E+02  0.435296669006E+02  0.000000000000E+00
  0.635404319763E+02  0.490000000000E+02 -0.479620635509E+00
  0.635404319763E+02  0.490000000000E+02  0.479620635509E+00
  0.638795776367E+02  0.493391418457E+02 -0.339143037796E+00
  0.638795776367E+02  0.493391418457E+02  0.339143037796E+00
  0.640200576782E+02  0.494796218872E+02  0.296956834055E-15
  0.647270278931E+02  0.470762481689E+02 -0.144201040268E+00
  0.647270278931E+02  0.470762481689E+02  0.144201040268E+00
  0.660765380859E+02  0.470762481689E+02  0.000000000000E+00
  0.666507873535E+02  0.490000000000E+02 -0.144201144576E+00
  0.666507873535E+02  0.490000000000E+02  0.144201144576E+00
  0.667527542114E+02  0.491019668579E+02 -0.101965606213E+00
  0.667527542114E+02  0.491019668579E+02  0.101965606213E+00
  0.667949905396E+02  0.491441993713E+02 -0.260488604752E-16
  0.680002975464E+02  0.490000000000E+02  0.000000000000E+00
  0.190000000000E+02  0.000000000000E+00  0.000000000000E+00
  0.209237651825E+02  0.192375373840E+01  0.000000000000E+00
  0.244703655243E+02  0.547033166885E+01  0.000000000000E+00
  0.303820724487E+02  0.113820018768E+02  0.000000000000E+00
  0.387563171387E+02  0.197561950684E+02  0.000000000000E+00
  0.482439842224E+02  0.292438049316E+02  0.000000000000E+00
  0.566182289124E+02  0.376179962158E+02  0.000000000000E+00
  0.625299339294E+02  0.435296669006E+02  0.000000000000E+00
  0.660765380859E+02  0.470762481689E+02  0.000000000000E+00
POLYGONS                 256                1024
3                 135                  33                 136
3                  32                  30                  33
3                  30                  28                  33
3                  30                  22                  28
3                  22                  17                  28
3                  22                  13                  17
3                  13                   6                  17
3                  17                   6                   9
3                   6                   1                   9
3                   9                   1                   4
3                   1                   0                   4
3                   4                   0                   3
3                   0                   5                   3
3                   0                   2                   5
3                   2                  10                   5
3                   2                   7                  10
[...]
CELL_DATA                 256
SCALARS sigma float 1
LOOKUP_TABLE default
  0.399217681594E-01
  0.399216847733E-01
  0.389499154362E-01
  0.389499811365E-01
  0.492630309687E-01
  0.492630170087E-01
  0.125586941570E+00
  0.125586954936E+00
  0.278022178604E+00
  0.278022164354E+00
  0.556446402131E+00
  0.556446402746E+00
  0.330496119865E+00
  0.330496118779E+00
 -0.867835630546E-02
 -0.867833970104E-02
 -0.166454423210E+00
 -0.166454436200E+00
 -0.240170157418E+00
 -0.240170143192E+00
 -0.249876492058E+00
 -0.249876556976E+00
 -0.248964510994E+00
 -0.248964430930E+00
  0.399217971549E-01
  0.399217680412E-01
  0.389499273898E-01
  0.389499151174E-01
  0.492630236542E-01
  0.492630310499E-01
  0.125586954813E+00
  0.125586945015E+00
  0.278022165019E+00
  0.278022202150E+00
  0.556446396548E+00
  0.556446364687E+00
  0.330496066083E+00
  0.330496116184E+00
 -0.867831446801E-02
 -0.867835632622E-02
 -0.166454432639E+00
 -0.166454423046E+00
 -0.240170143588E+00
 -0.240170150869E+00
 -0.249876554932E+00
 -0.249876543086E+00
 -0.248964430193E+00
 -0.248964402525E+00
  0.399217392273E-01
  0.399217971472E-01
  0.389499850386E-01
  0.389499274620E-01
  0.492630246435E-01
  0.492630236841E-01
  0.125586945075E+00
  0.125586944794E+00
  0.278022201573E+00
  0.278022141819E+00
  0.556446362380E+00
  0.556446341075E+00
  0.330496032718E+00
  0.330496064713E+00
 -0.867838078879E-02
 -0.867831445002E-02
 -0.166454432995E+00
 -0.166454432719E+00
 -0.240170151015E+00
 -0.240170150086E+00
 -0.249876543549E+00
 -0.249876488598E+00
 -0.248964402477E+00
 -0.248964457254E+00
  0.399217540118E-01
  0.399217392647E-01
  0.389500182873E-01
  0.389499851824E-01
  0.492630111070E-01
  0.492630246218E-01
  0.125586944776E+00
  0.125586948109E+00
  0.278022143009E+00
  0.278022198144E+00
  0.556446355426E+00
  0.556446549160E+00
  0.330496326762E+00
  0.330496041241E+00
 -0.867832002212E-02
 -0.867838082592E-02
 -0.166454429691E+00
 -0.166454432971E+00
 -0.240170149980E+00
 -0.240170162970E+00
 -0.249876489521E+00
 -0.249876458082E+00
 -0.248964457487E+00
 -0.248964443570E+00
  0.399217252496E-01
  0.399217540474E-01
  0.389499579030E-01
  0.389500182302E-01
  0.492630402367E-01
  0.492630110714E-01
  0.125586948117E+00
  0.125586939961E+00
  0.278022197467E+00
  0.278022269732E+00
  0.556446522925E+00
  0.556446118185E+00
  0.330495717751E+00
  0.330496311180E+00
 -0.867824045683E-02
 -0.867832000099E-02
 -0.166454437731E+00
 -0.166454429701E+00
 -0.240170162796E+00
 -0.240170134823E+00
 -0.249876457716E+00
 -0.249876514925E+00
 -0.248964443791E+00
 -0.248964470951E+00
  0.399217398525E-01
  0.399217251053E-01
  0.389499257153E-01
  0.389499577273E-01
  0.492630623125E-01
  0.492630402036E-01
  0.125586939947E+00
  0.125586928084E+00
  0.278022268735E+00
  0.278022080452E+00
  0.556446133907E+00
  0.556446346159E+00
  0.330496039901E+00
  0.330495727089E+00
 -0.867844806556E-02
 -0.867824042573E-02
 -0.166454449388E+00
 -0.166454437713E+00
 -0.240170134662E+00
 -0.240170113412E+00
 -0.249876513798E+00
 -0.249876544198E+00
 -0.248964470052E+00
 -0.248964456135E+00
  0.399215440254E-01
  0.399217399172E-01
  0.389499881998E-01
  0.389499259063E-01
  0.492630220703E-01
  0.492630623964E-01
  0.125586928121E+00
  0.125586939245E+00
  0.278022079778E+00
  0.278022149392E+00
  0.556446314848E+00
  0.556446025668E+00
  0.330495587016E+00
  0.330496021305E+00
 -0.867837075818E-02
 -0.867844804450E-02
 -0.166454438507E+00
 -0.166454449437E+00
 -0.240170113821E+00
 -0.240170152869E+00
 -0.249876545424E+00
 -0.249876485970E+00
 -0.248964456538E+00
 -0.248964641802E+00
  0.399217218887E-01
  0.399215440240E-01
  0.389499912542E-01
  0.389499883970E-01
  0.492630561393E-01
  0.492630223639E-01
  0.125586939260E+00
  0.125586935172E+00
  0.278022158585E+00
  0.278022160605E+00
  0.556446188089E+00
  0.556447023069E+00
  0.330496996444E+00
  0.330495683484E+00
 -0.867836876787E-02
 -0.867837104514E-02
 -0.166454442528E+00
 -0.166454438526E+00
 -0.240170154300E+00
 -0.240170121047E+00
 -0.249876487235E+00
 -0.249876484477E+00
 -0.248964641794E+00
 -0.248964472756E+00
  0.399216467547E-01
  0.399217227712E-01
  0.389499304269E-01
  0.389499914331E-01
  0.492629990034E-01
  0.492630555865E-01
  0.125586935115E+00
  0.125586950392E+00
  0.278022148240E+00
  0.278022196580E+00
  0.556446843178E+00
  0.556446423870E+00
  0.330496149715E+00
  0.330496889599E+00
 -0.867831205620E-02
 -0.867836838188E-02
 -0.166454427607E+00
 -0.166454442453E+00
 -0.240170118352E+00
 -0.240170176016E+00
 -0.249876485625E+00
 -0.249876545905E+00
 -0.248964478259E+00
 -0.248964551247E+00
  0.383933979558E-01
  0.374738134026E-01
  0.374732328555E-01
  0.472027408724E-01
  0.472029098235E-01
  0.116891010691E+00
  0.116891091091E+00
  0.246135615631E+00
  0.246135742852E+00
  0.472001432489E+00
  0.280340836792E+00
 -0.768263860966E-02
 -0.768298972840E-02
 -0.154928539370E+00
 -0.154928726402E+00
 -0.230126695291E+00
 -0.230126776867E+00
 -0.240403047892E+00
 -0.240402837514E+00
 -0.239433887876E+00
 -0.456443810087E-01
 -0.466674188114E-01
 -0.466608375530E-01
 -0.359205431977E-01
 -0.359222431998E-01
  0.376739396270E-01
  0.376739190893E-01
  0.162137681849E+00
  0.162137639193E+00
  0.365832132312E+00
  0.295993920934E+00
  0.629115618464E-01
  0.629119676139E-01
 -0.761163907571E-01
 -0.761158708370E-01
 -0.157199518339E+00
 -0.157199572452E+00
 -0.168963242129E+00
 -0.168961969368E+00
 -0.167842211453E+00
SCALARS C_p_inc float 1
LOOKUP_TABLE default
 -0.683744901971E+00
 -0.130339406607E+01
 -0.321470275339E+00
 -0.264333586091E+00
 -0.175603571259E+00
 -0.157323382115E+00
 -0.571888808054E-01
 -0.984897597444E-01
  0.170545664032E+00
  0.784613763528E-01
  0.561618662277E+00
  0.561160334703E+00
 -0.329108555185E+00
  0.965038295318E-01
 -0.508335631630E+00
 -0.355126762392E+00
 -0.318059018781E+00
 -0.348929223618E+00
 -0.155572676283E+00
 -0.672741736647E-01
  0.150741450225E+00
  0.282256193860E+00
  0.633332456615E+00
  0.501122135902E+00
 -0.531977430673E+00
 -0.660960083086E+00
 -0.260060117014E+00
 -0.332640832391E+00
 -0.190116923176E+00
 -0.178534154195E+00
 -0.964728778913E-01
 -0.133152885564E+00
  0.775576962310E-01
  0.465429986874E-01
  0.486661391054E+00
  0.487914222148E+00
 -0.495930514535E+00
 -0.319733694179E+00
 -0.579346008169E+00
 -0.506619030987E+00
 -0.291533774103E+00
 -0.334424300002E+00
 -0.643858461323E-01
  0.530690731386E-02
  0.267277652803E+00
  0.255719731337E+00
  0.494375839273E+00
  0.463211819671E+00
 -0.488739852250E+00
 -0.528580554121E+00
 -0.232589573268E+00
 -0.261010160405E+00
 -0.179172162441E+00
 -0.193587934606E+00
 -0.132628982794E+00
 -0.142202013227E+00
  0.457014065167E-01
  0.329801169322E-01
  0.481853922829E+00
  0.482477351626E+00
 -0.539779013093E+00
 -0.494783655747E+00
 -0.585740125421E+00
 -0.585771935815E+00
 -0.265183361925E+00
 -0.302688575652E+00
  0.599816797247E-02
  0.197785002258E-01
  0.252404645870E+00
  0.244884311888E+00
  0.462374084287E+00
  0.454120631153E+00
 -0.472248985672E+00
 -0.487709562141E+00
 -0.223269391228E+00
 -0.232686143539E+00
 -0.173298754386E+00
 -0.179986765210E+00
 -0.143197724367E+00
 -0.141425367661E+00
  0.331250405290E-01
  0.308940378532E-01
  0.486304190572E+00
  0.485747008093E+00
 -0.529407106248E+00
 -0.540454517926E+00
 -0.576858987599E+00
 -0.590775091452E+00
 -0.258543521088E+00
 -0.268474477915E+00
  0.197619860833E-01
  0.212189628587E-01
  0.244447364071E+00
  0.242198954433E+00
  0.454240146915E+00
  0.451178966990E+00
 -0.454817134889E+00
 -0.471293147213E+00
 -0.217139268505E+00
 -0.223067979532E+00
 -0.171273595080E+00
 -0.173302670920E+00
 -0.141762324170E+00
 -0.142122163913E+00
  0.309669473595E-01
  0.288699540728E-01
  0.487384610966E+00
  0.486602577211E+00
 -0.518282129051E+00
 -0.529770254370E+00
 -0.570661033802E+00
 -0.578290996732E+00
 -0.255359278350E+00
 -0.259104022116E+00
  0.212142084429E-01
  0.219831217785E-01
  0.242261788536E+00
  0.240462067896E+00
  0.451497711956E+00
  0.447731149130E+00
 -0.404452468498E+00
 -0.453301120686E+00
 -0.201347572037E+00
 -0.216306724395E+00
 -0.169489422321E+00
 -0.170678436822E+00
 -0.141643365628E+00
 -0.147478413964E+00
  0.287958771125E-01
  0.220527152964E-01
  0.485515221867E+00
  0.484050987052E+00
 -0.503862527025E+00
 -0.518339863181E+00
 -0.561411175226E+00
 -0.571140444541E+00
 -0.249075577467E+00
 -0.255812091717E+00
  0.219908323712E-01
  0.255078042893E-01
  0.241068025446E+00
  0.238068742070E+00
  0.449198469574E+00
  0.438870247490E+00
 -0.288479078638E+00
 -0.402738813590E+00
 -0.155961370688E+00
 -0.199400787374E+00
 -0.155098403010E+00
 -0.167532686723E+00
 -0.145472557073E+00
 -0.160410062872E+00
  0.216427387089E-01
  0.189082555560E-02
  0.478699243515E+00
  0.475672938482E+00
 -0.476868276286E+00
 -0.503746245456E+00
 -0.542359324196E+00
 -0.562019238822E+00
 -0.229447990235E+00
 -0.250866865072E+00
  0.255316481445E-01
  0.423651052457E-01
  0.241175489137E+00
  0.236173336324E+00
  0.446802958833E+00
  0.418650327880E+00
 -0.156081032966E+00
 -0.287355858945E+00
 -0.857463331256E-01
 -0.153364860787E+00
 -0.120179178201E+00
 -0.152027408569E+00
 -0.156796213068E+00
 -0.154141957372E+00
 -0.451711091167E-03
 -0.463532279408E-01
  0.456970250000E+00
  0.452411473488E+00
 -0.432947558725E+00
 -0.476454169408E+00
 -0.502897081177E+00
 -0.544106796874E+00
 -0.171145958242E+00
 -0.238995550154E+00
  0.419515999894E-01
  0.676958206503E-01
  0.244190012528E+00
  0.231263108476E+00
  0.440455444607E+00
  0.359186088697E+00
 -0.317034335645E+03
 -0.276019788218E+00
 -0.672019674208E+00
 -0.835306516717E-01
 -0.806945201229E-01
 -0.119508959045E+00
 -0.153001130446E+00
 -0.121084525333E+00
 -0.587601239102E-01
 -0.621336513071E-01
  0.351324587737E+00
  0.355435110590E+00
 -0.360886209522E+00
 -0.432309373936E+00
 -0.341401727590E+00
 -0.526831583969E+00
 -0.102361056830E+00
 -0.212101048794E+00
  0.577873184677E-01
  0.782990838452E-01
  0.234107715758E+00
 -0.380566116189E+00
  0.123418146059E+00
 -0.322033520551E+03
 -0.704023733386E+03
 -0.564673206404E+01
 -0.671124461532E+00
 -0.760470655995E-01
 -0.105213191982E+00
 -0.142873252362E+00
 -0.150318037223E+00
 -0.140960483198E+00
 -0.164812644524E+00
  0.197208452482E-01
 -0.369346285117E+00
 -0.272375578061E+00
 -0.403785495453E+00
 -0.127189220923E+00
 -0.224096777321E+00
  0.242848616920E-03
 -0.384476950789E-01
 -0.766867852357E+00
 -0.364066424697E+01
 -0.689230569076E+03
 -0.471393257774E+03
 -0.778848392224E+01
 -0.936347375440E+00
 -0.132983480843E+00
 -0.148129417026E+00
 -0.210499261885E+00
 -0.218105900721E+00
 -0.250442105875E+00
 -0.276328983999E+00
 -0.172004357653E+00
 -0.306133312661E+00
 -0.316999872869E+00
 -0.329380177164E+00
 -0.207997532244E+00
 -0.244902203486E+00
 -0.108477321973E+00
 -0.153868653751E+00
 -0.114691341897E+01
 -0.429904541802E+01
 -0.456847298401E+03
SCALARS inclination float 1
LOOKUP_TABLE default
  0.100000000000E+01
  0.100000000000E+01
  0.100000000000E+01
  0.100000000000E+01
  0.100000000000E+01
  0.100000000000E+01
  0.100000000000E+01
  0.100000000000E+01
  0.100000000000E+01
  0.100000000000E+01
  0.100000000000E+01
  0.100000000000E+01
  0.100000000000E+01
  0.100000000000E+01
  0.100000000000E+01
  0.100000000000E+01
  0.100000000000E+01
  0.100000000000E+01
  0.100000000000E+01
  0.100000000000E+01
  0.100000000000E+01
  0.100000000000E+01
  0.100000000000E+01
  0.100000000000E+01
  0.100000000000E+01
  0.100000000000E+01
  0.100000000000E+01
  0.100000000000E+01
  0.100000000000E+01
  0.100000000000E+01
  0.100000000000E+01
  0.100000000000E+01
  0.100000000000E+01
  0.100000000000E+01
  0.100000000000E+01
  0.100000000000E+01
  0.100000000000E+01
  0.100000000000E+01
  0.100000000000E+01
  0.100000000000E+01
  0.100000000000E+01
  0.100000000000E+01
  0.100000000000E+01
  0.100000000000E+01
  0.100000000000E+01
  0.100000000000E+01
  0.100000000000E+01
  0.100000000000E+01
  0.100000000000E+01
  0.100000000000E+01
  0.100000000000E+01
  0.100000000000E+01
  0.100000000000E+01
  0.100000000000E+01
  0.100000000000E+01
  0.100000000000E+01
  0.100000000000E+01
  0.100000000000E+01
  0.100000000000E+01
  0.100000000000E+01
  0.100000000000E+01
  0.100000000000E+01
  0.100000000000E+01
  0.100000000000E+01
  0.100000000000E+01
  0.100000000000E+01
  0.100000000000E+01
  0.100000000000E+01
  0.100000000000E+01
  0.100000000000E+01
  0.100000000000E+01
  0.100000000000E+01
  0.100000000000E+01
  0.100000000000E+01
  0.100000000000E+01
  0.100000000000E+01
  0.100000000000E+01
  0.100000000000E+01
  0.100000000000E+01
  0.100000000000E+01
  0.100000000000E+01
  0.100000000000E+01
  0.100000000000E+01
  0.100000000000E+01
  0.100000000000E+01
  0.100000000000E+01
  0.100000000000E+01
  0.100000000000E+01
  0.100000000000E+01
  0.100000000000E+01
  0.100000000000E+01
  0.100000000000E+01
  0.100000000000E+01
  0.100000000000E+01
  0.100000000000E+01
  0.100000000000E+01
  0.100000000000E+01
  0.100000000000E+01
  0.100000000000E+01
  0.100000000000E+01
  0.100000000000E+01
  0.100000000000E+01
  0.100000000000E+01
  0.100000000000E+01
  0.100000000000E+01
  0.100000000000E+01
  0.100000000000E+01
  0.100000000000E+01
  0.100000000000E+01
  0.100000000000E+01
  0.100000000000E+01
  0.100000000000E+01
  0.100000000000E+01
  0.100000000000E+01
  0.100000000000E+01
  0.100000000000E+01
  0.100000000000E+01
  0.100000000000E+01
  0.100000000000E+01
  0.100000000000E+01
  0.100000000000E+01
  0.100000000000E+01
  0.100000000000E+01
  0.100000000000E+01
  0.100000000000E+01
  0.100000000000E+01
  0.100000000000E+01
  0.100000000000E+01
  0.100000000000E+01
  0.100000000000E+01
  0.100000000000E+01
  0.100000000000E+01
  0.100000000000E+01
  0.100000000000E+01
  0.100000000000E+01
  0.100000000000E+01
  0.100000000000E+01
  0.100000000000E+01
  0.100000000000E+01
  0.100000000000E+01
  0.100000000000E+01
  0.100000000000E+01
  0.100000000000E+01
  0.100000000000E+01
  0.100000000000E+01
  0.100000000000E+01
  0.100000000000E+01
  0.100000000000E+01
  0.100000000000E+01
  0.100000000000E+01
  0.100000000000E+01
  0.100000000000E+01
  0.100000000000E+01
  0.100000000000E+01
  0.100000000000E+01
  0.100000000000E+01
  0.100000000000E+01
  0.100000000000E+01
  0.100000000000E+01
  0.100000000000E+01
  0.100000000000E+01
  0.100000000000E+01
  0.100000000000E+01
  0.100000000000E+01
  0.100000000000E+01
  0.100000000000E+01
  0.100000000000E+01
  0.100000000000E+01
  0.100000000000E+01
  0.100000000000E+01
  0.100000000000E+01
  0.100000000000E+01
  0.100000000000E+01
  0.100000000000E+01
  0.100000000000E+01
  0.100000000000E+01
  0.100000000000E+01
  0.100000000000E+01
  0.100000000000E+01
  0.100000000000E+01
  0.100000000000E+01
  0.100000000000E+01
  0.100000000000E+01
  0.100000000000E+01
  0.100000000000E+01
  0.100000000000E+01
  0.100000000000E+01
  0.100000000000E+01
  0.100000000000E+01
  0.100000000000E+01
  0.100000000000E+01
  0.100000000000E+01
  0.100000000000E+01
  0.100000000000E+01
  0.100000000000E+01
  0.100000000000E+01
  0.100000000000E+01
  0.100000000000E+01
  0.100000000000E+01
  0.100000000000E+01
  0.100000000000E+01
  0.100000000000E+01
  0.100000000000E+01
  0.100000000000E+01
  0.100000000000E+01
  0.100000000000E+01
  0.100000000000E+01
  0.100000000000E+01
  0.100000000000E+01
  0.100000000000E+01
  0.100000000000E+01
  0.100000000000E+01
  0.100000000000E+01
  0.100000000000E+01
  0.100000000000E+01
  0.100000000000E+01
  0.100000000000E+01
  0.100000000000E+01
  0.100000000000E+01
  0.100000000000E+01
  0.100000000000E+01
  0.100000000000E+01
  0.100000000000E+01
  0.100000000000E+01
  0.100000000000E+01
  0.100000000000E+01
  0.100000000000E+01
  0.100000000000E+01
  0.100000000000E+01
  0.100000000000E+01
  0.100000000000E+01
  0.100000000000E+01
  0.100000000000E+01
  0.100000000000E+01
  0.100000000000E+01
  0.100000000000E+01
  0.100000000000E+01
  0.100000000000E+01
  0.100000000000E+01
  0.100000000000E+01
  0.100000000000E+01
  0.100000000000E+01
  0.100000000000E+01
  0.100000000000E+01
  0.100000000000E+01
  0.100000000000E+01
  0.100000000000E+01
  0.100000000000E+01
  0.100000000000E+01
  0.100000000000E+01
  0.100000000000E+01
  0.100000000000E+01
  0.100000000000E+01
  0.100000000000E+01
  0.100000000000E+01
  0.100000000000E+01
VECTORS v float
  0.204346546949E+03 -0.474747781226E+02  0.269082235125E+02
  0.238571403263E+03 -0.572979573782E+02  0.316149737752E+02
  0.186176022337E+03 -0.490231722179E+01  0.206058180688E+02
  0.181983350743E+03 -0.751795216637E+01  0.204357406632E+02
  0.175881762351E+03 -0.141633401719E+01  0.172687855720E+02
  0.174451110180E+03 -0.378810380606E+01  0.173604540781E+02
  0.167532413405E+03  0.313060922243E+01  0.339722222741E+01
  0.170601744430E+03 -0.819563572748E+01  0.369469607937E+01
  0.146478956321E+03  0.159271755221E+02 -0.181111205468E+02
  0.154728647835E+03 -0.654569608483E+01 -0.223731779979E+02
  0.882279162571E+02  0.599550615159E+02 -0.163883847134E+02
  0.917231522916E+02  0.521576171241E+02 -0.229341966704E+02
  0.158339634720E+03 -0.144588653039E+02  0.100162799949E+03
  0.138406892275E+03  0.300086469632E+02  0.628331364118E+02
  0.195862082340E+03 -0.274465575554E+02  0.309790344661E+02
  0.187768712251E+03 -0.539951938715E+01  0.267977394572E+02
  0.187034888015E+03 -0.466568471179E+01 -0.396132821776E+01
  0.188912871590E+03 -0.115956973262E+02 -0.414334326434E+01
  0.174398772208E+03  0.291844911775E+01 -0.167021358903E+02
  0.167281623223E+03 -0.888053638781E+01 -0.171581504120E+02
  0.149167592785E+03  0.923358352683E+01 -0.150904144055E+02
  0.137306014616E+03  0.183364149348E+01 -0.146092879542E+02
  0.750763641825E+02  0.640635997960E+02 -0.117672533443E+01
  0.999884414209E+02  0.568839482152E+02 -0.460586461805E+01
  0.196912898946E+03 -0.361679960130E+02  0.249057151824E+02
  0.204408671575E+03 -0.407538514598E+02  0.261966987133E+02
  0.180899380433E+03 -0.172444246252E+02  0.213677613969E+02
  0.186027556621E+03 -0.178171312279E+02  0.219825450846E+02
  0.176699751085E+03 -0.848928239485E+01  0.180373662907E+02
  0.175811468742E+03 -0.889627701860E+01  0.179904879537E+02
  0.170603668227E+03 -0.368846499414E+01  0.360159770952E+01
  0.173181641432E+03 -0.100262413490E+02  0.378583833960E+01
  0.155006117167E+03  0.814929842041E+01 -0.203730740171E+02
  0.157679858081E+03  0.301113206215E+01 -0.214568056135E+02
  0.951012594371E+02  0.655897568245E+02 -0.171063658994E+02
  0.936979814742E+02  0.678346879933E+02 -0.149916778335E+02
  0.170120636631E+03 -0.858796716363E+01  0.103588578776E+03
  0.162772529154E+03  0.316735857684E+01  0.925152750263E+02
  0.199478853673E+03 -0.335389686090E+02  0.323259742789E+02
  0.195877715633E+03 -0.266186095554E+02  0.308663437752E+02
  0.184562984935E+03 -0.153038507058E+02 -0.413008346402E+01
  0.187027760915E+03 -0.213633390592E+02 -0.430623015981E+01
  0.167349246363E+03 -0.168475977171E+01 -0.164638656521E+02
  0.161704731945E+03 -0.427097108901E+01 -0.161659905986E+02
  0.137513930522E+03  0.199199436431E+02 -0.126812775481E+02
  0.138631541940E+03  0.197951303623E+02 -0.128152585346E+02
  0.100005794533E+03  0.584211006923E+02 -0.444346487747E+01
  0.105989156563E+03  0.547563209304E+02 -0.547441069155E+01
  0.194569221899E+03 -0.332357553202E+02  0.243419718245E+02
  0.196906073925E+03 -0.350238646417E+02  0.247827298600E+02
  0.178918658079E+03 -0.170363430567E+02  0.211317102642E+02
  0.180891230114E+03 -0.179534121584E+02  0.214433395648E+02
  0.175593485635E+03 -0.126556438080E+02  0.183354210857E+02
  0.176659391009E+03 -0.127839986577E+02  0.184517419543E+02
  0.173181948624E+03 -0.930655048307E+01  0.377097238783E+01
  0.173843112838E+03 -0.105460614880E+02  0.381024873562E+01
  0.157728153893E+03  0.556891361125E+01 -0.211086712256E+02
  0.158794741724E+03  0.391654523277E+01 -0.214858545867E+02
  0.939348365808E+02  0.687764780657E+02 -0.145830609194E+02
  0.935291406495E+02  0.693214377670E+02 -0.140320119706E+02