# vtk DataFile Version 3.0
MachLine results file. Generated by MachLine, USU AeroLab (c) 2022.
ASCII
DATASET POLYDATA
POINTS                3261 float
  0.000000000000E+00  0.000000000000E+00  0.000000000000E+00
  0.138131193817E-01  0.239259991795E-01  0.000000000000E+00
  0.184377916157E-01  0.000000000000E+00 -0.191644169390E-01
  0.184377916157E-01  0.000000000000E+00  0.191644169390E-01
  0.276262387633E-01  0.478519983590E-01  0.000000000000E+00
  0.320895873010E-01  0.239259991795E-01 -0.189967341721E-01
  0.320895873010E-01  0.239259991795E-01  0.189967341721E-01
  0.414393581450E-01  0.717779994011E-01  0.000000000000E+00
  0.457413829863E-01  0.478519983590E-01 -0.188290514052E-01
  0.457413829863E-01  0.478519983590E-01  0.188290514052E-01
  0.460614785552E-01  0.000000000000E+00 -0.248102936894E-01
  0.460614785552E-01  0.000000000000E+00  0.248102936894E-01
  0.552524775267E-01  0.957039967179E-01  0.000000000000E+00
  0.593931749463E-01  0.717779994011E-01 -0.186613686383E-01
  0.593931749463E-01  0.717779994011E-01  0.186613686383E-01
  0.594715774059E-01  0.239259991795E-01 -0.245932117105E-01
  0.594715774059E-01  0.239259991795E-01  0.245932117105E-01
  0.690656006336E-01  0.119630001485E+00  0.000000000000E+00
  0.728816688061E-01  0.478519983590E-01 -0.243761278689E-01
  0.728816688061E-01  0.478519983590E-01  0.243761278689E-01
  0.730449706316E-01  0.957039967179E-01 -0.184936858714E-01
  0.730449706316E-01  0.957039967179E-01  0.184936858714E-01
  0.740515887737E-01  0.000000000000E+00 -0.284879114479E-01
  0.740515887737E-01  0.000000000000E+00  0.284879114479E-01
  0.828787162900E-01  0.143555998802E+00  0.000000000000E+00
  0.862917676568E-01  0.717779994011E-01 -0.241590458900E-01
  0.862917676568E-01  0.717779994011E-01  0.241590458900E-01
  0.866967663169E-01  0.119630001485E+00 -0.183260031044E-01
  0.866967663169E-01  0.119630001485E+00  0.183260031044E-01
  0.872167795897E-01  0.239259991795E-01 -0.282386522740E-01
  0.872167795897E-01  0.239259991795E-01  0.282386522740E-01
  0.966918393970E-01  0.167482003570E+00  0.000000000000E+00
  0.997018665075E-01  0.957039967179E-01 -0.239419639111E-01
  0.997018665075E-01  0.957039967179E-01  0.239419639111E-01
  0.100348562002E+00  0.143555998802E+00 -0.181583203375E-01
  0.100348562002E+00  0.143555998802E+00  0.181583203375E-01
  0.100381970406E+00  0.478519983590E-01 -0.279893912375E-01
  0.100381970406E+00  0.478519983590E-01  0.279893912375E-01
  0.102138325572E+00  0.000000000000E+00 -0.313414372504E-01
  0.102138325572E+00  0.000000000000E+00  0.313414372504E-01
  0.110504955053E+00  0.191407993436E+00  0.000000000000E+00
  0.113111965358E+00  0.119630001485E+00 -0.237248819321E-01
  0.113111965358E+00  0.119630001485E+00  0.237248819321E-01
  0.113547168672E+00  0.717779994011E-01 -0.277401320636E-01
  0.113547168672E+00  0.717779994011E-01  0.277401320636E-01
  0.114000357687E+00  0.167482003570E+00 -0.179906394333E-01
  0.114000357687E+00  0.167482003570E+00  0.179906394333E-01
  0.115057766438E+00  0.239259991795E-01 -0.310672093183E-01
  0.115057766438E+00  0.239259991795E-01  0.310672093183E-01
  0.124318078160E+00  0.215333998203E+00  0.000000000000E+00
  0.126522064209E+00  0.143555998802E+00 -0.235077999532E-01
  0.126522064209E+00  0.143555998802E+00  0.235077999532E-01
  0.126712352037E+00  0.957039967179E-01 -0.274908710271E-01
  0.126712352037E+00  0.957039967179E-01  0.274908710271E-01
  0.127652153373E+00  0.191407993436E+00 -0.178229566664E-01
  0.127652153373E+00  0.191407993436E+00  0.178229566664E-01
  0.127977207303E+00  0.478519983590E-01 -0.307929813862E-01
  0.127977207303E+00  0.478519983590E-01  0.307929813862E-01
  0.130280584097E+00  0.000000000000E+00 -0.335864275694E-01
  0.130280584097E+00  0.000000000000E+00  0.335864275694E-01
  0.138131201267E+00  0.239260002971E+00  0.000000000000E+00
  0.139877542853E+00  0.119630001485E+00 -0.272416118532E-01
  0.139877542853E+00  0.119630001485E+00  0.272416118532E-01
  0.139932155609E+00  0.167482003570E+00 -0.232907179743E-01
  0.139932155609E+00  0.167482003570E+00  0.232907179743E-01
  0.140896648169E+00  0.717779994011E-01 -0.305187534541E-01
  0.140896648169E+00  0.717779994011E-01  0.305187534541E-01
  0.141303941607E+00  0.215333998203E+00 -0.176552738994E-01
  0.141303941607E+00  0.215333998203E+00  0.176552738994E-01
  0.142953783274E+00  0.239259991795E-01 -0.332925543189E-01
  0.142953783274E+00  0.239259991795E-01  0.332925543189E-01
  0.151944324374E+00  0.263186007738E+00  0.000000000000E+00
  0.153042748570E+00  0.143555998802E+00 -0.269923508167E-01
  0.153042748570E+00  0.143555998802E+00  0.269923508167E-01
  0.153342247009E+00  0.191407993436E+00 -0.230736359954E-01
  0.153342247009E+00  0.191407993436E+00  0.230736359954E-01
  0.153816103935E+00  0.957039967179E-01 -0.302445273846E-01
  0.153816103935E+00  0.957039967179E-01  0.302445273846E-01
  0.154955744743E+00  0.239260002971E+00 -0.174875911325E-01
  0.154955744743E+00  0.239260002971E+00  0.174875911325E-01
  0.155626997352E+00  0.478519983590E-01 -0.329986847937E-01
  0.155626997352E+00  0.478519983590E-01  0.329986847937E-01
  0.158455848694E+00  0.000000000000E+00 -0.353712737560E-01
  0.158455848694E+00  0.000000000000E+00  0.353712737560E-01
  0.165757432580E+00  0.287111997604E+00  0.000000000000E+00
  0.166207939386E+00  0.167482003570E+00 -0.267430916429E-01
  0.166207939386E+00  0.167482003570E+00  0.267430916429E-01
  0.166735544801E+00  0.119630001485E+00 -0.299702994525E-01
  0.166735544801E+00  0.119630001485E+00  0.299702994525E-01
  0.166752353311E+00  0.215333998203E+00 -0.228565540165E-01
  0.166752353311E+00  0.215333998203E+00  0.228565540165E-01
  0.168300196528E+00  0.717779994011E-01 -0.327048152685E-01
  0.168300196528E+00  0.717779994011E-01  0.327048152685E-01
  0.168607532978E+00  0.263186007738E+00 -0.173199083656E-01
  0.168607532978E+00  0.263186007738E+00  0.173199083656E-01
  0.170882523060E+00  0.239259991795E-01 -0.350617878139E-01
  0.170882523060E+00  0.239259991795E-01  0.350617878139E-01
  0.179373130202E+00  0.191407993436E+00 -0.264938306063E-01
  0.179373130202E+00  0.191407993436E+00  0.264938306063E-01
  0.179570555687E+00  0.311037987471E+00  0.000000000000E+00
  0.179654985666E+00  0.143555998802E+00 -0.296960715204E-01
  0.179654985666E+00  0.143555998802E+00  0.296960715204E-01
  0.180162444711E+00  0.239260002971E+00 -0.226394720376E-01
  0.180162444711E+00  0.239260002971E+00  0.226394720376E-01
  0.180973410606E+00  0.957039967179E-01 -0.324109420180E-01
  0.180973410606E+00  0.957039967179E-01  0.324109420180E-01
  0.182259336114E+00  0.287111997604E+00 -0.171522255987E-01
  0.182259336114E+00  0.287111997604E+00  0.171522255987E-01
  0.183309212327E+00  0.478519983590E-01 -0.347523018718E-01
  0.183309212327E+00  0.478519983590E-01  0.347523018718E-01
  0.186651825905E+00  0.000000000000E+00 -0.367915518582E-01
  0.186651825905E+00  0.000000000000E+00  0.367915518582E-01
  0.192538321018E+00  0.215333998203E+00 -0.262445714325E-01
  0.192538321018E+00  0.215333998203E+00  0.262445714325E-01
  0.192574426532E+00  0.167482003570E+00 -0.294218435884E-01
  0.192574426532E+00  0.167482003570E+00  0.294218435884E-01
  0.193383678794E+00  0.334964007139E+00  0.000000000000E+00
  0.193572536111E+00  0.263186007738E+00 -0.224223900586E-01
  0.193572536111E+00  0.263186007738E+00  0.224223900586E-01
  0.193646609783E+00  0.119630001485E+00 -0.321170724928E-01
  0.193646609783E+00  0.119630001485E+00  0.321170724928E-01
  0.195735886693E+00  0.717779994011E-01 -0.344428122044E-01
  0.195735886693E+00  0.717779994011E-01  0.344428122044E-01
  0.195911124349E+00  0.311037987471E+00 -0.169845428318E-01
  0.195911124349E+00  0.311037987471E+00  0.169845428318E-01
  0.198831796646E+00  0.239259991795E-01 -0.364696383476E-01
  0.198831796646E+00  0.239259991795E-01  0.364696383476E-01
  0.205493867397E+00  0.191407993436E+00 -0.291476156563E-01
  0.205493867397E+00  0.191407993436E+00  0.291476156563E-01
  0.205703511834E+00  0.239260002971E+00 -0.259953103960E-01
  0.205703511834E+00  0.239260002971E+00  0.259953103960E-01
  0.206319823861E+00  0.143555998802E+00 -0.318232029676E-01
  0.206319823861E+00  0.143555998802E+00  0.318232029676E-01
  0.206982642412E+00  0.287111997604E+00 -0.222053080797E-01
  0.206982642412E+00  0.287111997604E+00  0.222053080797E-01
  0.207196801901E+00  0.358889997005E+00  0.000000000000E+00
  0.208162575960E+00  0.957039967179E-01 -0.341333262622E-01
  0.208162575960E+00  0.957039967179E-01  0.341333262622E-01
  0.209562927485E+00  0.334964007139E+00 -0.168168619275E-01
  0.209562927485E+00  0.334964007139E+00  0.168168619275E-01
  0.211011782289E+00  0.478519983590E-01 -0.361477248371E-01
  0.211011782289E+00  0.478519983590E-01  0.361477248371E-01
  0.214861869812E+00  0.000000000000E+00 -0.378986261785E-01
  0.214861869812E+00  0.000000000000E+00  0.378986261785E-01
  0.218413308263E+00  0.215333998203E+00 -0.288733895868E-01
  0.218413308263E+00  0.215333998203E+00  0.288733895868E-01
  0.218868702650E+00  0.263186007738E+00 -0.257460512221E-01
  0.218868702650E+00  0.263186007738E+00  0.257460512221E-01
  0.218993023038E+00  0.167482003570E+00 -0.315293334424E-01
  0.218993023038E+00  0.167482003570E+00  0.315293334424E-01
  0.220392733812E+00  0.311037987471E+00 -0.219882261008E-01
  0.220392733812E+00  0.311037987471E+00  0.219882261008E-01
  0.220589250326E+00  0.119630001485E+00 -0.338238403201E-01
  0.220589250326E+00  0.119630001485E+00  0.338238403201E-01
  0.221009910107E+00  0.382815986872E+00  0.000000000000E+00
  0.223191753030E+00  0.717779994011E-01 -0.358258113265E-01
  0.223191753030E+00  0.717779994011E-01  0.358258113265E-01
  0.223214715719E+00  0.358889997005E+00 -0.166491791606E-01
  0.223214715719E+00  0.358889997005E+00  0.166491791606E-01
  0.226795017719E+00  0.239259991795E-01 -0.375670231879E-01
  0.226795017719E+00  0.239259991795E-01  0.375670231879E-01
[...]
CELL_DATA                6372
SCALARS C_p_ise float 1
LOOKUP_TABLE default
 -0.600181859771E+00
 -0.414766428461E+00
 -0.374898729143E+00
 -0.365253080675E+00
 -0.360240464263E+00
 -0.358118181349E+00
 -0.358978972084E+00
 -0.362373194226E+00
 -0.367251992026E+00
 -0.372193592336E+00
 -0.375595448741E+00
 -0.375948851107E+00
 -0.372050636710E+00
 -0.363181064947E+00
 -0.349212230485E+00
 -0.330605814839E+00
 -0.308326514106E+00
 -0.283668920206E+00
 -0.257982285861E+00
 -0.232412226698E+00
 -0.207518220618E+00
 -0.182850468276E+00
 -0.156631941722E+00
 -0.125450553814E+00
 -0.842641655614E-01
 -0.265360064952E-01
  0.420395203763E-01
 -0.683829052147E+00
 -0.449942206563E+00
 -0.394676007036E+00
 -0.378044873057E+00
 -0.369267020986E+00
 -0.365026089986E+00
 -0.364622288140E+00
 -0.367123454940E+00
 -0.371182634182E+00
 -0.375205581441E+00
 -0.377516244483E+00
 -0.376609646731E+00
 -0.371344695951E+00
 -0.361099318458E+00
 -0.345855106625E+00
 -0.326168743418E+00
 -0.303066622804E+00
 -0.277853694174E+00
 -0.251835609940E+00
 -0.226058622005E+00
 -0.200935336961E+00
 -0.175844251363E+00
 -0.148841465971E+00
 -0.116402422274E+00
 -0.734908422704E-01
 -0.136514734244E-01
  0.576783424902E-01
 -0.740134106779E+00
 -0.479987094354E+00
 -0.413735846864E+00
 -0.391313273434E+00
 -0.379084956739E+00
 -0.372664778844E+00
 -0.370776539878E+00
 -0.372133333190E+00
 -0.375166131340E+00
 -0.378151997987E+00
 -0.379357747729E+00
 -0.377277156588E+00
 -0.370808289409E+00
 -0.359391921175E+00
 -0.343077925474E+00
 -0.322479581495E+00
 -0.298653703872E+00
 -0.272900455239E+00
 -0.246482490041E+00
 -0.220368063032E+00
 -0.194867292933E+00
 -0.169251474627E+00
 -0.141491474119E+00
 -0.108041241026E+00
 -0.639583401092E-01
 -0.305954848707E-02
  0.679693430854E-01
 -0.782010093461E+00
 -0.505056854472E+00
 -0.430946883669E+00
 -0.403954847488E+00
 -0.388767956625E+00
 -0.380316971215E+00
 -0.376932423343E+00
 -0.377076899918E+00
 -0.379021275682E+00
 -0.380949381792E+00
 -0.381086111646E+00
 -0.377922640742E+00
 -0.370382590744E+00
 -0.357947377223E+00
 -0.340709864097E+00
 -0.319316212929E+00
 -0.294836112937E+00
 -0.268558117600E+00
 -0.241707404637E+00
 -0.215194448490E+00
 -0.189262144388E+00
 -0.163122324484E+00
 -0.134720499603E+00
 -0.100554355807E+00
 -0.558480824582E-01
  0.516515115129E-02
  0.748231666387E-01
 -0.815256512717E+00
 -0.526276582181E+00
 -0.446285919621E+00
 -0.415651663156E+00
 -0.397950592733E+00
 -0.387662274794E+00
 -0.382848898722E+00
 -0.381796538027E+00
 -0.382661658940E+00
 -0.383560998191E+00
 -0.382688419687E+00
 -0.378532585395E+00
 -0.370033460980E+00
 -0.356698859992E+00
 -0.338648075740E+00
 -0.316545590844E+00
 -0.291464891953E+00
 -0.264680982090E+00
 -0.237389733454E+00
 -0.210461634146E+00
 -0.184100255403E+00
 -0.157493317835E+00
 -0.128599142370E+00
 -0.939946593269E-01
 -0.490903221085E-01
  0.115377653050E-01
  0.798843420368E-01
 -0.842818913228E+00
 -0.544552966603E+00
 -0.459956497490E+00
 -0.426350543614E+00
 -0.406496749306E+00
 -0.394560084152E+00
 -0.388414196545E+00
 -0.386219402049E+00
 -0.386050060276E+00
 -0.385973963574E+00
 -0.384161959380E+00
 -0.379099839263E+00
 -0.369737945648E+00
 -0.355600529282E+00
 -0.336823193035E+00
 -0.314080026768E+00
 -0.288443854270E+00
 -0.261177810487E+00
 -0.233456795717E+00
 -0.206126694717E+00
 -0.179372168406E+00
 -0.152380569843E+00
 -0.123144529964E+00
 -0.883287259429E-01
 -0.435008599087E-01
  0.165691737336E-01
  0.839192585571E-01
 -0.866361265709E+00
 -0.560534529818E+00
 -0.472185612885E+00
 -0.436093697347E+00
 -0.414374430089E+00
 -0.400958969956E+00
 -0.393583970862E+00
 -0.390318324839E+00
 -0.389175980086E+00
 -0.388188353826E+00
 -0.385509045706E+00
 -0.379620322418E+00
 -0.369478735190E+00
 -0.354618865241E+00
 -0.335185805164E+00
 -0.311858844259E+00
 -0.285708525229E+00
 -0.257989161568E+00
 -0.229862814906E+00
 -0.202162485972E+00
 -0.175068232222E+00
 -0.147780886422E+00
 -0.118334304967E+00
 -0.834710862538E-01
 -0.388671569270E-01
  0.206150291743E-01
  0.870639434214E-01
 -0.886903758542E+00
 -0.574682273617E+00
 -0.483175712788E+00
 -0.444956455055E+00
 -0.421599781070E+00
 -0.406853603003E+00
 -0.398350569796E+00
 -0.394090841939E+00
 -0.392043312913E+00
 -0.390211221012E+00
 -0.386734337291E+00
 -0.380091746716E+00
 -0.369242963278E+00
 -0.353728727512E+00
 -0.333700056441E+00
 -0.309839015481E+00
 -0.283214411678E+00
 -0.255075250416E+00
 -0.226576735231E+00
 -0.198548163534E+00
 -0.171173693877E+00
 -0.143672991577E+00
 -0.114119038070E+00
 -0.793131896930E-01
 -0.349960013569E-01
  0.239325339677E-01
  0.896195053125E-01
 -0.905112015337E+00
 -0.587330432476E+00
 -0.493097195570E+00
 -0.453021794576E+00
 -0.428211295114E+00
 -0.412262191637E+00
 -0.402725568607E+00
 -0.397548433300E+00
 -0.394663501189E+00
 -0.392052628308E+00
 -0.387844135782E+00
 -0.380513195674E+00
 -0.369020732682E+00
 -0.352911388313E+00
 -0.332339913904E+00
 -0.307989899684E+00
 -0.280930260521E+00
 -0.252407653227E+00
 -0.223575182171E+00
 -0.195263897727E+00
 -0.167666625652E+00
 -0.140021865471E+00
 -0.110434427167E+00
 -0.757444283839E-01
 -0.317265270891E-01
  0.267096347895E-01
  0.917435180482E-01
 -0.921444403718E+00
 -0.598727656673E+00
 -0.502091093559E+00
 -0.460370300948E+00
 -0.434255617648E+00
 -0.417214599015E+00
 -0.406730851495E+00
 -0.400708620748E+00
 -0.397051790330E+00
 -0.393724406518E+00
 -0.388844988451E+00
 -0.380884768707E+00
 -0.368805118262E+00
 -0.352152977208E+00
 -0.331085819176E+00
 -0.306289227136E+00
 -0.278833026432E+00
 -0.249964404523E+00
 -0.220837603232E+00
 -0.192288189163E+00
 -0.164518609164E+00
 -0.136784004802E+00
 -0.107211135731E+00
 -0.726630804249E-01
 -0.289291051328E-01
  0.290818937194E-01
  0.935302521461E-01
 -0.936228016153E+00
 -0.609063344404E+00
 -0.510274739932E+00
 -0.467076172954E+00
 -0.439781360281E+00
 -0.421744756619E+00
 -0.410392494319E+00
 -0.403592321316E+00
 -0.399224724299E+00
 -0.395238668091E+00
 -0.389743774621E+00
 -0.381207482202E+00
 -0.368590954585E+00
 -0.351443180707E+00
 -0.329923423292E+00
 -0.304720022066E+00
 -0.276904753250E+00
 -0.247726695679E+00
 -0.218343973401E+00
 -0.189597142543E+00
 -0.161697103121E+00
 -0.133911851821E+00
 -0.104381507014E+00
 -0.699804359614E-01
 -0.265008143314E-01
  0.311600415184E-01
  0.951877843314E-01
 -0.949706470659E+00
 -0.618485461056E+00
 -0.517745607006E+00
 -0.473206157724E+00
 -0.444836077215E+00
 -0.425887753930E+00
 -0.413737167246E+00
 -0.406220961620E+00
 -0.401199123444E+00
 -0.396607220012E+00
 -0.390547109908E+00
 -0.381482892595E+00
 -0.368375122869E+00
 -0.350774064546E+00
 -0.328841469786E+00
 -0.303268465785E+00
 -0.275129832652E+00
 -0.245677592718E+00
 -0.216073846511E+00
 -0.187164461077E+00
 -0.159167252873E+00
 -0.131357709464E+00
 -0.101883320351E+00
 -0.676220603819E-01
 -0.243614100750E-01
  0.330227812575E-01
  0.967964122740E-01
 -0.962066361425E+00
 -0.627112131449E+00
 -0.524585881298E+00
 -0.478819447282E+00
 -0.449463600122E+00
 -0.429677336205E+00
 -0.416791486816E+00
 -0.408615319298E+00
 -0.402990694713E+00
 -0.397841228072E+00
 -0.391261677822E+00
 -0.381712925198E+00
 -0.368155000515E+00
 -0.350139544962E+00
 -0.327830741535E+00
 -0.301922837300E+00
 -0.273493919306E+00
 -0.243799821060E+00
 -0.214006259747E+00
 -0.184962984420E+00
 -0.156893233539E+00
 -0.129076199377E+00
 -0.996615195079E-01
 -0.655266930872E-01
 -0.224505600873E-01
  0.347067984813E-01
  0.982193445611E-01
 -0.973453428806E+00
 -0.635039291778E+00
 -0.530865186908E+00
 -0.483968604607E+00
 -0.453704018366E+00
 -0.433144636716E+00
 -0.419580370669E+00
 -0.410795118854E+00
 -0.404614220052E+00
 -0.398951029437E+00
 -0.391893279790E+00
 -0.381899379607E+00
 -0.367928935217E+00
 -0.349534351283E+00
 -0.326882905427E+00
 -0.300672133693E+00
 -0.271983478926E+00
 -0.242075999238E+00
 -0.212119093142E+00
 -0.182965474865E+00
 -0.154840675134E+00
 -0.127025360415E+00
 -0.976687114808E-01
 -0.636445090883E-01
 -0.207219589562E-01
  0.362482326811E-01
  0.995292772592E-01
 -0.983984258519E+00
 -0.642346354383E+00
 -0.536642833929E+00
 -0.488698887215E+00
 -0.457593343474E+00
 -0.436318695108E+00
 -0.422126439351E+00
 -0.412777957371E+00
 -0.406083286000E+00
 -0.399945729273E+00
 -0.392447428204E+00
 -0.382044045111E+00
 -0.367694797811E+00
 -0.348953581651E+00
 -0.325990286251E+00
 -0.299505500992E+00
 -0.270584359461E+00
 -0.240488742024E+00
 -0.210390429155E+00
 -0.181144519435E+00
 -0.152977029347E+00
 -0.125168049276E+00
 -0.958644797188E-01
 -0.619346019435E-01
 -0.191380486057E-01
  0.376900891880E-01
  0.100821450708E+00
 -0.993755052251E+00
 -0.649099288211E+00
 -0.541969212347E+00
 -0.493050890277E+00
 -0.461163777647E+00
 -0.439225084923E+00
 -0.424450520793E+00
 -0.414579918157E+00
 -0.407409423777E+00
 -0.400833465186E+00
 -0.392928564534E+00
 -0.382148049757E+00
 -0.367450802160E+00
 -0.348392145099E+00
 -0.325144811584E+00
 -0.298412145948E+00
 -0.269282361731E+00
 -0.239020131756E+00
 -0.208798639922E+00
 -0.179474086216E+00
 -0.151272290330E+00
 -0.123471287205E+00
 -0.942144768614E-01
 -0.603641449150E-01
 -0.176690276332E-01
  0.390647448903E-01
  0.102218525258E+00
 -0.100284488456E+01
 -0.655354434953E+00
 -0.546888067359E+00
 -0.497059370991E+00
 -0.464443670728E+00
 -0.441886788581E+00
 -0.426570575878E+00
 -0.416215067715E+00
 -0.408603300515E+00
 -0.401621040638E+00
 -0.393340333487E+00
 -0.382211746626E+00
 -0.367194237506E+00
 -0.347844666365E+00
 -0.324338118940E+00
 -0.297380739373E+00
 -0.268063107330E+00
 -0.237652072121E+00
 -0.207322323670E+00
 -0.177929765174E+00
 -0.149698934318E+00
 -0.121905828827E+00
 -0.926900300257E-01
 -0.589077737347E-01
 -0.162972083689E-01
  0.403608263846E-01
  0.103553765792E+00
 -0.101131959847E+01
 -0.661158346911E+00
 -0.551436819832E+00
 -0.500755078645E+00
 -0.467457800302E+00
 -0.444323617267E+00
 -0.428502738557E+00
 -0.417695528709E+00
 -0.409673429404E+00
 -0.402314219321E+00
 -0.393684954684E+00
 -0.382234681060E+00
 -0.366921948955E+00
 -0.347304988397E+00
 -0.323561319613E+00
 -0.296399296291E+00
 -0.266911664324E+00
 -0.236367129218E+00
 -0.205940879964E+00
 -0.176488135952E+00
 -0.148232030629E+00
 -0.120446327834E+00
 -0.912671637604E-01
 -0.575457344650E-01
 -0.150148004947E-01
  0.415484112729E-01
  0.104578553060E+00
 -0.101923454758E+01
 -0.666551971460E+00
 -0.555648015658E+00
 -0.504164048905E+00
 -0.470227778033E+00
 -0.446553294858E+00
 -0.430260517432E+00
 -0.419031787834E+00
 -0.410626921597E+00
 -0.402916931059E+00
 -0.393964034145E+00
 -0.382215333093E+00
 -0.366629571561E+00
 -0.346766332159E+00
 -0.322804837876E+00
 -0.295455532429E+00
 -0.265813279311E+00
 -0.235147782596E+00
 -0.204634489936E+00
 -0.175127703640E+00
 -0.146849053493E+00
 -0.119070449187E+00
 -0.899251393049E-01
 -0.562621342556E-01
 -0.138141394458E-01
  0.426373780225E-01
  0.105591394709E+00
 -0.102663711455E+01
 -0.671569523857E+00
 -0.559549221878E+00
 -0.507309644037E+00
 -0.472772371092E+00
 -0.448590544853E+00
 -0.431855241437E+00
 -0.420232157740E+00
 -0.411469647723E+00
 -0.403431864365E+00
 -0.394177455372E+00
 -0.382151126563E+00
 -0.366312074966E+00
 -0.346220933678E+00
 -0.322058282105E+00
 -0.294536736529E+00
 -0.264752769312E+00
 -0.233976818427E+00
 -0.203383809916E+00
 -0.173828000810E+00
 -0.145529369536E+00
 -0.117757861339E+00
 -0.886454537281E-01
 -0.550414064130E-01
 -0.126831011535E-01
  0.436280349845E-01
  0.106297944002E+00
 -0.103356641734E+01
 -0.676240942840E+00
 -0.563164363875E+00
 -0.510210946515E+00
 -0.475107194719E+00
 -0.450447908235E+00
 -0.433296756453E+00
 -0.421302998408E+00
 -0.412205253151E+00
 -0.403860534127E+00
 -0.394323719189E+00
 -0.382038336093E+00
 -0.365963202962E+00
 -0.345659887494E+00
 -0.321310588881E+00
 -0.293629694740E+00
 -0.263714803763E+00
 -0.232836717455E+00
 -0.202170599502E+00
 -0.172569820288E+00
 -0.144253215930E+00
 -0.116489513638E+00
 -0.874103700409E-01
 -0.538664132237E-01
 -0.116022657707E-01
  0.445557043619E-01
  0.106904718639E+00
 -0.104005696606E+01
 -0.680590870652E+00
 -0.566513683791E+00
 -0.512884757151E+00
 -0.477245538418E+00
 -0.452135459146E+00
 -0.434592382854E+00
 -0.422249433074E+00
 -0.412835674232E+00
 -0.404202375685E+00
 -0.394400417671E+00
 -0.381871752308E+00
 -0.365575380477E+00
 -0.345073665600E+00
 -0.320550080333E+00
 -0.292720478509E+00
 -0.262683600422E+00
 -0.231710694758E+00
 -0.200976805768E+00
 -0.171334475266E+00
 -0.143001952300E+00
 -0.115247097714E+00
 -0.862017308649E-01
 -0.527179698930E-01
 -0.105440780465E-01
  0.454876422158E-01
  0.107682651253E+00
 -0.104613728485E+01
 -0.684640235617E+00
 -0.569614168964E+00
 -0.515344471901E+00
 -0.479197973902E+00
 -0.453661527613E+00
 -0.435747197078E+00
 -0.423074239358E+00
 -0.413361738051E+00
 -0.404455403821E+00
 -0.394403052518E+00
 -0.381644957699E+00
 -0.365139960038E+00
 -0.344451279224E+00
 -0.319763849193E+00
 -0.291794595260E+00
 -0.261643163370E+00
 -0.230581470365E+00
 -0.199784212935E+00
 -0.170103787756E+00
 -0.141757311971E+00
 -0.114012506280E+00
 -0.850011652845E-01
 -0.515758392918E-01
 -0.948392863435E-02
  0.464513929665E-01
  0.108572666874E+00
 -0.105183023544E+01
 -0.688407358451E+00
 -0.572479729179E+00
 -0.517601420510E+00
 -0.480973281762E+00
 -0.455031706985E+00
 -0.436764875418E+00
 -0.423778251386E+00
 -0.413782030918E+00
 -0.404616346342E+00
 -0.394325923724E+00
 -0.381349842740E+00
 -0.364646865539E+00
 -0.343780871147E+00
 -0.318938089399E+00
 -0.290836778125E+00
 -0.260577093228E+00
 -0.229431532054E+00
 -0.198574961870E+00
 -0.168859306171E+00
 -0.140501287820E+00
 -0.112767656827E+00
 -0.837907976918E-01
 -0.504223516797E-01
 -0.840770775739E-02
  0.474394097976E-01
  0.109511145644E+00
 -0.105715535916E+01
 -0.691906178034E+00
 -0.575121804684E+00
 -0.519664225446E+00
 -0.482577275353E+00
 -0.456249781338E+00
 -0.437646862154E+00
 -0.424360677421E+00
 -0.414093346575E+00
 -0.404679653434E+00
 -0.394161486390E+00
 -0.380976817111E+00
 -0.364084389665E+00
 -0.343049066047E+00
 -0.318057947212E+00
 -0.289830402520E+00
 -0.259467873497E+00
 -0.228242917438E+00
 -0.197330740889E+00
 -0.167582591218E+00
 -0.139215046203E+00
 -0.111494729453E+00
 -0.825534398405E-01
 -0.492424343645E-01
 -0.730802381453E-02
  0.484280385707E-01
  0.110314300923E+00
 -0.106212860679E+01
 -0.695148353259E+00
 -0.577548703986E+00
 -0.521538871192E+00
 -0.484013915507E+00
 -0.457317187550E+00
 -0.438392319462E+00
 -0.424818715756E+00
 -0.414290593993E+00
 -0.404637953497E+00
 -0.393900259138E+00
 -0.380514427973E+00
 -0.363439315018E+00
 -0.342240685390E+00
 -0.317106775510E+00
 -0.288758188197E+00
 -0.258297129537E+00
 -0.226996710525E+00
 -0.196032191730E+00
 -0.166254788452E+00
 -0.137880291471E+00
 -0.110175816101E+00
 -0.812722012069E-01
 -0.480213604957E-01
 -0.617412410671E-02
  0.494281607354E-01
  0.111026171762E+00
 -0.106676022576E+01
 -0.698141186279E+00
 -0.579766934360E+00
 -0.523229185329E+00
 -0.485284729370E+00
 -0.458233638276E+00
 -0.438998509895E+00
 -0.425147098896E+00
 -0.414366432615E+00
 -0.404481869485E+00
 -0.393530734726E+00
 -0.379949182130E+00
 -0.362696401762E+00
 -0.341339000804E+00
 -0.316066556407E+00
 -0.287601008964E+00
 -0.257045249282E+00
 -0.225672896834E+00
 -0.194659521092E+00
 -0.164856189309E+00
 -0.136478270191E+00
 -0.108792697026E+00
 -0.799300566308E-01
 -0.467431993492E-01
 -0.498546165535E-02
  0.504948522942E-01
  0.111917137202E+00
 -0.107105801531E+01
 -0.700891354291E+00
 -0.581779379938E+00
 -0.524736790416E+00
 -0.486389067853E+00
 -0.458995665772E+00
 -0.439460255320E+00
 -0.425338610148E+00
 -0.414311114317E+00
 -0.404199554367E+00
 -0.393038955206E+00
 -0.379265212869E+00
 -0.361837948112E+00
 -0.340325008509E+00
 -0.314917308478E+00
 -0.286337908530E+00
 -0.255690926470E+00
 -0.224250282511E+00
 -0.193191658455E+00
 -0.163366270131E+00
 -0.134989291109E+00
 -0.107326825240E+00
 -0.785094766489E-01
 -0.453896703236E-01
 -0.371883023286E-02
  0.516651073951E-01
  0.113030571606E+00
 -0.107502716101E+01
 -0.703400844463E+00
 -0.583586987193E+00
 -0.526060320180E+00
 -0.487323624198E+00
 -0.459598288346E+00
 -0.439769666641E+00
 -0.425383021290E+00
 -0.414112326006E+00
 -0.403776281314E+00
 -0.392408171677E+00
 -0.378443768930E+00
 -0.360843654545E+00
 -0.339176973982E+00
 -0.313636334065E+00
 -0.284945822758E+00
 -0.254210677767E+00
 -0.222705595045E+00
 -0.191605991508E+00
 -0.161763383869E+00
 -0.133392649680E+00
 -0.105758756268E+00
 -0.769922352152E-01
 -0.439438941810E-01
 -0.235921953707E-02
  0.529385123743E-01
  0.114263862521E+00
 -0.107866720802E+01
 -0.705670030120E+00
 -0.585188061230E+00
 -0.527196061669E+00
 -0.488082644158E+00
 -0.460033221578E+00
 -0.439916209561E+00
 -0.425267252964E+00
 -0.413754676664E+00
 -0.403194159052E+00
 -0.391618258524E+00
 -0.377462858510E+00
 -0.359689905439E+00
 -0.337870310265E+00
 -0.312198092670E+00
 -0.283398862647E+00
 -0.252579022923E+00
 -0.221013675282E+00
 -0.189878506431E+00
 -0.160024629549E+00
 -0.131666646682E+00
 -0.104068801266E+00
 -0.753608118935E-01
 -0.423917179380E-01
 -0.901847967961E-03
  0.542969854516E-01
  0.115574262669E+00
 -0.108197417494E+01
 -0.707695266106E+00
 -0.586578097258E+00
 -0.528137475637E+00
 -0.488657146182E+00
 -0.460289117762E+00
 -0.439885853123E+00
 -0.424974726479E+00
 -0.413218758943E+00
 -0.402431371277E+00
 -0.390645085295E+00
 -0.376296423914E+00
 -0.358349172131E+00
 -0.336376241298E+00
 -0.310573630802E+00
 -0.281668250907E+00
 -0.250767326262E+00
 -0.219147044375E+00
 -0.187983035528E+00
 -0.158125249647E+00
 -0.129788409020E+00
 -0.102236572619E+00
 -0.735979078824E-01
 -0.407213138512E-01
  0.653865150972E-03
  0.557134960946E-01
  0.116801155616E+00
 -0.108494098769E+01
 -0.709469923992E+00
 -0.587749034825E+00
 -0.528874732541E+00
 -0.489034780881E+00
 -0.460350873365E+00
 -0.439660907551E+00
 -0.424484412345E+00
 -0.412480698711E+00
 -0.401461306952E+00
 -0.389459595399E+00
 -0.374913600863E+00
 -0.356789183308E+00
 -0.334661768175E+00
 -0.308729565346E+00
 -0.279720947565E+00
 -0.248743877242E+00
 -0.217075594336E+00
 -0.185890474250E+00
 -0.156038447850E+00
 -0.127734041698E+00
 -0.100240335692E+00
 -0.716858215815E-01
 -0.389199640727E-01
  0.231351224787E-02
  0.571861827543E-01
  0.118001936849E+00
 -0.108755444912E+01
 -0.710983758125E+00
 -0.588689781650E+00
 -0.529394198458E+00
 -0.489199570576E+00
 -0.460199263309E+00
 -0.439218612967E+00
 -0.423770344725E+00
 -0.411510933791E+00
 -0.400251531636E+00
 -0.388026790144E+00
 -0.373277317033E+00
 -0.354971703981E+00
 -0.332688404800E+00
 -0.306627736138E+00
 -0.277519939782E+00
 -0.246473528826E+00
 -0.214765271190E+00
 -0.183569840861E+00
 -0.153735786889E+00
 -0.125477332236E+00
 -0.980573131227E-01
 -0.696046968991E-01
 -0.369711160701E-01
  0.409316100982E-02
  0.587402019910E-01
  0.119221629448E+00
 -0.108979812997E+01
 -0.712222712617E+00
 -0.589384906117E+00
 -0.529678460764E+00
 -0.489130204139E+00
 -0.459809651643E+00
 -0.438530316115E+00
 -0.422799772962E+00
 -0.410272879683E+00
 -0.398761968916E+00
 -0.386304054999E+00
 -0.371343076251E+00
 -0.352851536346E+00
 -0.330411026889E+00
 -0.304224331611E+00
 -0.275023052973E+00
 -0.243916176340E+00
 -0.212179318784E+00
 -0.180986628782E+00
 -0.151186131419E+00
 -0.122989998171E+00
 -0.956621810406E-01
 -0.673315865028E-01
 -0.348522539648E-01
  0.601837910744E-02
  0.604121332125E-01
  0.120490983318E+00
 -0.109164890483E+01
 -0.713168652892E+00
 -0.589814707723E+00
 -0.529704323451E+00
 -0.488800043508E+00
 -0.459150505727E+00
 -0.437559438111E+00
 -0.421531430731E+00
 -0.408721067698E+00
 -0.396943229525E+00
 -0.384239094648E+00
 -0.369057268680E+00
 -0.350374831973E+00
 -0.327777012143E+00
 -0.301468735741E+00
 -0.272182533482E+00
 -0.241026947066E+00
 -0.209276702758E+00
 -0.178103738503E+00
 -0.148355007084E+00
 -0.120241635602E+00
 -0.930267820100E-01
 -0.648400411607E-01
 -0.325364240149E-01
  0.812328530632E-02
  0.622659778392E-01
  0.122040207822E+00
 -0.109307366944E+01
 -0.713796079335E+00
 -0.589953255500E+00