# vtk DataFile Version 3.0
MachLine results file. Generated by MachLine, USU AeroLab (c) 2022.
ASCII
DATASET POLYDATA
POINTS                3261 float
  0.000000000000E+00  0.000000000000E+00  0.000000000000E+00
  0.138131193817E-01  0.239259991795E-01  0.000000000000E+00
  0.184377916157E-01  0.000000000000E+00 -0.191644169390E-01
  0.184377916157E-01  0.000000000000E+00  0.191644169390E-01
  0.276262387633E-01  0.478519983590E-01  0.000000000000E+00
  0.320895873010E-01  0.239259991795E-01 -0.189967341721E-01
  0.320895873010E-01  0.239259991795E-01  0.189967341721E-01
  0.414393581450E-01  0.717779994011E-01  0.000000000000E+00
  0.457413829863E-01  0.478519983590E-01 -0.188290514052E-01
  0.457413829863E-01  0.478519983590E-01  0.188290514052E-01
  0.460614785552E-01  0.000000000000E+00 -0.248102936894E-01
  0.460614785552E-01  0.000000000000E+00  0.248102936894E-01
  0.552524775267E-01  0.957039967179E-01  0.000000000000E+00
  0.593931749463E-01  0.717779994011E-01 -0.186613686383E-01
  0.593931749463E-01  0.717779994011E-01  0.186613686383E-01
  0.594715774059E-01  0.239259991795E-01 -0.245932117105E-01
  0.594715774059E-01  0.239259991795E-01  0.245932117105E-01
  0.690656006336E-01  0.119630001485E+00  0.000000000000E+00
  0.728816688061E-01  0.478519983590E-01 -0.243761278689E-01
  0.728816688061E-01  0.478519983590E-01  0.243761278689E-01
  0.730449706316E-01  0.957039967179E-01 -0.184936858714E-01
  0.730449706316E-01  0.957039967179E-01  0.184936858714E-01
  0.740515887737E-01  0.000000000000E+00 -0.284879114479E-01
  0.740515887737E-01  0.000000000000E+00  0.284879114479E-01
  0.828787162900E-01  0.143555998802E+00  0.000000000000E+00
  0.862917676568E-01  0.717779994011E-01 -0.241590458900E-01
  0.862917676568E-01  0.717779994011E-01  0.241590458900E-01
  0.866967663169E-01  0.119630001485E+00 -0.183260031044E-01
  0.866967663169E-01  0.119630001485E+00  0.183260031044E-01
  0.872167795897E-01  0.239259991795E-01 -0.282386522740E-01
  0.872167795897E-01  0.239259991795E-01  0.282386522740E-01
  0.966918393970E-01  0.167482003570E+00  0.000000000000E+00
  0.997018665075E-01  0.957039967179E-01 -0.239419639111E-01
  0.997018665075E-01  0.957039967179E-01  0.239419639111E-01
  0.100348562002E+00  0.143555998802E+00 -0.181583203375E-01
  0.100348562002E+00  0.143555998802E+00  0.181583203375E-01
  0.100381970406E+00  0.478519983590E-01 -0.279893912375E-01
  0.100381970406E+00  0.478519983590E-01  0.279893912375E-01
  0.102138325572E+00  0.000000000000E+00 -0.313414372504E-01
  0.102138325572E+00  0.000000000000E+00  0.313414372504E-01
  0.110504955053E+00  0.191407993436E+00  0.000000000000E+00
  0.113111965358E+00  0.119630001485E+00 -0.237248819321E-01
  0.113111965358E+00  0.119630001485E+00  0.237248819321E-01
  0.113547168672E+00  0.717779994011E-01 -0.277401320636E-01
  0.113547168672E+00  0.717779994011E-01  0.277401320636E-01
  0.114000357687E+00  0.167482003570E+00 -0.179906394333E-01
  0.114000357687E+00  0.167482003570E+00  0.179906394333E-01
  0.115057766438E+00  0.239259991795E-01 -0.310672093183E-01
  0.115057766438E+00  0.239259991795E-01  0.310672093183E-01
  0.124318078160E+00  0.215333998203E+00  0.000000000000E+00
  0.126522064209E+00  0.143555998802E+00 -0.235077999532E-01
  0.126522064209E+00  0.143555998802E+00  0.235077999532E-01
  0.126712352037E+00  0.957039967179E-01 -0.274908710271E-01
  0.126712352037E+00  0.957039967179E-01  0.274908710271E-01
  0.127652153373E+00  0.191407993436E+00 -0.178229566664E-01
  0.127652153373E+00  0.191407993436E+00  0.178229566664E-01
  0.127977207303E+00  0.478519983590E-01 -0.307929813862E-01
  0.127977207303E+00  0.478519983590E-01  0.307929813862E-01
  0.130280584097E+00  0.000000000000E+00 -0.335864275694E-01
  0.130280584097E+00  0.000000000000E+00  0.335864275694E-01
  0.138131201267E+00  0.239260002971E+00  0.000000000000E+00
  0.139877542853E+00  0.119630001485E+00 -0.272416118532E-01
  0.139877542853E+00  0.119630001485E+00  0.272416118532E-01
  0.139932155609E+00  0.167482003570E+00 -0.232907179743E-01
  0.139932155609E+00  0.167482003570E+00  0.232907179743E-01
  0.140896648169E+00  0.717779994011E-01 -0.305187534541E-01
  0.140896648169E+00  0.717779994011E-01  0.305187534541E-01
  0.141303941607E+00  0.215333998203E+00 -0.176552738994E-01
  0.141303941607E+00  0.215333998203E+00  0.176552738994E-01
  0.142953783274E+00  0.239259991795E-01 -0.332925543189E-01
  0.142953783274E+00  0.239259991795E-01  0.332925543189E-01
  0.151944324374E+00  0.263186007738E+00  0.000000000000E+00
  0.153042748570E+00  0.143555998802E+00 -0.269923508167E-01
  0.153042748570E+00  0.143555998802E+00  0.269923508167E-01
  0.153342247009E+00  0.191407993436E+00 -0.230736359954E-01
  0.153342247009E+00  0.191407993436E+00  0.230736359954E-01
  0.153816103935E+00  0.957039967179E-01 -0.302445273846E-01
  0.153816103935E+00  0.957039967179E-01  0.302445273846E-01
  0.154955744743E+00  0.239260002971E+00 -0.174875911325E-01
  0.154955744743E+00  0.239260002971E+00  0.174875911325E-01
  0.155626997352E+00  0.478519983590E-01 -0.329986847937E-01
  0.155626997352E+00  0.478519983590E-01  0.329986847937E-01
  0.158455848694E+00  0.000000000000E+00 -0.353712737560E-01
  0.158455848694E+00  0.000000000000E+00  0.353712737560E-01
  0.165757432580E+00  0.287111997604E+00  0.000000000000E+00
  0.166207939386E+00  0.167482003570E+00 -0.267430916429E-01
  0.166207939386E+00  0.167482003570E+00  0.267430916429E-01
  0.166735544801E+00  0.119630001485E+00 -0.299702994525E-01
  0.166735544801E+00  0.119630001485E+00  0.299702994525E-01
  0.166752353311E+00  0.215333998203E+00 -0.228565540165E-01
  0.166752353311E+00  0.215333998203E+00  0.228565540165E-01
  0.168300196528E+00  0.717779994011E-01 -0.327048152685E-01
  0.168300196528E+00  0.717779994011E-01  0.327048152685E-01
  0.168607532978E+00  0.263186007738E+00 -0.173199083656E-01
  0.168607532978E+00  0.263186007738E+00  0.173199083656E-01
  0.170882523060E+00  0.239259991795E-01 -0.350617878139E-01
  0.170882523060E+00  0.239259991795E-01  0.350617878139E-01
  0.179373130202E+00  0.191407993436E+00 -0.264938306063E-01
  0.179373130202E+00  0.191407993436E+00  0.264938306063E-01
  0.179570555687E+00  0.311037987471E+00  0.000000000000E+00
  0.179654985666E+00  0.143555998802E+00 -0.296960715204E-01
  0.179654985666E+00  0.143555998802E+00  0.296960715204E-01
  0.180162444711E+00  0.239260002971E+00 -0.226394720376E-01
  0.180162444711E+00  0.239260002971E+00  0.226394720376E-01
  0.180973410606E+00  0.957039967179E-01 -0.324109420180E-01
  0.180973410606E+00  0.957039967179E-01  0.324109420180E-01
  0.182259336114E+00  0.287111997604E+00 -0.171522255987E-01
  0.182259336114E+00  0.287111997604E+00  0.171522255987E-01
  0.183309212327E+00  0.478519983590E-01 -0.347523018718E-01
  0.183309212327E+00  0.478519983590E-01  0.347523018718E-01
  0.186651825905E+00  0.000000000000E+00 -0.367915518582E-01
  0.186651825905E+00  0.000000000000E+00  0.367915518582E-01
  0.192538321018E+00  0.215333998203E+00 -0.262445714325E-01
  0.192538321018E+00  0.215333998203E+00  0.262445714325E-01
  0.192574426532E+00  0.167482003570E+00 -0.294218435884E-01
  0.192574426532E+00  0.167482003570E+00  0.294218435884E-01
  0.193383678794E+00  0.334964007139E+00  0.000000000000E+00
  0.193572536111E+00  0.263186007738E+00 -0.224223900586E-01
  0.193572536111E+00  0.263186007738E+00  0.224223900586E-01
  0.193646609783E+00  0.119630001485E+00 -0.321170724928E-01
  0.193646609783E+00  0.119630001485E+00  0.321170724928E-01
  0.195735886693E+00  0.717779994011E-01 -0.344428122044E-01
  0.195735886693E+00  0.717779994011E-01  0.344428122044E-01
  0.195911124349E+00  0.311037987471E+00 -0.169845428318E-01
  0.195911124349E+00  0.311037987471E+00  0.169845428318E-01
  0.198831796646E+00  0.239259991795E-01 -0.364696383476E-01
  0.198831796646E+00  0.239259991795E-01  0.364696383476E-01
  0.205493867397E+00  0.191407993436E+00 -0.291476156563E-01
  0.205493867397E+00  0.191407993436E+00  0.291476156563E-01
  0.205703511834E+00  0.239260002971E+00 -0.259953103960E-01
  0.205703511834E+00  0.239260002971E+00  0.259953103960E-01
  0.206319823861E+00  0.143555998802E+00 -0.318232029676E-01
  0.206319823861E+00  0.143555998802E+00  0.318232029676E-01
  0.206982642412E+00  0.287111997604E+00 -0.222053080797E-01
  0.206982642412E+00  0.287111997604E+00  0.222053080797E-01
  0.207196801901E+00  0.358889997005E+00  0.000000000000E+00
  0.208162575960E+00  0.957039967179E-01 -0.341333262622E-01
  0.208162575960E+00  0.957039967179E-01  0.341333262622E-01
  0.209562927485E+00  0.334964007139E+00 -0.168168619275E-01
  0.209562927485E+00  0.334964007139E+00  0.168168619275E-01
  0.211011782289E+00  0.478519983590E-01 -0.361477248371E-01
  0.211011782289E+00  0.478519983590E-01  0.361477248371E-01
  0.214861869812E+00  0.000000000000E+00 -0.378986261785E-01
  0.214861869812E+00  0.000000000000E+00  0.378986261785E-01
  0.218413308263E+00  0.215333998203E+00 -0.288733895868E-01
  0.218413308263E+00  0.215333998203E+00  0.288733895868E-01
  0.218868702650E+00  0.263186007738E+00 -0.257460512221E-01
  0.218868702650E+00  0.263186007738E+00  0.257460512221E-01
  0.218993023038E+00  0.167482003570E+00 -0.315293334424E-01
  0.218993023038E+00  0.167482003570E+00  0.315293334424E-01
  0.220392733812E+00  0.311037987471E+00 -0.219882261008E-01
  0.220392733812E+00  0.311037987471E+00  0.219882261008E-01
  0.220589250326E+00  0.119630001485E+00 -0.338238403201E-01
  0.220589250326E+00  0.119630001485E+00  0.338238403201E-01
  0.221009910107E+00  0.382815986872E+00  0.000000000000E+00
  0.223191753030E+00  0.717779994011E-01 -0.358258113265E-01
  0.223191753030E+00  0.717779994011E-01  0.358258113265E-01
  0.223214715719E+00  0.358889997005E+00 -0.166491791606E-01
  0.223214715719E+00  0.358889997005E+00  0.166491791606E-01
  0.226795017719E+00  0.239259991795E-01 -0.375670231879E-01
  0.226795017719E+00  0.239259991795E-01  0.375670231879E-01
[...]
CELL_DATA                6372
SCALARS C_p_ise float 1
LOOKUP_TABLE default
 -0.302113782086E+00
 -0.196255452693E+00
 -0.185745522405E+00
 -0.194616577566E+00
 -0.203701302342E+00
 -0.213042365761E+00
 -0.223600492395E+00
 -0.235464025421E+00
 -0.247954834467E+00
 -0.259918209274E+00
 -0.269945767258E+00
 -0.276664043487E+00
 -0.278956869820E+00
 -0.276152279233E+00
 -0.268139665481E+00
 -0.255377585421E+00
 -0.238816643461E+00
 -0.219736719135E+00
 -0.199482268901E+00
 -0.179212410827E+00
 -0.159528931541E+00
 -0.140061935628E+00
 -0.119157772053E+00
 -0.935813426616E-01
 -0.585401517144E-01
 -0.789666155849E-02
  0.522052951777E-01
 -0.364719111978E+00
 -0.225921543909E+00
 -0.204254512726E+00
 -0.207748246382E+00
 -0.213775806356E+00
 -0.221316679828E+00
 -0.230745671258E+00
 -0.241765619406E+00
 -0.253448492343E+00
 -0.264490967398E+00
 -0.273421822362E+00
 -0.278874778243E+00
 -0.279795351937E+00
 -0.275607166779E+00
 -0.266306752133E+00
 -0.252446038651E+00
 -0.235036997567E+00
 -0.215371292287E+00
 -0.194752921217E+00
 -0.174246395088E+00
 -0.154312570162E+00
 -0.134416299559E+00
 -0.112743335301E+00
 -0.859511108018E-01
 -0.492538312602E-01
  0.341975269272E-02
  0.663072152207E-01
 -0.402428702100E+00
 -0.248849657727E+00
 -0.220226611603E+00
 -0.219808361857E+00
 -0.223383008389E+00
 -0.229305904910E+00
 -0.237578762058E+00
 -0.247653846460E+00
 -0.258437553794E+00
 -0.268529024719E+00
 -0.276416834784E+00
 -0.280742101517E+00
 -0.280493429527E+00
 -0.275158758269E+00
 -0.264803365651E+00
 -0.250036201533E+00
 -0.231900679333E+00
 -0.211685612172E+00
 -0.190654929910E+00
 -0.169798862691E+00
 -0.149479836909E+00
 -0.129059111150E+00
 -0.106639114652E+00
 -0.788533427770E-01
 -0.409968906918E-01
  0.127667287400E-01
  0.754792751449E-01
 -0.428048121266E+00
 -0.266608004015E+00
 -0.233622857640E+00
 -0.230448063734E+00
 -0.232121078869E+00
 -0.236664423325E+00
 -0.243858914908E+00
 -0.253000429338E+00
 -0.262889320677E+00
 -0.272063168538E+00
 -0.278987209286E+00
 -0.282310665705E+00
 -0.281053703097E+00
 -0.274748246053E+00
 -0.263504560805E+00
 -0.247966047338E+00
 -0.229190691097E+00
 -0.208457779054E+00
 -0.186996307866E+00
 -0.165741478151E+00
 -0.144990976961E+00
 -0.124047943844E+00
 -0.100988130620E+00
 -0.724819327937E-01
 -0.339735331423E-01
  0.199945874951E-01
  0.815866116799E-01
 -0.446924528097E+00
 -0.280750457823E+00
 -0.244889938041E+00
 -0.239733434446E+00
 -0.239920734428E+00
 -0.243297513225E+00
 -0.249517385202E+00
 -0.257780376491E+00
 -0.266820757133E+00
 -0.275138574522E+00
 -0.281186290319E+00
 -0.283621802109E+00
 -0.281488468357E+00
 -0.274348850889E+00
 -0.262342446390E+00
 -0.246133107247E+00
 -0.226784551804E+00
 -0.205564508363E+00
 -0.183674714472E+00
 -0.162012257392E+00
 -0.140836693361E+00
 -0.119426724582E+00
 -0.958676364962E-01
 -0.669007966306E-01
 -0.281415065019E-01
  0.255432013854E-01
  0.859690322405E-01
 -0.461617451301E+00
 -0.292309753683E+00
 -0.254449610252E+00
 -0.247820829843E+00
 -0.246823756838E+00
 -0.249209430817E+00
 -0.254558728332E+00
 -0.262014089942E+00
 -0.270269814198E+00
 -0.277803644813E+00
 -0.283062087173E+00
 -0.284711078831E+00
 -0.281811370239E+00
 -0.273946531695E+00
 -0.261275476778E+00
 -0.244473990401E+00
 -0.224607065134E+00
 -0.202932305594E+00
 -0.180632016420E+00
 -0.158579806530E+00
 -0.137016542160E+00
 -0.115219186515E+00
 -0.913033397851E-01
 -0.620906235355E-01
 -0.233438083075E-01
  0.298753525907E-01
  0.893220626828E-01
 -0.473499749580E+00
 -0.301956781143E+00
 -0.262633743456E+00
 -0.254871637108E+00
 -0.252909005198E+00
 -0.254444896331E+00
 -0.259019560635E+00
 -0.265741810243E+00
 -0.273282079085E+00
 -0.280105424620E+00
 -0.284656665363E+00
 -0.285608491640E+00
 -0.282034660017E+00
 -0.273533631148E+00
 -0.260276956380E+00
 -0.242947896949E+00
 -0.222610969839E+00
 -0.200516377413E+00
 -0.177834657311E+00
 -0.155427073513E+00
 -0.133529497806E+00
 -0.111430543333E+00
 -0.872832086317E-01
 -0.579811567333E-01
 -0.193891752437E-01
  0.333411697943E-01
  0.920356569383E-01
 -0.483375474048E+00
 -0.310138648483E+00
 -0.269695221539E+00
 -0.261030870256E+00
 -0.258263675029E+00
 -0.259063966345E+00
 -0.262949801411E+00
 -0.269010807345E+00
 -0.275904114385E+00
 -0.282087615555E+00
 -0.286006374790E+00
 -0.286339367359E+00
 -0.282169725254E+00
 -0.273106427412E+00
 -0.259329949981E+00
 -0.241528455152E+00
 -0.220766277160E+00
 -0.198289431042E+00
 -0.175262297981E+00
 -0.152542551093E+00
 -0.130369481627E+00
 -0.108048674045E+00
 -0.837690490023E-01
 -0.544785974098E-01
 -0.161014194285E-01
  0.361829084981E-01
  0.942944893129E-01
 -0.491747840907E+00
 -0.317163908789E+00
 -0.275827430420E+00
 -0.266422901361E+00
 -0.262972628298E+00
 -0.263130173323E+00
 -0.266402732371E+00
 -0.271869807483E+00
 -0.278180285668E+00
 -0.283789275503E+00
 -0.287143091324E+00
 -0.286925456547E+00
 -0.282226837428E+00
 -0.272664167004E+00
 -0.258424421232E+00
 -0.240199198088E+00
 -0.219054222782E+00
 -0.196234019526E+00
 -0.172901285822E+00
 -0.149915338804E+00
 -0.127523351329E+00
 -0.105048182763E+00
 -0.807080969955E-01
 -0.514865043789E-01
 -0.133365975816E-01
  0.385629599768E-01
  0.961775114686E-01
 -0.498950990535E+00
 -0.323253244565E+00
 -0.281180293254E+00
 -0.271153140616E+00
 -0.267113427085E+00
 -0.266705318273E+00
 -0.269430894419E+00
 -0.274364733058E+00
 -0.280151621108E+00
 -0.285245499747E+00
 -0.288094299867E+00
 -0.287385708127E+00
 -0.282216060443E+00
 -0.272208286876E+00
 -0.257554577290E+00
 -0.238950178274E+00
 -0.217462800951E+00
 -0.194338104190E+00
 -0.170740160625E+00
 -0.147532606885E+00
 -0.124971575546E+00
 -0.102395379797E+00
 -0.780425248782E-01
 -0.489170288763E-01
 -0.109828477534E-01
  0.405920009935E-01
  0.978121789606E-01
 -0.505215585464E+00
 -0.328569510156E+00
 -0.285872593605E+00
 -0.275310612646E+00
 -0.270755564124E+00
 -0.269846324136E+00
 -0.272083300140E+00
 -0.276538431060E+00
 -0.281855150675E+00
 -0.286487277096E+00
 -0.288884205645E+00
 -0.287737001696E+00
 -0.282146718813E+00
 -0.271741665268E+00
 -0.256718067694E+00
 -0.237775327680E+00
 -0.215983974739E+00
 -0.192592015386E+00
 -0.168767531906E+00
 -0.145378980488E+00
 -0.122690494118E+00
 -0.100052497027E+00
 -0.757159248838E-01
 -0.466949529217E-01
 -0.895509294916E-02
  0.423490375896E-01
  0.992548779894E-01
 -0.510709085531E+00
 -0.333236799420E+00
 -0.289999580383E+00
 -0.278970771376E+00
 -0.273960800760E+00
 -0.272604997247E+00
 -0.274404118368E+00
 -0.278429547298E+00
 -0.283324171078E+00
 -0.287541971586E+00
 -0.289533976196E+00
 -0.287994409707E+00
 -0.282028197028E+00
 -0.271267932151E+00
 -0.255914278304E+00
 -0.236670645988E+00
 -0.214611252289E+00
 -0.190987408460E+00
 -0.166971266873E+00
 -0.143436515414E+00
 -0.120653988152E+00
 -0.979813735271E-01
 -0.736768187899E-01
 -0.447583630975E-01
 -0.718847622699E-02
  0.438909586081E-01
  0.100541241902E+00
 -0.515556792293E+00
 -0.337352150327E+00
 -0.293639366634E+00
 -0.282197834883E+00
 -0.276782940720E+00
 -0.275027521421E+00
 -0.276433464913E+00
 -0.280072622593E+00
 -0.284587925903E+00
 -0.288433774231E+00
 -0.290062663970E+00
 -0.288171528110E+00
 -0.281868839317E+00
 -0.270791254713E+00
 -0.255143590641E+00
 -0.235633407859E+00
 -0.213338811606E+00
 -0.189515190246E+00
 -0.165338441752E+00
 -0.141686196981E+00
 -0.118834755053E+00
 -0.961457486502E-01
 -0.718800691236E-01
 -0.430567483061E-01
 -0.563291458494E-02
  0.452597296554E-01
  0.101699717226E+00
 -0.519854960964E+00
 -0.340993257508E+00
 -0.296856795026E+00
 -0.285047009913E+00
 -0.279269106901E+00
 -0.277154524056E+00
 -0.278206953706E+00
 -0.281498560995E+00
 -0.285672449743E+00
 -0.289184066135E+00
 -0.290486781315E+00
 -0.288280435177E+00
 -0.281676766160E+00
 -0.270315647126E+00
 -0.254406480672E+00
 -0.234661002162E+00
 -0.212161156796E+00
 -0.188165817357E+00
 -0.163854727133E+00
 -0.140108673618E+00
 -0.117206570833E+00
 -0.945121559007E-01
 -0.702870985111E-01
 -0.415490338218E-01
 -0.424930172467E-02
  0.464875793047E-01
  0.102754667945E+00
 -0.523680037248E+00
 -0.344223953677E+00
 -0.299706434399E+00
 -0.287565120444E+00
 -0.281460548484E+00
 -0.279022468506E+00
 -0.279755943664E+00
 -0.282734334544E+00
 -0.286600930719E+00
 -0.289811583912E+00
 -0.290821275375E+00
 -0.288332091373E+00
 -0.281458737435E+00
 -0.269844749087E+00
 -0.253703482130E+00
 -0.233750501813E+00
 -0.211071848502E+00
 -0.186929489473E+00
 -0.162505768038E+00
 -0.138684147507E+00
 -0.115744586058E+00
 -0.930512004670E-01
 -0.688650721771E-01
 -0.402013531508E-01
 -0.300711736382E-02
  0.475997350883E-01
  0.103722514355E+00
 -0.527094845770E+00
 -0.347096981058E+00
 -0.302234235412E+00
 -0.289793344971E+00
 -0.283393372524E+00
 -0.280662915906E+00
 -0.281108472770E+00
 -0.283804018781E+00
 -0.287393300196E+00
 -0.290332966856E+00
 -0.291079104441E+00
 -0.288336025506E+00
 -0.281221158460E+00
 -0.269381459310E+00
 -0.253034310245E+00
 -0.232898704725E+00
 -0.210064151211E+00
 -0.185795636891E+00
 -0.161277211516E+00
 -0.137393845421E+00
 -0.114425973927E+00
 -0.917368283932E-01
 -0.675859746050E-01
 -0.389861799249E-01
 -0.188131119476E-02
  0.486163764823E-01
  0.104620363947E+00
 -0.530150779999E+00
 -0.349657230532E+00
 -0.304479941118E+00
 -0.291766917524E+00
 -0.285099173872E+00
 -0.282103932829E+00
 -0.282288815797E+00
 -0.284728711959E+00
 -0.288067674505E+00
 -0.290762754121E+00
 -0.291271714692E+00
 -0.288300374969E+00
 -0.280969056611E+00
 -0.268928029593E+00
 -0.252398094316E+00
 -0.232101656822E+00
 -0.209130933465E+00
 -0.184753341229E+00
 -0.160154750755E+00
 -0.136220292231E+00
 -0.113229868677E+00
 -0.905458871350E-01
 -0.664261311503E-01
 -0.378809574535E-01
 -0.851459155740E-03
  0.495532692981E-01
  0.105453747412E+00
 -0.532891400088E+00
 -0.351942282967E+00
 -0.306477773744E+00
 -0.293516963930E+00
 -0.286605633834E+00
 -0.283369923049E+00
 -0.283318766737E+00
 -0.285526985305E+00
 -0.288639516803E+00
 -0.291113899447E+00
 -0.291408722252E+00
 -0.288232157860E+00
 -0.280706717545E+00
 -0.268485689976E+00
 -0.251793263412E+00
 -0.231354603386E+00
 -0.208264409021E+00
 -0.183792199455E+00
 -0.159124645124E+00
 -0.135146668140E+00
 -0.112137477228E+00
 -0.894583567458E-01
 -0.653653156068E-01
 -0.368662609917E-01
  0.992726634064E-04
  0.504242263521E-01
  0.106241817458E+00
 -0.535353504750E+00
 -0.353985320723E+00
 -0.308257671414E+00
 -0.295070197259E+00
 -0.287937091470E+00
 -0.284482800154E+00
 -0.284217136894E+00
 -0.286215321523E+00
 -0.289122490636E+00
 -0.291397253891E+00
 -0.291498816675E+00
 -0.288137058250E+00
 -0.280437051689E+00
 -0.268054930126E+00
 -0.251217477500E+00
 -0.230652426765E+00
 -0.207456878794E+00
 -0.182901580011E+00
 -0.158173738674E+00
 -0.134157778621E+00
 -0.111132000913E+00
 -0.884566341382E-01
 -0.643857463683E-01
 -0.359257278292E-01
  0.985308894884E-03
  0.512418558658E-01
  0.106994185115E+00
 -0.537569272410E+00
 -0.355814655911E+00
 -0.309845459545E+00
 -0.296450765461E+00
 -0.289115092305E+00
 -0.285461486868E+00
 -0.285000462748E+00
 -0.286807944524E+00
 -0.289528828281E+00
 -0.291622267232E+00
 -0.291548911644E+00
 -0.288019669736E+00
 -0.280162265548E+00
 -0.267635265403E+00
 -0.250667594836E+00
 -0.229989591598E+00
 -0.206700211641E+00
 -0.182071128272E+00
 -0.157289271658E+00
 -0.133239314503E+00
 -0.110198319926E+00
 -0.875249388469E-01
 -0.634720424039E-01
 -0.350449562336E-01
  0.181937335949E-02
  0.520161090039E-01
  0.107698048794E+00
 -0.539566177551E+00
 -0.357455703165E+00
 -0.311264206651E+00
 -0.297679325790E+00
 -0.290158398085E+00
 -0.286322834337E+00
 -0.285683774400E+00
 -0.287317166330E+00
 -0.289868620542E+00
 -0.291797229309E+00
 -0.291564582032E+00
 -0.287883531884E+00
 -0.279883483797E+00
 -0.267225190261E+00
 -0.250139922154E+00
 -0.229360160857E+00
 -0.205986194565E+00
 -0.181290211916E+00
 -0.156459549329E+00
 -0.132378187463E+00
 -0.109322197577E+00
 -0.866490362259E-01
 -0.626106202699E-01
 -0.342112347992E-01
  0.261251416818E-02
  0.527562432211E-01
  0.108373794563E+00
 -0.541369414584E+00
 -0.358930228195E+00
 -0.312534133548E+00
 -0.298774599792E+00
 -0.291083753204E+00
 -0.287081539985E+00
 -0.286279849916E+00
 -0.287754194631E+00
 -0.290150498985E+00
 -0.291928645365E+00
 -0.291550708317E+00
 -0.287730898538E+00
 -0.279600686150E+00
 -0.266822764682E+00
 -0.249630318712E+00
 -0.228757628777E+00
 -0.205306282782E+00
 -0.180549028135E+00
 -0.155673159084E+00
 -0.131561908507E+00
 -0.108490749723E+00
 -0.858160346251E-01
 -0.617889757897E-01
 -0.334132322081E-01
  0.337527230507E-02
  0.534715707674E-01
  0.109032263131E+00
 -0.543000987589E+00
 -0.360257679745E+00
 -0.313673252064E+00
 -0.299752789164E+00
 -0.291905820960E+00
 -0.287750963279E+00
 -0.286799684494E+00
 -0.288128303315E+00
 -0.290382223224E+00
 -0.292021908086E+00
 -0.291510478267E+00
 -0.287563210550E+00
 -0.279313168670E+00
 -0.266424939163E+00
 -0.249133737521E+00
 -0.228175205994E+00
 -0.204651972114E+00
 -0.179837477150E+00
 -0.154918724575E+00
 -0.130778773616E+00
 -0.107691883378E+00
 -0.850139431119E-01
 -0.609955487903E-01
 -0.326399792119E-01
  0.411716469306E-02
  0.541706665668E-01
  0.109679058757E+00
 -0.544479243143E+00
 -0.361455852438E+00
 -0.314697362336E+00
 -0.300628632173E+00
 -0.292637966146E+00
 -0.288342324809E+00
 -0.287253304124E+00
 -0.288447363621E+00
 -0.290569883217E+00
 -0.292081561977E+00
 -0.291446270145E+00
 -0.287380630180E+00
 -0.279019196537E+00
 -0.266028178490E+00
 -0.248644598759E+00
 -0.227605661176E+00
 -0.204014612344E+00
 -0.179145495399E+00
 -0.154185491133E+00
 -0.130017126946E+00
 -0.106914144269E+00
 -0.842313066404E-01
 -0.602195789880E-01
 -0.318815882113E-01
  0.484696716980E-02
  0.548610657779E-01
  0.110321501137E+00
 -0.545821916848E+00
 -0.362540247798E+00
 -0.315621063418E+00
 -0.301415235117E+00
 -0.293291607006E+00
 -0.288865837975E+00
 -0.287649280640E+00
 -0.288718311164E+00
 -0.290718508786E+00
 -0.292110657037E+00
 -0.291359375235E+00
 -0.287182498138E+00
 -0.278716032993E+00
 -0.265628002395E+00
 -0.248156765614E+00
 -0.227040857114E+00
 -0.203384872219E+00
 -0.178462966419E+00
 -0.153462617150E+00
 -0.129265671364E+00
 -0.106145654701E+00
 -0.834571658915E-01
 -0.594506389190E-01
 -0.311284749064E-01
  0.557335565857E-02
  0.555500246807E-01
  0.110966813243E+00
 -0.547045874901E+00
 -0.363525412224E+00
 -0.316457158453E+00
 -0.302124242206E+00
 -0.293877265488E+00
 -0.289330350218E+00
 -0.287994870674E+00
 -0.288946941916E+00
 -0.290832035884E+00
 -0.292111200998E+00
 -0.291249935858E+00
 -0.286967114531E+00
 -0.278400167577E+00
 -0.265218802378E+00
 -0.247662928912E+00
 -0.226472513931E+00
 -0.202753025908E+00
 -0.177779192298E+00
 -0.152738589888E+00
 -0.128513039839E+00
 -0.105375320504E+00
 -0.826805494716E-01
 -0.586782774117E-01
 -0.303710768844E-01
  0.630433029009E-02
  0.562436881128E-01
  0.111612807802E+00
 -0.548164089901E+00
 -0.364423313526E+00
 -0.317217698090E+00
 -0.302766164696E+00
 -0.294404107500E+00
 -0.289743942133E+00
 -0.288296435134E+00
 -0.289137720485E+00
 -0.290913302690E+00
 -0.292084290160E+00
 -0.291117038084E+00
 -0.286731590158E+00
 -0.278066883438E+00
 -0.264794163449E+00
 -0.247155074166E+00
 -0.225891127151E+00
 -0.202108609423E+00
 -0.177082855744E+00
 -0.152001838094E+00
 -0.127747315359E+00
 -0.104591768048E+00
 -0.818902641429E-01
 -0.578921832321E-01
 -0.296005852934E-01
  0.704773256783E-02
  0.569487793725E-01
  0.112268038392E+00
 -0.549189587988E+00
 -0.365246632316E+00
 -0.317913036581E+00
 -0.303350891422E+00
 -0.294880609178E+00
 -0.290113147443E+00
 -0.288559360577E+00
 -0.289294444697E+00
 -0.290964002553E+00
 -0.292029783061E+00
 -0.290958575973E+00
 -0.286471852123E+00
 -0.277710064515E+00
 -0.264346337332E+00
 -0.246624022203E+00
 -0.225286022323E+00
 -0.201440031471E+00
 -0.176361893556E+00
 -0.151239861921E+00
 -0.126956038906E+00
 -0.103782911603E+00
 -0.810750019157E-01
 -0.570820425398E-01
 -0.288073638567E-01
  0.781203440085E-02
  0.576725974595E-01
  0.112948601001E+00
 -0.550136058104E+00
 -0.366006190131E+00
 -0.318553341914E+00
 -0.303887104688E+00
 -0.295314282007E+00
 -0.290444423115E+00
 -0.288787934572E+00
 -0.289419647572E+00
 -0.290984926245E+00
 -0.291946218744E+00
 -0.290771050459E+00
 -0.286182274212E+00
 -0.277322210867E+00
 -0.263865891921E+00
 -0.246058780830E+00
 -0.224645157383E+00
 -0.200734151984E+00
 -0.175602666324E+00
 -0.150439027389E+00
 -0.126125916990E+00
 -0.102935840876E+00
 -0.802226501713E-01
 -0.562367833397E-01
 -0.279818520242E-01
  0.860583562386E-02
  0.584224221833E-01
  0.113654980982E+00
 -0.551014076891E+00
 -0.366712628859E+00
 -0.319148020053E+00
 -0.304383069951E+00
 -0.295712125039E+00
 -0.290743030409E+00
 -0.288985770404E+00
 -0.289514858509E+00
 -0.290975596373E+00
 -0.291830805717E+00
 -0.290549335347E+00
 -0.285855488637E+00
 -0.276893801008E+00
 -0.263341656781E+00
 -0.245446440832E+00
 -0.223954434799E+00
 -0.199976379842E+00
 -0.174790062400E+00
 -0.149584545296E+00
 -0.125242526588E+00
 -0.102036648080E+00
 -0.793206359395E-01
 -0.553450992392E-01
 -0.271139510580E-01
  0.943701779941E-02
  0.592038446675E-01
  0.114378722938E+00
 -0.551834623272E+00
 -0.367375987871E+00
 -0.319706388848E+00
 -0.304846733787E+00
 -0.296080475075E+00
 -0.291013658996E+00
 -0.289155513625E+00
 -0.289580626313E+00
 -0.290933971394E+00
 -0.291679018609E+00
 -0.290286306665E+00
 -0.285481915346E+00
 -0.276412986203E+00
 -0.262759572514E+00
 -0.244771684214E+00
 -0.223197574160E+00
 -0.199149490572E+00
 -0.173906994239E+00
 -0.148659703064E+00
 -0.124289703708E+00
 -0.101070244065E+00
 -0.783553742951E-01
 -0.543948675889E-01
 -0.261933737850E-01
  0.103137675689E-01
  0.600231382096E-01
  0.115129410783E+00
 -0.552609369788E+00
 -0.368006357863E+00
 -0.320237292750E+00
 -0.305285818695E+00
 -0.296425317479E+00
 -0.291260290309E+00
 -0.289299134646E+00
 -0.289616016836E+00
 -0.290856331124E+00
 -0.291484137559E+00
 -0.289972223374E+00
 -0.285049115822E+00
 -0.275864800351E+00
 -0.262102634704E+00
 -0.244015723647E+00
 -0.222354739880E+00
 -0.198233683286E+00
 -0.172934037035E+00
 -0.147645017801E+00
 -0.123249319083E+00
 -0.100020447629E+00
 -0.773117610215E-01
 -0.533733040758E-01
 -0.252092799723E-01
  0.112450896060E-01
  0.608872812438E-01
  0.115914409427E+00
 -0.553348625062E+00
 -0.368613877774E+00
 -0.320750018695E+00
 -0.305707835764E+00
 -0.296752572222E+00
 -0.291486422883E+00
 -0.289417206504E+00
 -0.289618621949E+00
 -0.290736632356E+00
 -0.291236754278E+00
 -0.289594147310E+00
 -0.284540705046E+00
 -0.275230056523E+00
 -0.261349630542E+00
 -0.243155866750E+00
 -0.221402658132E+00
 -0.197205918755E+00
 -0.171847899552E+00
 -0.146519083532E+00
 -0.122101554643E+00
 -0.988688177877E-01
 -0.761739414858E-01
 -0.522666065409E-01
 -0.241504941943E-01
  0.122401187763E-01
  0.618032688845E-01
  0.116743150394E+00
 -0.554064292222E+00
 -0.369209606913E+00
 -0.321254225177E+00
 -0.306121096394E+00
 -0.297067718348E+00
 -0.291694921253E+00
 -0.289509088878E+00
 -0.289583823812E+00
 -0.290565960931E+00
 -0.290923414683E+00
 -0.289134509625E+00
 -0.283935299128E+00
 -0.274484415319E+00
 -0.260473895937E+00
 -0.242164422673E+00
 -0.220313136736E+00
 -0.196038235614E+00
 -0.170622443604E+00
 -0.145256900231E+00
 -0.120823875142E+00
 -0.975951310040E-01
 -0.749244180583E-01
 -0.510600828896E-01
 -0.230049914894E-01
  0.133072243233E-01
  0.627768966660E-01
  0.117614614447E+00
 -0.554770425101E+00
 -0.369806526155E+00
 -0.321760990258E+00
 -0.306534029656E+00
 -0.297376650887E+00
 -0.291887686666E+00
 -0.289572027752E+00
 -0.289503879317E+00
 -0.290331366842E+00
 -0.290525550581E+00
 -0.288569472584E+00
 -0.283204847520E+00
 -0.273596448472E+00
 -0.259442103697E+00
 -0.241007153727E+00
 -0.219052259808E+00
 -0.194697580862E+00
 -0.169226868979E+00
 -0.143830483697E+00
 -0.119390360861E+00
 -0.961773752343E-01
 -0.735440206411E-01
 -0.497380487944E-01
 -0.217609090443E-01
  0.144549482978E-01
  0.638128453979E-01
  0.118527252636E+00
 -0.555478695738E+00
 -0.370417801130E+00
 -0.322282536659E+00