# vtk DataFile Version 3.0
MachLine results file. Generated by MachLine, USU AeroLab (c) 2022.
ASCII
DATASET POLYDATA
POINTS                  86 float
  0.810587965200E+00  0.000000000000E+00  0.000000000000E+00
  0.998576490975E+03  0.000000000000E+00  0.533384808995E+02
  0.810676677800E+00  0.347461097400E-01 -0.128622059200E-02
  0.998576559790E+03  0.347461097400E-01  0.533371936152E+02
  0.820336240200E+00  0.347461097400E-01  0.000000000000E+00
  0.998576518754E+03  0.347461097400E-01  0.533379612620E+02
  0.800803929100E+00  0.000000000000E+00 -0.130279491000E-02
  0.998576532540E+03  0.000000000000E+00  0.533377033607E+02
  0.799987339200E+00  0.347461097400E-01 -0.264710801000E-02
  0.998576601873E+03  0.347461097400E-01  0.533364064071E+02
  0.789976847000E+00  0.000000000000E+00 -0.268121880900E-02
  0.998576575165E+03  0.000000000000E+00  0.533369060086E+02
  0.788200162400E+00  0.347461097400E-01 -0.413831356600E-02
  0.998576647774E+03  0.347461097400E-01  0.533355477732E+02
  0.778037779900E+00  0.000000000000E+00 -0.419164013300E-02
  0.998576621657E+03  0.000000000000E+00  0.533360363103E+02
  0.830938588000E+00  0.725364203800E-01  0.000000000000E+00
  0.998576548966E+03  0.725364203800E-01  0.533373960978E+02
  0.842386850500E+00  0.113341854000E+00  0.000000000000E+00
  0.998576581589E+03  0.113341854000E+00  0.533367858415E+02
  0.854652515100E+00  0.157060781400E+00  0.000000000000E+00
  0.998576616541E+03  0.157060781400E+00  0.533361320132E+02
  0.867684656900E+00  0.203511690000E+00  0.000000000000E+00
  0.998576653678E+03  0.203511690000E+00  0.533354373274E+02
  0.881408890100E+00  0.252429443600E+00  0.000000000000E+00
  0.998576692787E+03  0.252429443600E+00  0.533347057492E+02
  0.895727614200E+00  0.303466161400E+00  0.000000000000E+00
  0.998576733589E+03  0.303466161400E+00  0.533339424813E+02
  0.910521751800E+00  0.356197411800E+00  0.000000000000E+00
  0.998576775747E+03  0.356197411800E+00  0.533331538713E+02
  0.925654029900E+00  0.410133907800E+00  0.000000000000E+00
  0.998576818868E+03  0.410133907800E+00  0.533323472365E+02
  0.940973682400E+00  0.464738268900E+00  0.000000000000E+00
  0.998576862523E+03  0.464738268900E+00  0.533315306135E+02
  0.956322269300E+00  0.519445761800E+00  0.000000000000E+00
  0.998576906260E+03  0.519445761800E+00  0.533307124483E+02
  0.971540152800E+00  0.573687384300E+00  0.000000000000E+00
  0.998576949625E+03  0.573687384300E+00  0.533299012502E+02
  0.986473078300E+00  0.626913321300E+00  0.000000000000E+00
  0.998576992178E+03  0.626913321300E+00  0.533291052420E+02
  0.100097829000E+01  0.678614743900E+00  0.000000000000E+00
  0.998577033512E+03  0.678614743900E+00  0.533283320333E+02
  0.101492968200E+01  0.728342164900E+00  0.000000000000E+00
  0.998577073268E+03  0.728342164900E+00  0.533275883463E+02
  0.102822161300E+01  0.775719050100E+00  0.000000000000E+00
  0.998577111145E+03  0.775719050100E+00  0.533268798123E+02
  0.104077121000E+01  0.820450008200E+00  0.000000000000E+00
  0.998577146906E+03  0.820450008200E+00  0.533262108487E+02
  0.105251913300E+01  0.862323532100E+00  0.000000000000E+00
  0.998577180383E+03  0.862323532100E+00  0.533255846189E+02
  0.106342896600E+01  0.901209822200E+00  0.000000000000E+00
  0.998577211472E+03  0.901209822200E+00  0.533250030640E+02
  0.107348548600E+01  0.937054620400E+00  0.000000000000E+00
  0.998577240129E+03  0.937054620400E+00  0.533244669954E+02
  0.108269213400E+01  0.969870191100E+00  0.000000000000E+00
  0.998577266364E+03  0.969870191100E+00  0.533239762297E+02
  0.109106801000E+01  0.999724613400E+00  0.000000000000E+00
  0.998577290232E+03  0.999724613400E+00  0.533235297488E+02
  0.109864469200E+01  0.102673044000E+01  0.000000000000E+00
  0.998577311823E+03  0.102673044000E+01  0.533231258694E+02
  0.110546311600E+01  0.105103358000E+01  0.000000000000E+00
  0.998577331253E+03  0.105103358000E+01  0.533227624094E+02
  0.111157069400E+01  0.107280302900E+01  0.000000000000E+00
  0.998577348657E+03  0.107280302900E+01  0.533224368414E+02
  0.111701878500E+01  0.109222184700E+01  0.000000000000E+00
  0.998577364182E+03  0.109222184700E+01  0.533221464278E+02
  0.112186056500E+01  0.110947956900E+01  0.000000000000E+00
  0.998577377979E+03  0.110947956900E+01  0.533218883339E+02
  0.112614931300E+01  0.112476609800E+01  0.000000000000E+00
  0.998577390200E+03  0.112476609800E+01  0.533216597197E+02
  0.112993708900E+01  0.113826699800E+01  0.000000000000E+00
  0.998577400994E+03  0.113826699800E+01  0.533214578101E+02
  0.113327377200E+01  0.115016005100E+01  0.000000000000E+00
  0.998577410502E+03  0.115016005100E+01  0.533212799463E+02
  0.113620639300E+01  0.116061289200E+01  0.000000000000E+00
  0.998577418859E+03  0.116061289200E+01  0.533211236212E+02
  0.113877872500E+01  0.116978154300E+01  0.000000000000E+00
  0.998577426189E+03  0.116978154300E+01  0.533209865016E+02
  0.114103107000E+01  0.117780965500E+01  0.000000000000E+00
  0.998577432607E+03  0.117780965500E+01  0.533208664390E+02
  0.114300020200E+01  0.118482829800E+01  0.000000000000E+00
  0.998577438218E+03  0.118482829800E+01  0.533207614733E+02
  0.114471941700E+01  0.119095615500E+01  0.000000000000E+00
  0.998577443117E+03  0.119095615500E+01  0.533206698296E+02
  0.114621867200E+01  0.119630000000E+01  0.000000000000E+00
  0.998577447390E+03  0.119630000000E+01  0.533205899109E+02
POLYGONS                  72                 288
3                   4                   5                   1
3                   4                   1                   0
3                  16                  17                   5
3                  16                   5                   4
3                  18                  19                  17
3                  18                  17                  16
3                  20                  21                  19
3                  20                  19                  18
3                  22                  23                  21
3                  22                  21                  20
3                  24                  25                  23
3                  24                  23                  22
3                  26                  27                  25
3                  26                  25                  24
3                  28                  29                  27
3                  28                  27                  26
3                  30                  31                  29
3                  30                  29                  28
3                  32                  33                  31
3                  32                  31                  30
3                  34                  35                  33
3                  34                  33                  32
3                  36                  37                  35
3                  36                  35                  34
3                  38                  39                  37
3                  38                  37                  36
3                  40                  41                  39
3                  40                  39                  38
3                  42                  43                  41
3                  42                  41                  40
3                  44                  45                  43
3                  44                  43                  42
3                  46                  47                  45
3                  46                  45                  44
3                  48                  49                  47
3                  48                  47                  46
3                  50                  51                  49
3                  50                  49                  48
3                  52                  53                  51
3                  52                  51                  50
3                  54                  55                  53
3                  54                  53                  52
3                  56                  57                  55
3                  56                  55                  54
3                  58                  59                  57
3                  58                  57                  56
3                  60                  61                  59
3                  60                  59                  58
3                  62                  63                  61
3                  62                  61                  60
3                  64                  65                  63
3                  64                  63                  62
3                  66                  67                  65
3                  66                  65                  64
3                  68                  69                  67
3                  68                  67                  66
3                  70                  71                  69
3                  70                  69                  68
3                  72                  73                  71
3                  72                  71                  70
3                  74                  75                  73
3                  74                  73                  72
3                  76                  77                  75
3                  76                  75                  74
3                  78                  79                  77
3                  78                  77                  76
3                  80                  81                  79
3                  80                  79                  78
3                  82                  83                  81
3                  82                  81                  80
3                  84                  85                  83
3                  84                  83                  82
CELL_DATA                  72
NORMALS normals float
  0.533757040294E-01 -0.149749438165E-01 -0.998462210240E+00
  0.533757040294E-01 -0.149749438166E-01 -0.998462210240E+00
  0.533757040294E-01 -0.149749438044E-01 -0.998462210240E+00
  0.533757040294E-01 -0.149749438046E-01 -0.998462210240E+00
  0.533757040295E-01 -0.149749436937E-01 -0.998462210242E+00
  0.533757040295E-01 -0.149749436938E-01 -0.998462210242E+00
  0.533757040294E-01 -0.149749438597E-01 -0.998462210239E+00
  0.533757040294E-01 -0.149749438594E-01 -0.998462210239E+00
  0.533757040295E-01 -0.149749437535E-01 -0.998462210241E+00
  0.533757040295E-01 -0.149749437535E-01 -0.998462210241E+00
  0.533757040295E-01 -0.149749437658E-01 -0.998462210241E+00
  0.533757040295E-01 -0.149749437660E-01 -0.998462210241E+00
  0.533757040295E-01 -0.149749437775E-01 -0.998462210240E+00
  0.533757040295E-01 -0.149749437775E-01 -0.998462210240E+00
  0.533757040295E-01 -0.149749437747E-01 -0.998462210240E+00
  0.533757040295E-01 -0.149749437746E-01 -0.998462210240E+00
  0.533757040294E-01 -0.149749438146E-01 -0.998462210240E+00
  0.533757040294E-01 -0.149749438145E-01 -0.998462210240E+00
  0.533757040295E-01 -0.149749437812E-01 -0.998462210240E+00
  0.533757040295E-01 -0.149749437811E-01 -0.998462210240E+00
  0.533757040294E-01 -0.149749438005E-01 -0.998462210240E+00
  0.533757040294E-01 -0.149749438005E-01 -0.998462210240E+00
  0.533757040295E-01 -0.149749437463E-01 -0.998462210241E+00
  0.533757040295E-01 -0.149749437464E-01 -0.998462210241E+00
  0.533757040295E-01 -0.149749437344E-01 -0.998462210241E+00
  0.533757040295E-01 -0.149749437344E-01 -0.998462210241E+00
  0.533757040296E-01 -0.149749435828E-01 -0.998462210243E+00
  0.533757040296E-01 -0.149749435828E-01 -0.998462210243E+00
  0.533757040289E-01 -0.149749445116E-01 -0.998462210229E+00
  0.533757040289E-01 -0.149749445115E-01 -0.998462210229E+00
  0.533757040298E-01 -0.149749434150E-01 -0.998462210246E+00
  0.533757040298E-01 -0.149749434148E-01 -0.998462210246E+00
  0.533757040296E-01 -0.149749436098E-01 -0.998462210243E+00
  0.533757040296E-01 -0.149749436100E-01 -0.998462210243E+00
  0.533757040296E-01 -0.149749436541E-01 -0.998462210242E+00
  0.533757040296E-01 -0.149749436544E-01 -0.998462210242E+00
  0.533757040293E-01 -0.149749440156E-01 -0.998462210237E+00
  0.533757040293E-01 -0.149749440154E-01 -0.998462210237E+00
  0.533757040295E-01 -0.149749437028E-01 -0.998462210242E+00
  0.533757040295E-01 -0.149749437028E-01 -0.998462210242E+00
  0.533757040296E-01 -0.149749435488E-01 -0.998462210244E+00
  0.533757040296E-01 -0.149749435489E-01 -0.998462210244E+00
  0.533757040299E-01 -0.149749432052E-01 -0.998462210249E+00
  0.533757040299E-01 -0.149749432052E-01 -0.998462210249E+00
  0.533757040294E-01 -0.149749438129E-01 -0.998462210240E+00
  0.533757040294E-01 -0.149749438129E-01 -0.998462210240E+00
  0.533757040286E-01 -0.149749448578E-01 -0.998462210224E+00
  0.533757040286E-01 -0.149749448574E-01 -0.998462210224E+00
  0.533757040294E-01 -0.149749438152E-01 -0.998462210240E+00
  0.533757040294E-01 -0.149749438151E-01 -0.998462210240E+00
  0.533757040301E-01 -0.149749430034E-01 -0.998462210252E+00
  0.533757040301E-01 -0.149749430037E-01 -0.998462210252E+00
  0.533757040295E-01 -0.149749437527E-01 -0.998462210241E+00
  0.533757040295E-01 -0.149749437533E-01 -0.998462210241E+00
  0.533757040278E-01 -0.149749458432E-01 -0.998462210210E+00
  0.533757040278E-01 -0.149749458432E-01 -0.998462210210E+00
  0.533757040299E-01 -0.149749432041E-01 -0.998462210249E+00
  0.533757040299E-01 -0.149749432044E-01 -0.998462210249E+00
  0.533757040292E-01 -0.149749441338E-01 -0.998462210235E+00
  0.533757040292E-01 -0.149749441332E-01 -0.998462210235E+00
  0.533757040291E-01 -0.149749441822E-01 -0.998462210234E+00
  0.533757040291E-01 -0.149749441819E-01 -0.998462210234E+00
  0.533757040296E-01 -0.149749435867E-01 -0.998462210243E+00
  0.533757040296E-01 -0.149749435870E-01 -0.998462210243E+00
  0.533757040320E-01 -0.149749405723E-01 -0.998462210288E+00
  0.533757040320E-01 -0.149749405721E-01 -0.998462210288E+00
  0.533757040269E-01 -0.149749469829E-01 -0.998462210192E+00
  0.533757040269E-01 -0.149749469839E-01 -0.998462210192E+00
  0.533757040299E-01 -0.149749432798E-01 -0.998462210248E+00
  0.533757040299E-01 -0.149749432795E-01 -0.998462210248E+00
  0.533757040276E-01 -0.149749461565E-01 -0.998462210205E+00
  0.533757040276E-01 -0.149749461567E-01 -0.998462210205E+00
POINT_DATA                  86
SCALARS mu float 1
LOOKUP_TABLE default
 -0.856996362047E-01
 -0.856996362047E-01
  0.000000000000E+00
  0.000000000000E+00
 -0.856980983800E-01
 -0.856980983800E-01
  0.000000000000E+00
  0.000000000000E+00
  0.000000000000E+00
  0.000000000000E+00
  0.000000000000E+00
  0.000000000000E+00
  0.000000000000E+00
  0.000000000000E+00
  0.000000000000E+00
  0.000000000000E+00
 -0.857621963375E-01
 -0.857621963375E-01
 -0.857728099290E-01
 -0.857728099290E-01
 -0.856960894015E-01
 -0.856960894015E-01
 -0.855168102022E-01
 -0.855168102022E-01
 -0.851718173102E-01
 -0.851718173102E-01
 -0.846817827935E-01
 -0.846817827935E-01
 -0.840322214800E-01
 -0.840322214800E-01
 -0.832097830319E-01
 -0.832097830319E-01
 -0.821527001316E-01
 -0.821527001316E-01
 -0.808591530573E-01
 -0.808591530573E-01
 -0.793751799498E-01
 -0.793751799498E-01
 -0.776766148921E-01
 -0.776766148921E-01
 -0.757429073628E-01
 -0.757429073628E-01
 -0.735918069446E-01
 -0.735918069446E-01
 -0.712424520429E-01
 -0.712424520429E-01
 -0.687739175019E-01
 -0.687739175019E-01
 -0.661280091870E-01
 -0.661280091870E-01
 -0.633456946027E-01
 -0.633456946027E-01
 -0.604533364537E-01
 -0.604533364537E-01
 -0.574377819100E-01
 -0.574377819100E-01
 -0.543881541952E-01
 -0.543881541952E-01
 -0.512865184306E-01
 -0.512865184306E-01
 -0.480810333255E-01
 -0.480810333255E-01
 -0.448532393980E-01
 -0.448532393980E-01
 -0.416681140604E-01
 -0.416681140604E-01
 -0.384965329183E-01
 -0.384965329183E-01
 -0.352745390723E-01
 -0.352745390723E-01
 -0.320807906804E-01
 -0.320807906804E-01
 -0.287863295310E-01
 -0.287863295310E-01
 -0.253651331364E-01
 -0.253651331364E-01
 -0.217688980562E-01
 -0.217688980562E-01
 -0.178570847126E-01
 -0.178570847126E-01
 -0.133620961389E-01
 -0.133620961389E-01
 -0.770241722815E-02
 -0.770241722815E-02
  0.000000000000E+00
  0.000000000000E+00
