# vtk DataFile Version 3.0
MachLine results file. Generated by MachLine, USU AeroLab (c) 2022.
ASCII
DATASET POLYDATA
POINTS                3261 float
  0.000000000000E+00  0.000000000000E+00  0.000000000000E+00
  0.138131193817E-01  0.239259991795E-01  0.000000000000E+00
  0.184377916157E-01  0.000000000000E+00 -0.191644169390E-01
  0.184377916157E-01  0.000000000000E+00  0.191644169390E-01
  0.276262387633E-01  0.478519983590E-01  0.000000000000E+00
  0.320895873010E-01  0.239259991795E-01 -0.189967341721E-01
  0.320895873010E-01  0.239259991795E-01  0.189967341721E-01
  0.414393581450E-01  0.717779994011E-01  0.000000000000E+00
  0.457413829863E-01  0.478519983590E-01 -0.188290514052E-01
  0.457413829863E-01  0.478519983590E-01  0.188290514052E-01
  0.460614785552E-01  0.000000000000E+00 -0.248102936894E-01
  0.460614785552E-01  0.000000000000E+00  0.248102936894E-01
  0.552524775267E-01  0.957039967179E-01  0.000000000000E+00
  0.593931749463E-01  0.717779994011E-01 -0.186613686383E-01
  0.593931749463E-01  0.717779994011E-01  0.186613686383E-01
  0.594715774059E-01  0.239259991795E-01 -0.245932117105E-01
  0.594715774059E-01  0.239259991795E-01  0.245932117105E-01
  0.690656006336E-01  0.119630001485E+00  0.000000000000E+00
  0.728816688061E-01  0.478519983590E-01 -0.243761278689E-01
  0.728816688061E-01  0.478519983590E-01  0.243761278689E-01
  0.730449706316E-01  0.957039967179E-01 -0.184936858714E-01
  0.730449706316E-01  0.957039967179E-01  0.184936858714E-01
  0.740515887737E-01  0.000000000000E+00 -0.284879114479E-01
  0.740515887737E-01  0.000000000000E+00  0.284879114479E-01
  0.828787162900E-01  0.143555998802E+00  0.000000000000E+00
  0.862917676568E-01  0.717779994011E-01 -0.241590458900E-01
  0.862917676568E-01  0.717779994011E-01  0.241590458900E-01
  0.866967663169E-01  0.119630001485E+00 -0.183260031044E-01
  0.866967663169E-01  0.119630001485E+00  0.183260031044E-01
  0.872167795897E-01  0.239259991795E-01 -0.282386522740E-01
  0.872167795897E-01  0.239259991795E-01  0.282386522740E-01
  0.966918393970E-01  0.167482003570E+00  0.000000000000E+00
  0.997018665075E-01  0.957039967179E-01 -0.239419639111E-01
  0.997018665075E-01  0.957039967179E-01  0.239419639111E-01
  0.100348562002E+00  0.143555998802E+00 -0.181583203375E-01
  0.100348562002E+00  0.143555998802E+00  0.181583203375E-01
  0.100381970406E+00  0.478519983590E-01 -0.279893912375E-01
  0.100381970406E+00  0.478519983590E-01  0.279893912375E-01
  0.102138325572E+00  0.000000000000E+00 -0.313414372504E-01
  0.102138325572E+00  0.000000000000E+00  0.313414372504E-01
  0.110504955053E+00  0.191407993436E+00  0.000000000000E+00
  0.113111965358E+00  0.119630001485E+00 -0.237248819321E-01
  0.113111965358E+00  0.119630001485E+00  0.237248819321E-01
  0.113547168672E+00  0.717779994011E-01 -0.277401320636E-01
  0.113547168672E+00  0.717779994011E-01  0.277401320636E-01
  0.114000357687E+00  0.167482003570E+00 -0.179906394333E-01
  0.114000357687E+00  0.167482003570E+00  0.179906394333E-01
  0.115057766438E+00  0.239259991795E-01 -0.310672093183E-01
  0.115057766438E+00  0.239259991795E-01  0.310672093183E-01
  0.124318078160E+00  0.215333998203E+00  0.000000000000E+00
  0.126522064209E+00  0.143555998802E+00 -0.235077999532E-01
  0.126522064209E+00  0.143555998802E+00  0.235077999532E-01
  0.126712352037E+00  0.957039967179E-01 -0.274908710271E-01
  0.126712352037E+00  0.957039967179E-01  0.274908710271E-01
  0.127652153373E+00  0.191407993436E+00 -0.178229566664E-01
  0.127652153373E+00  0.191407993436E+00  0.178229566664E-01
  0.127977207303E+00  0.478519983590E-01 -0.307929813862E-01
  0.127977207303E+00  0.478519983590E-01  0.307929813862E-01
  0.130280584097E+00  0.000000000000E+00 -0.335864275694E-01
  0.130280584097E+00  0.000000000000E+00  0.335864275694E-01
  0.138131201267E+00  0.239260002971E+00  0.000000000000E+00
  0.139877542853E+00  0.119630001485E+00 -0.272416118532E-01
  0.139877542853E+00  0.119630001485E+00  0.272416118532E-01
  0.139932155609E+00  0.167482003570E+00 -0.232907179743E-01
  0.139932155609E+00  0.167482003570E+00  0.232907179743E-01
  0.140896648169E+00  0.717779994011E-01 -0.305187534541E-01
  0.140896648169E+00  0.717779994011E-01  0.305187534541E-01
  0.141303941607E+00  0.215333998203E+00 -0.176552738994E-01
  0.141303941607E+00  0.215333998203E+00  0.176552738994E-01
  0.142953783274E+00  0.239259991795E-01 -0.332925543189E-01
  0.142953783274E+00  0.239259991795E-01  0.332925543189E-01
  0.151944324374E+00  0.263186007738E+00  0.000000000000E+00
  0.153042748570E+00  0.143555998802E+00 -0.269923508167E-01
  0.153042748570E+00  0.143555998802E+00  0.269923508167E-01
  0.153342247009E+00  0.191407993436E+00 -0.230736359954E-01
  0.153342247009E+00  0.191407993436E+00  0.230736359954E-01
  0.153816103935E+00  0.957039967179E-01 -0.302445273846E-01
  0.153816103935E+00  0.957039967179E-01  0.302445273846E-01
  0.154955744743E+00  0.239260002971E+00 -0.174875911325E-01
  0.154955744743E+00  0.239260002971E+00  0.174875911325E-01
  0.155626997352E+00  0.478519983590E-01 -0.329986847937E-01
  0.155626997352E+00  0.478519983590E-01  0.329986847937E-01
  0.158455848694E+00  0.000000000000E+00 -0.353712737560E-01
  0.158455848694E+00  0.000000000000E+00  0.353712737560E-01
  0.165757432580E+00  0.287111997604E+00  0.000000000000E+00
  0.166207939386E+00  0.167482003570E+00 -0.267430916429E-01
  0.166207939386E+00  0.167482003570E+00  0.267430916429E-01
  0.166735544801E+00  0.119630001485E+00 -0.299702994525E-01
  0.166735544801E+00  0.119630001485E+00  0.299702994525E-01
  0.166752353311E+00  0.215333998203E+00 -0.228565540165E-01
  0.166752353311E+00  0.215333998203E+00  0.228565540165E-01
  0.168300196528E+00  0.717779994011E-01 -0.327048152685E-01
  0.168300196528E+00  0.717779994011E-01  0.327048152685E-01
  0.168607532978E+00  0.263186007738E+00 -0.173199083656E-01
  0.168607532978E+00  0.263186007738E+00  0.173199083656E-01
  0.170882523060E+00  0.239259991795E-01 -0.350617878139E-01
  0.170882523060E+00  0.239259991795E-01  0.350617878139E-01
  0.179373130202E+00  0.191407993436E+00 -0.264938306063E-01
  0.179373130202E+00  0.191407993436E+00  0.264938306063E-01
  0.179570555687E+00  0.311037987471E+00  0.000000000000E+00
  0.179654985666E+00  0.143555998802E+00 -0.296960715204E-01
  0.179654985666E+00  0.143555998802E+00  0.296960715204E-01
  0.180162444711E+00  0.239260002971E+00 -0.226394720376E-01
  0.180162444711E+00  0.239260002971E+00  0.226394720376E-01
  0.180973410606E+00  0.957039967179E-01 -0.324109420180E-01
  0.180973410606E+00  0.957039967179E-01  0.324109420180E-01
  0.182259336114E+00  0.287111997604E+00 -0.171522255987E-01
  0.182259336114E+00  0.287111997604E+00  0.171522255987E-01
  0.183309212327E+00  0.478519983590E-01 -0.347523018718E-01
  0.183309212327E+00  0.478519983590E-01  0.347523018718E-01
  0.186651825905E+00  0.000000000000E+00 -0.367915518582E-01
  0.186651825905E+00  0.000000000000E+00  0.367915518582E-01
  0.192538321018E+00  0.215333998203E+00 -0.262445714325E-01
  0.192538321018E+00  0.215333998203E+00  0.262445714325E-01
  0.192574426532E+00  0.167482003570E+00 -0.294218435884E-01
  0.192574426532E+00  0.167482003570E+00  0.294218435884E-01
  0.193383678794E+00  0.334964007139E+00  0.000000000000E+00
  0.193572536111E+00  0.263186007738E+00 -0.224223900586E-01
  0.193572536111E+00  0.263186007738E+00  0.224223900586E-01
  0.193646609783E+00  0.119630001485E+00 -0.321170724928E-01
  0.193646609783E+00  0.119630001485E+00  0.321170724928E-01
  0.195735886693E+00  0.717779994011E-01 -0.344428122044E-01
  0.195735886693E+00  0.717779994011E-01  0.344428122044E-01
  0.195911124349E+00  0.311037987471E+00 -0.169845428318E-01
  0.195911124349E+00  0.311037987471E+00  0.169845428318E-01
  0.198831796646E+00  0.239259991795E-01 -0.364696383476E-01
  0.198831796646E+00  0.239259991795E-01  0.364696383476E-01
  0.205493867397E+00  0.191407993436E+00 -0.291476156563E-01
  0.205493867397E+00  0.191407993436E+00  0.291476156563E-01
  0.205703511834E+00  0.239260002971E+00 -0.259953103960E-01
  0.205703511834E+00  0.239260002971E+00  0.259953103960E-01
  0.206319823861E+00  0.143555998802E+00 -0.318232029676E-01
  0.206319823861E+00  0.143555998802E+00  0.318232029676E-01
  0.206982642412E+00  0.287111997604E+00 -0.222053080797E-01
  0.206982642412E+00  0.287111997604E+00  0.222053080797E-01
  0.207196801901E+00  0.358889997005E+00  0.000000000000E+00
  0.208162575960E+00  0.957039967179E-01 -0.341333262622E-01
  0.208162575960E+00  0.957039967179E-01  0.341333262622E-01
  0.209562927485E+00  0.334964007139E+00 -0.168168619275E-01
  0.209562927485E+00  0.334964007139E+00  0.168168619275E-01
  0.211011782289E+00  0.478519983590E-01 -0.361477248371E-01
  0.211011782289E+00  0.478519983590E-01  0.361477248371E-01
  0.214861869812E+00  0.000000000000E+00 -0.378986261785E-01
  0.214861869812E+00  0.000000000000E+00  0.378986261785E-01
  0.218413308263E+00  0.215333998203E+00 -0.288733895868E-01
  0.218413308263E+00  0.215333998203E+00  0.288733895868E-01
  0.218868702650E+00  0.263186007738E+00 -0.257460512221E-01
  0.218868702650E+00  0.263186007738E+00  0.257460512221E-01
  0.218993023038E+00  0.167482003570E+00 -0.315293334424E-01
  0.218993023038E+00  0.167482003570E+00  0.315293334424E-01
  0.220392733812E+00  0.311037987471E+00 -0.219882261008E-01
  0.220392733812E+00  0.311037987471E+00  0.219882261008E-01
  0.220589250326E+00  0.119630001485E+00 -0.338238403201E-01
  0.220589250326E+00  0.119630001485E+00  0.338238403201E-01
  0.221009910107E+00  0.382815986872E+00  0.000000000000E+00
  0.223191753030E+00  0.717779994011E-01 -0.358258113265E-01
  0.223191753030E+00  0.717779994011E-01  0.358258113265E-01
  0.223214715719E+00  0.358889997005E+00 -0.166491791606E-01
  0.223214715719E+00  0.358889997005E+00  0.166491791606E-01
  0.226795017719E+00  0.239259991795E-01 -0.375670231879E-01
  0.226795017719E+00  0.239259991795E-01  0.375670231879E-01
[...]
CELL_DATA                6372
SCALARS C_p_ise float 1
LOOKUP_TABLE default
 -0.323987812200E+00
 -0.197531609463E+00
 -0.192979229977E+00
 -0.209185053254E+00
 -0.224133869931E+00
 -0.238508525447E+00
 -0.253873526309E+00
 -0.270633347151E+00
 -0.288192901636E+00
 -0.305315989133E+00
 -0.320391845068E+00
 -0.331780191792E+00
 -0.338077816869E+00
 -0.338349938732E+00
 -0.332289190863E+00
 -0.320258041166E+00
 -0.303236347105E+00
 -0.282668317731E+00
 -0.260168789337E+00
 -0.237228209978E+00
 -0.214740688643E+00
 -0.192441726995E+00
 -0.168442531111E+00
 -0.138741046240E+00
 -0.970849743921E-01
 -0.350498272595E-01
  0.401184396389E-01
 -0.403342271145E+00
 -0.234016324403E+00
 -0.215874812187E+00
 -0.225499446370E+00
 -0.236749707241E+00
 -0.249024530724E+00
 -0.263146373565E+00
 -0.279020489576E+00
 -0.295725930588E+00
 -0.311827201568E+00
 -0.325625243950E+00
 -0.335481011847E+00
 -0.340064334193E+00
 -0.338560301679E+00
 -0.330802653641E+00
 -0.317284478327E+00
 -0.299083555685E+00
 -0.277681139649E+00
 -0.254660667085E+00
 -0.231402231077E+00
 -0.208610572652E+00
 -0.185776999789E+00
 -0.160746683333E+00
 -0.129288570027E+00
 -0.850534748375E-01
 -0.196053044294E-01
  0.618831904223E-01
 -0.452613106681E+00
 -0.263131633471E+00
 -0.235974873563E+00
 -0.240653577476E+00
 -0.248906895639E+00
 -0.259293225852E+00
 -0.272126920977E+00
 -0.286971251468E+00
 -0.302677879637E+00
 -0.317676033172E+00
 -0.330209519598E+00
 -0.338646964024E+00
 -0.341715483976E+00
 -0.338689074607E+00
 -0.329500482790E+00
 -0.314731192941E+00
 -0.295516735116E+00
 -0.273350109618E+00
 -0.249772237194E+00
 -0.226062770220E+00
 -0.202776054124E+00
 -0.179224655094E+00
 -0.153078372674E+00
 -0.119988284039E+00
 -0.736094819269E-01
 -0.556071220592E-02
  0.779866830113E-01
 -0.486681386751E+00
 -0.286297322017E+00
 -0.253220479289E+00
 -0.254296972717E+00
 -0.260182989115E+00
 -0.268933949504E+00
 -0.280535083936E+00
 -0.294320548441E+00
 -0.308987868055E+00
 -0.322877440503E+00
 -0.334199587243E+00
 -0.341335212124E+00
 -0.343058106575E+00
 -0.338708743699E+00
 -0.328290451091E+00
 -0.312443428071E+00
 -0.292335176448E+00
 -0.269454753587E+00
 -0.245297098992E+00
 -0.221055743488E+00
 -0.197169540520E+00
 -0.172827061199E+00
 -0.145599751571E+00
 -0.111114401193E+00
 -0.631364759950E-01
  0.634464261896E-02
  0.891518919500E-01
 -0.512124360895E+00
 -0.305175253215E+00
 -0.268067823091E+00
 -0.266481729791E+00
 -0.270479960607E+00
 -0.277817157128E+00
 -0.288268561146E+00
 -0.301016195946E+00
 -0.314655624873E+00
 -0.327470797843E+00
 -0.337654328326E+00
 -0.343602218014E+00
 -0.344126059296E+00
 -0.338616365770E+00
 -0.327126106438E+00
 -0.310333288071E+00
 -0.289420944585E+00
 -0.265865020253E+00
 -0.241116862229E+00
 -0.216299972973E+00
 -0.191769743667E+00
 -0.166638190900E+00
 -0.138438801165E+00
 -0.102845055579E+00
 -0.538261636483E-01
  0.160290051372E-01
  0.971338472880E-01
 -0.532157063870E+00
 -0.320923913853E+00
 -0.280957738670E+00
 -0.277350301530E+00
 -0.279812267497E+00
 -0.285916806723E+00
 -0.295305052779E+00
 -0.307059421298E+00
 -0.319709792983E+00
 -0.331505386637E+00
 -0.340631672366E+00
 -0.345500055493E+00
 -0.344952709759E+00
 -0.338417006099E+00
 -0.325980654117E+00
 -0.308344813090E+00
 -0.286697550595E+00
 -0.262498149244E+00
 -0.237160097232E+00
 -0.211753914685E+00
 -0.186579605669E+00
 -0.160711617288E+00
 -0.131692140254E+00
 -0.952914412705E-01
 -0.457400870501E-01
  0.238050751582E-01
  0.103140393727E+00
 -0.548533861334E+00
 -0.334319721487E+00
 -0.292242243154E+00
 -0.287052787414E+00
 -0.288235967712E+00
 -0.293253384515E+00
 -0.301661244930E+00
 -0.312478206423E+00
 -0.324192480870E+00
 -0.335033227278E+00
 -0.343185389910E+00
 -0.347074546014E+00
 -0.345567070345E+00
 -0.338117520086E+00
 -0.324836910486E+00
 -0.306440085874E+00
 -0.284113967205E+00
 -0.259301171917E+00
 -0.233385530606E+00
 -0.207400498264E+00
 -0.181615043258E+00
 -0.155096451563E+00
 -0.125427971351E+00
 -0.885050525790E-01
 -0.388167658743E-01
  0.300893707392E-01
  0.107911477796E+00
 -0.562295726065E+00
 -0.345890660560E+00
 -0.302192195490E+00
 -0.295726125952E+00
 -0.295820858775E+00
 -0.299869044724E+00
 -0.307373593358E+00
 -0.317313194250E+00
 -0.328151050215E+00
 -0.338105368054E+00
 -0.345363863366E+00
 -0.348365229592E+00
 -0.345994197351E+00
 -0.337724818352E+00
 -0.323683783549E+00
 -0.304593240279E+00
 -0.281636426332E+00
 -0.256241892715E+00
 -0.229771691668E+00
 -0.203237544436E+00
 -0.176896882905E+00
 -0.149831271786E+00
 -0.119684481833E+00
 -0.824809456543E-01
 -0.329179342863E-01
  0.352494757312E-01
  0.111852783966E+00
 -0.574098819588E+00
 -0.356005128057E+00
 -0.311015971080E+00
 -0.303489566014E+00
 -0.302639626614E+00
 -0.305815232708E+00
 -0.312487414519E+00
 -0.321610931120E+00
 -0.331633543039E+00
 -0.340769364874E+00
 -0.347210486301E+00
 -0.349406123094E+00
 -0.346255212227E+00
 -0.337245853733E+00
 -0.322514887373E+00
 -0.302787656136E+00
 -0.279244080281E+00
 -0.253302119941E+00
 -0.226310194706E+00
 -0.199270705117E+00
 -0.172444376867E+00
 -0.144940678417E+00
 -0.114470487785E+00
 -0.771710305986E-01
 -0.278807774318E-01
  0.395667586487E-01
  0.115116717937E+00
 -0.584379143906E+00
 -0.364927487848E+00
 -0.318875761835E+00
 -0.310446004930E+00
 -0.308762202546E+00
 -0.311146666399E+00
 -0.317051718589E+00
 -0.325418417499E+00
 -0.334686524186E+00
 -0.343069217526E+00
 -0.348763272692E+00
 -0.350226559149E+00
 -0.346368792428E+00
 -0.336687804932E+00
 -0.321327065858E+00
 -0.301013839806E+00
 -0.276925329410E+00
 -0.250473292997E+00
 -0.223000074754E+00
 -0.195508138907E+00
 -0.168271326359E+00
 -0.140434133325E+00
 -0.109769772005E+00
 -0.725020813904E-01
 -0.235505029232E-01
  0.432423064611E-01
  0.117936168558E+00
 -0.593436199151E+00
 -0.372852644879E+00
 -0.325900609351E+00
 -0.316684149981E+00
 -0.314254262615E+00
 -0.315917254950E+00
 -0.321115360442E+00
 -0.328781922745E+00
 -0.337353649629E+00
 -0.345044644370E+00
 -0.350055876978E+00
 -0.350852176125E+00
 -0.346351205903E+00
 -0.336058189510E+00
 -0.320120538240E+00
 -0.299267546677E+00
 -0.274675223869E+00
 -0.247752930900E+00
 -0.219843941732E+00
 -0.191957030291E+00
 -0.164384461246E+00
 -0.136306601398E+00
 -0.105548120948E+00
 -0.683916370042E-01
 -0.197944402237E-01
  0.464232637235E-01
  0.120420305578E+00
 -0.601485289027E+00
 -0.379928506719E+00
 -0.332194631917E+00
 -0.322280985382E+00
 -0.319176864085E+00
 -0.320178881526E+00
 -0.324724850762E+00
 -0.331745065556E+00
 -0.339675365396E+00
 -0.346731330879E+00
 -0.351117882143E+00
 -0.351305524977E+00
 -0.346217755227E+00
 -0.335364832848E+00
 -0.318897847801E+00
 -0.297548200919E+00
 -0.272492850132E+00
 -0.245142546257E+00
 -0.216845300639E+00
 -0.188621024808E+00
 -0.160782577961E+00
 -0.132541337293E+00
 -0.101760842613E+00
 -0.647590827143E-01
 -0.165038240713E-01
  0.492177558544E-01
  0.122642043078E+00
 -0.608685442351E+00
 -0.386270345712E+00
 -0.337844031778E+00
 -0.327303818606E+00
 -0.323585489670E+00
 -0.323980127664E+00
 -0.327924431797E+00
 -0.334348353044E+00
 -0.341688187888E+00
 -0.348161304896E+00
 -0.351975895512E+00
 -0.351606791765E+00
 -0.345982121316E+00
 -0.334616188969E+00
 -0.317663426496E+00
 -0.295858066857E+00
 -0.270379902011E+00
 -0.242644341992E+00
 -0.214006832656E+00
 -0.185499837333E+00
 -0.157456611956E+00
 -0.129113230560E+00
 -0.983590881554E-01
 -0.615307715576E-01
 -0.135909564046E-01
  0.517057229725E-01
  0.124653671705E+00
 -0.615157099303E+00
 -0.391970308529E+00
 -0.342921329185E+00
 -0.331812170802E+00
 -0.327530726256E+00
 -0.327365700454E+00
 -0.330755048626E+00
 -0.336629175117E+00
 -0.343425367602E+00
 -0.349363305346E+00
 -0.352653291264E+00
 -0.351774122497E+00
 -0.345657595698E+00
 -0.333820953141E+00
 -0.316422707272E+00
 -0.294200842509E+00
 -0.268339567524E+00
 -0.240260403835E+00
 -0.211328387857E+00
 -0.182588933514E+00
 -0.154391919268E+00
 -0.125991897069E+00
 -0.952943409262E-01
 -0.586420342061E-01
 -0.109856157143E-01
  0.539476522358E-01
  0.126496658724E+00
 -0.620994750485E+00
 -0.397104211251E+00
 -0.347488548204E+00
 -0.335858094687E+00
 -0.331058606281E+00
 -0.330377343811E+00
 -0.333254118192E+00
 -0.338621247329E+00
 -0.344917187774E+00
 -0.350362998898E+00
 -0.353171478835E+00
 -0.351824267231E+00
 -0.345256173818E+00
 -0.332987942539E+00
 -0.315182014154E+00
 -0.292580752918E+00
 -0.266374472425E+00
 -0.237991881016E+00
 -0.208807442805E+00
 -0.179879003701E+00
 -0.151569343890E+00
 -0.123145315978E+00
 -0.925206627063E-01
 -0.560369549242E-01
 -0.863199484818E-02
  0.559905145733E-01
  0.128202251071E+00
 -0.626275232751E+00
 -0.401735116482E+00
 -0.351598975242E+00
 -0.339488771231E+00
 -0.334210942960E+00
 -0.333052628087E+00
 -0.335456187177E+00
 -0.340355511015E+00
 -0.346190459730E+00
 -0.351183662960E+00
 -0.353549619220E+00
 -0.351772458917E+00
 -0.344789728802E+00
 -0.332125695346E+00
 -0.313947389285E+00
 -0.291002077459E+00
 -0.264486631894E+00
 -0.235837737449E+00
 -0.206438696049E+00
 -0.177357627631E+00
 -0.148967103708E+00
 -0.120541038211E+00
 -0.899957611697E-01
 -0.536682573262E-01
 -0.648431952924E-02
  0.578716697948E-01
  0.129796934842E+00
 -0.631061184449E+00
 -0.405917156999E+00
 -0.355299750084E+00
 -0.342745929994E+00
 -0.337025646037E+00
 -0.335426146660E+00
 -0.337392263426E+00
 -0.341859912843E+00
 -0.347270031760E+00
 -0.351846294456E+00
 -0.353805215315E+00
 -0.351632582342E+00
 -0.344268967047E+00
 -0.331242417560E+00
 -0.312724502815E+00
 -0.289468185862E+00
 -0.262676757321E+00
 -0.233794717227E+00
 -0.204213932957E+00
 -0.175010034975E+00
 -0.146561866724E+00
 -0.118147276634E+00
 -0.876817850035E-01
 -0.514960986650E-01
 -0.450508423665E-02
  0.596209688563E-01
  0.131300095580E+00
 -0.635405533310E+00
 -0.409696356319E+00
 -0.358632479423E+00
 -0.345667545858E+00
 -0.339537106032E+00
 -0.337529083272E+00
 -0.339091012563E+00
 -0.343159826084E+00
 -0.348177992552E+00
 -0.352370184538E+00
 -0.353953897580E+00
 -0.351417487038E+00
 -0.343704010416E+00
 -0.330345381223E+00
 -0.311518220607E+00
 -0.287981012100E+00
 -0.260943614768E+00
 -0.231858003569E+00
 -0.202122751202E+00
 -0.172819141808E+00
 -0.144329941269E+00
 -0.115934304426E+00
 -0.855450155183E-01
 -0.494859428904E-01
 -0.266331253938E-02
  0.612630275892E-01
  0.132739117334E+00
 -0.639353259124E+00
 -0.413113962933E+00
 -0.361634550896E+00
 -0.348287344941E+00
 -0.341776626897E+00
 -0.339390288893E+00
 -0.340578149189E+00
 -0.344278480731E+00
 -0.348934570632E+00
 -0.352772429542E+00
 -0.354010381077E+00
 -0.351138712203E+00
 -0.343103593647E+00
 -0.329441012991E+00
 -0.310332156029E+00
 -0.286541182906E+00
 -0.259284568994E+00
 -0.230020439933E+00
 -0.200152913159E+00
 -0.170767179498E+00
 -0.142248073572E+00
 -0.113874431726E+00
 -0.835551606248E-01
 -0.476083489590E-01
 -0.932874351372E-03
  0.628190717529E-01
  0.134132272891E+00
 -0.642943944256E+00
 -0.416206063798E+00
 -0.364339177630E+00
 -0.350636661133E+00
 -0.343772852419E+00
 -0.341035689600E+00
 -0.341877099379E+00
 -0.345236858514E+00
 -0.349558465940E+00
 -0.353068710868E+00
 -0.353987561814E+00
 -0.350806648246E+00
 -0.342475634446E+00
 -0.328534360541E+00
 -0.309168386961E+00
 -0.285147770804E+00
 -0.257694892171E+00
 -0.228273145709E+00
 -0.198290457423E+00
 -0.168835553439E+00
 -0.140293682258E+00
 -0.111941794648E+00
 -0.816853402260E-01
 -0.458374992828E-01
  0.708890850186E-03
  0.643074578247E-01
  0.135451130227E+00
 -0.646211896527E+00
 -0.419005656452E+00
 -0.366776792284E+00
 -0.352743400737E+00
 -0.345551662546E+00
 -0.342489190369E+00
 -0.343009804625E+00
 -0.346053958978E+00
 -0.350066207485E+00
 -0.353273496785E+00
 -0.353896899095E+00
 -0.350430501866E+00
 -0.341826612425E+00
 -0.327628839134E+00
 -0.308027530847E+00
 -0.283798137475E+00
 -0.256168114330E+00
 -0.226605131258E+00
 -0.196520858038E+00
 -0.167005641469E+00
 -0.138444479630E+00
 -0.110112370784E+00
 -0.799114752081E-01
 -0.441506621475E-01
  0.228154956069E-02
  0.657430831023E-01
  0.136732642546E+00
 -0.649189224422E+00
 -0.421541867350E+00
 -0.368974940367E+00
 -0.354633585711E+00
 -0.347136968469E+00
 -0.343772563872E+00
 -0.343995946771E+00
 -0.346747646974E+00
 -0.350472844894E+00
 -0.353399356908E+00
 -0.353749044807E+00
 -0.350017875266E+00
 -0.341161343263E+00
 -0.326726691732E+00
 -0.306908686097E+00
 -0.282487692080E+00
 -0.254695855418E+00
 -0.225004684179E+00
 -0.194828505436E+00
 -0.165258482121E+00
 -0.136679323303E+00
 -0.108363846012E+00
 -0.782114638870E-01
 -0.425276378364E-01
  0.380294327229E-02
  0.671404019968E-01
  0.137990529340E+00
 -0.651904522089E+00
 -0.423841310846E+00
 -0.370959046519E+00
 -0.356330659140E+00
 -0.348550660612E+00
 -0.344906266027E+00
 -0.344853388534E+00
 -0.347333851647E+00
 -0.350792443864E+00
 -0.353457649355E+00
 -0.353552666567E+00
 -0.349575134523E+00
 -0.340483319503E+00
 -0.325828118095E+00
 -0.305808848326E+00
 -0.281210133422E+00
 -0.253268305783E+00
 -0.223458404952E+00
 -0.193196690282E+00
 -0.163575273344E+00
 -0.134977702491E+00
 -0.106675223356E+00
 -0.765649241519E-01
 -0.409495202952E-01
  0.528901174281E-02
  0.685126747227E-01
  0.139232948146E+00
 -0.654382170740E+00
 -0.425929168083E+00
 -0.372752256335E+00
 -0.357856681687E+00
 -0.349813381772E+00
 -0.345908585248E+00
 -0.345599062020E+00
 -0.347827047568E+00
 -0.351037308656E+00
 -0.353458668323E+00
 -0.353315268509E+00
 -0.349106807823E+00
 -0.339794203736E+00
 -0.324931820424E+00
 -0.304723210388E+00
 -0.279957363822E+00
 -0.251874125654E+00
 -0.221951715116E+00
 -0.191608435613E+00
 -0.161936804997E+00
 -0.133319747847E+00
 -0.105026443438E+00
 -0.749529086935E-01
 -0.393992508343E-01
  0.675428495531E-02
  0.698714082055E-01
  0.140468020922E+00
 -0.656646272228E+00
 -0.427828242282E+00
 -0.374376483103E+00
 -0.359232149012E+00
 -0.350943797200E+00
 -0.346796888049E+00
 -0.346248448484E+00
 -0.348240707088E+00
 -0.351218582055E+00
 -0.353410908674E+00
 -0.353042826889E+00
 -0.348615915819E+00
 -0.339093747684E+00
 -0.324034393206E+00
 -0.303645111257E+00
 -0.278718984456E+00
 -0.250499986827E+00
 -0.220468852634E+00
 -0.190045901598E+00
 -0.160323810641E+00
 -0.131685170468E+00
 -0.103398278185E+00
 -0.733573638477E-01
 -0.378606326235E-01
  0.821269906208E-02
  0.712277566929E-01
  0.141705261133E+00
 -0.658720698522E+00
 -0.429560145209E+00
 -0.375851935976E+00
 -0.360476138604E+00
 -0.351959792830E+00
 -0.347587228816E+00
 -0.346815703776E+00
 -0.348587133979E+00
 -0.351346077267E+00
 -0.353321487140E+00
 -0.352739585843E+00
 -0.348103628242E+00
 -0.338379887815E+00
 -0.323130039038E+00
 -0.302565330525E+00
 -0.277483089497E+00
 -0.249130925606E+00
 -0.218992485372E+00
 -0.188489914396E+00
 -0.158716645884E+00
 -0.130054532842E+00
 -0.101771809289E+00
 -0.717606544456E-01
 -0.363180537057E-01
  0.967708917092E-02
  0.725921475223E-01
  0.142950755570E+00
 -0.660624581727E+00
 -0.431144165315E+00
 -0.377198269586E+00
 -0.361606691309E+00
 -0.352878028788E+00
 -0.348294977742E+00
 -0.347314135540E+00
 -0.348877205586E+00
 -0.351428282512E+00
 -0.353196173051E+00
 -0.352408038957E+00
 -0.347568991963E+00
 -0.337648155884E+00
 -0.322210798970E+00
 -0.301472515284E+00
 -0.276235159464E+00
 -0.247749978335E+00
 -0.217503710969E+00
 -0.186920601124E+00
 -0.157094894785E+00
 -0.128408205351E+00
 -0.100128206589E+00
 -0.701457317500E-01
 -0.347572560261E-01
  0.111595696694E-01
  0.739740576983E-01
  0.144211981251E+00
 -0.662377158146E+00
 -0.432600698186E+00
 -0.378433450086E+00
 -0.362641433188E+00
 -0.353714650230E+00
 -0.348934054708E+00
 -0.347756139787E+00
 -0.349121017089E+00
 -0.351472262301E+00
 -0.353038938815E+00
 -0.352048672566E+00
 -0.347008744280E+00
 -0.336891317234E+00
 -0.321265857742E+00
 -0.300352603863E+00
 -0.274958026861E+00
 -0.246337846672E+00
 -0.215981972069E+00
 -0.185316630003E+00
 -0.155437398324E+00
 -0.126725928265E+00
 -0.984487836602E-01
 -0.684960738713E-01
 -0.331636474836E-01
  0.126722313187E-01
  0.753823269042E-01
  0.145506633531E+00
 -0.663999690632E+00
 -0.433947997183E+00
 -0.379575558646E+00
 -0.363597033484E+00
 -0.354485030000E+00
 -0.349518551503E+00
 -0.348153047979E+00
 -0.349327299309E+00
 -0.351483821038E+00
 -0.352851768567E+00
 -0.351659557321E+00
 -0.346416728296E+00
 -0.336099169144E+00
 -0.320280997551E+00
 -0.299188001396E+00
 -0.273631599990E+00
 -0.244872428911E+00
 -0.214404191423E+00
 -0.183655020096E+00
 -0.153721981930E+00
 -0.124986724603E+00
 -0.967144045528E-01
 -0.667949238541E-01
 -0.315232235777E-01
  0.142266696514E-01
  0.768258732796E-01
  0.146840692724E+00
 -0.665509521445E+00
 -0.435204792592E+00
 -0.380642284152E+00
 -0.364490095025E+00
 -0.355204406191E+00
 -0.350061597635E+00
 -0.348515615925E+00
 -0.349503662209E+00
 -0.351467016162E+00
 -0.352634461639E+00
 -0.351235864192E+00
 -0.345783425446E+00
 -0.335257601984E+00
 -0.319238312714E+00
 -0.297957281826E+00
 -0.272232139296E+00
 -0.243328905389E+00
 -0.212745035522E+00
 -0.181911283903E+00
 -0.151925366822E+00
 -0.123168871472E+00
 -0.949060409198E-01
 -0.650258422311E-01
 -0.298220956763E-01
  0.158331929414E-01
  0.783126209514E-01
  0.148188892711E+00
 -0.666924926842E+00
 -0.436389534526E+00
 -0.381651646966E+00
 -0.365337387800E+00
 -0.355887818311E+00
 -0.350576091619E+00
 -0.348853800746E+00
 -0.349656553436E+00
 -0.351423722526E+00
 -0.352383949560E+00
 -0.350769148773E+00
 -0.345095047588E+00
 -0.334347906358E+00
 -0.318114650139E+00
 -0.296634542720E+00
 -0.270732019507E+00
 -0.241678611594E+00
 -0.210976553646E+00
 -0.180058767128E+00
 -0.150022576642E+00
 -0.121249884386E+00
 -0.930041720261E-01
 -0.631721491619E-01
 -0.280469080533E-01
  0.175017491648E-01
  0.798489268222E-01
  0.149574044484E+00
 -0.668266075066E+00
 -0.437521132145E+00
 -0.382621864733E+00
 -0.366156154101E+00
 -0.356550594313E+00
 -0.351074703360E+00
 -0.349177092883E+00
 -0.349790631216E+00
 -0.351353261447E+00
 -0.352093440287E+00
 -0.350246195435E+00
 -0.344332364072E+00
 -0.333345448625E+00
 -0.316881269506E+00
 -0.295188149610E+00
 -0.269098297870E+00
 -0.239889245956E+00
 -0.209067932570E+00
 -0.178067893874E+00
 -0.147987050193E+00
 -0.119206780861E+00
 -0.909883912114E-01
 -0.612173555584E-01
 -0.261845838155E-01
  0.192421178118E-01
  0.814406496002E-01
  0.150994916737E+00
 -0.669551435434E+00
 -0.438619549209E+00
 -0.383572518220E+00
 -0.366964408371E+00
 -0.357208848365E+00
 -0.351570293445E+00
 -0.349493732454E+00
 -0.349908617006E+00
 -0.351251330311E+00
 -0.351751301635E+00
 -0.349647696669E+00
 -0.343468830447E+00
 -0.332217979712E+00
 -0.315502203491E+00
 -0.293580140153E+00
 -0.267293060752E+00
 -0.237924505152E+00
 -0.206984264525E+00
 -0.175907586884E+00
 -0.145791211525E+00
 -0.117015059789E+00
 -0.888384823550E-01
 -0.591448677782E-01
 -0.242226262862E-01
  0.210632349020E-01
  0.830928283944E-01
  0.152456901901E+00
 -0.670802044745E+00
 -0.439706876742E+00
 -0.384524805631E+00
 -0.367782203750E+00
 -0.357879441999E+00
 -0.352075866098E+00
 -0.349810879436E+00
 -0.350010174844E+00
 -0.351108780897E+00
 -0.351338738898E+00
 -0.348945743828E+00
 -0.342468597050E+00
 -0.330924044584E+00
 -0.313932677278E+00
 -0.291765290983E+00
 -0.265272246021E+00
 -0.235742741766E+00
 -0.204688118723E+00
 -0.173543906244E+00
 -0.143405614655E+00
 -0.114649456704E+00
 -0.865336289260E-01
 -0.569381807491E-01
 -0.221486583644E-01
  0.229724400893E-01
  0.848098124698E-01
  0.153962812867E+00
 -0.672043629162E+00
 -0.440808153215E+00
 -0.385503102073E+00
 -0.368631461293E+00
 -0.358581268083E+00
 -0.352604393463E+00
 -0.350133461598E+00
 -0.350090330872E+00
 -0.350909296096E+00
 -0.350827289744E+00
 -0.348100747971E+00
 -0.341283738161E+00
 -0.329410438235E+00
 -0.312117925357E+00
 -0.289689946335E+00
 -0.262985416337E+00
 -0.233297528168E+00
 -0.202138353956E+00
 -0.170941098349E+00
 -0.140798706906E+00
 -0.112084245188E+00
 -0.840525127521E-01
 -0.545808877447E-01
 -0.199515458667E-01
  0.249763857168E-01
  0.865935251607E-01
  0.155507024319E+00
 -0.673299004354E+00
 -0.441951235237E+00
 -0.386535242602E+00