# vtk DataFile Version 3.0
MachLine results file. Generated by MachLine, USU AeroLab (c) 2022.
ASCII
DATASET POLYDATA
POINTS                3261 float
  0.000000000000E+00  0.000000000000E+00  0.000000000000E+00
  0.138131193817E-01  0.239259991795E-01  0.000000000000E+00
  0.184377916157E-01  0.000000000000E+00 -0.191644169390E-01
  0.184377916157E-01  0.000000000000E+00  0.191644169390E-01
  0.276262387633E-01  0.478519983590E-01  0.000000000000E+00
  0.320895873010E-01  0.239259991795E-01 -0.189967341721E-01
  0.320895873010E-01  0.239259991795E-01  0.189967341721E-01
  0.414393581450E-01  0.717779994011E-01  0.000000000000E+00
  0.457413829863E-01  0.478519983590E-01 -0.188290514052E-01
  0.457413829863E-01  0.478519983590E-01  0.188290514052E-01
  0.460614785552E-01  0.000000000000E+00 -0.248102936894E-01
  0.460614785552E-01  0.000000000000E+00  0.248102936894E-01
  0.552524775267E-01  0.957039967179E-01  0.000000000000E+00
  0.593931749463E-01  0.717779994011E-01 -0.186613686383E-01
  0.593931749463E-01  0.717779994011E-01  0.186613686383E-01
  0.594715774059E-01  0.239259991795E-01 -0.245932117105E-01
  0.594715774059E-01  0.239259991795E-01  0.245932117105E-01
  0.690656006336E-01  0.119630001485E+00  0.000000000000E+00
  0.728816688061E-01  0.478519983590E-01 -0.243761278689E-01
  0.728816688061E-01  0.478519983590E-01  0.243761278689E-01
  0.730449706316E-01  0.957039967179E-01 -0.184936858714E-01
  0.730449706316E-01  0.957039967179E-01  0.184936858714E-01
  0.740515887737E-01  0.000000000000E+00 -0.284879114479E-01
  0.740515887737E-01  0.000000000000E+00  0.284879114479E-01
  0.828787162900E-01  0.143555998802E+00  0.000000000000E+00
  0.862917676568E-01  0.717779994011E-01 -0.241590458900E-01
  0.862917676568E-01  0.717779994011E-01  0.241590458900E-01
  0.866967663169E-01  0.119630001485E+00 -0.183260031044E-01
  0.866967663169E-01  0.119630001485E+00  0.183260031044E-01
  0.872167795897E-01  0.239259991795E-01 -0.282386522740E-01
  0.872167795897E-01  0.239259991795E-01  0.282386522740E-01
  0.966918393970E-01  0.167482003570E+00  0.000000000000E+00
  0.997018665075E-01  0.957039967179E-01 -0.239419639111E-01
  0.997018665075E-01  0.957039967179E-01  0.239419639111E-01
  0.100348562002E+00  0.143555998802E+00 -0.181583203375E-01
  0.100348562002E+00  0.143555998802E+00  0.181583203375E-01
  0.100381970406E+00  0.478519983590E-01 -0.279893912375E-01
  0.100381970406E+00  0.478519983590E-01  0.279893912375E-01
  0.102138325572E+00  0.000000000000E+00 -0.313414372504E-01
  0.102138325572E+00  0.000000000000E+00  0.313414372504E-01
  0.110504955053E+00  0.191407993436E+00  0.000000000000E+00
  0.113111965358E+00  0.119630001485E+00 -0.237248819321E-01
  0.113111965358E+00  0.119630001485E+00  0.237248819321E-01
  0.113547168672E+00  0.717779994011E-01 -0.277401320636E-01
  0.113547168672E+00  0.717779994011E-01  0.277401320636E-01
  0.114000357687E+00  0.167482003570E+00 -0.179906394333E-01
  0.114000357687E+00  0.167482003570E+00  0.179906394333E-01
  0.115057766438E+00  0.239259991795E-01 -0.310672093183E-01
  0.115057766438E+00  0.239259991795E-01  0.310672093183E-01
  0.124318078160E+00  0.215333998203E+00  0.000000000000E+00
  0.126522064209E+00  0.143555998802E+00 -0.235077999532E-01
  0.126522064209E+00  0.143555998802E+00  0.235077999532E-01
  0.126712352037E+00  0.957039967179E-01 -0.274908710271E-01
  0.126712352037E+00  0.957039967179E-01  0.274908710271E-01
  0.127652153373E+00  0.191407993436E+00 -0.178229566664E-01
  0.127652153373E+00  0.191407993436E+00  0.178229566664E-01
  0.127977207303E+00  0.478519983590E-01 -0.307929813862E-01
  0.127977207303E+00  0.478519983590E-01  0.307929813862E-01
  0.130280584097E+00  0.000000000000E+00 -0.335864275694E-01
  0.130280584097E+00  0.000000000000E+00  0.335864275694E-01
  0.138131201267E+00  0.239260002971E+00  0.000000000000E+00
  0.139877542853E+00  0.119630001485E+00 -0.272416118532E-01
  0.139877542853E+00  0.119630001485E+00  0.272416118532E-01
  0.139932155609E+00  0.167482003570E+00 -0.232907179743E-01
  0.139932155609E+00  0.167482003570E+00  0.232907179743E-01
  0.140896648169E+00  0.717779994011E-01 -0.305187534541E-01
  0.140896648169E+00  0.717779994011E-01  0.305187534541E-01
  0.141303941607E+00  0.215333998203E+00 -0.176552738994E-01
  0.141303941607E+00  0.215333998203E+00  0.176552738994E-01
  0.142953783274E+00  0.239259991795E-01 -0.332925543189E-01
  0.142953783274E+00  0.239259991795E-01  0.332925543189E-01
  0.151944324374E+00  0.263186007738E+00  0.000000000000E+00
  0.153042748570E+00  0.143555998802E+00 -0.269923508167E-01
  0.153042748570E+00  0.143555998802E+00  0.269923508167E-01
  0.153342247009E+00  0.191407993436E+00 -0.230736359954E-01
  0.153342247009E+00  0.191407993436E+00  0.230736359954E-01
  0.153816103935E+00  0.957039967179E-01 -0.302445273846E-01
  0.153816103935E+00  0.957039967179E-01  0.302445273846E-01
  0.154955744743E+00  0.239260002971E+00 -0.174875911325E-01
  0.154955744743E+00  0.239260002971E+00  0.174875911325E-01
  0.155626997352E+00  0.478519983590E-01 -0.329986847937E-01
  0.155626997352E+00  0.478519983590E-01  0.329986847937E-01
  0.158455848694E+00  0.000000000000E+00 -0.353712737560E-01
  0.158455848694E+00  0.000000000000E+00  0.353712737560E-01
  0.165757432580E+00  0.287111997604E+00  0.000000000000E+00
  0.166207939386E+00  0.167482003570E+00 -0.267430916429E-01
  0.166207939386E+00  0.167482003570E+00  0.267430916429E-01
  0.166735544801E+00  0.119630001485E+00 -0.299702994525E-01
  0.166735544801E+00  0.119630001485E+00  0.299702994525E-01
  0.166752353311E+00  0.215333998203E+00 -0.228565540165E-01
  0.166752353311E+00  0.215333998203E+00  0.228565540165E-01
  0.168300196528E+00  0.717779994011E-01 -0.327048152685E-01
  0.168300196528E+00  0.717779994011E-01  0.327048152685E-01
  0.168607532978E+00  0.263186007738E+00 -0.173199083656E-01
  0.168607532978E+00  0.263186007738E+00  0.173199083656E-01
  0.170882523060E+00  0.239259991795E-01 -0.350617878139E-01
  0.170882523060E+00  0.239259991795E-01  0.350617878139E-01
  0.179373130202E+00  0.191407993436E+00 -0.264938306063E-01
  0.179373130202E+00  0.191407993436E+00  0.264938306063E-01
  0.179570555687E+00  0.311037987471E+00  0.000000000000E+00
  0.179654985666E+00  0.143555998802E+00 -0.296960715204E-01
  0.179654985666E+00  0.143555998802E+00  0.296960715204E-01
  0.180162444711E+00  0.239260002971E+00 -0.226394720376E-01
  0.180162444711E+00  0.239260002971E+00  0.226394720376E-01
  0.180973410606E+00  0.957039967179E-01 -0.324109420180E-01
  0.180973410606E+00  0.957039967179E-01  0.324109420180E-01
  0.182259336114E+00  0.287111997604E+00 -0.171522255987E-01
  0.182259336114E+00  0.287111997604E+00  0.171522255987E-01
  0.183309212327E+00  0.478519983590E-01 -0.347523018718E-01
  0.183309212327E+00  0.478519983590E-01  0.347523018718E-01
  0.186651825905E+00  0.000000000000E+00 -0.367915518582E-01
  0.186651825905E+00  0.000000000000E+00  0.367915518582E-01
  0.192538321018E+00  0.215333998203E+00 -0.262445714325E-01
  0.192538321018E+00  0.215333998203E+00  0.262445714325E-01
  0.192574426532E+00  0.167482003570E+00 -0.294218435884E-01
  0.192574426532E+00  0.167482003570E+00  0.294218435884E-01
  0.193383678794E+00  0.334964007139E+00  0.000000000000E+00
  0.193572536111E+00  0.263186007738E+00 -0.224223900586E-01
  0.193572536111E+00  0.263186007738E+00  0.224223900586E-01
  0.193646609783E+00  0.119630001485E+00 -0.321170724928E-01
  0.193646609783E+00  0.119630001485E+00  0.321170724928E-01
  0.195735886693E+00  0.717779994011E-01 -0.344428122044E-01
  0.195735886693E+00  0.717779994011E-01  0.344428122044E-01
  0.195911124349E+00  0.311037987471E+00 -0.169845428318E-01
  0.195911124349E+00  0.311037987471E+00  0.169845428318E-01
  0.198831796646E+00  0.239259991795E-01 -0.364696383476E-01
  0.198831796646E+00  0.239259991795E-01  0.364696383476E-01
  0.205493867397E+00  0.191407993436E+00 -0.291476156563E-01
  0.205493867397E+00  0.191407993436E+00  0.291476156563E-01
  0.205703511834E+00  0.239260002971E+00 -0.259953103960E-01
  0.205703511834E+00  0.239260002971E+00  0.259953103960E-01
  0.206319823861E+00  0.143555998802E+00 -0.318232029676E-01
  0.206319823861E+00  0.143555998802E+00  0.318232029676E-01
  0.206982642412E+00  0.287111997604E+00 -0.222053080797E-01
  0.206982642412E+00  0.287111997604E+00  0.222053080797E-01
  0.207196801901E+00  0.358889997005E+00  0.000000000000E+00
  0.208162575960E+00  0.957039967179E-01 -0.341333262622E-01
  0.208162575960E+00  0.957039967179E-01  0.341333262622E-01
  0.209562927485E+00  0.334964007139E+00 -0.168168619275E-01
  0.209562927485E+00  0.334964007139E+00  0.168168619275E-01
  0.211011782289E+00  0.478519983590E-01 -0.361477248371E-01
  0.211011782289E+00  0.478519983590E-01  0.361477248371E-01
  0.214861869812E+00  0.000000000000E+00 -0.378986261785E-01
  0.214861869812E+00  0.000000000000E+00  0.378986261785E-01
  0.218413308263E+00  0.215333998203E+00 -0.288733895868E-01
  0.218413308263E+00  0.215333998203E+00  0.288733895868E-01
  0.218868702650E+00  0.263186007738E+00 -0.257460512221E-01
  0.218868702650E+00  0.263186007738E+00  0.257460512221E-01
  0.218993023038E+00  0.167482003570E+00 -0.315293334424E-01
  0.218993023038E+00  0.167482003570E+00  0.315293334424E-01
  0.220392733812E+00  0.311037987471E+00 -0.219882261008E-01
  0.220392733812E+00  0.311037987471E+00  0.219882261008E-01
  0.220589250326E+00  0.119630001485E+00 -0.338238403201E-01
  0.220589250326E+00  0.119630001485E+00  0.338238403201E-01
  0.221009910107E+00  0.382815986872E+00  0.000000000000E+00
  0.223191753030E+00  0.717779994011E-01 -0.358258113265E-01
  0.223191753030E+00  0.717779994011E-01  0.358258113265E-01
  0.223214715719E+00  0.358889997005E+00 -0.166491791606E-01
  0.223214715719E+00  0.358889997005E+00  0.166491791606E-01
  0.226795017719E+00  0.239259991795E-01 -0.375670231879E-01
  0.226795017719E+00  0.239259991795E-01  0.375670231879E-01
[...]
CELL_DATA                6372
SCALARS C_p_ise float 1
LOOKUP_TABLE default
 -0.500663885760E+00
 -0.341817861746E+00
 -0.311963693839E+00
 -0.308671531684E+00
 -0.308487376209E+00
 -0.310285492137E+00
 -0.314461641795E+00
 -0.320752574043E+00
 -0.328236012437E+00
 -0.335579872555E+00
 -0.341245548524E+00
 -0.343767958751E+00
 -0.341971302448E+00
 -0.335150351373E+00
 -0.323182090363E+00
 -0.306527043416E+00
 -0.286145967466E+00
 -0.263330179725E+00
 -0.239429533133E+00
 -0.215596498032E+00
 -0.192406343032E+00
 -0.169435747905E+00
 -0.144945556265E+00
 -0.115574655393E+00
 -0.763495499971E-01
 -0.208424262986E-01
  0.451082627586E-01
 -0.577486009607E+00
 -0.375188903245E+00
 -0.331338668847E+00
 -0.321593675536E+00
 -0.317878542715E+00
 -0.317663545822E+00
 -0.320620172534E+00
 -0.326034436421E+00
 -0.332701651273E+00
 -0.339124988440E+00
 -0.343695822395E+00
 -0.344954007552E+00
 -0.341785837340E+00
 -0.333583278266E+00
 -0.320332287004E+00
 -0.302588106529E+00
 -0.281373310087E+00
 -0.257990177892E+00
 -0.233746010684E+00
 -0.209695317048E+00
 -0.186268063495E+00
 -0.162870753918E+00
 -0.137598630645E+00
 -0.106978763510E+00
 -0.660426194065E-01
 -0.843818860133E-02
  0.602821355728E-01
 -0.627694938093E+00
 -0.402872017271E+00
 -0.349376781344E+00
 -0.334467786857E+00
 -0.327635633352E+00
 -0.325429366488E+00
 -0.327011668859E+00
 -0.331348309032E+00
 -0.337031190355E+00
 -0.342445094818E+00
 -0.345929925403E+00
 -0.346027275924E+00
 -0.341664082235E+00
 -0.332295869177E+00
 -0.317977264836E+00
 -0.299320465804E+00
 -0.277378965612E+00
 -0.253450965050E+00
 -0.228801677148E+00
 -0.204408624505E+00
 -0.180600246790E+00
 -0.156676519126E+00
 -0.130647456429E+00
 -0.990170961568E-01
 -0.569050419651E-01
  0.178903619464E-02
  0.703310045932E-01
 -0.664218286895E+00
 -0.425503223898E+00
 -0.365316340361E+00
 -0.346445403062E+00
 -0.337009235556E+00
 -0.332990829686E+00
 -0.333217126737E+00
 -0.336434716802E+00
 -0.341093379295E+00
 -0.345495228435E+00
 -0.347944512314E+00
 -0.346983925503E+00
 -0.341568140051E+00
 -0.331194637715E+00
 -0.315961900785E+00
 -0.296515696942E+00
 -0.273923061418E+00
 -0.249471290188E+00
 -0.224388863411E+00
 -0.199596214738E+00
 -0.175355060327E+00
 -0.150905980931E+00
 -0.124232849410E+00
 -0.918809246921E-01
 -0.491300555221E-01
  0.972154183993E-02
  0.770524524023E-01
 -0.692724663592E+00
 -0.444356214106E+00
 -0.379293913031E+00
 -0.357338527123E+00
 -0.345733835510E+00
 -0.340103536431E+00
 -0.339053472751E+00
 -0.341180669712E+00
 -0.344836642110E+00
 -0.348266327521E+00
 -0.349749132323E+00
 -0.347829109731E+00
 -0.341479726741E+00
 -0.330226451151E+00
 -0.314195287641E+00
 -0.294051155036E+00
 -0.270865587903E+00
 -0.245912971921E+00
 -0.220393051043E+00
 -0.195186706250E+00
 -0.170516497375E+00
 -0.145598598691E+00
 -0.118428618375E+00
 -0.856288958645E-01
 -0.426629997150E-01
  0.158219833623E-01
  0.817941433234E-01
 -0.716039343237E+00
 -0.460382741674E+00
 -0.391587533654E+00
 -0.367164918768E+00
 -0.353733317173E+00
 -0.346675647340E+00
 -0.344448079416E+00
 -0.345544727308E+00
 -0.348249132706E+00
 -0.350766263967E+00
 -0.351358316748E+00
 -0.348570250944E+00
 -0.341388400214E+00
 -0.329356339377E+00
 -0.312617541927E+00
 -0.291847391211E+00
 -0.268117430551E+00
 -0.242690720732E+00
 -0.216746448530E+00
 -0.191141133416E+00
 -0.166078386136E+00
 -0.140773577744E+00
 -0.113255696452E+00
 -0.802338218018E-01
 -0.373308369121E-01
  0.205899938974E-01
  0.853981395868E-01
 -0.735733161674E+00
 -0.474240425506E+00
 -0.402460146545E+00
 -0.376007141099E+00
 -0.361013056893E+00
 -0.352688096264E+00
 -0.349383855805E+00
 -0.349522453523E+00
 -0.351339319491E+00
 -0.353011056254E+00
 -0.352787921952E+00
 -0.349214909108E+00
 -0.341286957677E+00
 -0.328559612273E+00
 -0.311186978803E+00
 -0.289850453881E+00
 -0.265619910838E+00
 -0.239750025135E+00
 -0.213407435202E+00
 -0.187435891104E+00
 -0.162034274853E+00
 -0.136431026689E+00
 -0.108695746325E+00
 -0.756152610160E-01
 -0.329232555125E-01
  0.244141535310E-01
  0.882944245556E-01
 -0.752756173825E+00
 -0.486386518141E+00
 -0.412131575177E+00
 -0.383964125278E+00
 -0.367613150392E+00
 -0.358157568293E+00
 -0.353872550642E+00
 -0.353128182289E+00
 -0.354125555983E+00
 -0.355020220878E+00
 -0.354053417941E+00
 -0.349770233512E+00
 -0.341170820183E+00
 -0.327818430922E+00
 -0.309874166637E+00
 -0.288022946452E+00
 -0.263333429069E+00
 -0.237055333743E+00
 -0.210348645312E+00
 -0.184053450915E+00
 -0.158372605570E+00
 -0.132553061102E+00
 -0.104703139380E+00
 -0.716681179995E-01
 -0.292454096357E-01
  0.275715044137E-01
  0.908103968664E-01
 -0.767720802679E+00
 -0.497147154136E+00
 -0.420780202317E+00
 -0.391132874842E+00
 -0.373587726846E+00
 -0.363117546818E+00
 -0.357939815173E+00
 -0.356385999431E+00
 -0.356630464609E+00
 -0.356813698388E+00
 -0.355169839438E+00
 -0.350243054081E+00
 -0.341036975514E+00
 -0.327120186678E+00
 -0.308658499456E+00
 -0.286339023803E+00
 -0.261230962472E+00
 -0.234581970469E+00
 -0.207550081873E+00
 -0.180977159273E+00
 -0.155074617741E+00
 -0.129108028050E+00
 -0.101217151366E+00
 -0.682850507571E-01
 -0.261391136879E-01
  0.302349995666E-01
  0.929516882188E-01
 -0.781044446497E+00
 -0.506761888608E+00
 -0.428550207719E+00
 -0.397602397784E+00
 -0.378993870249E+00
 -0.367608676882E+00
 -0.361617903979E+00
 -0.359323060355E+00
 -0.358878063566E+00
 -0.358411256591E+00
 -0.356150886868E+00
 -0.350639909523E+00
 -0.340884293061E+00
 -0.326456215994E+00
 -0.307525088583E+00
 -0.284780593460E+00
 -0.259293221018E+00
 -0.232311378117E+00
 -0.204994360626E+00
 -0.178188578247E+00
 -0.152115020417E+00
 -0.126055752478E+00
 -0.981720974227E-01
 -0.653688185116E-01
 -0.234837713262E-01
  0.325105087512E-01
  0.947580090371E-01
 -0.793022221125E+00
 -0.515411369178E+00
 -0.435559514926E+00
 -0.403451938638E+00
 -0.383887259334E+00
 -0.371672672683E+00
 -0.364940671983E+00
 -0.361967739897E+00
 -0.360891881127E+00
 -0.359831454867E+00
 -0.357009360456E+00
 -0.350967233108E+00
 -0.340712545518E+00
 -0.325820690681E+00
 -0.306463658400E+00
 -0.283334385692E+00
 -0.257505633664E+00
 -0.230227893526E+00
 -0.202664457477E+00
 -0.175666785576E+00
 -0.149464343430E+00
 -0.123352002931E+00
 -0.955042309063E-01
 -0.628364244964E-01
 -0.211882308973E-01
  0.344787986269E-01
  0.963310469340E-01
 -0.803872395166E+00
 -0.523235633875E+00
 -0.441904919143E+00
 -0.408751225125E+00
 -0.388320275781E+00
 -0.375350302991E+00
 -0.367940742951E+00
 -0.364347335248E+00
 -0.362694365090E+00
 -0.361091418069E+00
 -0.357756848806E+00
 -0.351231194086E+00
 -0.340522873311E+00
 -0.325209608279E+00
 -0.305466567996E+00
 -0.281989922558E+00
 -0.255855706311E+00
 -0.228317533905E+00
 -0.200542793965E+00
 -0.173388361485E+00
 -0.147090722805E+00
 -0.120952372744E+00
 -0.931553260258E-01
 -0.606191345626E-01
 -0.191813772273E-01
  0.362044649857E-01
  0.977097924066E-01
 -0.813761096037E+00
 -0.530345774051E+00
 -0.447667292917E+00
 -0.413561191769E+00
 -0.392340158944E+00
 -0.378679556954E+00
 -0.370649342955E+00
 -0.366487328786E+00
 -0.364305852669E+00
 -0.362206766953E+00
 -0.358404262083E+00
 -0.351437699149E+00
 -0.340316387696E+00
 -0.324620369575E+00
 -0.304527862240E+00
 -0.280738543128E+00
 -0.254332000073E+00
 -0.226565819338E+00
 -0.198611150270E+00
 -0.171328911370E+00
 -0.144961218133E+00
 -0.118814623107E+00
 -0.910739639967E-01
 -0.586599527870E-01
 -0.174058555980E-01
  0.377400248225E-01
  0.989364331807E-01
 -0.822817497158E+00
 -0.536831628535E+00
 -0.452914699060E+00
 -0.417935343060E+00
 -0.395989420542E+00
 -0.381694823296E+00
 -0.373095054775E+00
 -0.368411275690E+00
 -0.365744979553E+00
 -0.363191617588E+00
 -0.358961060538E+00
 -0.351592052036E+00
 -0.340094761366E+00
 -0.324050858248E+00
 -0.303642198208E+00
 -0.279572092769E+00
 -0.252923707640E+00
 -0.224958020755E+00
 -0.196850026633E+00
 -0.169463824856E+00
 -0.143044151722E+00
 -0.116899599181E+00
 -0.892156359288E-01
 -0.569114442946E-01
 -0.158146428048E-01
  0.391330930285E-01
  0.100111766117E+00
 -0.831144730696E+00
 -0.542767397892E+00
 -0.457704901054E+00
 -0.421919516416E+00
 -0.399305892185E+00
 -0.384427702012E+00
 -0.375303503753E+00
 -0.370139990797E+00
 -0.367028623923E+00
 -0.364058370385E+00
 -0.359435977594E+00
 -0.351699166054E+00
 -0.339858885837E+00
 -0.323499069220E+00
 -0.302804679881E+00
 -0.278482394917E+00
 -0.251619271819E+00
 -0.223479285984E+00
 -0.195240000687E+00
 -0.167768157743E+00
 -0.141309408668E+00
 -0.115172496856E+00
 -0.875419255272E-01
 -0.553337710479E-01
 -0.143702159945E-01
  0.404157341862E-01
  0.101200840451E+00
 -0.838827803840E+00
 -0.548214630451E+00
 -0.462086838173E+00
 -0.425554557339E+00
 -0.402323148639E+00
 -0.386905841603E+00
 -0.377298004578E+00
 -0.371692305904E+00
 -0.368171196951E+00
 -0.364818070291E+00
 -0.359836359531E+00
 -0.351763025914E+00
 -0.339609752966E+00
 -0.322962613358E+00
 -0.302009858850E+00
 -0.277461201729E+00
 -0.250406976250E+00
 -0.222114110924E+00
 -0.193761786946E+00
 -0.166218142998E+00
 -0.139729103708E+00
 -0.113602154439E+00
 -0.860196718818E-01
 -0.538942389803E-01
 -0.130424693096E-01
  0.416149529887E-01
  0.102290693948E+00
 -0.845936498038E+00
 -0.553225841629E+00
 -0.466102957502E+00
 -0.428875438357E+00
 -0.405070689527E+00
 -0.389153994323E+00
 -0.379098699716E+00
 -0.373084706150E+00
 -0.369185919504E+00
 -0.365480163653E+00
 -0.360168507158E+00
 -0.351786626105E+00
 -0.339347267847E+00
 -0.322438682903E+00
 -0.301251880813E+00
 -0.276499633587E+00
 -0.249274820435E+00
 -0.220846711266E+00
 -0.192396203117E+00
 -0.164791434986E+00
 -0.138277515933E+00
 -0.112160642146E+00
 -0.846206267329E-01
 -0.525662916235E-01
 -0.118088225334E-01
  0.427411841003E-01
  0.103337927463E+00
 -0.852529180818E+00
 -0.557844597066E+00
 -0.469789650423E+00
 -0.431913091004E+00
 -0.407574327196E+00
 -0.391193572792E+00
 -0.380723680623E+00
 -0.374331532263E+00
 -0.370083684020E+00
 -0.366052866177E+00
 -0.360437152198E+00
 -0.351772039139E+00
 -0.339070780557E+00
 -0.321923593276E+00
 -0.300524287696E+00
 -0.275588080816E+00
 -0.248210182260E+00
 -0.219661870684E+00
 -0.191124728125E+00
 -0.163466480687E+00
 -0.136931223652E+00
 -0.110823508241E+00
 -0.833205767290E-01
 -0.513275840047E-01
 -0.106525759553E-01
  0.437951479830E-01
  0.104247267958E+00
 -0.858654975052E+00
 -0.562109264060E+00
 -0.473178636808E+00
 -0.434693833439E+00
 -0.409856645610E+00
 -0.393043763798E+00
 -0.382188288680E+00
 -0.375445330430E+00
 -0.370873841191E+00
 -0.366542461523E+00
 -0.360646298800E+00
 -0.351720171955E+00
 -0.338778362508E+00
 -0.321412982263E+00
 -0.299819886212E+00
 -0.274716586596E+00
 -0.247200554893E+00
 -0.218544197458E+00
 -0.189929505456E+00
 -0.162223489803E+00
 -0.135669002743E+00
 -0.109569044457E+00
 -0.820982224764E-01
 -0.501593356331E-01
 -0.955850310079E-02
  0.447953441649E-01
  0.105148968378E+00
 -0.864356163584E+00
 -0.566052110267E+00
 -0.476296945478E+00
 -0.437241345723E+00
 -0.411937400739E+00
 -0.394720753358E+00
 -0.383505648926E+00
 -0.376436438694E+00
 -0.371564429828E+00
 -0.366953930521E+00
 -0.360798201427E+00
 -0.351630852076E+00
 -0.338467393318E+00
 -0.320901489218E+00
 -0.299130651176E+00
 -0.273874746210E+00
 -0.246232972332E+00
 -0.217478564707E+00
 -0.188793094917E+00
 -0.161043628156E+00
 -0.134471453627E+00
 -0.108377565464E+00
 -0.809348432416E-01
 -0.490445598921E-01
 -0.851157131418E-02
  0.457565554700E-01
  0.106023527662E+00
 -0.869667953967E+00
 -0.569701592765E+00
 -0.479168266919E+00
 -0.439575293631E+00
 -0.413833316690E+00
 -0.396238578279E+00
 -0.384687390906E+00
 -0.377313250539E+00
 -0.372161283893E+00
 -0.367291076584E+00
 -0.360893736069E+00
 -0.351502778375E+00
 -0.338134061150E+00
 -0.320382635703E+00
 -0.298447907235E+00
 -0.273051665400E+00
 -0.245294322272E+00
 -0.216449532167E+00
 -0.187699142512E+00
 -0.159909332709E+00
 -0.133320143579E+00
 -0.107231008062E+00
 -0.798134900648E-01
 -0.479676210284E-01
 -0.749842641633E-02
  0.466844347471E-01
  0.106838198353E+00
 -0.874621740143E+00
 -0.573081428412E+00
 -0.481812885579E+00
 -0.441713175564E+00
 -0.415558893544E+00
 -0.397608910273E+00
 -0.385742704969E+00
 -0.378082960811E+00
 -0.372668605888E+00
 -0.367555713284E+00
 -0.360932932149E+00
 -0.351333219716E+00
 -0.337773279061E+00
 -0.319849368709E+00
 -0.297762404800E+00
 -0.272235769554E+00
 -0.244371070691E+00
 -0.215442427610E+00
 -0.186631537960E+00
 -0.158803660249E+00
 -0.132198009482E+00
 -0.106112623753E+00
 -0.787181040498E-01
 -0.469138100031E-01
 -0.650518132294E-02
  0.475899220395E-01
  0.107580092750E+00
 -0.879243859827E+00
 -0.576212092043E+00
 -0.484248186172E+00
 -0.443669382515E+00
 -0.417126124297E+00
 -0.398841809936E+00
 -0.386678687497E+00
 -0.378750549928E+00
 -0.373089560191E+00
 -0.367748328381E+00
 -0.360913851191E+00
 -0.351118357564E+00
 -0.337379005650E+00
 -0.319293279146E+00
 -0.297063761461E+00
 -0.271415006130E+00
 -0.243449557313E+00
 -0.214442169233E+00
 -0.185574126337E+00
 -0.157710376989E+00
 -0.131088707348E+00
 -0.105006459763E+00
 -0.776333357386E-01
 -0.458680979444E-01
 -0.551594197434E-02
  0.485036043954E-01
  0.108383094060E+00
 -0.883555638726E+00
 -0.579111772720E+00
 -0.486488765947E+00
 -0.445456437586E+00
 -0.418545374580E+00
 -0.399944796279E+00
 -0.387501173843E+00
 -0.379319230082E+00
 -0.373425253489E+00
 -0.367868259785E+00
 -0.360833473539E+00
 -0.350852808392E+00
 -0.336943892275E+00
 -0.318705207455E+00
 -0.296340811437E+00
 -0.270576660182E+00
 -0.242515817028E+00
 -0.213433566895E+00
 -0.184511266009E+00
 -0.156613202111E+00
 -0.129976463273E+00
 -0.103896983906E+00
 -0.765444765119E-01
 -0.448163314905E-01
 -0.451565741939E-02
  0.494494091056E-01
  0.109337390323E+00
 -0.887576005052E+00
 -0.581794985509E+00
 -0.488547178748E+00
 -0.447084519864E+00
 -0.419824381385E+00
 -0.400923845195E+00
 -0.388214022862E+00
 -0.379790812266E+00
 -0.373675238172E+00
 -0.367912821287E+00
 -0.360687178568E+00
 -0.350529917773E+00
 -0.336459159921E+00
 -0.318074660041E+00
 -0.295581503287E+00
 -0.269706816070E+00
 -0.241554933820E+00
 -0.212401154754E+00
 -0.183427055452E+00
 -0.155496086765E+00
 -0.128844937024E+00
 -0.102769083976E+00
 -0.754372303355E-01
 -0.437456188761E-01
 -0.349533541388E-02
  0.504130717151E-01
  0.110280015761E+00
 -0.891321209335E+00
 -0.584274408956E+00
 -0.490433298600E+00
 -0.448561562709E+00
 -0.420969349285E+00
 -0.401782910700E+00
 -0.388819129940E+00
 -0.380165381748E+00
 -0.373837437635E+00
 -0.367877755661E+00
 -0.360468662556E+00
 -0.350141433856E+00
 -0.335914757290E+00
 -0.317389560485E+00
 -0.294772199884E+00
 -0.268791084121E+00
 -0.240551312217E+00
 -0.211328678331E+00
 -0.182304732257E+00
 -0.154342756817E+00
 -0.127678477184E+00
 -0.101607613832E+00
 -0.742975366488E-01
 -0.426441818962E-01
 -0.245000765108E-02
  0.513745700436E-01
  0.111054309804E+00
 -0.894802368237E+00
 -0.586558959706E+00
 -0.492155547569E+00
 -0.449893685314E+00
 -0.421984405440E+00
 -0.402524538468E+00
 -0.389316821268E+00
 -0.380440931085E+00
 -0.373907902556E+00
 -0.367757156950E+00
 -0.360169909056E+00
 -0.349677338669E+00
 -0.335298874608E+00
 -0.316636525975E+00
 -0.293898117114E+00
 -0.267813446019E+00
 -0.239488305944E+00
 -0.210198977060E+00
 -0.181127266301E+00
 -0.153136227797E+00
 -0.126461064694E+00
 -0.100397176278E+00
 -0.731114634541E-01
 -0.415003923010E-01
 -0.136855371907E-02
  0.523632313490E-01
  0.111867442106E+00
 -0.898028980043E+00
 -0.588657389488E+00
 -0.493719375144E+00
 -0.451085332098E+00
 -0.422872000200E+00
 -0.403148637830E+00
 -0.389705467649E+00
 -0.380613924166E+00
 -0.373880688848E+00
 -0.367543049923E+00
 -0.359780860537E+00
 -0.349125626736E+00
 -0.334597585494E+00
 -0.315800206624E+00
 -0.292942772920E+00
 -0.266756279080E+00
 -0.238347776845E+00
 -0.208993873820E+00
 -0.179876484485E+00
 -0.151858801096E+00
 -0.125175810347E+00
 -0.991220917169E-01
 -0.718646537100E-01
 -0.403000388649E-01
 -0.232798056931E-03
  0.534211654737E-01
  0.112879294659E+00
 -0.901009049089E+00
 -0.590574709861E+00
 -0.495128881808E+00
 -0.452138557355E+00
 -0.423632488696E+00
 -0.403654080631E+00
 -0.389981261682E+00
 -0.380678389400E+00
 -0.373747832475E+00
 -0.367225087530E+00
 -0.359289120853E+00
 -0.348471838621E+00
 -0.333794758154E+00
 -0.314862860784E+00
 -0.291887263517E+00
 -0.265600096672E+00
 -0.237109619589E+00
 -0.207693279744E+00
 -0.178532800898E+00
 -0.150491725317E+00
 -0.123804811752E+00
 -0.977656623696E-01
 -0.705416032624E-01
 -0.390285998960E-01
  0.972314360990E-03
  0.545554180148E-01
  0.113978720151E+00
 -0.903745727163E+00
 -0.592314797532E+00
 -0.496386159516E+00
 -0.453053713448E+00
 -0.424264425140E+00
 -0.404037135827E+00
 -0.390138401207E+00
 -0.380626109309E+00
 -0.373498880921E+00
 -0.366790354541E+00
 -0.358679482450E+00
 -0.347698754365E+00
 -0.332871356887E+00
 -0.313804247870E+00
 -0.290710134728E+00
 -0.264322830048E+00
 -0.235751898475E+00
 -0.206275337643E+00
 -0.177075276336E+00
 -0.149014974133E+00
 -0.122329048852E+00
 -0.963106261894E-01
 -0.691267046064E-01
 -0.376725132520E-01
  0.225398225146E-02
  0.557543286518E-01
  0.115131745144E+00
 -0.906239948713E+00
 -0.593878667675E+00
 -0.497491405461E+00
 -0.453829168958E+00
 -0.424763992302E+00
 -0.404291836810E+00
 -0.390168422923E+00
 -0.380446195023E+00
 -0.373120166087E+00
 -0.366222718700E+00
 -0.357933376843E+00
 -0.346785678886E+00
 -0.331804933080E+00
 -0.312600342637E+00
 -0.289386825750E+00
 -0.262899727461E+00
 -0.234249663866E+00
 -0.204715943946E+00
 -0.175480835404E+00
 -0.147406609882E+00
 -0.120728171961E+00
 -0.947386619139E-01
 -0.676038515773E-01
 -0.362193623687E-01
  0.361669961059E-02
  0.569998506292E-01
  0.116198762002E+00
 -0.908490822157E+00
 -0.595265369659E+00
 -0.498442299295E+00
 -0.454461028821E+00
 -0.425125011360E+00
 -0.404409470631E+00
 -0.390060187742E+00
 -0.380124277397E+00
 -0.372594456285E+00
 -0.365502087979E+00
 -0.357028041715E+00
 -0.345707719071E+00
 -0.330568794150E+00
 -0.311223279078E+00
 -0.287888621309E+00
 -0.261301963559E+00
 -0.232575006345E+00
 -0.202988402657E+00
 -0.173723443276E+00
 -0.145642577128E+00
 -0.118980642146E+00
 -0.930298485950E-01
 -0.659561815771E-01
 -0.346553533869E-01
  0.507138395740E-02
  0.583053253148E-01
  0.117241330029E+00
 -0.910492871607E+00
 -0.596471568156E+00
 -0.499234657249E+00
 -0.454942794374E+00
 -0.425338858347E+00
 -0.404378405431E+00
 -0.389798690208E+00
 -0.379642174885E+00
 -0.371899915678E+00
 -0.364603545692E+00
 -0.355935634804E+00
 -0.344434468300E+00
 -0.329130802859E+00
 -0.309640066783E+00
 -0.286182255279E+00
 -0.259496852508E+00
 -0.230696576400E+00
 -0.201062021481E+00
 -0.171775087868E+00
 -0.143697069150E+00
 -0.117062527062E+00
 -0.911632455904E-01
 -0.641649999017E-01
 -0.329637081738E-01
  0.663850591107E-02
  0.597210525796E-01
  0.118483923308E+00
 -0.912238982102E+00
 -0.597491720593E+00
 -0.499861534577E+00
 -0.455265720941E+00
 -0.425393202177E+00
 -0.404183173619E+00
 -0.389364562363E+00
 -0.378976404475E+00
 -0.371009013475E+00
 -0.363495663408E+00
 -0.354621614313E+00
 -0.342928821169E+00
 -0.327452375752E+00
 -0.307811384735E+00
 -0.284228940158E+00
 -0.257446540337E+00
 -0.228577989469E+00
 -0.198903268259E+00
 -0.169604123065E+00
 -0.141541505546E+00
 -0.114947906392E+00
 -0.891157993144E-01
 -0.622097725725E-01
 -0.311251330101E-01
  0.833768722987E-02
  0.612697722515E-01
  0.119927906558E+00
 -0.913718297241E+00
 -0.598318212301E+00
 -0.500313631538E+00
 -0.455417244404E+00
 -0.425272285942E+00
 -0.403803359369E+00
 -0.388732399740E+00
 -0.378096695909E+00
 -0.369886865278E+00
 -0.362138998374E+00
 -0.353042783517E+00
 -0.341145255817E+00
 -0.325486679121E+00
 -0.305690573654E+00
 -0.281983053729E+00
 -0.255107431716E+00
 -0.226177874864E+00
 -0.196474100710E+00
 -0.167176091022E+00
 -0.139143906840E+00
 -0.112608914983E+00
 -0.868623606687E-01
 -0.600684653838E-01
 -0.291212627998E-01
  0.101802906159E-01
  0.629317580014E-01
  0.121400257054E+00
 -0.914912415660E+00
 -0.598938599437E+00
 -0.500577883102E+00