# vtk DataFile Version 3.0
MachLine results file. Generated by MachLine, USU AeroLab (c) 2022.
ASCII
DATASET POLYDATA
POINTS                3261 float
  0.000000000000E+00  0.000000000000E+00  0.000000000000E+00
  0.138131193817E-01  0.239259991795E-01  0.000000000000E+00
  0.184377916157E-01  0.000000000000E+00 -0.191644169390E-01
  0.184377916157E-01  0.000000000000E+00  0.191644169390E-01
  0.276262387633E-01  0.478519983590E-01  0.000000000000E+00
  0.320895873010E-01  0.239259991795E-01 -0.189967341721E-01
  0.320895873010E-01  0.239259991795E-01  0.189967341721E-01
  0.414393581450E-01  0.717779994011E-01  0.000000000000E+00
  0.457413829863E-01  0.478519983590E-01 -0.188290514052E-01
  0.457413829863E-01  0.478519983590E-01  0.188290514052E-01
  0.460614785552E-01  0.000000000000E+00 -0.248102936894E-01
  0.460614785552E-01  0.000000000000E+00  0.248102936894E-01
  0.552524775267E-01  0.957039967179E-01  0.000000000000E+00
  0.593931749463E-01  0.717779994011E-01 -0.186613686383E-01
  0.593931749463E-01  0.717779994011E-01  0.186613686383E-01
  0.594715774059E-01  0.239259991795E-01 -0.245932117105E-01
  0.594715774059E-01  0.239259991795E-01  0.245932117105E-01
  0.690656006336E-01  0.119630001485E+00  0.000000000000E+00
  0.728816688061E-01  0.478519983590E-01 -0.243761278689E-01
  0.728816688061E-01  0.478519983590E-01  0.243761278689E-01
  0.730449706316E-01  0.957039967179E-01 -0.184936858714E-01
  0.730449706316E-01  0.957039967179E-01  0.184936858714E-01
  0.740515887737E-01  0.000000000000E+00 -0.284879114479E-01
  0.740515887737E-01  0.000000000000E+00  0.284879114479E-01
  0.828787162900E-01  0.143555998802E+00  0.000000000000E+00
  0.862917676568E-01  0.717779994011E-01 -0.241590458900E-01
  0.862917676568E-01  0.717779994011E-01  0.241590458900E-01
  0.866967663169E-01  0.119630001485E+00 -0.183260031044E-01
  0.866967663169E-01  0.119630001485E+00  0.183260031044E-01
  0.872167795897E-01  0.239259991795E-01 -0.282386522740E-01
  0.872167795897E-01  0.239259991795E-01  0.282386522740E-01
  0.966918393970E-01  0.167482003570E+00  0.000000000000E+00
  0.997018665075E-01  0.957039967179E-01 -0.239419639111E-01
  0.997018665075E-01  0.957039967179E-01  0.239419639111E-01
  0.100348562002E+00  0.143555998802E+00 -0.181583203375E-01
  0.100348562002E+00  0.143555998802E+00  0.181583203375E-01
  0.100381970406E+00  0.478519983590E-01 -0.279893912375E-01
  0.100381970406E+00  0.478519983590E-01  0.279893912375E-01
  0.102138325572E+00  0.000000000000E+00 -0.313414372504E-01
  0.102138325572E+00  0.000000000000E+00  0.313414372504E-01
  0.110504955053E+00  0.191407993436E+00  0.000000000000E+00
  0.113111965358E+00  0.119630001485E+00 -0.237248819321E-01
  0.113111965358E+00  0.119630001485E+00  0.237248819321E-01
  0.113547168672E+00  0.717779994011E-01 -0.277401320636E-01
  0.113547168672E+00  0.717779994011E-01  0.277401320636E-01
  0.114000357687E+00  0.167482003570E+00 -0.179906394333E-01
  0.114000357687E+00  0.167482003570E+00  0.179906394333E-01
  0.115057766438E+00  0.239259991795E-01 -0.310672093183E-01
  0.115057766438E+00  0.239259991795E-01  0.310672093183E-01
  0.124318078160E+00  0.215333998203E+00  0.000000000000E+00
  0.126522064209E+00  0.143555998802E+00 -0.235077999532E-01
  0.126522064209E+00  0.143555998802E+00  0.235077999532E-01
  0.126712352037E+00  0.957039967179E-01 -0.274908710271E-01
  0.126712352037E+00  0.957039967179E-01  0.274908710271E-01
  0.127652153373E+00  0.191407993436E+00 -0.178229566664E-01
  0.127652153373E+00  0.191407993436E+00  0.178229566664E-01
  0.127977207303E+00  0.478519983590E-01 -0.307929813862E-01
  0.127977207303E+00  0.478519983590E-01  0.307929813862E-01
  0.130280584097E+00  0.000000000000E+00 -0.335864275694E-01
  0.130280584097E+00  0.000000000000E+00  0.335864275694E-01
  0.138131201267E+00  0.239260002971E+00  0.000000000000E+00
  0.139877542853E+00  0.119630001485E+00 -0.272416118532E-01
  0.139877542853E+00  0.119630001485E+00  0.272416118532E-01
  0.139932155609E+00  0.167482003570E+00 -0.232907179743E-01
  0.139932155609E+00  0.167482003570E+00  0.232907179743E-01
  0.140896648169E+00  0.717779994011E-01 -0.305187534541E-01
  0.140896648169E+00  0.717779994011E-01  0.305187534541E-01
  0.141303941607E+00  0.215333998203E+00 -0.176552738994E-01
  0.141303941607E+00  0.215333998203E+00  0.176552738994E-01
  0.142953783274E+00  0.239259991795E-01 -0.332925543189E-01
  0.142953783274E+00  0.239259991795E-01  0.332925543189E-01
  0.151944324374E+00  0.263186007738E+00  0.000000000000E+00
  0.153042748570E+00  0.143555998802E+00 -0.269923508167E-01
  0.153042748570E+00  0.143555998802E+00  0.269923508167E-01
  0.153342247009E+00  0.191407993436E+00 -0.230736359954E-01
  0.153342247009E+00  0.191407993436E+00  0.230736359954E-01
  0.153816103935E+00  0.957039967179E-01 -0.302445273846E-01
  0.153816103935E+00  0.957039967179E-01  0.302445273846E-01
  0.154955744743E+00  0.239260002971E+00 -0.174875911325E-01
  0.154955744743E+00  0.239260002971E+00  0.174875911325E-01
  0.155626997352E+00  0.478519983590E-01 -0.329986847937E-01
  0.155626997352E+00  0.478519983590E-01  0.329986847937E-01
  0.158455848694E+00  0.000000000000E+00 -0.353712737560E-01
  0.158455848694E+00  0.000000000000E+00  0.353712737560E-01
  0.165757432580E+00  0.287111997604E+00  0.000000000000E+00
  0.166207939386E+00  0.167482003570E+00 -0.267430916429E-01
  0.166207939386E+00  0.167482003570E+00  0.267430916429E-01
  0.166735544801E+00  0.119630001485E+00 -0.299702994525E-01
  0.166735544801E+00  0.119630001485E+00  0.299702994525E-01
  0.166752353311E+00  0.215333998203E+00 -0.228565540165E-01
  0.166752353311E+00  0.215333998203E+00  0.228565540165E-01
  0.168300196528E+00  0.717779994011E-01 -0.327048152685E-01
  0.168300196528E+00  0.717779994011E-01  0.327048152685E-01
  0.168607532978E+00  0.263186007738E+00 -0.173199083656E-01
  0.168607532978E+00  0.263186007738E+00  0.173199083656E-01
  0.170882523060E+00  0.239259991795E-01 -0.350617878139E-01
  0.170882523060E+00  0.239259991795E-01  0.350617878139E-01
  0.179373130202E+00  0.191407993436E+00 -0.264938306063E-01
  0.179373130202E+00  0.191407993436E+00  0.264938306063E-01
  0.179570555687E+00  0.311037987471E+00  0.000000000000E+00
  0.179654985666E+00  0.143555998802E+00 -0.296960715204E-01
  0.179654985666E+00  0.143555998802E+00  0.296960715204E-01
  0.180162444711E+00  0.239260002971E+00 -0.226394720376E-01
  0.180162444711E+00  0.239260002971E+00  0.226394720376E-01
  0.180973410606E+00  0.957039967179E-01 -0.324109420180E-01
  0.180973410606E+00  0.957039967179E-01  0.324109420180E-01
  0.182259336114E+00  0.287111997604E+00 -0.171522255987E-01
  0.182259336114E+00  0.287111997604E+00  0.171522255987E-01
  0.183309212327E+00  0.478519983590E-01 -0.347523018718E-01
  0.183309212327E+00  0.478519983590E-01  0.347523018718E-01
  0.186651825905E+00  0.000000000000E+00 -0.367915518582E-01
  0.186651825905E+00  0.000000000000E+00  0.367915518582E-01
  0.192538321018E+00  0.215333998203E+00 -0.262445714325E-01
  0.192538321018E+00  0.215333998203E+00  0.262445714325E-01
  0.192574426532E+00  0.167482003570E+00 -0.294218435884E-01
  0.192574426532E+00  0.167482003570E+00  0.294218435884E-01
  0.193383678794E+00  0.334964007139E+00  0.000000000000E+00
  0.193572536111E+00  0.263186007738E+00 -0.224223900586E-01
  0.193572536111E+00  0.263186007738E+00  0.224223900586E-01
  0.193646609783E+00  0.119630001485E+00 -0.321170724928E-01
  0.193646609783E+00  0.119630001485E+00  0.321170724928E-01
  0.195735886693E+00  0.717779994011E-01 -0.344428122044E-01
  0.195735886693E+00  0.717779994011E-01  0.344428122044E-01
  0.195911124349E+00  0.311037987471E+00 -0.169845428318E-01
  0.195911124349E+00  0.311037987471E+00  0.169845428318E-01
  0.198831796646E+00  0.239259991795E-01 -0.364696383476E-01
  0.198831796646E+00  0.239259991795E-01  0.364696383476E-01
  0.205493867397E+00  0.191407993436E+00 -0.291476156563E-01
  0.205493867397E+00  0.191407993436E+00  0.291476156563E-01
  0.205703511834E+00  0.239260002971E+00 -0.259953103960E-01
  0.205703511834E+00  0.239260002971E+00  0.259953103960E-01
  0.206319823861E+00  0.143555998802E+00 -0.318232029676E-01
  0.206319823861E+00  0.143555998802E+00  0.318232029676E-01
  0.206982642412E+00  0.287111997604E+00 -0.222053080797E-01
  0.206982642412E+00  0.287111997604E+00  0.222053080797E-01
  0.207196801901E+00  0.358889997005E+00  0.000000000000E+00
  0.208162575960E+00  0.957039967179E-01 -0.341333262622E-01
  0.208162575960E+00  0.957039967179E-01  0.341333262622E-01
  0.209562927485E+00  0.334964007139E+00 -0.168168619275E-01
  0.209562927485E+00  0.334964007139E+00  0.168168619275E-01
  0.211011782289E+00  0.478519983590E-01 -0.361477248371E-01
  0.211011782289E+00  0.478519983590E-01  0.361477248371E-01
  0.214861869812E+00  0.000000000000E+00 -0.378986261785E-01
  0.214861869812E+00  0.000000000000E+00  0.378986261785E-01
  0.218413308263E+00  0.215333998203E+00 -0.288733895868E-01
  0.218413308263E+00  0.215333998203E+00  0.288733895868E-01
  0.218868702650E+00  0.263186007738E+00 -0.257460512221E-01
  0.218868702650E+00  0.263186007738E+00  0.257460512221E-01
  0.218993023038E+00  0.167482003570E+00 -0.315293334424E-01
  0.218993023038E+00  0.167482003570E+00  0.315293334424E-01
  0.220392733812E+00  0.311037987471E+00 -0.219882261008E-01
  0.220392733812E+00  0.311037987471E+00  0.219882261008E-01
  0.220589250326E+00  0.119630001485E+00 -0.338238403201E-01
  0.220589250326E+00  0.119630001485E+00  0.338238403201E-01
  0.221009910107E+00  0.382815986872E+00  0.000000000000E+00
  0.223191753030E+00  0.717779994011E-01 -0.358258113265E-01
  0.223191753030E+00  0.717779994011E-01  0.358258113265E-01
  0.223214715719E+00  0.358889997005E+00 -0.166491791606E-01
  0.223214715719E+00  0.358889997005E+00  0.166491791606E-01
  0.226795017719E+00  0.239259991795E-01 -0.375670231879E-01
  0.226795017719E+00  0.239259991795E-01  0.375670231879E-01
[...]
CELL_DATA                6372
SCALARS C_p_ise float 1
LOOKUP_TABLE default
 -0.799339582806E+00
 -0.561100295450E+00
 -0.501099203593E+00
 -0.478671917469E+00
 -0.463956776109E+00
 -0.453966730075E+00
 -0.448186857511E+00
 -0.445794511552E+00
 -0.445486360994E+00
 -0.445658034443E+00
 -0.444573984116E+00
 -0.440631691956E+00
 -0.432565977519E+00
 -0.419620931135E+00
 -0.401652944903E+00
 -0.379122254183E+00
 -0.353000553487E+00
 -0.324591124188E+00
 -0.295246354551E+00
 -0.266103258650E+00
 -0.237692777683E+00
 -0.209509033473E+00
 -0.179685012930E+00
 -0.144673675162E+00
 -0.992312187674E-01
 -0.364734475121E-01
  0.384158752426E-01
 -0.896368492000E+00
 -0.600003168958E+00
 -0.521779212639E+00
 -0.491275364562E+00
 -0.472309820126E+00
 -0.459980855955E+00
 -0.452841799890E+00
 -0.449521549095E+00
 -0.448385501488E+00
 -0.447640052029E+00
 -0.445468386970E+00
 -0.440268975723E+00
 -0.430838749055E+00
 -0.416520859872E+00
 -0.397282982969E+00
 -0.373681777272E+00
 -0.346751229685E+00
 -0.317804311825E+00
 -0.288147821213E+00
 -0.258816077142E+00
 -0.230188720317E+00
 -0.201583135141E+00
 -0.170960447786E+00
 -0.134657675151E+00
 -0.874402422599E-01
 -0.225402439258E-01
  0.549132515562E-01
 -0.964663315501E+00
 -0.634926701283E+00
 -0.543004119169E+00
 -0.505421715967E+00
 -0.482318837970E+00
 -0.467422847262E+00
 -0.458572122408E+00
 -0.453969410382E+00
 -0.451719005805E+00
 -0.449876868152E+00
 -0.446557084113E+00
 -0.440150686185E+00
 -0.429490942620E+00
 -0.413982877514E+00
 -0.393662291105E+00
 -0.369142402165E+00
 -0.341487186132E+00
 -0.312003704334E+00
 -0.281953822359E+00
 -0.252291218018E+00
 -0.223290017207E+00
 -0.194157679635E+00
 -0.162768975660E+00
 -0.125443166517E+00
 -0.770569768349E-01
 -0.111696435285E-01
  0.656995292206E-01
 -0.101704488490E+01
 -0.665035256074E+00
 -0.562891262053E+00
 -0.519491850980E+00
 -0.492699953136E+00
 -0.475322180139E+00
 -0.464685489794E+00
 -0.458677266922E+00
 -0.455204240392E+00
 -0.452207038871E+00
 -0.447744771144E+00
 -0.440198321613E+00
 -0.428422312440E+00
 -0.411860152861E+00
 -0.390589400103E+00
 -0.365255273357E+00
 -0.336933649095E+00
 -0.306918684964E+00
 -0.276433060826E+00
 -0.246370727725E+00
 -0.216936800373E+00
 -0.187278468608E+00
 -0.155246927640E+00
 -0.117212877608E+00
 -0.682398788819E-01
 -0.234718010739E-02
  0.728792875309E-01
 -0.105956177115E+01
 -0.691144343941E+00
 -0.581089870592E+00
 -0.532902865581E+00
 -0.502884284070E+00
 -0.483203710255E+00
 -0.470822789455E+00
 -0.463396644561E+00
 -0.458684037144E+00
 -0.454537860329E+00
 -0.448973399027E+00
 -0.440361171934E+00
 -0.427567376762E+00
 -0.410058937998E+00
 -0.387938022103E+00
 -0.361866846568E+00
 -0.332923890640E+00
 -0.302388487963E+00
 -0.271452643651E+00
 -0.240969043806E+00
 -0.211102740420E+00
 -0.180977418211E+00
 -0.148460469986E+00
 -0.110010131546E+00
 -0.608911949382E-01
  0.451601251619E-02
  0.782684339089E-01
 -0.109539904199E+01
 -0.714066134643E+00
 -0.597649859560E+00
 -0.545456007850E+00
 -0.512612818195E+00
 -0.490827038487E+00
 -0.476792245215E+00
 -0.467990659519E+00
 -0.462069647274E+00
 -0.456814558167E+00
 -0.450205713080E+00
 -0.440603117997E+00
 -0.426878463487E+00
 -0.408511982857E+00
 -0.385620085954E+00
 -0.358873096856E+00
 -0.329347599544E+00
 -0.298309935972E+00
 -0.266930140196E+00
 -0.236035602420E+00
 -0.205772516989E+00
 -0.175265638460E+00
 -0.142420401793E+00
 -0.103789321492E+00
 -0.548012815997E-01
  0.997765365696E-02
  0.827291828057E-01
 -0.112640870207E+01
 -0.734429916536E+00
 -0.612723813718E+00
 -0.557110270007E+00
 -0.521776655028E+00
 -0.498074266706E+00
 -0.482493684837E+00
 -0.472385774312E+00
 -0.465312098433E+00
 -0.459005101888E+00
 -0.451416965090E+00
 -0.440896973842E+00
 -0.426318288988E+00
 -0.407168332936E+00
 -0.383570881176E+00
 -0.356199958933E+00
 -0.326128702905E+00
 -0.294613733680E+00
 -0.262811597452E+00
 -0.231536571122E+00
 -0.200930785110E+00
 -0.170134204667E+00
 -0.137096749966E+00
 -0.984530475331E-01
 -0.497413944049E-01
  0.143966085872E-01
  0.863098336829E-01
 -0.115375344327E+01
 -0.752704491706E+00
 -0.626478151711E+00
 -0.567892143009E+00
 -0.530342495635E+00
 -0.504894751599E+00
 -0.487879684149E+00
 -0.476545277737E+00
 -0.468386009113E+00
 -0.461091494385E+00
 -0.452590242807E+00
 -0.441221726221E+00
 -0.425857588154E+00
 -0.405988391239E+00
 -0.381741789751E+00
 -0.353793170346E+00
 -0.323212930426E+00
 -0.291251696904E+00
 -0.259058791338E+00
 -0.227444893817E+00
 -0.196556994549E+00
 -0.165555567637E+00
 -0.132432197154E+00
 -0.938829515198E-01
 -0.455116930701E-01
  0.180033379877E-01
  0.890418117458E-01
 -0.117820737731E+01
 -0.769241092225E+00
 -0.639066730415E+00
 -0.577855521981E+00
 -0.538316493694E+00
 -0.511275233122E+00
 -0.492932977747E+00
 -0.480454987798E+00
 -0.471280229756E+00
 -0.463063987711E+00
 -0.453714442410E+00
 -0.441561083815E+00
 -0.425472817928E+00
 -0.404941286059E+00
 -0.380095976900E+00
 -0.351612522496E+00
 -0.320560609744E+00
 -0.288188021804E+00
 -0.255641836645E+00
 -0.223734771513E+00
 -0.192623314923E+00
 -0.161488197288E+00
 -0.128354831461E+00
 -0.899604190339E-01
 -0.419468940115E-01
  0.209826444111E-01
  0.911741991756E-01
 -0.120031257651E+01
 -0.784307482499E+00
 -0.650624111419E+00
 -0.587063526433E+00
 -0.545723706272E+00
 -0.517223382361E+00
 -0.497654233739E+00
 -0.484112859979E+00
 -0.473992318767E+00
 -0.464918519210E+00
 -0.454781862187E+00
 -0.441902357799E+00
 -0.425145550550E+00
 -0.404002794331E+00
 -0.378604580465E+00
 -0.349627423876E+00
 -0.318141249417E+00
 -0.285394062269E+00
 -0.252534074973E+00
 -0.220378881975E+00
 -0.189095348722E+00
 -0.157882038792E+00
 -0.124787973466E+00
 -0.865759085148E-01
 -0.389084589073E-01
  0.234931034496E-01
  0.928935423832E-01
 -0.122046157742E+01
 -0.798111477675E+00
 -0.661266494312E+00
 -0.595579921381E+00
 -0.552598160370E+00
 -0.522757153167E+00
 -0.502053660250E+00
 -0.487524704927E+00
 -0.476524771472E+00
 -0.466654309302E+00
 -0.455787589627E+00
 -0.442235796501E+00
 -0.424860802836E+00
 -0.403153674810E+00
 -0.377245135700E+00
 -0.347813526157E+00
 -0.315930194996E+00
 -0.282844845444E+00
 -0.249709658210E+00
 -0.217347576208E+00
 -0.185934556942E+00
 -0.154682986651E+00
 -0.121656628965E+00
 -0.836319385782E-01
 -0.362797186833E-01
  0.256770504564E-01
  0.944893447457E-01
 -0.123894991551E+01
 -0.810817742699E+00
 -0.671092880752E+00
 -0.603465342640E+00
 -0.558977494253E+00
 -0.527900021264E+00
 -0.506145829283E+00
 -0.490700097681E+00
 -0.478883114698E+00
 -0.468272541949E+00
 -0.456728335634E+00
 -0.442553778645E+00
 -0.424606978530E+00
 -0.402378158263E+00
 -0.375999180718E+00
 -0.346150364814E+00
 -0.313905669394E+00
 -0.280517620781E+00
 -0.247142498302E+00
 -0.214608870009E+00
 -0.183100122001E+00
 -0.151836826903E+00
 -0.118891130296E+00
 -0.810445933788E-01
 -0.339654256579E-01
  0.276421803484E-01
  0.960792213864E-01
 -0.125600612965E+01
 -0.822559236427E+00
 -0.680188326926E+00
 -0.610775470645E+00
 -0.564898595363E+00
 -0.532677104777E+00
 -0.509948032604E+00
 -0.493650349908E+00
 -0.481073782272E+00
 -0.469775491796E+00
 -0.457602363043E+00
 -0.442850299781E+00
 -0.424374013345E+00
 -0.401663210126E+00
 -0.374850989957E+00
 -0.344620116529E+00
 -0.312047537253E+00
 -0.278389540556E+00
 -0.244806129470E+00
 -0.212129988196E+00
 -0.180550290043E+00
 -0.149291735419E+00
 -0.116429108821E+00
 -0.787437232374E-01
 -0.318934493932E-01
  0.294447321465E-01
  0.976367938908E-01
 -0.127180996652E+01
 -0.833444776782E+00
 -0.688625861662E+00
 -0.617561042193E+00
 -0.570396671079E+00
 -0.537112967826E+00
 -0.513477813631E+00
 -0.496387504617E+00
 -0.483103853333E+00
 -0.471165958020E+00
 -0.458408179722E+00
 -0.443120172993E+00
 -0.424153616757E+00
 -0.400997253698E+00
 -0.373786243942E+00
 -0.343206066445E+00
 -0.310336774827E+00
 -0.276437841365E+00
 -0.242673037522E+00
 -0.209878166055E+00
 -0.178244882501E+00
 -0.146999529845E+00
 -0.114216446659E+00
 -0.766725922110E-01
 -0.300130590238E-01
  0.311086222501E-01
  0.991270943173E-01
 -0.128650566928E+01
 -0.843564816031E+00
 -0.696468172962E+00
 -0.623866264308E+00
 -0.575504117475E+00
 -0.541231523134E+00
 -0.516751775906E+00
 -0.498922728432E+00
 -0.484980344275E+00
 -0.472446472601E+00
 -0.459144872256E+00
 -0.443358946287E+00
 -0.423937614458E+00
 -0.400369575268E+00
 -0.372791672445E+00
 -0.341891940133E+00
 -0.308753928261E+00
 -0.274639878631E+00
 -0.240715994274E+00
 -0.207820546183E+00
 -0.176145705928E+00
 -0.144917201412E+00
 -0.112206882365E+00
 -0.747857108817E-01
 -0.282888868322E-01
  0.326401439901E-01
  0.100386728216E+00
 -0.130021247268E+01
 -0.852994713810E+00
 -0.703768851880E+00
 -0.629731373876E+00
 -0.580250456305E+00
 -0.545054226803E+00
 -0.519785794615E+00
 -0.501266623875E+00
 -0.486709043522E+00
 -0.473619372238E+00
 -0.459811077626E+00
 -0.443562027359E+00
 -0.423718639797E+00
 -0.399769633410E+00
 -0.371853875240E+00
 -0.340661725679E+00
 -0.307279625802E+00
 -0.272972581857E+00
 -0.238908180269E+00
 -0.205925787307E+00
 -0.174217319051E+00
 -0.143006294631E+00
 -0.110360903076E+00
 -0.730464927464E-01
 -0.266913102054E-01
  0.340701962869E-01
  0.101673969450E+00
 -0.131302863395E+01
 -0.861798967195E+00
 -0.710574521624E+00
 -0.635190856516E+00
 -0.584661827022E+00
 -0.548600573899E+00
 -0.522593501569E+00
 -0.503428446661E+00
 -0.488295526620E+00
 -0.474686180401E+00
 -0.460405120930E+00
 -0.443724461031E+00
 -0.423488700775E+00
 -0.399186835153E+00
 -0.370959343022E+00
 -0.339498992404E+00
 -0.305894424184E+00
 -0.271412761373E+00
 -0.237223046798E+00
 -0.204164279368E+00
 -0.172426952075E+00
 -0.141232356924E+00
 -0.108644793392E+00
 -0.714244613700E-01
 -0.251941390623E-01
  0.354130059133E-01
  0.102786040808E+00
 -0.132503550433E+01
 -0.870030552936E+00
 -0.716924939193E+00
 -0.640275259880E+00
 -0.588761036252E+00
 -0.551887236307E+00
 -0.525187157369E+00
 -0.505415906516E+00
 -0.489743560102E+00
 -0.475647752719E+00
 -0.460924174355E+00
 -0.443840690877E+00
 -0.423239553241E+00
 -0.398609953672E+00
 -0.370094137955E+00
 -0.338386724103E+00
 -0.304578356776E+00
 -0.269937936876E+00
 -0.235634931749E+00
 -0.202507521062E+00
 -0.170744596674E+00
 -0.139564945232E+00
 -0.107029212035E+00
 -0.698926750534E-01
 -0.237733414343E-01
  0.367015914233E-01
  0.103899828068E+00
 -0.133630144894E+01
 -0.877735994514E+00
 -0.722854557395E+00
 -0.645010217753E+00
 -0.592567858905E+00
 -0.554929079221E+00
 -0.527576647310E+00
 -0.507235393545E+00
 -0.491055778878E+00
 -0.476503294410E+00
 -0.461365006774E+00
 -0.443904271132E+00
 -0.422961846602E+00
 -0.398027209142E+00
 -0.369243672273E+00
 -0.337307624246E+00
 -0.303311664944E+00
 -0.268525595260E+00
 -0.234119031466E+00
 -0.200929054594E+00
 -0.169142777932E+00
 -0.137976724459E+00
 -0.105487972663E+00
 -0.684279898164E-01
 -0.224087571516E-01
  0.379646296339E-01
  0.105239922000E+00
 -0.134688457331E+01
 -0.884953781848E+00
 -0.728392268980E+00
 -0.649418616151E+00
 -0.596099185974E+00
 -0.557737966908E+00
 -0.529769745799E+00
 -0.508891186194E+00
 -0.492233709354E+00
 -0.477250877405E+00
 -0.461722698559E+00
 -0.443907720534E+00
 -0.422645584907E+00
 -0.397425817694E+00
 -0.368392520619E+00
 -0.336243946417E+00
 -0.302074141998E+00
 -0.267153526786E+00
 -0.232651043184E+00
 -0.199403518726E+00
 -0.167596046203E+00
 -0.136442590402E+00
 -0.103997793630E+00
 -0.670105761301E-01
 -0.210895607707E-01
  0.391650440128E-01
  0.106288721829E+00
 -0.135683238817E+01
 -0.891717167277E+00
 -0.733562686527E+00
 -0.653518517980E+00
 -0.599368512313E+00
 -0.560323509717E+00
 -0.531772762152E+00
 -0.510385581858E+00
 -0.493276601117E+00
 -0.477887391411E+00
 -0.461990918119E+00
 -0.443842341235E+00
 -0.422279443599E+00
 -0.396791769769E+00
 -0.367524498551E+00
 -0.335177368374E+00
 -0.300845387092E+00
 -0.265799202116E+00
 -0.231207817909E+00
 -0.197906907209E+00
 -0.166080013791E+00
 -0.134939161700E+00
 -0.102537436689E+00
 -0.656228770033E-01
 -0.198078308980E-01
  0.402853299094E-01
  0.107081701899E+00
 -0.136618618607E+01
 -0.898052973772E+00
 -0.738386179674E+00
 -0.657325467087E+00
 -0.602386793374E+00
 -0.562692638786E+00
 -0.533589300102E+00
 -0.511719553739E+00
 -0.494181823220E+00
 -0.478407450061E+00
 -0.462162281250E+00
 -0.443697819583E+00
 -0.421850666894E+00
 -0.396110308885E+00
 -0.366622701330E+00
 -0.334088766859E+00
 -0.299604489606E+00
 -0.264440806305E+00
 -0.229766413592E+00
 -0.196415855907E+00
 -0.164571644255E+00
 -0.133444265183E+00
 -0.101086141339E+00
 -0.642464449648E-01
 -0.185447624668E-01
  0.413701090975E-01
  0.107867609638E+00
 -0.137497947441E+01
 -0.903983342506E+00
 -0.742879131571E+00
 -0.660850988843E+00
 -0.605161837683E+00
 -0.564850263166E+00
 -0.535220405667E+00
 -0.512891458202E+00
 -0.494945480280E+00
 -0.478804041692E+00
 -0.462227050148E+00
 -0.443462374438E+00
 -0.421345171300E+00
 -0.395364995277E+00
 -0.365668797524E+00
 -0.332958298060E+00
 -0.298330204733E+00
 -0.263055978882E+00
 -0.228303733747E+00
 -0.194907570334E+00
 -0.163048417205E+00
 -0.131936105440E+00
 -0.996226779323E-01
 -0.628588521478E-01
 -0.172707313810E-01
  0.424690097680E-01
  0.108612178914E+00
 -0.138323887342E+01
 -0.909527156075E+00
 -0.747054253752E+00
 -0.664104143075E+00
 -0.607699321297E+00
 -0.566798157397E+00
 -0.536665438074E+00
 -0.513897343697E+00
 -0.495561059840E+00
 -0.479068581538E+00
 -0.462174033763E+00
 -0.443122268574E+00
 -0.420747199560E+00
 -0.394538290671E+00
 -0.364643349611E+00
 -0.331765175998E+00
 -0.297000794063E+00
 -0.261622069623E+00
 -0.226797042032E+00
 -0.193359024847E+00
 -0.161488132611E+00
 -0.130392706316E+00
 -0.981250466765E-01
 -0.614353650419E-01
 -0.159505578365E-01
  0.436542001646E-01
  0.109586369060E+00
 -0.139098586763E+01
 -0.914697481311E+00
 -0.750920919970E+00
 -0.667090533489E+00
 -0.610001265258E+00
 -0.568535741497E+00
 -0.537921002333E+00
 -0.514731172605E+00
 -0.496019768353E+00
 -0.479189691040E+00
 -0.461989702454E+00
 -0.442661865368E+00
 -0.420038970579E+00
 -0.393610796743E+00
 -0.363525601409E+00
 -0.330487032855E+00
 -0.295593218874E+00
 -0.260115860451E+00
 -0.225223102734E+00
 -0.191747209144E+00
 -0.159867677081E+00
 -0.128792034918E+00
 -0.965708992089E-01
 -0.599516103483E-01
 -0.145532320601E-01
  0.449802874897E-01
  0.110991934495E+00
 -0.139823662156E+01
 -0.919504206966E+00
 -0.754484450230E+00
 -0.669812332502E+00
 -0.612067182708E+00
 -0.570059427007E+00
 -0.538980774276E+00
 -0.515384323846E+00
 -0.496310412879E+00
 -0.479153668395E+00
 -0.461658087326E+00
 -0.442063147470E+00
 -0.419200745119E+00
 -0.392560919232E+00
 -0.362292666191E+00
 -0.329100606777E+00
 -0.294083405545E+00
 -0.258513103551E+00
 -0.223557588717E+00
 -0.190048691269E+00
 -0.158164501751E+00
 -0.127112036068E+00
 -0.949388388727E-01
 -0.583876637707E-01
 -0.130664707514E-01
  0.464152130258E-01
  0.112529375739E+00
 -0.140500058900E+01
 -0.923951700107E+00
 -0.757747667090E+00
 -0.672268859811E+00
 -0.613893440439E+00
 -0.571363264495E+00
 -0.539835865322E+00
 -0.515844959948E+00
 -0.496418796789E+00
 -0.478944098200E+00
 -0.461160583924E+00
 -0.441305538254E+00
 -0.418210279863E+00
 -0.391365098322E+00
 -0.360919943128E+00
 -0.327580500585E+00
 -0.292445868633E+00
 -0.256788323015E+00
 -0.221775714827E+00
 -0.188239250271E+00
 -0.156355853101E+00
 -0.125331081956E+00
 -0.932097327843E-01
 -0.567303709880E-01
 -0.114938176281E-01
  0.478925332021E-01
  0.113841558955E+00
 -0.141128321149E+01
 -0.928042759834E+00
 -0.760708451566E+00
 -0.674456161691E+00
 -0.615473212855E+00
 -0.572437027609E+00
 -0.540473973279E+00
 -0.516098456813E+00
 -0.496327500005E+00
 -0.478541310871E+00
 -0.460475343448E+00
 -0.440365357344E+00
 -0.417042241036E+00
 -0.389996970934E+00
 -0.359380460513E+00
 -0.325899198999E+00
 -0.290653232498E+00
 -0.254914791988E+00
 -0.219851447910E+00
 -0.186294016683E+00
 -0.154418459621E+00
 -0.123428275589E+00
 -0.913663699379E-01
 -0.549683568868E-01
 -0.983335245405E-02
  0.494194817698E-01
  0.115094318223E+00
 -0.141708518899E+01
 -0.931773608238E+00
 -0.763361567247E+00
 -0.676366090262E+00
 -0.616795894462E+00
 -0.573268025506E+00
 -0.540879022151E+00
 -0.516126033924E+00
 -0.496015462789E+00
 -0.477921768596E+00
 -0.459576863852E+00
 -0.439215235987E+00
 -0.415667992764E+00
 -0.388426873225E+00
 -0.357644079568E+00
 -0.324026764386E+00
 -0.288675731861E+00
 -0.252863611516E+00
 -0.217757232705E+00
 -0.184187187921E+00
 -0.152328471928E+00
 -0.121382580021E+00
 -0.893914752542E-01
 -0.530889900692E-01
 -0.807050766860E-02
  0.510587847688E-01
  0.116708435947E+00
 -0.142240024172E+01
 -0.935137930448E+00
 -0.765697873970E+00
 -0.677986866610E+00
 -0.617847139407E+00
 -0.573838870930E+00
 -0.541031002465E+00
 -0.515904871767E+00
 -0.495457398798E+00
 -0.477057615675E+00
 -0.458435190293E+00
 -0.437823680993E+00
 -0.414054856897E+00
 -0.386621706308E+00
 -0.355677385926E+00
 -0.321930129747E+00
 -0.286481475809E+00
 -0.250603982250E+00
 -0.215464244915E+00
 -0.181891951102E+00
 -0.150061347184E+00
 -0.119172800130E+00
 -0.872674784455E-01
 -0.510783177857E-01
 -0.619632586446E-02
  0.527965278873E-01
  0.118461613353E+00
 -0.142721614719E+01
 -0.938123091903E+00
 -0.767703596122E+00
 -0.679302198469E+00
 -0.618607670226E+00
 -0.574127467199E+00
 -0.540904756014E+00
 -0.515407021165E+00
 -0.494622442027E+00
 -0.475915709396E+00
 -0.457015146304E+00
 -0.436154042008E+00
 -0.412165357340E+00
 -0.384543512777E+00
 -0.353443105490E+00
 -0.319573114912E+00
 -0.284035335277E+00
 -0.248102832244E+00
 -0.212941618162E+00
 -0.179379759182E+00
 -0.147591328996E+00
 -0.116776527953E+00
 -0.849755760710E-01
 -0.489231457558E-01
 -0.421404043533E-02
  0.545530834255E-01
  0.119892648045E+00
 -0.143151526230E+01
 -0.940711482201E+00
 -0.769359338531E+00
 -0.680290463455E+00
 -0.619052841827E+00
 -0.574105966838E+00
 -0.540469529448E+00
 -0.514598181348E+00
 -0.493473509625E+00
 -0.474456516549E+00
 -0.455275257816E+00
 -0.434163761164E+00
 -0.409956415779E+00
 -0.382149512073E+00
 -0.350899167124E+00
 -0.316915095640E+00
 -0.281299068378E+00
 -0.245324549351E+00
 -0.210155670572E+00
 -0.176620067071E+00
 -0.144891456259E+00
 -0.114169284708E+00
 -0.824950701785E-01
 -0.466068821176E-01
 -0.211410320472E-02
  0.563222885920E-01
  0.120892611143E+00
 -0.143527109672E+01
 -0.942879472849E+00
 -0.770640360075E+00
 -0.680923861214E+00
 -0.619152046296E+00
 -0.573740031732E+00
 -0.539687141221E+00
 -0.513436932371E+00
 -0.491965739380E+00
 -0.472632776056E+00
 -0.453166501299E+00
 -0.431802825692E+00
 -0.407378123030E+00
 -0.379390903787E+00
 -0.347998482353E+00
 -0.313911467433E+00
 -0.278231212475E+00
 -0.242229839172E+00
 -0.207071119308E+00
 -0.173580821103E+00
 -0.141932263470E+00
 -0.111324855055E+00
 -0.798012959026E-01
 -0.441033945595E-01
  0.149587837918E-03
  0.582688184345E-01
  0.122339601158E+00
 -0.143845104086E+01
 -0.944596463174E+00
 -0.771514470671E+00
 -0.681167770350E+00
 -0.618866128179E+00
 -0.572986814019E+00
 -0.538510518348E+00
 -0.511872180941E+00
 -0.490044695121E+00
 -0.470387455069E+00
 -0.450630562133E+00
 -0.429012534564E+00
 -0.404372787709E+00
 -0.376211875274E+00
 -0.344688310333E+00
 -0.310512743793E+00
 -0.274785753320E+00
 -0.238777202476E+00
 -0.203649542836E+00
 -0.170227547419E+00
 -0.138682233019E+00
 -0.108214150997E+00
 -0.768656721729E-01
 -0.413788986719E-01
  0.263183010462E-02
  0.605234115551E-01
  0.124643716104E+00
 -0.144101038117E+01
 -0.945823861207E+00
 -0.771941419280E+00
 -0.680977922682E+00
 -0.618146867260E+00
 -0.571792749014E+00
 -0.536880981041E+00
 -0.509840985669E+00
 -0.487644143644E+00
 -0.467651788725E+00
 -0.447597606705E+00
 -0.425723931553E+00
 -0.400873556215E+00
 -0.372549115574E+00
 -0.340909506818E+00
 -0.306664531071E+00
 -0.270912690213E+00
 -0.234921665873E+00
 -0.199850731095E+00
 -0.166523045732E+00
 -0.135108296392E+00
 -0.104805961037E+00
 -0.736581966031E-01
 -0.384045279372E-01
  0.534897848518E-02
  0.629876907437E-01
  0.126948748755E+00
 -0.144289018320E+01
 -0.946510793163E+00
 -0.771869884495E+00