# vtk DataFile Version 3.0
MachLine results file. Generated by MachLine, USU AeroLab (c) 2022.
ASCII
DATASET POLYDATA
POINTS                 180 float
  0.112144851685E+01  0.111654663086E+01  0.000000000000E+00
  0.112896156311E+01  0.114313113689E+01  0.000000000000E+00
  0.149943891102E+04  0.111654663086E+01  0.104602308837E+01
  0.149943515450E+04  0.114313113689E+01  0.104601522073E+01
  0.113647460938E+01  0.116971552372E+01  0.000000000000E+00
  0.114398765564E+01  0.119630002975E+01  0.677626357803E-20
  0.149943139799E+04  0.116971552372E+01  0.104600735309E+01
  0.149942764147E+04  0.119630002975E+01  0.104599948545E+01
  0.111393535137E+01  0.108996224403E+01  0.000000000000E+00
  0.112144851685E+01  0.111654663086E+01  0.000000000000E+00
  0.149944266760E+04  0.108996224403E+01  0.104603095614E+01
  0.149943891102E+04  0.111654663086E+01  0.104602308837E+01
  0.110642230511E+01  0.106337773800E+01  0.000000000000E+00
  0.111393535137E+01  0.108996224403E+01  0.000000000000E+00
  0.149944642412E+04  0.106337773800E+01  0.104603882378E+01
  0.149944266760E+04  0.108996224403E+01  0.104603095614E+01
  0.109890925884E+01  0.103679335117E+01  0.000000000000E+00
  0.110642230511E+01  0.106337773800E+01  0.000000000000E+00
  0.149945018063E+04  0.103679335117E+01  0.104604669142E+01
  0.149944642412E+04  0.106337773800E+01  0.104603882378E+01
  0.109139621258E+01  0.101020884514E+01  0.000000000000E+00
  0.109890925884E+01  0.103679335117E+01  0.000000000000E+00
  0.149945393715E+04  0.101020884514E+01  0.104605455906E+01
  0.149945018063E+04  0.103679335117E+01  0.104604669142E+01
  0.108388316631E+01  0.983624458313E+00  0.000000000000E+00
  0.109139621258E+01  0.101020884514E+01  0.000000000000E+00
  0.149945769367E+04  0.983624458313E+00  0.104606242670E+01
  0.149945393715E+04  0.101020884514E+01  0.104605455906E+01
  0.107637012005E+01  0.957040011883E+00  0.000000000000E+00
  0.108388316631E+01  0.983624458313E+00  0.000000000000E+00
  0.149946145019E+04  0.957040011883E+00  0.104607029434E+01
  0.149945769367E+04  0.983624458313E+00  0.104606242670E+01
  0.105383098125E+01  0.877286672592E+00  0.000000000000E+00
  0.106134402752E+01  0.903871119022E+00  0.000000000000E+00
  0.149947271974E+04  0.877286672592E+00  0.104609389727E+01
  0.149946896322E+04  0.903871119022E+00  0.104608602963E+01
  0.104631793499E+01  0.850702226162E+00  0.000000000000E+00
  0.105383098125E+01  0.877286672592E+00  0.000000000000E+00
  0.149947647626E+04  0.850702226162E+00  0.104610176491E+01
  0.149947271974E+04  0.877286672592E+00  0.104609389727E+01
  0.103880476952E+01  0.824117779732E+00  0.000000000000E+00
  0.104631793499E+01  0.850702226162E+00  0.000000000000E+00
  0.149948023283E+04  0.824117779732E+00  0.104610963267E+01
  0.149947647626E+04  0.850702226162E+00  0.104610176491E+01
  0.103129172325E+01  0.797533333302E+00  0.000000000000E+00
  0.103880476952E+01  0.824117779732E+00  0.000000000000E+00
  0.149948398935E+04  0.797533333302E+00  0.104611750032E+01
  0.149948023283E+04  0.824117779732E+00  0.104610963267E+01
  0.102377867699E+01  0.770948886871E+00  0.000000000000E+00
  0.103129172325E+01  0.797533333302E+00  0.000000000000E+00
  0.149948774587E+04  0.770948886871E+00  0.104612536796E+01
  0.149948398935E+04  0.797533333302E+00  0.104611750032E+01
  0.101626563072E+01  0.744364440441E+00  0.000000000000E+00
  0.102377867699E+01  0.770948886871E+00  0.000000000000E+00
  0.149949150239E+04  0.744364440441E+00  0.104613323560E+01
  0.149948774587E+04  0.770948886871E+00  0.104612536796E+01
  0.100875258446E+01  0.717779994011E+00  0.000000000000E+00
  0.101626563072E+01  0.744364440441E+00  0.000000000000E+00
  0.149949525890E+04  0.717779994011E+00  0.104614110324E+01
  0.149949150239E+04  0.744364440441E+00  0.104613323560E+01
  0.986213386059E+00  0.638026654720E+00  0.000000000000E+00
  0.993726491928E+00  0.664611101151E+00  0.000000000000E+00
  0.149950652849E+04  0.638026654720E+00  0.104616470622E+01
  0.149950277194E+04  0.664611101151E+00  0.104615683852E+01
  0.978700339794E+00  0.611442208290E+00  0.000000000000E+00
  0.986213386059E+00  0.638026654720E+00  0.000000000000E+00
  0.149951028500E+04  0.611442208290E+00  0.104617257387E+01
  0.149950652849E+04  0.638026654720E+00  0.104616470622E+01
  0.963674247265E+00  0.558273315430E+00  0.000000000000E+00
  0.971187293530E+00  0.584857761860E+00  0.000000000000E+00
  0.149951779804E+04  0.558273315430E+00  0.104618830915E+01
  0.149951404152E+04  0.584857761860E+00  0.104618044151E+01
  0.956161201000E+00  0.531688868999E+00  0.000000000000E+00
  0.963674247265E+00  0.558273315430E+00  0.000000000000E+00
  0.149952155456E+04  0.531688868999E+00  0.104619617679E+01
  0.149951779804E+04  0.558273315430E+00  0.104618830915E+01
  0.948648095131E+00  0.505104422569E+00  0.000000000000E+00
  0.956161201000E+00  0.531688868999E+00  0.000000000000E+00
  0.149952531111E+04  0.505104422569E+00  0.104620404449E+01
  0.149952155456E+04  0.531688868999E+00  0.104619617679E+01
  0.941135048866E+00  0.478520005941E+00  0.000000000000E+00
  0.948648095131E+00  0.505104422569E+00  0.000000000000E+00
  0.149952906762E+04  0.478520005941E+00  0.104621191213E+01
  0.149952531111E+04  0.505104422569E+00  0.104620404449E+01
  0.918595850468E+00  0.398766666651E+00  0.000000000000E+00
  0.926108956337E+00  0.425351113081E+00  0.000000000000E+00
  0.149954033721E+04  0.398766666651E+00  0.104623551512E+01
  0.149953658066E+04  0.425351113081E+00  0.104622764742E+01
  0.911082804203E+00  0.372182220221E+00  0.000000000000E+00
  0.918595850468E+00  0.398766666651E+00  0.000000000000E+00
  0.149954409372E+04  0.372182220221E+00  0.104624338276E+01
  0.149954033721E+04  0.398766666651E+00  0.104623551512E+01
  0.903569757938E+00  0.345597773790E+00  0.000000000000E+00
  0.911082804203E+00  0.372182220221E+00  0.000000000000E+00
  0.149954785024E+04  0.345597773790E+00  0.104625125040E+01
  0.149954409372E+04  0.372182220221E+00  0.104624338276E+01
  0.888543665409E+00  0.292428880930E+00  0.000000000000E+00
  0.896056711674E+00  0.319013327360E+00  0.000000000000E+00
  0.149955536328E+04  0.292428880930E+00  0.104626698568E+01
  0.149955160676E+04  0.319013327360E+00  0.104625911804E+01
  0.896056711674E+00  0.319013327360E+00  0.000000000000E+00
  0.903569757938E+00  0.345597773790E+00  0.000000000000E+00
  0.149955160676E+04  0.319013327360E+00  0.104625911804E+01
  0.149954785024E+04  0.345597773790E+00  0.104625125040E+01
  0.881030559540E+00  0.265844434500E+00  0.000000000000E+00
  0.888543665409E+00  0.292428880930E+00  0.000000000000E+00
  0.149955911982E+04  0.265844434500E+00  0.104627485339E+01
  0.149955536328E+04  0.292428880930E+00  0.104626698568E+01
  0.873517513275E+00  0.239260002971E+00  0.000000000000E+00
  0.881030559540E+00  0.265844434500E+00  0.000000000000E+00
  0.149956287634E+04  0.239260002971E+00  0.104628272103E+01
  0.149955911982E+04  0.265844434500E+00  0.104627485339E+01
  0.843465268612E+00  0.132922217250E+00  0.000000000000E+00
  0.850978374481E+00  0.159506663680E+00  0.000000000000E+00
  0.149957790244E+04  0.132922217250E+00  0.104631419165E+01
  0.149957414589E+04  0.159506663680E+00  0.104630632395E+01
  0.835952222347E+00  0.106337778270E+00  0.000000000000E+00
  0.843465268612E+00  0.132922217250E+00  0.000000000000E+00
  0.149958165896E+04  0.106337778270E+00  0.104632205930E+01
  0.149957790244E+04  0.132922217250E+00  0.104631419165E+01
  0.820926129818E+00  0.531688891351E-01  0.000000000000E+00
  0.828439176083E+00  0.797533318400E-01  0.000000000000E+00
  0.149958917199E+04  0.531688891351E-01  0.104633779458E+01
  0.149958541548E+04  0.797533318400E-01  0.104632992694E+01
  0.828439176083E+00  0.797533318400E-01  0.000000000000E+00
  0.835952222347E+00  0.106337778270E+00  0.000000000000E+00
  0.149958541548E+04  0.797533318400E-01  0.104632992694E+01
  0.149958165896E+04  0.106337778270E+00  0.104632205930E+01
  0.813413083553E+00  0.265844445676E-01  0.000000000000E+00
  0.820926129818E+00  0.531688891351E-01  0.000000000000E+00
  0.149959292851E+04  0.265844445676E-01  0.104634566222E+01
  0.149958917199E+04  0.531688891351E-01  0.104633779458E+01
  0.805899977684E+00  0.000000000000E+00  0.000000000000E+00
  0.813413083553E+00  0.265844445676E-01  0.000000000000E+00
  0.149959668506E+04  0.000000000000E+00  0.104635352992E+01
  0.149959292851E+04  0.265844445676E-01  0.104634566222E+01
  0.850978374481E+00  0.159506663680E+00  0.000000000000E+00
  0.858491420746E+00  0.186091110110E+00  0.000000000000E+00
  0.149957414589E+04  0.159506663680E+00  0.104630632395E+01
  0.149957038938E+04  0.186091110110E+00  0.104629845631E+01
  0.858491420746E+00  0.186091110110E+00  0.000000000000E+00
  0.866004467010E+00  0.212675556540E+00  0.000000000000E+00
  0.149957038938E+04  0.186091110110E+00  0.104629845631E+01
  0.149956663286E+04  0.212675556540E+00  0.104629058867E+01
  0.866004467010E+00  0.212675556540E+00  0.000000000000E+00
  0.873517513275E+00  0.239260002971E+00  0.000000000000E+00
  0.149956663286E+04  0.212675556540E+00  0.104629058867E+01
  0.149956287634E+04  0.239260002971E+00  0.104628272103E+01
  0.926108956337E+00  0.425351113081E+00  0.000000000000E+00
  0.933622002602E+00  0.451935559511E+00  0.000000000000E+00
  0.149953658066E+04  0.425351113081E+00  0.104622764742E+01
  0.149953282414E+04  0.451935559511E+00  0.104621977977E+01
  0.933622002602E+00  0.451935559511E+00  0.000000000000E+00
  0.941135048866E+00  0.478520005941E+00  0.000000000000E+00
  0.149953282414E+04  0.451935559511E+00  0.104621977977E+01
  0.149952906762E+04  0.478520005941E+00  0.104621191213E+01
  0.993726491928E+00  0.664611101151E+00  0.000000000000E+00
  0.100123953819E+01  0.691195547581E+00  0.000000000000E+00
  0.149950277194E+04  0.664611101151E+00  0.104615683852E+01
  0.149949901542E+04  0.691195547581E+00  0.104614897088E+01
  0.100123953819E+01  0.691195547581E+00  0.000000000000E+00
  0.100875258446E+01  0.717779994011E+00  0.000000000000E+00
  0.149949901542E+04  0.691195547581E+00  0.104614897088E+01
  0.149949525890E+04  0.717779994011E+00  0.104614110324E+01
  0.106885707378E+01  0.930455565453E+00  0.000000000000E+00
  0.107637012005E+01  0.957040011883E+00  0.000000000000E+00
  0.149946520670E+04  0.930455565453E+00  0.104607816198E+01
  0.149946145019E+04  0.957040011883E+00  0.104607029434E+01
  0.112896156311E+01  0.114313113689E+01  0.000000000000E+00
  0.113647460938E+01  0.116971552372E+01  0.000000000000E+00
  0.149943515450E+04  0.114313113689E+01  0.104601522073E+01
  0.149943139799E+04  0.116971552372E+01  0.104600735309E+01
  0.971187293530E+00  0.584857761860E+00  0.000000000000E+00
  0.978700339794E+00  0.611442208290E+00  0.000000000000E+00
  0.149951404152E+04  0.584857761860E+00  0.104618044151E+01
  0.149951028500E+04  0.611442208290E+00  0.104617257387E+01
  0.106134402752E+01  0.903871119022E+00  0.000000000000E+00
  0.106885707378E+01  0.930455565453E+00  0.000000000000E+00
  0.149946896322E+04  0.903871119022E+00  0.104608602963E+01
  0.149946520670E+04  0.930455565453E+00  0.104607816198E+01
POLYGONS                  90                 360
3                   0                   2                   1
3                   2                   3                   1
3                   4                   6                   5
3                   6                   7                   5
3                   8                  10                   9
3                  10                  11                   9
3                  12                  14                  13
3                  14                  15                  13
3                  16                  18                  17
3                  18                  19                  17
3                  20                  22                  21
3                  22                  23                  21
3                  24                  26                  25
3                  26                  27                  25
3                  28                  30                  29
3                  30                  31                  29
3                  32                  34                  33
3                  34                  35                  33
3                  36                  38                  37
3                  38                  39                  37
3                  40                  42                  41
3                  42                  43                  41
3                  44                  46                  45
3                  46                  47                  45
3                  48                  50                  49
3                  50                  51                  49
3                  52                  54                  53
3                  54                  55                  53
3                  56                  58                  57
3                  58                  59                  57
3                  60                  62                  61
3                  62                  63                  61
3                  64                  66                  65
3                  66                  67                  65
3                  68                  70                  69
3                  70                  71                  69
3                  72                  74                  73
3                  74                  75                  73
3                  76                  78                  77
3                  78                  79                  77
3                  80                  82                  81
3                  82                  83                  81
3                  84                  86                  85
3                  86                  87                  85
3                  88                  90                  89
3                  90                  91                  89
3                  92                  94                  93
3                  94                  95                  93
3                  96                  98                  97
3                  98                  99                  97
3                 100                 102                 101
3                 102                 103                 101
3                 104                 106                 105
3                 106                 107                 105
3                 108                 110                 109
3                 110                 111                 109
3                 112                 114                 113
3                 114                 115                 113
3                 116                 118                 117
3                 118                 119                 117
3                 120                 122                 121
3                 122                 123                 121
3                 124                 126                 125
3                 126                 127                 125
3                 128                 130                 129
3                 130                 131                 129
3                 132                 134                 133
3                 134                 135                 133
3                 136                 138                 137
3                 138                 139                 137
3                 140                 142                 141
3                 142                 143                 141
3                 144                 146                 145
3                 146                 147                 145
3                 148                 150                 149
3                 150                 151                 149
3                 152                 154                 153
3                 154                 155                 153
3                 156                 158                 157
3                 158                 159                 157
3                 160                 162                 161
3                 162                 163                 161
3                 164                 166                 165
3                 166                 167                 165
3                 168                 170                 169
3                 170                 171                 169
3                 172                 174                 173
3                 174                 175                 173
3                 176                 178                 177
3                 178                 179                 177
POINT_DATA                 180
SCALARS mu float 1
LOOKUP_TABLE default
  0.407181017145E-03
  0.323638037933E-03
  0.407181017145E-03
  0.323638037933E-03
  0.204085542667E-03
  0.000000000000E+00
  0.204085542667E-03
  0.000000000000E+00
  0.471463598215E-03
  0.407181017145E-03
  0.471463598215E-03
  0.407181017145E-03
  0.523222410756E-03
  0.471463598215E-03
  0.523222410756E-03
  0.471463598215E-03
  0.566936386638E-03
  0.523222410756E-03
  0.566936386638E-03
  0.523222410756E-03
  0.604603660158E-03
  0.566936386638E-03
  0.604603660158E-03
  0.566936386638E-03
  0.637177286294E-03
  0.604603660158E-03
  0.637177286294E-03
  0.604603660158E-03
  0.665857105520E-03
  0.637177286294E-03
  0.665857105520E-03
  0.637177286294E-03
  0.737456770811E-03
  0.715716158292E-03
  0.737456770811E-03
  0.715716158292E-03
  0.756886918142E-03
  0.737456770811E-03
  0.756886918142E-03
  0.737456770811E-03
  0.774401119110E-03
  0.756886918142E-03
  0.774401119110E-03
  0.756886918142E-03
  0.791671118926E-03
  0.774401119110E-03
  0.791671118926E-03
  0.774401119110E-03
  0.807166098358E-03
  0.791671118926E-03
  0.807166098358E-03
  0.791671118926E-03
  0.821589358517E-03
  0.807166098358E-03
  0.821589358517E-03
  0.807166098358E-03
  0.834786249770E-03
  0.821589358517E-03
  0.834786249770E-03
  0.821589358517E-03
  0.868315024157E-03
  0.857901051719E-03
  0.868315024157E-03
  0.857901051719E-03
  0.878115605065E-03
  0.868315024157E-03
  0.878115605065E-03
  0.868315024157E-03
  0.895705794902E-03
  0.886738468344E-03
  0.895705794902E-03
  0.886738468344E-03
  0.902779237452E-03
  0.895705794902E-03
  0.902779237452E-03
  0.895705794902E-03
  0.910188004490E-03
  0.902779237452E-03
  0.910188004490E-03
  0.902779237452E-03
  0.915972981003E-03
  0.910188004490E-03
  0.915972981003E-03
  0.910188004490E-03
  0.931814377984E-03
  0.926940782734E-03
  0.931814377984E-03
  0.926940782734E-03
  0.935974304482E-03
  0.931814377984E-03
  0.935974304482E-03
  0.931814377984E-03
  0.939090747868E-03
  0.935974304482E-03
  0.939090747868E-03
  0.935974304482E-03
  0.943796269514E-03
  0.941315682594E-03
  0.943796269514E-03
  0.941315682594E-03
  0.941315682594E-03
  0.939090747868E-03
  0.941315682594E-03
  0.939090747868E-03
  0.945373204962E-03
  0.943796269514E-03
  0.945373204962E-03
  0.943796269514E-03
  0.947127713763E-03
  0.945373204962E-03
  0.947127713763E-03
  0.945373204962E-03
  0.944146640251E-03
  0.946615791736E-03
  0.944146640251E-03
  0.946615791736E-03
  0.941258787370E-03
  0.944146640251E-03
  0.941258787370E-03
  0.944146640251E-03
  0.927181271549E-03
  0.935979970873E-03
  0.927181271549E-03
  0.935979970873E-03
  0.935979970873E-03
  0.941258787370E-03
  0.935979970873E-03
  0.941258787370E-03
  0.912536908481E-03
  0.927181271549E-03
  0.912536908481E-03
  0.927181271549E-03
  0.882691107967E-03
  0.912536908481E-03
  0.882691107967E-03
  0.912536908481E-03
  0.946615791736E-03
  0.947650558624E-03
  0.946615791736E-03
  0.947650558624E-03
  0.947650558624E-03
  0.947914859297E-03
  0.947650558624E-03
  0.947914859297E-03
  0.947914859297E-03
  0.947127713763E-03
  0.947914859297E-03
  0.947127713763E-03
  0.926940782734E-03
  0.921460166909E-03
  0.926940782734E-03
  0.921460166909E-03
  0.921460166909E-03
  0.915972981003E-03
  0.921460166909E-03
  0.915972981003E-03
  0.857901051719E-03
  0.846776776555E-03
  0.857901051719E-03
  0.846776776555E-03
  0.846776776555E-03
  0.834786249770E-03
  0.846776776555E-03
  0.834786249770E-03
  0.691920313080E-03
  0.665857105520E-03
  0.691920313080E-03
  0.665857105520E-03
  0.323638037933E-03
  0.204085542667E-03
  0.323638037933E-03
  0.204085542667E-03
  0.886738468344E-03
  0.878115605065E-03
  0.886738468344E-03
  0.878115605065E-03
  0.715716158292E-03
  0.691920313080E-03
  0.715716158292E-03
  0.691920313080E-03
