# vtk DataFile Version 3.0
MachLine results file. Generated by MachLine, USU AeroLab (c) 2023.
ASCII
DATASET POLYDATA
POINTS                 144 float
  0.100000000000E+01  0.245969122290E+00 -0.449134721200E-01
  0.100000000000E+01  0.250000000000E+00  0.000000000000E+00
  0.295000000000E+02  0.245969122290E+00 -0.449134721200E-01
  0.295000000000E+02  0.250000000000E+00  0.000000000000E+00
  0.100000000000E+01  0.234348718130E+00 -0.871958220850E-01
  0.100000000000E+01  0.245969122290E+00 -0.449134721200E-01
  0.295000000000E+02  0.234348718130E+00 -0.871958220850E-01
  0.295000000000E+02  0.245969122290E+00 -0.449134721200E-01
  0.100000000000E+01  0.215847130990E+00 -0.126138706430E+00
  0.100000000000E+01  0.234348718130E+00 -0.871958220850E-01
  0.295000000000E+02  0.215847130990E+00 -0.126138706430E+00
  0.295000000000E+02  0.234348718130E+00 -0.871958220850E-01
  0.100000000000E+01  0.191172704350E+00 -0.161033781670E+00
  0.100000000000E+01  0.215847130990E+00 -0.126138706430E+00
  0.295000000000E+02  0.191172704350E+00 -0.161033781670E+00
  0.295000000000E+02  0.215847130990E+00 -0.126138706430E+00
  0.100000000000E+01  0.161033781670E+00 -0.191172704350E+00
  0.100000000000E+01  0.191172704350E+00 -0.161033781670E+00
  0.295000000000E+02  0.161033781670E+00 -0.191172704350E+00
  0.295000000000E+02  0.191172704350E+00 -0.161033781670E+00
  0.100000000000E+01  0.126138706430E+00 -0.215847130990E+00
  0.100000000000E+01  0.161033781670E+00 -0.191172704350E+00
  0.295000000000E+02  0.126138706430E+00 -0.215847130990E+00
  0.295000000000E+02  0.161033781670E+00 -0.191172704350E+00
  0.100000000000E+01  0.871958220850E-01 -0.234348718130E+00
  0.100000000000E+01  0.126138706430E+00 -0.215847130990E+00
  0.295000000000E+02  0.871958220850E-01 -0.234348718130E+00
  0.295000000000E+02  0.126138706430E+00 -0.215847130990E+00
  0.100000000000E+01  0.449134721200E-01 -0.245969122290E+00
  0.100000000000E+01  0.871958220850E-01 -0.234348718130E+00
  0.295000000000E+02  0.449134721200E-01 -0.245969122290E+00
  0.295000000000E+02  0.871958220850E-01 -0.234348718130E+00
  0.100000000000E+01  0.000000000000E+00 -0.250000000000E+00
  0.100000000000E+01  0.449134721200E-01 -0.245969122290E+00
  0.295000000000E+02  0.000000000000E+00 -0.250000000000E+00
  0.295000000000E+02  0.449134721200E-01 -0.245969122290E+00
  0.100000000000E+01 -0.449134721200E-01 -0.245969122290E+00
  0.100000000000E+01  0.000000000000E+00 -0.250000000000E+00
  0.295000000000E+02 -0.449134721200E-01 -0.245969122290E+00
  0.295000000000E+02  0.000000000000E+00 -0.250000000000E+00
  0.100000000000E+01 -0.871958220850E-01 -0.234348718130E+00
  0.100000000000E+01 -0.449134721200E-01 -0.245969122290E+00
  0.295000000000E+02 -0.871958220850E-01 -0.234348718130E+00
  0.295000000000E+02 -0.449134721200E-01 -0.245969122290E+00
  0.100000000000E+01 -0.126138706430E+00 -0.215847130990E+00
  0.100000000000E+01 -0.871958220850E-01 -0.234348718130E+00
  0.295000000000E+02 -0.126138706430E+00 -0.215847130990E+00
  0.295000000000E+02 -0.871958220850E-01 -0.234348718130E+00
  0.100000000000E+01 -0.161033781670E+00 -0.191172704350E+00
  0.100000000000E+01 -0.126138706430E+00 -0.215847130990E+00
  0.295000000000E+02 -0.161033781670E+00 -0.191172704350E+00
  0.295000000000E+02 -0.126138706430E+00 -0.215847130990E+00
  0.100000000000E+01 -0.191172704350E+00 -0.161033781670E+00
  0.100000000000E+01 -0.161033781670E+00 -0.191172704350E+00
  0.295000000000E+02 -0.191172704350E+00 -0.161033781670E+00
  0.295000000000E+02 -0.161033781670E+00 -0.191172704350E+00
  0.100000000000E+01 -0.215847130990E+00 -0.126138706430E+00
  0.100000000000E+01 -0.191172704350E+00 -0.161033781670E+00
  0.295000000000E+02 -0.215847130990E+00 -0.126138706430E+00
  0.295000000000E+02 -0.191172704350E+00 -0.161033781670E+00
  0.100000000000E+01 -0.234348718130E+00 -0.871958220850E-01
  0.100000000000E+01 -0.215847130990E+00 -0.126138706430E+00
  0.295000000000E+02 -0.234348718130E+00 -0.871958220850E-01
  0.295000000000E+02 -0.215847130990E+00 -0.126138706430E+00
  0.100000000000E+01 -0.245969122290E+00 -0.449134721200E-01
  0.100000000000E+01 -0.234348718130E+00 -0.871958220850E-01
  0.295000000000E+02 -0.245969122290E+00 -0.449134721200E-01
  0.295000000000E+02 -0.234348718130E+00 -0.871958220850E-01
  0.100000000000E+01 -0.250000000000E+00  0.000000000000E+00
  0.100000000000E+01 -0.245969122290E+00 -0.449134721200E-01
  0.295000000000E+02 -0.250000000000E+00  0.000000000000E+00
  0.295000000000E+02 -0.245969122290E+00 -0.449134721200E-01
  0.100000000000E+01 -0.245969122290E+00  0.449134721200E-01
  0.100000000000E+01 -0.250000000000E+00  0.000000000000E+00
  0.295000000000E+02 -0.245969122290E+00  0.449134721200E-01
  0.295000000000E+02 -0.250000000000E+00  0.000000000000E+00
  0.100000000000E+01 -0.234348718130E+00  0.871958220850E-01
  0.100000000000E+01 -0.245969122290E+00  0.449134721200E-01
  0.295000000000E+02 -0.234348718130E+00  0.871958220850E-01
  0.295000000000E+02 -0.245969122290E+00  0.449134721200E-01
  0.100000000000E+01 -0.215847130990E+00  0.126138706430E+00
  0.100000000000E+01 -0.234348718130E+00  0.871958220850E-01
  0.295000000000E+02 -0.215847130990E+00  0.126138706430E+00
  0.295000000000E+02 -0.234348718130E+00  0.871958220850E-01
  0.100000000000E+01 -0.191172704350E+00  0.161033781670E+00
  0.100000000000E+01 -0.215847130990E+00  0.126138706430E+00
  0.295000000000E+02 -0.191172704350E+00  0.161033781670E+00
  0.295000000000E+02 -0.215847130990E+00  0.126138706430E+00
  0.100000000000E+01 -0.161033781670E+00  0.191172704350E+00
  0.100000000000E+01 -0.191172704350E+00  0.161033781670E+00
  0.295000000000E+02 -0.161033781670E+00  0.191172704350E+00
  0.295000000000E+02 -0.191172704350E+00  0.161033781670E+00
  0.100000000000E+01 -0.126138706430E+00  0.215847130990E+00
  0.100000000000E+01 -0.161033781670E+00  0.191172704350E+00
  0.295000000000E+02 -0.126138706430E+00  0.215847130990E+00
  0.295000000000E+02 -0.161033781670E+00  0.191172704350E+00
  0.100000000000E+01 -0.871958220850E-01  0.234348718130E+00
  0.100000000000E+01 -0.126138706430E+00  0.215847130990E+00
  0.295000000000E+02 -0.871958220850E-01  0.234348718130E+00
  0.295000000000E+02 -0.126138706430E+00  0.215847130990E+00
  0.100000000000E+01 -0.449134721200E-01  0.245969122290E+00
  0.100000000000E+01 -0.871958220850E-01  0.234348718130E+00
  0.295000000000E+02 -0.449134721200E-01  0.245969122290E+00
  0.295000000000E+02 -0.871958220850E-01  0.234348718130E+00
  0.100000000000E+01  0.000000000000E+00  0.250000000000E+00
  0.100000000000E+01 -0.449134721200E-01  0.245969122290E+00
  0.295000000000E+02  0.000000000000E+00  0.250000000000E+00
  0.295000000000E+02 -0.449134721200E-01  0.245969122290E+00
  0.100000000000E+01  0.449134721200E-01  0.245969122290E+00
  0.100000000000E+01  0.000000000000E+00  0.250000000000E+00
  0.295000000000E+02  0.449134721200E-01  0.245969122290E+00
  0.295000000000E+02  0.000000000000E+00  0.250000000000E+00
  0.100000000000E+01  0.871958220850E-01  0.234348718130E+00
  0.100000000000E+01  0.449134721200E-01  0.245969122290E+00
  0.295000000000E+02  0.871958220850E-01  0.234348718130E+00
  0.295000000000E+02  0.449134721200E-01  0.245969122290E+00
  0.100000000000E+01  0.126138706430E+00  0.215847130990E+00
  0.100000000000E+01  0.871958220850E-01  0.234348718130E+00
  0.295000000000E+02  0.126138706430E+00  0.215847130990E+00
  0.295000000000E+02  0.871958220850E-01  0.234348718130E+00
  0.100000000000E+01  0.161033781670E+00  0.191172704350E+00
  0.100000000000E+01  0.126138706430E+00  0.215847130990E+00
  0.295000000000E+02  0.161033781670E+00  0.191172704350E+00
  0.295000000000E+02  0.126138706430E+00  0.215847130990E+00
  0.100000000000E+01  0.191172704350E+00  0.161033781670E+00
  0.100000000000E+01  0.161033781670E+00  0.191172704350E+00
  0.295000000000E+02  0.191172704350E+00  0.161033781670E+00
  0.295000000000E+02  0.161033781670E+00  0.191172704350E+00
  0.100000000000E+01  0.215847130990E+00  0.126138706430E+00
  0.100000000000E+01  0.191172704350E+00  0.161033781670E+00
  0.295000000000E+02  0.215847130990E+00  0.126138706430E+00
  0.295000000000E+02  0.191172704350E+00  0.161033781670E+00
  0.100000000000E+01  0.234348718130E+00  0.871958220850E-01
  0.100000000000E+01  0.215847130990E+00  0.126138706430E+00
  0.295000000000E+02  0.234348718130E+00  0.871958220850E-01
  0.295000000000E+02  0.215847130990E+00  0.126138706430E+00
  0.100000000000E+01  0.245969122290E+00  0.449134721200E-01
  0.100000000000E+01  0.234348718130E+00  0.871958220850E-01
  0.295000000000E+02  0.245969122290E+00  0.449134721200E-01
  0.295000000000E+02  0.234348718130E+00  0.871958220850E-01
  0.100000000000E+01  0.250000000000E+00  0.000000000000E+00
  0.100000000000E+01  0.245969122290E+00  0.449134721200E-01
  0.295000000000E+02  0.250000000000E+00  0.000000000000E+00
  0.295000000000E+02  0.245969122290E+00  0.449134721200E-01
POLYGONS                  72                 288
3                   0                   3                   1
3                   0                   2                   3
3                   4                   7                   5
3                   4                   6                   7
3                   8                  11                   9
3                   8                  10                  11
3                  12                  15                  13
3                  12                  14                  15
3                  16                  19                  17
3                  16                  18                  19
3                  20                  23                  21
3                  20                  22                  23
3                  24                  27                  25
3                  24                  26                  27
3                  28                  31                  29
3                  28                  30                  31
3                  32                  35                  33
3                  32                  34                  35
3                  36                  39                  37
3                  36                  38                  39
3                  40                  43                  41
3                  40                  42                  43
3                  44                  47                  45
3                  44                  46                  47
3                  48                  51                  49
3                  48                  50                  51
3                  52                  55                  53
3                  52                  54                  55
3                  56                  59                  57
3                  56                  58                  59
3                  60                  63                  61
3                  60                  62                  63
3                  64                  67                  65
3                  64                  66                  67
3                  68                  71                  69
3                  68                  70                  71
3                  72                  75                  73
3                  72                  74                  75
3                  76                  79                  77
3                  76                  78                  79
3                  80                  83                  81
3                  80                  82                  83
3                  84                  87                  85
3                  84                  86                  87
3                  88                  91                  89
3                  88                  90                  91
3                  92                  95                  93
3                  92                  94                  95
3                  96                  99                  97
3                  96                  98                  99
3                 100                 103                 101
3                 100                 102                 103
3                 104                 107                 105
3                 104                 106                 107
3                 108                 111                 109
3                 108                 110                 111
3                 112                 115                 113
3                 112                 114                 115
3                 116                 119                 117
3                 116                 118                 119
3                 120                 123                 121
3                 120                 122                 123
3                 124                 127                 125
3                 124                 126                 127
3                 128                 131                 129
3                 128                 130                 131
3                 132                 135                 133
3                 132                 134                 135
3                 136                 139                 137
3                 136                 138                 139
3                 140                 143                 141
3                 140                 142                 143
POINT_DATA                 144
SCALARS mu float 1
LOOKUP_TABLE default
 -0.303025563179E-01
 -0.302890098437E-01
 -0.303025563179E-01
 -0.302890098437E-01
 -0.303150228470E-01
 -0.303025563179E-01
 -0.303150228470E-01
 -0.303025563179E-01
 -0.302952755327E-01
 -0.303150228470E-01
 -0.302952755327E-01
 -0.303150228470E-01
 -0.302538670239E-01
 -0.302952755327E-01
 -0.302538670239E-01
 -0.302952755327E-01
 -0.302521208588E-01
 -0.302538670239E-01
 -0.302521208588E-01
 -0.302538670239E-01
 -0.302671591687E-01
 -0.302521208588E-01
 -0.302671591687E-01
 -0.302521208588E-01
 -0.302810283104E-01
 -0.302671591687E-01
 -0.302810283104E-01
 -0.302671591687E-01
 -0.302825562283E-01
 -0.302810283104E-01
 -0.302825562283E-01
 -0.302810283104E-01
 -0.302890098440E-01
 -0.302825562283E-01
 -0.302890098440E-01
 -0.302825562283E-01
 -0.303025563182E-01
 -0.302890098440E-01
 -0.303025563182E-01
 -0.302890098440E-01
 -0.303150228472E-01
 -0.303025563182E-01
 -0.303150228472E-01
 -0.303025563182E-01
 -0.302952755328E-01
 -0.303150228472E-01
 -0.302952755328E-01
 -0.303150228472E-01
 -0.302538670239E-01
 -0.302952755328E-01
 -0.302538670239E-01
 -0.302952755328E-01
 -0.302521208588E-01
 -0.302538670239E-01
 -0.302521208588E-01
 -0.302538670239E-01
 -0.302671591688E-01
 -0.302521208588E-01
 -0.302671591688E-01
 -0.302521208588E-01
 -0.302810283102E-01
 -0.302671591688E-01
 -0.302810283102E-01
 -0.302671591688E-01
 -0.302825562281E-01
 -0.302810283102E-01
 -0.302825562281E-01
 -0.302810283102E-01
 -0.302890098438E-01
 -0.302825562281E-01
 -0.302890098438E-01
 -0.302825562281E-01
 -0.303025563180E-01
 -0.302890098438E-01
 -0.303025563180E-01
 -0.302890098438E-01
 -0.303150228472E-01
 -0.303025563180E-01
 -0.303150228472E-01
 -0.303025563180E-01
 -0.302952755330E-01
 -0.303150228472E-01
 -0.302952755330E-01
 -0.303150228472E-01
 -0.302538670242E-01
 -0.302952755330E-01
 -0.302538670242E-01
 -0.302952755330E-01
 -0.302521208590E-01
 -0.302538670242E-01
 -0.302521208590E-01
 -0.302538670242E-01
 -0.302671591688E-01
 -0.302521208590E-01
 -0.302671591688E-01
 -0.302521208590E-01
 -0.302810283102E-01
 -0.302671591688E-01
 -0.302810283102E-01
 -0.302671591688E-01
 -0.302825562280E-01
 -0.302810283102E-01
 -0.302825562280E-01
 -0.302810283102E-01
 -0.302890098437E-01
 -0.302825562280E-01
 -0.302890098437E-01
 -0.302825562280E-01
 -0.303025563180E-01
 -0.302890098437E-01
 -0.303025563180E-01
 -0.302890098437E-01
 -0.303150228470E-01
 -0.303025563180E-01
 -0.303150228470E-01
 -0.303025563180E-01
 -0.302952755327E-01
 -0.303150228470E-01
 -0.302952755327E-01
 -0.303150228470E-01
 -0.302538670240E-01
 -0.302952755327E-01
 -0.302538670240E-01
 -0.302952755327E-01
 -0.302521208591E-01
 -0.302538670240E-01
 -0.302521208591E-01
 -0.302538670240E-01
 -0.302671591690E-01
 -0.302521208591E-01
 -0.302671591690E-01
 -0.302521208591E-01
 -0.302810283104E-01
 -0.302671591690E-01
 -0.302810283104E-01
 -0.302671591690E-01
 -0.302825562281E-01
 -0.302810283104E-01
 -0.302825562281E-01
 -0.302810283104E-01
 -0.302890098437E-01
 -0.302825562281E-01
 -0.302890098437E-01
 -0.302825562281E-01
