# vtk DataFile Version 3.0
MachLine results file. Generated by MachLine, USU AeroLab (c) 2023.
ASCII
DATASET POLYDATA
POINTS                  72 float
  0.100000000000E+01  0.247984561145E+00 -0.224567360600E-01
  0.200000000000E+02  0.247984561145E+00 -0.224567360600E-01
  0.100000000000E+01  0.240158920210E+00 -0.660546471025E-01
  0.200000000000E+02  0.240158920210E+00 -0.660546471025E-01
  0.100000000000E+01  0.225097924560E+00 -0.106667264258E+00
  0.200000000000E+02  0.225097924560E+00 -0.106667264258E+00
  0.100000000000E+01  0.203509917670E+00 -0.143586244050E+00
  0.200000000000E+02  0.203509917670E+00 -0.143586244050E+00
  0.100000000000E+01  0.176103243010E+00 -0.176103243010E+00
  0.200000000000E+02  0.176103243010E+00 -0.176103243010E+00
  0.100000000000E+01  0.143586244050E+00 -0.203509917670E+00
  0.200000000000E+02  0.143586244050E+00 -0.203509917670E+00
  0.100000000000E+01  0.106667264258E+00 -0.225097924560E+00
  0.200000000000E+02  0.106667264258E+00 -0.225097924560E+00
  0.100000000000E+01  0.660546471025E-01 -0.240158920210E+00
  0.200000000000E+02  0.660546471025E-01 -0.240158920210E+00
  0.100000000000E+01  0.224567360600E-01 -0.247984561145E+00
  0.200000000000E+02  0.224567360600E-01 -0.247984561145E+00
  0.100000000000E+01 -0.224567360600E-01 -0.247984561145E+00
  0.200000000000E+02 -0.224567360600E-01 -0.247984561145E+00
  0.100000000000E+01 -0.660546471025E-01 -0.240158920210E+00
  0.200000000000E+02 -0.660546471025E-01 -0.240158920210E+00
  0.100000000000E+01 -0.106667264258E+00 -0.225097924560E+00
  0.200000000000E+02 -0.106667264258E+00 -0.225097924560E+00
  0.100000000000E+01 -0.143586244050E+00 -0.203509917670E+00
  0.200000000000E+02 -0.143586244050E+00 -0.203509917670E+00
  0.100000000000E+01 -0.176103243010E+00 -0.176103243010E+00
  0.200000000000E+02 -0.176103243010E+00 -0.176103243010E+00
  0.100000000000E+01 -0.203509917670E+00 -0.143586244050E+00
  0.200000000000E+02 -0.203509917670E+00 -0.143586244050E+00
  0.100000000000E+01 -0.225097924560E+00 -0.106667264258E+00
  0.200000000000E+02 -0.225097924560E+00 -0.106667264258E+00
  0.100000000000E+01 -0.240158920210E+00 -0.660546471025E-01
  0.200000000000E+02 -0.240158920210E+00 -0.660546471025E-01
  0.100000000000E+01 -0.247984561145E+00 -0.224567360600E-01
  0.200000000000E+02 -0.247984561145E+00 -0.224567360600E-01
  0.100000000000E+01 -0.247984561145E+00  0.224567360600E-01
  0.200000000000E+02 -0.247984561145E+00  0.224567360600E-01
  0.100000000000E+01 -0.240158920210E+00  0.660546471025E-01
  0.200000000000E+02 -0.240158920210E+00  0.660546471025E-01
  0.100000000000E+01 -0.225097924560E+00  0.106667264258E+00
  0.200000000000E+02 -0.225097924560E+00  0.106667264258E+00
  0.100000000000E+01 -0.203509917670E+00  0.143586244050E+00
  0.200000000000E+02 -0.203509917670E+00  0.143586244050E+00
  0.100000000000E+01 -0.176103243010E+00  0.176103243010E+00
  0.200000000000E+02 -0.176103243010E+00  0.176103243010E+00
  0.100000000000E+01 -0.143586244050E+00  0.203509917670E+00
  0.200000000000E+02 -0.143586244050E+00  0.203509917670E+00
  0.100000000000E+01 -0.106667264258E+00  0.225097924560E+00
  0.200000000000E+02 -0.106667264258E+00  0.225097924560E+00
  0.100000000000E+01 -0.660546471025E-01  0.240158920210E+00
  0.200000000000E+02 -0.660546471025E-01  0.240158920210E+00
  0.100000000000E+01 -0.224567360600E-01  0.247984561145E+00
  0.200000000000E+02 -0.224567360600E-01  0.247984561145E+00
  0.100000000000E+01  0.224567360600E-01  0.247984561145E+00
  0.200000000000E+02  0.224567360600E-01  0.247984561145E+00
  0.100000000000E+01  0.660546471025E-01  0.240158920210E+00
  0.200000000000E+02  0.660546471025E-01  0.240158920210E+00
  0.100000000000E+01  0.106667264258E+00  0.225097924560E+00
  0.200000000000E+02  0.106667264258E+00  0.225097924560E+00
  0.100000000000E+01  0.143586244050E+00  0.203509917670E+00
  0.200000000000E+02  0.143586244050E+00  0.203509917670E+00
  0.100000000000E+01  0.176103243010E+00  0.176103243010E+00
  0.200000000000E+02  0.176103243010E+00  0.176103243010E+00
  0.100000000000E+01  0.203509917670E+00  0.143586244050E+00
  0.200000000000E+02  0.203509917670E+00  0.143586244050E+00
  0.100000000000E+01  0.225097924560E+00  0.106667264258E+00
  0.200000000000E+02  0.225097924560E+00  0.106667264258E+00
  0.100000000000E+01  0.240158920210E+00  0.660546471025E-01
  0.200000000000E+02  0.240158920210E+00  0.660546471025E-01
  0.100000000000E+01  0.247984561145E+00  0.224567360600E-01
  0.200000000000E+02  0.247984561145E+00  0.224567360600E-01
LINES                  36                 108
2                   0                   1
2                   2                   3
2                   4                   5
2                   6                   7
2                   8                   9
2                  10                  11
2                  12                  13
2                  14                  15
2                  16                  17
2                  18                  19
2                  20                  21
2                  22                  23
2                  24                  25
2                  26                  27
2                  28                  29
2                  30                  31
2                  32                  33
2                  34                  35
2                  36                  37
2                  38                  39
2                  40                  41
2                  42                  43
2                  44                  45
2                  46                  47
2                  48                  49
2                  50                  51
2                  52                  53
2                  54                  55
2                  56                  57
2                  58                  59
2                  60                  61
2                  62                  63
2                  64                  65
2                  66                  67
2                  68                  69
2                  70                  71
POINT_DATA                  72
SCALARS Gamma float 1
LOOKUP_TABLE default
 -0.324561235009E-04
 -0.324561235009E-04
 -0.263765845983E-04
 -0.263765845983E-04
  0.170511104158E-05
  0.170511104158E-05
 -0.753437181400E-05
 -0.753437181400E-05
 -0.328961053575E-05
 -0.328961053575E-05
  0.110259963054E-04
  0.110259963054E-04
  0.114557643399E-04
  0.114557643399E-04
  0.292021667698E-04
  0.292021667698E-04
  0.162676519800E-04
  0.162676519800E-04
 -0.324561236434E-04
 -0.324561236434E-04
 -0.263765844618E-04
 -0.263765844618E-04
  0.170511107078E-05
  0.170511107078E-05
 -0.753437189160E-05
 -0.753437189160E-05
 -0.328961040619E-05
 -0.328961040619E-05
  0.110259963350E-04
  0.110259963350E-04
  0.114557641461E-04
  0.114557641461E-04
  0.292021668497E-04
  0.292021668497E-04
  0.162676521784E-04
  0.162676521784E-04
 -0.324561239160E-04
 -0.324561239160E-04
 -0.263765844934E-04
 -0.263765844934E-04
  0.170511134967E-05
  0.170511134967E-05
 -0.753437207202E-05
 -0.753437207202E-05
 -0.328961054641E-05
 -0.328961054641E-05
  0.110259965346E-04
  0.110259965346E-04
  0.114557642371E-04
  0.114557642371E-04
  0.292021666953E-04
  0.292021666953E-04
  0.162676521214E-04
  0.162676521214E-04
 -0.324561237198E-04
 -0.324561237198E-04
 -0.263765844793E-04
 -0.263765844793E-04
  0.170511122688E-05
  0.170511122688E-05
 -0.753437198719E-05
 -0.753437198719E-05
 -0.328961057772E-05
 -0.328961057772E-05
  0.110259964372E-04
  0.110259964372E-04
  0.114557643821E-04
  0.114557643821E-04
  0.292021665937E-04
  0.292021665937E-04
  0.162676520492E-04
  0.162676520492E-04
