# vtk DataFile Version 3.0
MachLine results file. Generated by MachLine, USU AeroLab (c) 2023.
ASCII
DATASET POLYDATA
POINTS                   7 float
  0.567036768980E+00  0.000000000000E+00  0.000000000000E+00
  0.283518384490E+00  0.000000000000E+00 -0.291561459230E-01
  0.283518384490E+00  0.176355406690E+01  0.000000000000E+00
  0.000000000000E+00  0.000000000000E+00  0.000000000000E+00
  0.283518384490E+00  0.000000000000E+00  0.291561459230E-01
  0.283518384490E+00 -0.176355406690E+01  0.000000000000E+00
  0.567036768980E+00  0.000000000000E+00  0.000000000000E+00
POLYGONS                   8                  32
3                   0                   1                   2
3                   1                   3                   2
3                   3                   4                   2
3                   4                   6                   2
3                   0                   5                   1
3                   1                   5                   3
3                   3                   5                   4
3                   4                   5                   6
CELL_DATA                   8
NORMALS normals float
  0.102283551729E+00  0.164436508585E-01 -0.994619365080E+00
 -0.102283551729E+00  0.164436508585E-01 -0.994619365080E+00
 -0.102283551729E+00  0.164436508585E-01  0.994619365080E+00
  0.102283551729E+00  0.164436508585E-01  0.994619365080E+00
  0.102283551729E+00 -0.164436508585E-01 -0.994619365080E+00
 -0.102283551729E+00 -0.164436508585E-01 -0.994619365080E+00
 -0.102283551729E+00 -0.164436508585E-01  0.994619365080E+00
  0.102283551729E+00 -0.164436508585E-01  0.994619365080E+00
POINT_DATA                  7
VECTORS d_CFx_central_diff float
-2.980936849500E-02  9.899627506638E-07  1.525822583490E-02
 7.364329231950E-03  1.364615200353E-06 -1.008868538739E+00
-2.150417986549E-03  6.851321297250E-03 -3.204207361050E-03
 4.426069286760E-02 -3.217998784111E-10  5.112536154080E+00
-1.832523619960E-02  1.133039700257E-06 -3.949430079751E+00
-2.150458305450E-03 -6.851585568400E-03 -3.204030438001E-03
-2.980936849500E-02  9.899627506638E-07  1.525822583490E-02
VECTORS d_CFy_central_diff float
 5.421010862428E-17 -7.301081717935E-04 -5.421010862427E-17
 2.710505431214E-17 -2.285885965236E-04  0.000000000000E+00
-6.852168633365E-03 -3.814038826411E-06 -3.985757171177E-02
-1.192622389734E-15  1.146636763804E-03  5.421010862427E-17
-7.047314121156E-16 -1.790099148933E-04  7.047314121156E-16
 6.852168713355E-03 -3.814039432860E-06  3.985741131724E-02
 5.421010862428E-17 -7.301081717935E-04 -5.421010862427E-17
VECTORS d_CFz_central_diff float
 3.739252629425E-01 -8.158028119987E-04 -2.125233061233E+00
 2.419075200080E-01 -1.038377091492E-03  4.212984457300E-02
-1.207023361340E-01  1.041376791640E-01  3.186606396140E-01
-1.925296852920E-01  2.794799947026E-07  9.078468408237E+01
 3.027751210975E-01 -7.564519284992E-04 -8.755455397161E+01
-1.206786465285E-01 -1.039351455590E-01  3.185539631145E-01
 3.739252629425E-01 -8.158028119987E-04 -2.125233061233E+00
