# vtk DataFile Version 3.0
MachLine results file. Generated by MachLine, USU AeroLab (c) 2023.
ASCII
POINT_DATA                 222
VECTORS vertex_outward_normal_vectors float
 -0.100000000000E+01  0.879728704012E-02  0.000000000000E+00
 -0.961161893748E+00  0.347523589916E-02  0.000000000000E+00
 -0.961206090855E+00  0.101807378622E-01 -0.864086627701E-01
 -0.961290342248E+00  0.915409976973E-02 -0.162650818456E+00
 -0.961290342249E+00  0.703536552653E-02 -0.222408608543E+00
 -0.961206090855E+00  0.451616103572E-02 -0.261947311311E+00
 -0.961161893746E+00  0.313360174968E-02 -0.275985169912E+00
 -0.961206090855E+00  0.480220763828E-02 -0.261947311311E+00
 -0.961290342249E+00  0.753836026313E-02 -0.222408608543E+00
 -0.961290342248E+00  0.975287627954E-02 -0.162650818456E+00
 -0.961206090855E+00  0.108914915933E-01 -0.864086627701E-01
 -0.961161893748E+00  0.433505064515E-02  0.000000000000E+00
 -0.961206090855E+00  0.981064856637E-02  0.864086627701E-01
 -0.961290342248E+00  0.911698347552E-02  0.162650818456E+00
 -0.961290342249E+00  0.703708486421E-02  0.222408608543E+00
 -0.961206090855E+00  0.444583091135E-02  0.261947311311E+00
 -0.961161893746E+00  0.590332092167E-02  0.275985169912E+00
 -0.961206090855E+00  0.864187956409E-02  0.261947311311E+00
 -0.961290342249E+00  0.137595168146E-01  0.222408608543E+00
 -0.961290342248E+00  0.189543925209E-01  0.162650818456E+00
 -0.961206090855E+00  0.226904659695E-01  0.864086627701E-01
 -0.857726510979E+00  0.141494373769E-01  0.000000000000E+00
 -0.857817224350E+00  0.261790260650E-01 -0.161048009365E+00
 -0.857920673365E+00  0.219166817448E-01 -0.303290655338E+00
 -0.857920673364E+00  0.159473321110E-01 -0.414713029211E+00
 -0.857817224351E+00  0.100181532173E-01 -0.488070843512E+00
 -0.857726510983E+00  0.711299826116E-02 -0.514106246176E+00
 -0.857817224351E+00  0.104152706863E-01 -0.488070843512E+00
 -0.857920673364E+00  0.162184670770E-01 -0.414713029211E+00
 -0.857920673365E+00  0.213138317521E-01 -0.303290655338E+00
 -0.857817224350E+00  0.243668566039E-01 -0.161048009365E+00
 -0.857726510979E+00  0.107638830663E-01  0.000000000000E+00
 -0.857817224350E+00  0.215569613868E-01  0.161048009365E+00
 -0.857920673365E+00  0.188288413536E-01  0.303290655338E+00
 -0.857920673364E+00  0.140688003828E-01  0.414713029211E+00
 -0.857817224351E+00  0.885027536774E-02  0.488070843512E+00
 -0.857726510983E+00  0.566616819589E-02  0.514106246176E+00
 -0.857817224351E+00  0.870243087169E-02  0.488070843512E+00
 -0.857920673364E+00  0.146532042530E-01  0.414713029211E+00
 -0.857920673365E+00  0.216365264759E-01  0.303290655338E+00
 -0.857817224350E+00  0.278060190539E-01  0.161048009365E+00
 -0.700699475102E+00  0.191945601654E-01  0.000000000000E+00
 -0.700819215839E+00  0.346193095033E-01 -0.223557340674E+00
 -0.700903829708E+00  0.290324746465E-01 -0.421044147787E+00
 -0.700903829707E+00  0.203515207177E-01 -0.575721848739E+00
 -0.700819215837E+00  0.120184434799E-01 -0.677402791658E+00
 -0.700699475097E+00  0.821227492206E-02 -0.713456547800E+00
 -0.700819215837E+00  0.120002140363E-01 -0.677402791658E+00
 -0.700903829707E+00  0.182996952395E-01 -0.575721848739E+00
 -0.700903829708E+00  0.226583089157E-01 -0.421044147787E+00
 -0.700819215839E+00  0.231307751701E-01 -0.223557340674E+00
 -0.700699475102E+00  0.423808756356E-02  0.000000000000E+00
 -0.700819215839E+00  0.178470858127E-01  0.223557340674E+00
 -0.700903829708E+00  0.162973326763E-01  0.421044147787E+00
 -0.700903829707E+00  0.127051111414E-01  0.575721848739E+00
 -0.700819215837E+00  0.832319788453E-02  0.677402791658E+00
 -0.700699475097E+00  0.201410364123E-02  0.713456547800E+00
 -0.700819215837E+00  0.272932184206E-02  0.677402791658E+00
 -0.700903829707E+00  0.314868650153E-02  0.575721848739E+00
 -0.700903829708E+00  0.420631677564E-02  0.421044147787E+00
 -0.700819215839E+00  0.549286936593E-02  0.223557340674E+00
 -0.498839556721E+00 -0.204628356785E-02  0.000000000000E+00
 -0.498955267445E+00  0.148865326617E-01 -0.271625291856E+00
 -0.499010569125E+00  0.155247271508E-01 -0.511564751242E+00
 -0.499010569125E+00  0.117706583146E-01 -0.699492642697E+00
 -0.498955267445E+00  0.729309505947E-02 -0.822960109552E+00
 -0.498839556721E+00  0.514900098287E-02 -0.866694350189E+00
 -0.498955267445E+00  0.673285970194E-02 -0.822960109552E+00
 -0.499010569125E+00  0.707655453563E-02 -0.699492642697E+00
 -0.499010569125E+00  0.313457810754E-02 -0.511564751242E+00
 -0.498955267445E+00 -0.578394647606E-02 -0.271625291856E+00
 -0.498839556721E+00 -0.273046921601E-01  0.000000000000E+00
 -0.498955267445E+00 -0.123101235863E-01  0.271625291856E+00
 -0.499010569125E+00 -0.588329454456E-02  0.511564751242E+00
 -0.499010569125E+00 -0.934255971498E-03  0.699492642697E+00
 -0.498955267445E+00  0.175359876724E-02  0.822960109552E+00
 -0.498839556721E+00 -0.219046513064E-02  0.866694350189E+00
 -0.498955267445E+00 -0.595929171794E-02  0.822960109552E+00
 -0.499010569125E+00 -0.164880246040E-01  0.699492642697E+00
 -0.499010569125E+00 -0.287047131288E-01  0.511564751242E+00
 -0.498955267445E+00 -0.394665890708E-01  0.271625291856E+00
 -0.260150691990E+00 -0.464061922243E-01  0.000000000000E+00
 -0.260222928864E+00 -0.310525934914E-01 -0.302650565678E+00
 -0.260250366005E+00 -0.183244841814E-01 -0.569975095354E+00
 -0.260250366006E+00 -0.902753078432E-02 -0.779357515951E+00
 -0.260222928869E+00 -0.259194873479E-02 -0.916889667510E+00
 -0.260150691997E+00 -0.136163588352E-03 -0.965568028392E+00
 -0.260222928869E+00 -0.303176836529E-02 -0.916889667510E+00
 -0.260250366006E+00 -0.136182475542E-01 -0.779357515951E+00
 -0.260250366005E+00 -0.301787713097E-01 -0.569975095354E+00
 -0.260222928864E+00 -0.496047053324E-01 -0.302650565678E+00
 -0.260150691990E+00 -0.682777899614E-01  0.000000000000E+00
 -0.260222928864E+00 -0.537275109796E-01  0.302650565678E+00
 -0.260250366005E+00 -0.366454451986E-01  0.569975095354E+00
 -0.260250366006E+00 -0.196755483738E-01  0.779357515951E+00
 -0.260222928869E+00 -0.676531296441E-02  0.916889667510E+00
 -0.260150691997E+00 -0.294436589655E-02  0.965568028392E+00
 -0.260222928869E+00 -0.934029867360E-02  0.916889667510E+00
 -0.260250366006E+00 -0.264857865333E-01  0.779357515951E+00
 -0.260250366005E+00 -0.479314375788E-01  0.569975095354E+00
 -0.260222928864E+00 -0.677790955718E-01  0.302650565678E+00
 -0.141173951452E-10 -0.734328774922E-01  0.000000000000E+00
 -0.129278435696E-10 -0.656608869420E-01 -0.313456865754E+00
 -0.107778393750E-10 -0.457681177485E-01 -0.590317244121E+00
 -0.885831426802E-11 -0.259099037525E-01 -0.807171327101E+00
 -0.670632522890E-11 -0.995670447421E-02 -0.949602439609E+00
 -0.551101902130E-11 -0.335892709392E-02 -0.100000000000E+01
 -0.670632522890E-11 -0.940903769321E-02 -0.949602439609E+00
 -0.885831426802E-11 -0.261770044949E-01 -0.807171327101E+00
 -0.107778393750E-10 -0.471537573470E-01 -0.590317244121E+00
 -0.129278435696E-10 -0.662941508844E-01 -0.313456865754E+00
 -0.141173951452E-10 -0.739861518010E-01  0.000000000000E+00
 -0.129278435696E-10 -0.635993838515E-01  0.313456865754E+00
 -0.107778393750E-10 -0.446100034939E-01  0.590317244121E+00
 -0.885831426802E-11 -0.249185067816E-01  0.807171327101E+00
 -0.670632522890E-11 -0.913469417077E-02  0.949602439609E+00
 -0.551101902130E-11  0.532093291116E-03  0.100000000000E+01
 -0.670632522890E-11 -0.375095305298E-02  0.949602439609E+00
 -0.885831426802E-11 -0.154503563684E-01  0.807171327101E+00
 -0.107778393750E-10 -0.311111854080E-01  0.590317244121E+00
 -0.129278435696E-10 -0.459850696882E-01  0.313456865754E+00
  0.260150692015E+00 -0.448430403035E-01  0.000000000000E+00
  0.260222928887E+00 -0.505630576122E-01 -0.302650565676E+00
  0.260250366024E+00 -0.378160550492E-01 -0.569975095352E+00
  0.260250366023E+00 -0.219885282972E-01 -0.779357515948E+00
  0.260222928882E+00 -0.812946394744E-02 -0.916889667506E+00
  0.260150692008E+00 -0.201523770611E-02 -0.965568028389E+00
  0.260222928882E+00 -0.684836377100E-02 -0.916889667506E+00
  0.260250366023E+00 -0.179202220049E-01 -0.779357515948E+00
  0.260250366024E+00 -0.284459175094E-01 -0.569975095352E+00
  0.260222928887E+00 -0.336360569135E-01 -0.302650565676E+00
  0.260150692015E+00 -0.252333401020E-01  0.000000000000E+00
  0.260222928887E+00 -0.253299529406E-01  0.302650565676E+00
  0.260250366024E+00 -0.179647813894E-01  0.569975095352E+00
  0.260250366023E+00 -0.998818798504E-02  0.779357515948E+00
  0.260222928882E+00 -0.289637787234E-02  0.916889667506E+00
  0.260150692008E+00  0.462799280745E-02  0.965568028389E+00
  0.260222928882E+00  0.418816589606E-02  0.916889667506E+00
  0.260250366023E+00  0.275781045563E-02  0.779357515948E+00
  0.260250366024E+00  0.267730946010E-03  0.569975095352E+00
  0.260222928887E+00 -0.155534325333E-02  0.302650565676E+00
  0.498839556739E+00  0.107333401893E-01  0.000000000000E+00
  0.498955267463E+00 -0.754826358046E-02 -0.271625291849E+00
  0.499010569142E+00 -0.850427112096E-02 -0.511564751237E+00
  0.499010569142E+00 -0.528625308549E-02 -0.699492642690E+00
  0.498955267462E+00 -0.869292696738E-03 -0.822960109542E+00
  0.498839556738E+00  0.170520932620E-02 -0.866694350180E+00
  0.498955267462E+00 -0.188105140532E-04 -0.822960109542E+00
  0.499010569142E+00 -0.113616468878E-02 -0.699492642690E+00
  0.499010569142E+00  0.191724683798E-02 -0.511564751237E+00
  0.498955267463E+00  0.106072529575E-01 -0.271625291849E+00
  0.498839556739E+00  0.313992038700E-01  0.000000000000E+00
  0.498955267463E+00  0.186051536133E-01  0.271625291849E+00
  0.499010569142E+00  0.127576710018E-01  0.511564751237E+00
  0.499010569142E+00  0.747390822425E-02  0.699492642690E+00
  0.498955267462E+00  0.452230071011E-02  0.822960109542E+00
  0.498839556738E+00  0.566406293881E-02  0.866694350180E+00
  0.498955267462E+00  0.718815532510E-02  0.822960109542E+00
  0.499010569142E+00  0.112580716249E-01  0.699492642690E+00
  0.499010569142E+00  0.165151970273E-01  0.511564751237E+00
  0.498955267463E+00  0.223719211633E-01  0.271625291849E+00
  0.700699475058E+00  0.424836364860E-01  0.000000000000E+00
  0.700819215797E+00  0.188223852885E-01 -0.223557340684E+00
  0.700903829668E+00  0.108912820783E-01 -0.421044147811E+00
  0.700903829668E+00  0.601624182247E-02 -0.575721848770E+00
  0.700819215800E+00  0.387194439090E-02 -0.677402791691E+00
  0.700699475062E+00  0.379477099740E-02 -0.713456547834E+00
  0.700819215800E+00  0.370899922679E-02 -0.677402791691E+00
  0.700903829668E+00  0.751642648175E-02 -0.575721848770E+00
  0.700903829668E+00  0.159203161045E-01 -0.421044147811E+00
  0.700819215797E+00  0.278430203192E-01 -0.223557340684E+00
  0.700699475058E+00  0.530258014981E-01  0.000000000000E+00
  0.700819215797E+00  0.321198027803E-01  0.223557340684E+00
  0.700903829668E+00  0.223137381244E-01  0.421044147811E+00
  0.700903829668E+00  0.127516197544E-01  0.575721848770E+00
  0.700819215800E+00  0.654808479119E-02  0.677402791691E+00
  0.700699475062E+00  0.359691544909E-02  0.713456547834E+00
  0.700819215800E+00  0.481306682366E-02  0.677402791691E+00
  0.700903829668E+00  0.842534213941E-02  0.575721848770E+00
  0.700903829668E+00  0.136859625052E-01  0.421044147811E+00
  0.700819215797E+00  0.191527460289E-01  0.223557340684E+00
  0.857726510976E+00  0.408761566943E-01  0.000000000000E+00
  0.857817224344E+00  0.186459272301E-01 -0.161048009366E+00
  0.857920673357E+00  0.120950969309E-01 -0.303290655348E+00
  0.857920673357E+00  0.669906901336E-02 -0.414713029222E+00
  0.857817224343E+00  0.362666654408E-02 -0.488070843525E+00
  0.857726510972E+00  0.298000805978E-02 -0.514106246194E+00
  0.857817224343E+00  0.293888394072E-02 -0.488070843525E+00
  0.857920673357E+00  0.608155645172E-02 -0.414713029222E+00
  0.857920673357E+00  0.121698755260E-01 -0.303290655348E+00
  0.857817224344E+00  0.195240084999E-01 -0.161048009366E+00
  0.857726510976E+00  0.424563981190E-01  0.000000000000E+00
  0.857817224344E+00  0.202241465763E-01  0.161048009366E+00
  0.857920673357E+00  0.139996390262E-01  0.303290655348E+00
  0.857920673357E+00  0.766920613342E-02  0.414713029222E+00
  0.857817224343E+00  0.382158008479E-02  0.488070843525E+00
  0.857726510972E+00  0.979290027689E-03  0.514106246194E+00
  0.857817224343E+00  0.142928871897E-02  0.488070843525E+00
  0.857920673357E+00  0.295290712255E-02  0.414713029222E+00
  0.857920673357E+00  0.546189184125E-02  0.303290655348E+00
  0.857817224344E+00  0.813124120456E-02  0.161048009366E+00
  0.961161893766E+00  0.217709089271E-01  0.000000000000E+00
  0.961206090875E+00  0.870214048949E-02 -0.864086627409E-01
  0.961290342269E+00  0.541375439850E-02 -0.162650818416E+00
  0.961290342268E+00  0.273424934681E-02 -0.222408608491E+00
  0.961206090875E+00  0.127065639189E-02 -0.261947311242E+00
  0.961161893768E+00  0.956220266255E-03 -0.275985169834E+00
  0.961206090875E+00  0.797108056757E-03 -0.261947311242E+00
  0.961290342268E+00  0.201700543773E-02 -0.222408608491E+00
  0.961290342269E+00  0.467275892546E-02 -0.162650818416E+00
  0.961206090875E+00  0.816719943921E-02 -0.864086627409E-01
  0.961161893766E+00  0.222892258776E-01  0.000000000000E+00
  0.961206090875E+00  0.775629063745E-02  0.864086627409E-01
  0.961290342269E+00  0.490025242228E-02  0.162650818416E+00
  0.961290342268E+00  0.220611958674E-02  0.222408608491E+00
  0.961206090875E+00  0.838110110816E-03  0.261947311242E+00
  0.961161893768E+00  0.228857306181E-01  0.275985169834E+00
  0.961206090875E+00  0.864086627483E-01  0.261947311242E+00
  0.961290342268E+00  0.162650818415E+00  0.222408608491E+00
  0.961290342269E+00  0.222408608486E+00  0.162650818416E+00
  0.961206090875E+00  0.261947311244E+00  0.864086627409E-01
  0.100000000000E+01  0.000000000000E+00  0.000000000000E+00
VECTORS CF_x_sensitivity_vectors float
  0.942314020684E-01  0.675083968128E-02  0.278224771618E-02
  0.512069943692E-01 -0.717307519518E-03 -0.187057689276E-02
  0.263139492883E-01 -0.232970042801E-02 -0.170914225807E-02
  0.242572203702E-01  0.614331934669E-03  0.349308982355E-02
  0.237664799140E-01  0.413521951885E-03 -0.232134075376E-03
  0.233071891484E-01 -0.120194345839E-02 -0.391957070159E-03
  0.161204573616E-01  0.195876622535E-02  0.353452677480E-02
  0.257304611374E-01  0.157269010376E-01  0.107927051352E-01
  0.261962589061E-01  0.360528743661E-02 -0.183375879842E-03
  0.270550601300E-01  0.457687058734E-02  0.703351098242E-02
  0.289124212956E-01  0.190193822166E-01  0.124699439024E-01
  0.452456842424E-01  0.823079583666E-02  0.627875568212E-02
  0.262318613681E-01  0.753294772724E-02  0.107773909204E-01
  0.246308005771E-01  0.173722613400E-01  0.531291707027E-01
  0.229201613130E-01  0.329309412040E-01  0.274798560431E-01
  0.209945802127E-01  0.130823353825E-01  0.196622215023E-01
  0.298947082019E-02  0.273700509226E-01  0.332054578017E-01
  0.189822745033E-01  0.354364780524E-01  0.314393582513E-01
  0.204957373458E-01  0.258269053807E-01  0.188603333359E-01
  0.215322171112E-01  0.329101179141E-01  0.370002485327E-01
  0.226650246167E-01  0.809040651420E-01  0.693377867977E-01
  0.454005798730E-01  0.564613723075E-01  0.501195128634E-01
  0.137149344501E-01  0.478393702469E-01  0.522155687760E-01
  0.148754716344E-01  0.625606683044E-01  0.742486472823E-01
  0.167704101324E-01  0.603219285279E-01  0.578417655101E-01
  0.174954828358E-01  0.454787701182E-01  0.568708738958E-01
  0.276010519430E-02  0.661164221341E-01  0.714428213436E-01
  0.220846732022E-01  0.922750487816E-01  0.875997110672E-01
  0.257077284154E-01  0.797547138506E-01  0.695027416573E-01
  0.270705860189E-01  0.809637560685E-01  0.837589531396E-01
  0.281967933456E-01  0.942888841381E-01  0.893382312899E-01
  0.555656667088E-01  0.845960339726E-01  0.828044428066E-01
  0.218857177126E-01  0.845250756074E-01  0.875939105504E-01
  0.179579699463E-01  0.934166863908E-01  0.931834525828E-01
  0.132935504611E-01  0.967752720970E-01  0.967752720970E-01
  0.652939806183E-02  0.931834525829E-01  0.965345409505E-01
 -0.190458341151E-01  0.966631522705E-01  0.974123333151E-01
  0.268350956400E-02  0.970368001883E-01  0.962936886647E-01
  0.470559782607E-02  0.970368001882E-01  0.951568468156E-01
  0.582029957619E-02  0.966631522706E-01  0.964058084912E-01
  0.719777748409E-02  0.695027416609E-01  0.797547138539E-01
  0.162687786590E-01  0.875997110710E-01  0.922750487858E-01
 -0.142613886404E-01  0.934166863951E-01  0.900172510164E-01
 -0.928086296417E-02  0.845250756111E-01  0.753822151408E-01
 -0.598068627820E-02  0.845960339762E-01  0.861764930883E-01
 -0.501778590649E-02  0.942888841412E-01  0.881965936845E-01
 -0.240763480616E-01  0.809637560716E-01  0.780340810530E-01
 -0.131841673174E-02  0.501195128602E-01  0.564613723041E-01
  0.311214362469E-02  0.693377867936E-01  0.809040651385E-01
  0.359666546352E-02  0.661164221300E-01  0.620875690377E-01
  0.177660580575E-02  0.454787701140E-01  0.545907312756E-01
  0.329514129422E-01  0.603219285243E-01  0.646657028467E-01
 -0.471085066504E-02  0.625606683010E-01  0.562842618862E-01
 -0.635410614191E-02  0.478393702439E-01  0.130823353826E-01
 -0.978793346660E-02  0.274798560429E-01  0.329309412035E-01
 -0.160869025342E-01  0.531291707020E-01  0.423104987030E-01
 -0.398432985235E-01  0.329101179136E-01  0.278421391981E-01
 -0.185437913518E-01  0.258269053804E-01  0.289920894174E-01
 -0.174837916357E-01  0.354364780520E-01  0.453880710777E-01
 -0.180207253114E-01  0.273700509224E-01  0.235618275467E-01
 -0.199840013801E-01 -0.183375879120E-03  0.360528743737E-02
 -0.430695887304E-02  0.107927051363E-01  0.157269010388E-01
 -0.276002677703E-01  0.173722613413E-01  0.136519828430E-01
 -0.219199596868E-01  0.753294772851E-02  0.310175717802E-02
 -0.187417681415E-01  0.823079583765E-02  0.989278868978E-02
 -0.172998684632E-01  0.190193822172E-01  0.108245836008E-01
 -0.368382487803E-01  0.457687058792E-02  0.235109539209E-02
 -0.164187117883E-01 -0.187057689250E-02 -0.717307519257E-03
 -0.145829305341E-01  0.278224771645E-02  0.675083968168E-02
 -0.156401784336E-01  0.195876622558E-02  0.759700663386E-03
 -0.196067268643E-01 -0.120194345833E-02 -0.851080605188E-03
  0.834501866406E-02  0.413521952185E-03  0.136661099362E-02
 -0.234633392550E-01  0.614331935006E-03 -0.810824338928E-03
 -0.212251583177E-01 -0.232970042772E-02  0.000000000000E+00
 -0.212316220031E-01  0.148662555058E-01  0.100513192777E-01
 -0.229197693293E-01  0.478819415956E-02  0.233523398438E-02
 -0.396371293843E-01 -0.194469516995E-02 -0.456787595837E-02
 -0.227132339367E-01 -0.105457215875E-01 -0.160092379427E-01
 -0.238539496214E-01 -0.697384259939E-02 -0.424081874289E-02
 -0.260091987705E-01  0.190753311023E-03  0.216623927329E-02
 -0.304055961435E-01  0.689152670550E-02  0.975113004622E-02
 -0.730601977109E-02  0.232712015369E-01  0.183589381867E-01
 -0.181999057830E-01  0.664911835508E-02  0.436392380328E-03
 -0.153167282149E-01 -0.128973476127E-01 -0.195067937554E-01
 -0.135329128115E-01 -0.332126830287E-01 -0.246560941594E-01
 -0.118457733290E-01 -0.115701147914E-01 -0.521666943973E-02
 -0.254961668162E-01  0.591467230003E-02  0.115287952729E-01
 -0.130387918703E-01  0.221998691866E-01  0.346254158092E-01
 -0.138409926628E-01  0.273785843548E-01  0.202326352735E-01
 -0.152186894460E-01  0.618313766915E-03 -0.103914665385E-01
 -0.180029549183E-01 -0.309388259108E-01 -0.384329248844E-01
 -0.110092047777E-03 -0.361115468928E-01 -0.275604896377E-01
 -0.194509859789E-01 -0.858090705802E-02  0.618313766915E-03
 -0.167982842511E-01  0.171004246408E-01  0.240002480816E-01
 -0.151876455708E-01  0.270446567250E-01  0.304838403816E-01
 -0.135511690242E-01  0.223281404782E-01  0.128983749915E-01
 -0.191931379655E-01 -0.128113658228E-01 -0.252632517333E-01
 -0.117652195605E-01 -0.412341103042E-01 -0.408201892094E-01
 -0.139321765534E-01 -0.294753874996E-01 -0.198239464107E-01
 -0.159261486776E-01  0.651001836991E-03  0.964826876036E-02
 -0.189382286467E-01  0.225974484959E-01  0.267006641576E-01
 -0.783741596969E-02  0.156654554353E-01  0.180716543825E-01
 -0.525043164886E-02  0.105018916465E-01  0.529195523675E-03
 -0.559687697400E-02 -0.211292977310E-01 -0.280526926309E-01
 -0.559687697373E-02 -0.243253567986E-01 -0.253458433972E-01
 -0.525043164793E-02 -0.135752454997E-01 -0.654070650973E-02
 -0.783741596880E-02  0.585756852099E-02  0.876589695120E-02
 -0.623238410976E-02  0.106807330160E-01 -0.179672419502E-01
 -0.633244112610E-02 -0.899257722045E-03  0.313842357546E-02
 -0.617880043546E-02  0.305718630191E-03 -0.517202399622E-02
 -0.581322465092E-02 -0.104811828524E-01 -0.819860355682E-02
 -0.793648164424E-03 -0.282997469565E-02 -0.196587867590E-02
 -0.717190829904E-02  0.203239639719E-03  0.305718630191E-03
 -0.748208718822E-02 -0.538225483347E-02 -0.941456189855E-02
 -0.748208718826E-02 -0.358674905302E-01 -0.284824416017E-01
 -0.717190829900E-02 -0.111154437786E-01 -0.406637465951E-02
 -0.793648164861E-03  0.258377874211E-02  0.558837190267E-02
 -0.581322465128E-02  0.146558060972E-01  0.218613363741E-01
 -0.617880043631E-02  0.169771144206E-01  0.133614056547E-01
 -0.633244112717E-02  0.957768933635E-04 -0.909890297706E-02
 -0.623238411107E-02 -0.272272448287E-01 -0.331577896844E-01
 -0.254961668351E-01 -0.368996884687E-01 -0.292352098805E-01
 -0.118457733508E-01 -0.941617464367E-02  0.163704169835E-05
 -0.135329128347E-01  0.155354098580E-01  0.219329368145E-01
 -0.153167282395E-01  0.303858507449E-01  0.307197500554E-01
 -0.181999058097E-01  0.213044311243E-01  0.121125680902E-01
 -0.730601979836E-02 -0.132630327429E-01 -0.253598509477E-01
 -0.189382286743E-01 -0.401910171110E-01 -0.303182013345E-01
 -0.159261487037E-01 -0.275758873247E-01 -0.199162362821E-01
 -0.139321765786E-01  0.190240688871E-04  0.991342663387E-02
 -0.117652195844E-01  0.236089043751E-01  0.272431312543E-01
 -0.191931379867E-01  0.290851145439E-01  0.267899725763E-01
 -0.135511690475E-01  0.122889536280E-01  0.190240688871E-04
 -0.151876455947E-01 -0.233540686903E-01 -0.307569555259E-01
 -0.167982842754E-01 -0.162470888290E-01 -0.195279942348E-01
 -0.194509860043E-01 -0.138055101672E-01 -0.778927346084E-02
 -0.110092073144E-03  0.769841764555E-02  0.130387985741E-01
 -0.180029549428E-01  0.178572162499E-01  0.150848444709E-01
 -0.152186894689E-01  0.179075433839E-01  0.145587113146E-01
 -0.138409926848E-01  0.704752953583E-04 -0.889046978418E-02
 -0.130387918916E-01 -0.193225253309E-01 -0.202770937361E-01
 -0.368382487636E-01 -0.674236162419E-02 -0.677282445047E-02
 -0.172998684404E-01 -0.340456646005E-02  0.667889431719E-04
 -0.187417681175E-01  0.552962907184E-02  0.658745961696E-02
 -0.219199596615E-01  0.468090391644E-02  0.671853628056E-02
 -0.276002677429E-01  0.592638000386E-02  0.379663474224E-02
 -0.430695884053E-02 -0.371162173221E-02 -0.599157550829E-02
 -0.304055961154E-01 -0.691432603647E-02  0.000000000000E+00
 -0.260091987437E-01  0.683953916950E-04 -0.340340645881E-02
 -0.238539495957E-01 -0.677194274012E-02 -0.674159213482E-02
 -0.227132339119E-01 -0.691355654718E-02 -0.710370522782E-02
 -0.396371293661E-01 -0.371046173108E-02  0.683953916950E-04
 -0.229197693053E-01  0.592736804837E-02  0.692010381512E-02
 -0.212316219786E-01  0.468145963711E-02  0.654734135796E-02
 -0.212251582927E-01  0.553061711620E-02  0.349073947127E-02
 -0.234633392293E-01 -0.778748914878E-02 -0.138039465255E-01
  0.834501869435E-02 -0.195267378985E-01 -0.162460915485E-01
 -0.196067268393E-01 -0.193211142304E-01 -0.153238592662E-01
 -0.156401784100E-01  0.726653459236E-04  0.880139827916E-02
 -0.145829305114E-01  0.179089544801E-01  0.186075720823E-01
 -0.164187117662E-01  0.178584725809E-01  0.165578540089E-01
 -0.240763480532E-01  0.770020195570E-02  0.217213080427E-04
 -0.501778590044E-02 -0.199140979241E-01 -0.275739077928E-01
 -0.598068627063E-02 -0.303166748810E-01 -0.340171170391E-01
 -0.928086295458E-02 -0.233519303321E-01 -0.128619112748E-01
 -0.142613886276E-01  0.122913075602E-01  0.211290025625E-01
  0.162687786660E-01  0.290869294422E-01  0.261733241057E-01
 -0.199840013648E-01  0.236108839095E-01  0.176911701546E-01
 -0.180207252975E-01  0.469252671417E-05 -0.941335335263E-02
 -0.174837916226E-01 -0.292326942408E-01 -0.368973119124E-01
 -0.185437913395E-01 -0.401886405548E-01 -0.347335808083E-01
 -0.398432985079E-01 -0.132602114520E-01  0.469252671395E-05
 -0.160869025242E-01  0.213070785641E-01  0.274363390269E-01
 -0.978793345767E-02  0.303879547592E-01  0.274307979756E-01
 -0.635410613377E-02  0.155380572977E-01  0.826853128398E-02
 -0.471085065680E-02 -0.406326223571E-02 -0.111124323755E-01
  0.329514129431E-01 -0.284795841520E-01 -0.358648312742E-01
  0.177660581198E-02 -0.272243092052E-01 -0.188854661274E-01
  0.359666546811E-02  0.989764430490E-04  0.761941948167E-02
  0.311214362880E-02  0.169800500398E-01  0.193340116249E-01
 -0.131841672753E-02  0.146586635423E-01  0.938083516503E-02
  0.276010518172E-02  0.258689116416E-02  0.308782422935E-03
  0.174954828199E-01  0.314154755782E-02 -0.896133739801E-03
  0.167704101141E-01 -0.179641781582E-01 -0.131399906683E-01
  0.148754716130E-01 -0.537913085112E-02 -0.151704816270E-02
  0.137149344245E-01  0.206372736935E-03 -0.484186563971E-03
  0.454005798437E-01 -0.282684159800E-02  0.555726300946E-03
  0.719777745502E-02 -0.104780588691E-01 -0.900486497291E-02
  0.582029954804E-02  0.531854777634E-03  0.105047490945E-01
  0.470559779875E-02  0.180746657859E-01  0.156685678605E-01
  0.268350953769E-02  0.106838454411E-01  0.103582100633E-01
 -0.190458341374E-01  0.586042596886E-02  0.531854777634E-03
  0.652939803927E-02 -0.135723098798E-01 -0.203332255089E-01
  0.132935504405E-01 -0.243221572523E-01 -0.303274533964E-01
  0.179579699272E-01 -0.211263621112E-01 -0.111821721888E-01
  0.218857176944E-01  0.129007515499E-01  0.223306561186E-01
  0.555656666906E-01  0.304866616704E-01  0.270477122068E-01
  0.281967933302E-01  0.226000959311E-01  0.168913507961E-01
  0.270705860055E-01  0.653105848276E-03 -0.955888303112E-02
  0.257077284027E-01 -0.294727400589E-01 -0.374481127847E-01
  0.220846731892E-01 -0.412312890087E-01 -0.351680783064E-01
  0.161204573639E-01 -0.128089892622E-01  0.619840221055E-03
  0.233071891521E-01  0.202346148060E-01  0.273807227128E-01
  0.237664799184E-01  0.346281130461E-01  0.299664535992E-01
  0.242572203754E-01  0.171024041731E-01  0.919893785124E-02
  0.263139492945E-01 -0.857909216053E-02 -0.182403948634E-01
  0.512069943799E-01 -0.361091929597E-01 -0.434296676795E-01
  0.226650246237E-01 -0.309366875510E-01 -0.213726054962E-01
  0.215322171180E-01  0.437389658517E-03  0.665037468970E-02
  0.204957373524E-01  0.183605018291E-01  0.232729858510E-01
  0.189822745097E-01  0.222016535008E-01  0.168709585495E-01
  0.298947082406E-02  0.591592863476E-02  0.437389658517E-03
  0.209945802186E-01 -0.115687036946E-01 -0.180156868379E-01
  0.229201613183E-01 -0.332104929809E-01 -0.257256422012E-01
  0.246308005821E-01 -0.128959365157E-01 -0.594985916173E-02
  0.262318613727E-01  0.233600347373E-02  0.478907586973E-02
  0.452456842489E-01  0.100524792787E-01  0.148678619543E-01
  0.289124212990E-01  0.689251474974E-02  0.446201865438E-02
  0.270550601329E-01  0.191309031356E-03 -0.177493096936E-02
  0.261962589089E-01 -0.697285455501E-02 -0.102443723548E-01
  0.257304611403E-01 -0.105445615862E-01 -0.736305570320E-02
  0.942314020605E-01 -0.194392568037E-02  0.000000000000E+00
VECTORS CF_y_sensitivity_vectors float
  0.245659465573E-03  0.307778377851E-01  0.321938944882E-01
 -0.102649550991E-01  0.339796955858E-01  0.378632580494E-01
 -0.116814817998E-01  0.391991733681E-01  0.363069278505E-01
 -0.110932510029E-01  0.356605569591E-01  0.339392300075E-01
 -0.936389063212E-02  0.340187663912E-01  0.334151933193E-01
 -0.701438733191E-02  0.321396054545E-01  0.339486923109E-01
 -0.325985379430E-02  0.309308458132E-01  0.312668356121E-01
  0.203014010609E-02  0.373649335114E-01  0.394508704461E-01
  0.513570674508E-02  0.452372675726E-01  0.470550465006E-01
  0.668185433241E-02  0.472806612226E-01  0.469419503172E-01
  0.637742629602E-02  0.470271916398E-01  0.435938482060E-01
 -0.557075875549E-03  0.402127789560E-01  0.395946211166E-01
  0.109160586421E-01  0.364121169720E-01  0.346308566120E-01
  0.900217814670E-02  0.349517945072E-01  0.177221173889E-01
  0.638685378189E-02  0.181349997902E-01  0.212102112659E-01
  0.243328339341E-02  0.238872515222E-01  0.290627593758E-01
 -0.281119343872E-02  0.287920168645E-01  0.276993242153E-01
 -0.671943762833E-02  0.239268539150E-01  0.213706397594E-01
 -0.102344657041E-01  0.165257390334E-01  0.955778936882E-02
 -0.132034097669E-01  0.108898487987E-01  0.107136226851E-01
 -0.157531337774E-01 -0.179565693857E-01 -0.209839498953E-01
 -0.288418689960E-01 -0.142907106613E-01 -0.116761348263E-01
 -0.308294847820E-01 -0.746425405730E-02 -0.652267070987E-02
 -0.269320994572E-01 -0.826415886799E-02 -0.450887507933E-02
 -0.223457100973E-01 -0.144085246523E-01 -0.170750313331E-01
 -0.156565220372E-01 -0.288769608036E-01 -0.243287496341E-01
 -0.525900420440E-02 -0.250373650196E-01 -0.250189590251E-01
  0.795624978666E-02 -0.539068181340E-01 -0.507641973335E-01
  0.181137665411E-01 -0.479903450324E-01 -0.521297108359E-01
  0.254907954532E-01 -0.439706476161E-01 -0.440637442703E-01
  0.303968750827E-01 -0.430154342607E-01 -0.485600061244E-01
  0.219494744015E-01 -0.508954403329E-01 -0.536478455908E-01
  0.303150196690E-01 -0.561638657601E-01 -0.557161506362E-01
  0.222693730915E-01 -0.567053156266E-01 -0.664154616752E-01
  0.138165333430E-01 -0.631742195226E-01 -0.631742195225E-01
  0.468823025155E-02 -0.664154616782E-01 -0.648612851853E-01
 -0.451770296356E-02 -0.633600937688E-01 -0.646511655848E-01
 -0.113615126978E-01 -0.649041222246E-01 -0.636040253974E-01
 -0.174613040774E-01 -0.649041222247E-01 -0.652729775879E-01
 -0.233201868019E-01 -0.633600937693E-01 -0.634181511511E-01
 -0.301825324916E-01 -0.521297108630E-01 -0.479903450556E-01
 -0.176885450010E-01 -0.507641973572E-01 -0.539068181588E-01
 -0.242065373549E-01 -0.567053156519E-01 -0.558811568143E-01