# vtk DataFile Version 3.0
TriPan results file. Generated by TriPan, USU AeroLab (c) 2021.
ASCII
DATASET POLYDATA
POINTS                 144 float
  0.000000000000E+00  0.000000000000E+00  0.000000000000E+00
  0.750993072987E+00  0.000000000000E+00 -0.543790996075E+00
  0.750993072987E+00  0.000000000000E+00  0.543790996075E+00
  0.192375373840E+01  0.192375373840E+01  0.000000000000E+00
  0.267474675179E+01  0.192375373840E+01 -0.543790996075E+00
  0.267474675179E+01  0.192375373840E+01  0.543790996075E+00
  0.359246444702E+01  0.000000000000E+00 -0.103884494305E+01
  0.359246444702E+01  0.000000000000E+00  0.103884494305E+01
  0.547033166885E+01  0.547033166885E+01  0.000000000000E+00
  0.551621818542E+01  0.192375373840E+01 -0.103884494305E+01
  0.551621818542E+01  0.192375373840E+01  0.103884494305E+01
  0.622132492065E+01  0.547033166885E+01 -0.543790996075E+00
  0.622132492065E+01  0.547033166885E+01  0.543790996075E+00
  0.906279659271E+01  0.547033166885E+01 -0.103884494305E+01
  0.906279659271E+01  0.547033166885E+01  0.103884494305E+01
  0.939523696899E+01  0.000000000000E+00 -0.980761349201E+00
  0.939523696899E+01  0.000000000000E+00  0.980761349201E+00
  0.113189907074E+02  0.192375373840E+01 -0.980761349201E+00
  0.113189907074E+02  0.192375373840E+01  0.980761349201E+00
  0.113820018768E+02  0.113820018768E+02  0.000000000000E+00
  0.121329956055E+02  0.113820018768E+02 -0.543790996075E+00
  0.121329956055E+02  0.113820018768E+02  0.543790996075E+00
  0.148655681610E+02  0.547033166885E+01 -0.980761349201E+00
  0.148655681610E+02  0.547033166885E+01  0.980761349201E+00
  0.149744663239E+02  0.113820018768E+02 -0.103884494305E+01
  0.149744663239E+02  0.113820018768E+02  0.103884494305E+01
  0.151765298843E+02  0.000000000000E+00 -0.411069482565E+00
  0.151765298843E+02  0.000000000000E+00  0.411069482565E+00
  0.171002845764E+02  0.192375373840E+01 -0.411069482565E+00
  0.171002845764E+02  0.192375373840E+01  0.411069482565E+00
  0.180493259430E+02  0.000000000000E+00 -0.101516798139E+00
  0.180493259430E+02  0.000000000000E+00  0.101516798139E+00
  0.190003013611E+02  0.000000000000E+00  0.000000000000E+00
  0.197561950684E+02  0.197561950684E+02  0.000000000000E+00
  0.199730796814E+02  0.192375373840E+01 -0.101516798139E+00
  0.199730796814E+02  0.192375373840E+01  0.101516798139E+00
  0.205071868896E+02  0.197561950684E+02 -0.543790996075E+00
  0.205071868896E+02  0.197561950684E+02  0.543790996075E+00
  0.206468620300E+02  0.547033166885E+01 -0.411069482565E+00
  0.206468620300E+02  0.547033166885E+01  0.411069482565E+00
  0.207772388458E+02  0.113820018768E+02 -0.980761349201E+00
  0.207772388458E+02  0.113820018768E+02  0.980761349201E+00
  0.209240550995E+02  0.192375373840E+01  0.000000000000E+00
  0.233486595154E+02  0.197561950684E+02 -0.103884494305E+01
  0.233486595154E+02  0.197561950684E+02  0.103884494305E+01
  0.235196590424E+02  0.547033166885E+01 -0.101516798139E+00
  0.235196590424E+02  0.547033166885E+01  0.101516798139E+00
  0.244706325531E+02  0.547033166885E+01  0.000000000000E+00
  0.265585327148E+02  0.113820018768E+02 -0.411069482565E+00
  0.265585327148E+02  0.113820018768E+02  0.411069482565E+00
  0.291514320374E+02  0.197561950684E+02 -0.980761349201E+00
  0.291514320374E+02  0.197561950684E+02  0.980761349201E+00
  0.292438049316E+02  0.292438049316E+02  0.000000000000E+00
  0.294313278198E+02  0.113820018768E+02 -0.101516798139E+00
  0.294313278198E+02  0.113820018768E+02  0.101516798139E+00
  0.299947986603E+02  0.292438049316E+02 -0.543790996075E+00
  0.299947986603E+02  0.292438049316E+02  0.543790996075E+00
  0.303823032379E+02  0.113820018768E+02  0.000000000000E+00
  0.328362693787E+02  0.292438049316E+02 -0.103884494305E+01
  0.328362693787E+02  0.292438049316E+02  0.103884494305E+01
  0.349327239990E+02  0.197561950684E+02 -0.411069482565E+00
  0.349327239990E+02  0.197561950684E+02  0.411069482565E+00
  0.376179962158E+02  0.376179962158E+02  0.000000000000E+00
  0.378055191040E+02  0.197561950684E+02 -0.101516798139E+00
  0.378055191040E+02  0.197561950684E+02  0.101516798139E+00
  0.383689918518E+02  0.376179962158E+02 -0.543790996075E+00
  0.383689918518E+02  0.376179962158E+02  0.543790996075E+00
  0.386390419006E+02  0.292438049316E+02 -0.980761349201E+00
  0.386390419006E+02  0.292438049316E+02  0.980761349201E+00
  0.387564964294E+02  0.197561950684E+02  0.000000000000E+00
  0.412104606628E+02  0.376179962158E+02 -0.103884494305E+01
  0.412104606628E+02  0.376179962158E+02  0.103884494305E+01
  0.435296669006E+02  0.435296669006E+02  0.000000000000E+00
  0.442806625366E+02  0.435296669006E+02 -0.543790996075E+00
  0.442806625366E+02  0.435296669006E+02  0.543790996075E+00
  0.444203338623E+02  0.292438049316E+02 -0.411069482565E+00
  0.444203338623E+02  0.292438049316E+02  0.411069482565E+00
  0.470132331848E+02  0.376179962158E+02 -0.980761349201E+00
  0.470132331848E+02  0.376179962158E+02  0.980761349201E+00
  0.470762481689E+02  0.470762481689E+02  0.000000000000E+00
  0.471221313477E+02  0.435296669006E+02 -0.103884494305E+01
  0.471221313477E+02  0.435296669006E+02  0.103884494305E+01
  0.472931327820E+02  0.292438049316E+02 -0.101516798139E+00
  0.472931327820E+02  0.292438049316E+02  0.101516798139E+00
  0.478272399902E+02  0.470762481689E+02 -0.543790996075E+00
  0.478272399902E+02  0.470762481689E+02  0.543790996075E+00
  0.482441062927E+02  0.292438049316E+02  0.000000000000E+00
  0.490000000000E+02  0.490000000000E+02  0.000000000000E+00
  0.497509918213E+02  0.490000000000E+02 -0.543790996075E+00
  0.497509918213E+02  0.490000000000E+02  0.543790996075E+00
  0.501355133057E+02  0.493845176697E+02 -0.384518325329E+00
  0.501355133057E+02  0.493845176697E+02  0.384518325329E+00
  0.502947845459E+02  0.495437927246E+02 -0.938680429840E-15
  0.506687088013E+02  0.470762481689E+02 -0.103884494305E+01
  0.506687088013E+02  0.470762481689E+02  0.103884494305E+01
  0.525924644470E+02  0.490000000000E+02 -0.103884494305E+01
  0.525924644470E+02  0.490000000000E+02  0.103884494305E+01
  0.527945289612E+02  0.376179962158E+02 -0.411069482565E+00
  0.527945289612E+02  0.376179962158E+02  0.411069482565E+00
  0.529249038696E+02  0.435296669006E+02 -0.980761349201E+00
  0.529249038696E+02  0.435296669006E+02  0.980761349201E+00
  0.533270378113E+02  0.497345733643E+02 -0.734574317932E+00
  0.533270378113E+02  0.497345733643E+02  0.734574317932E+00
  0.536313095093E+02  0.500388450623E+02 -0.204183803501E-15
  0.556673240662E+02  0.376179962158E+02 -0.101516798139E+00
  0.556673240662E+02  0.376179962158E+02  0.101516798139E+00
  0.564714813232E+02  0.470762481689E+02 -0.980761349201E+00
  0.564714813232E+02  0.470762481689E+02  0.980761349201E+00
  0.566182975769E+02  0.376179962158E+02  0.000000000000E+00
  0.583952369690E+02  0.490000000000E+02 -0.980761349201E+00
  0.583952369690E+02  0.490000000000E+02  0.980761349201E+00
  0.587061996460E+02  0.435296669006E+02 -0.411069482565E+00
  0.587061996460E+02  0.435296669006E+02  0.411069482565E+00
  0.590887413025E+02  0.496935043335E+02 -0.693503022194E+00
  0.590887413025E+02  0.496935043335E+02  0.693503022194E+00
  0.593759994507E+02  0.499807624817E+02  0.000000000000E+00
  0.615789947510E+02  0.435296669006E+02 -0.101516798139E+00
  0.615789947510E+02  0.435296669006E+02  0.101516798139E+00
  0.622527770996E+02  0.470762481689E+02 -0.411069482565E+00
  0.622527770996E+02  0.470762481689E+02  0.411069482565E+00
  0.625299682617E+02  0.435296669006E+02  0.000000000000E+00
  0.641765289307E+02  0.490000000000E+02 -0.411069482565E+00
  0.641765289307E+02  0.490000000000E+02  0.411069482565E+00
  0.644672012329E+02  0.492906684875E+02 -0.290670007467E+00
  0.644672012329E+02  0.492906684875E+02  0.290670007467E+00
  0.645876007080E+02  0.494110679626E+02  0.400788329721E-15
  0.651255722046E+02  0.470762481689E+02 -0.101516798139E+00
  0.651255722046E+02  0.470762481689E+02  0.101516798139E+00
  0.660765457153E+02  0.470762481689E+02  0.000000000000E+00
  0.670493240356E+02  0.490000000000E+02 -0.101516798139E+00
  0.670493240356E+02  0.490000000000E+02  0.101516798139E+00
  0.671211090088E+02  0.490717849731E+02 -0.717832148075E-01
  0.671211090088E+02  0.490717849731E+02  0.717832148075E-01
  0.671508407593E+02  0.491015167236E+02 -0.511051538462E-16
  0.680002975464E+02  0.490000000000E+02  0.000000000000E+00
  0.190003013611E+02  0.000000000000E+00  0.000000000000E+00
  0.209240550995E+02  0.192375373840E+01  0.000000000000E+00
  0.244706325531E+02  0.547033166885E+01  0.000000000000E+00
  0.303823032379E+02  0.113820018768E+02  0.000000000000E+00
  0.387564964294E+02  0.197561950684E+02  0.000000000000E+00
  0.482441062927E+02  0.292438049316E+02  0.000000000000E+00
  0.566182975769E+02  0.376179962158E+02  0.000000000000E+00
  0.625299682617E+02  0.435296669006E+02  0.000000000000E+00
  0.660765457153E+02  0.470762481689E+02  0.000000000000E+00
POLYGONS                 256                1024
3                 135                  34                 136
3                  32                  30                  34
3                  30                  28                  34
3                  30                  26                  28
3                  26                  17                  28
3                  26                  15                  17
3                  15                   6                  17
3                  17                   6                   9
3                   6                   1                   9
3                   9                   1                   4
3                   1                   0                   4
3                   4                   0                   3
3                   0                   5                   3
3                   0                   2                   5
3                   2                  10                   5
3                   2                   7                  10
[...]
CELL_DATA                 256
SCALARS sigma float 1
LOOKUP_TABLE default
  0.000000000000E+00
  0.000000000000E+00
  0.000000000000E+00
  0.000000000000E+00
  0.000000000000E+00
  0.000000000000E+00
  0.000000000000E+00
  0.000000000000E+00
  0.000000000000E+00
  0.000000000000E+00
  0.000000000000E+00
  0.000000000000E+00
  0.000000000000E+00
  0.000000000000E+00
  0.000000000000E+00
  0.000000000000E+00
  0.000000000000E+00
  0.000000000000E+00
  0.000000000000E+00
  0.000000000000E+00
  0.000000000000E+00
  0.000000000000E+00
  0.000000000000E+00
  0.000000000000E+00
  0.000000000000E+00
  0.000000000000E+00
  0.000000000000E+00
  0.000000000000E+00
  0.000000000000E+00
  0.000000000000E+00
  0.000000000000E+00
  0.000000000000E+00
  0.000000000000E+00
  0.000000000000E+00
  0.000000000000E+00
  0.000000000000E+00
  0.000000000000E+00
  0.000000000000E+00
  0.000000000000E+00
  0.000000000000E+00
  0.000000000000E+00
  0.000000000000E+00
  0.000000000000E+00
  0.000000000000E+00
  0.000000000000E+00
  0.000000000000E+00
  0.000000000000E+00
  0.000000000000E+00
  0.000000000000E+00
  0.000000000000E+00
  0.000000000000E+00
  0.000000000000E+00
  0.000000000000E+00
  0.000000000000E+00
  0.000000000000E+00
  0.000000000000E+00
  0.000000000000E+00
  0.000000000000E+00
  0.000000000000E+00
  0.000000000000E+00
  0.000000000000E+00
  0.000000000000E+00
  0.000000000000E+00
  0.000000000000E+00
  0.000000000000E+00
  0.000000000000E+00
  0.000000000000E+00
  0.000000000000E+00
  0.000000000000E+00
  0.000000000000E+00
  0.000000000000E+00
  0.000000000000E+00
  0.000000000000E+00
  0.000000000000E+00
  0.000000000000E+00
  0.000000000000E+00
  0.000000000000E+00
  0.000000000000E+00
  0.000000000000E+00
  0.000000000000E+00
  0.000000000000E+00
  0.000000000000E+00
  0.000000000000E+00
  0.000000000000E+00
  0.000000000000E+00
  0.000000000000E+00
  0.000000000000E+00
  0.000000000000E+00
  0.000000000000E+00
  0.000000000000E+00
  0.000000000000E+00
  0.000000000000E+00
  0.000000000000E+00
  0.000000000000E+00
  0.000000000000E+00
  0.000000000000E+00
  0.000000000000E+00
  0.000000000000E+00
  0.000000000000E+00
  0.000000000000E+00
  0.000000000000E+00
  0.000000000000E+00
  0.000000000000E+00
  0.000000000000E+00
  0.000000000000E+00
  0.000000000000E+00
  0.000000000000E+00
  0.000000000000E+00
  0.000000000000E+00
  0.000000000000E+00
  0.000000000000E+00
  0.000000000000E+00
  0.000000000000E+00
  0.000000000000E+00
  0.000000000000E+00
  0.000000000000E+00
  0.000000000000E+00
  0.000000000000E+00
  0.000000000000E+00
  0.000000000000E+00
  0.000000000000E+00
  0.000000000000E+00
  0.000000000000E+00
  0.000000000000E+00
  0.000000000000E+00
  0.000000000000E+00
  0.000000000000E+00
  0.000000000000E+00
  0.000000000000E+00
  0.000000000000E+00
  0.000000000000E+00
  0.000000000000E+00
  0.000000000000E+00
  0.000000000000E+00
  0.000000000000E+00
  0.000000000000E+00
  0.000000000000E+00
  0.000000000000E+00
  0.000000000000E+00
  0.000000000000E+00
  0.000000000000E+00
  0.000000000000E+00
  0.000000000000E+00
  0.000000000000E+00
  0.000000000000E+00
  0.000000000000E+00
  0.000000000000E+00
  0.000000000000E+00
  0.000000000000E+00
  0.000000000000E+00
  0.000000000000E+00
  0.000000000000E+00
  0.000000000000E+00
  0.000000000000E+00
  0.000000000000E+00
  0.000000000000E+00
  0.000000000000E+00
  0.000000000000E+00
  0.000000000000E+00
  0.000000000000E+00
  0.000000000000E+00
  0.000000000000E+00
  0.000000000000E+00
  0.000000000000E+00
  0.000000000000E+00
  0.000000000000E+00
  0.000000000000E+00
  0.000000000000E+00
  0.000000000000E+00
  0.000000000000E+00
  0.000000000000E+00
  0.000000000000E+00
  0.000000000000E+00
  0.000000000000E+00
  0.000000000000E+00
  0.000000000000E+00
  0.000000000000E+00
  0.000000000000E+00
  0.000000000000E+00
  0.000000000000E+00
  0.000000000000E+00
  0.000000000000E+00
  0.000000000000E+00
  0.000000000000E+00
  0.000000000000E+00
  0.000000000000E+00
  0.000000000000E+00
  0.000000000000E+00
  0.000000000000E+00
  0.000000000000E+00
  0.000000000000E+00
  0.000000000000E+00
  0.000000000000E+00
  0.000000000000E+00
  0.000000000000E+00
  0.000000000000E+00
  0.000000000000E+00
  0.000000000000E+00
  0.000000000000E+00
  0.000000000000E+00
  0.000000000000E+00
  0.000000000000E+00
  0.000000000000E+00
  0.000000000000E+00
  0.000000000000E+00
  0.000000000000E+00
  0.000000000000E+00
  0.000000000000E+00
  0.000000000000E+00
  0.000000000000E+00
  0.000000000000E+00
  0.000000000000E+00
  0.000000000000E+00
  0.000000000000E+00
  0.000000000000E+00
  0.000000000000E+00
  0.000000000000E+00
  0.000000000000E+00
  0.000000000000E+00
  0.000000000000E+00
  0.000000000000E+00
  0.000000000000E+00
  0.000000000000E+00
  0.000000000000E+00
  0.000000000000E+00
  0.000000000000E+00
  0.000000000000E+00
  0.000000000000E+00
  0.000000000000E+00
  0.000000000000E+00
  0.000000000000E+00
  0.000000000000E+00
  0.000000000000E+00
  0.000000000000E+00
  0.000000000000E+00
  0.000000000000E+00
  0.000000000000E+00
  0.000000000000E+00
  0.000000000000E+00
  0.000000000000E+00
  0.000000000000E+00
  0.000000000000E+00
  0.000000000000E+00
  0.000000000000E+00
  0.000000000000E+00
  0.000000000000E+00
  0.000000000000E+00
  0.000000000000E+00
  0.000000000000E+00
  0.000000000000E+00
  0.000000000000E+00
  0.000000000000E+00
  0.000000000000E+00
  0.000000000000E+00
  0.000000000000E+00
  0.000000000000E+00
SCALARS C_p_inc float 1
LOOKUP_TABLE default
 -0.813913016835E+00
 -0.181475971211E+01
 -0.351056709879E+00
 -0.292743496744E+00
 -0.181539261097E+00
 -0.164508959618E+00
 -0.358045366210E-01
 -0.809828636872E-01
  0.228781232989E+00
  0.136428108409E+00
  0.592439095748E+00
  0.595795216587E+00
 -0.333888733865E+00
  0.147087935404E+00
 -0.520607435807E+00
 -0.322485407642E+00
 -0.315068906866E+00
 -0.337225585864E+00
 -0.136436783358E+00
 -0.461098057872E-01
  0.204818017763E+00
  0.336936408568E+00
  0.623274878378E+00
  0.526380698971E+00
 -0.632345189595E+00
 -0.789646858752E+00
 -0.278857898402E+00
 -0.364702742756E+00
 -0.193089614978E+00
 -0.184826159526E+00
 -0.783860031622E-01
 -0.116216468865E+00
  0.130430158935E+00
  0.106185623399E+00
  0.510378576022E+00
  0.507567937519E+00
 -0.527643987451E+00
 -0.336339946822E+00
 -0.601404552812E+00
 -0.511815573348E+00
 -0.295880797925E+00
 -0.331034996290E+00
 -0.422508297817E-01
  0.243602405594E-01
  0.315069552387E+00
  0.290921368526E+00
  0.516853312501E+00
  0.491334790302E+00
 -0.582593908983E+00
 -0.628627606717E+00
 -0.249920971517E+00
 -0.279356888446E+00
 -0.181173009713E+00
 -0.196501098014E+00
 -0.115317029397E+00
 -0.125386659149E+00
  0.104229673800E+00
  0.933589077199E-01
  0.501453457404E+00
  0.500901732511E+00
 -0.579049734878E+00
 -0.527568704170E+00
 -0.614530716981E+00
 -0.605400402278E+00
 -0.271023120245E+00
 -0.306826844701E+00
  0.247701990226E-01
  0.368465134641E-01
  0.287550922932E+00
  0.279064256210E+00
  0.490067575659E+00
  0.483288077694E+00
 -0.563210128533E+00
 -0.581252547009E+00
 -0.239784486115E+00
 -0.249904681833E+00
 -0.174819633281E+00
 -0.181804276702E+00
 -0.126195491085E+00
 -0.124540891361E+00
  0.936987424025E-01
  0.914499414860E-01
  0.505230534609E+00
  0.505329062412E+00
 -0.568436120416E+00
 -0.579220229865E+00
 -0.605690713142E+00
 -0.619070377417E+00
 -0.264178389174E+00
 -0.274535044511E+00
  0.367534963899E-01
  0.382184582938E-01
  0.278632625382E+00
  0.276472881428E+00
  0.483316619668E+00
  0.480888444916E+00
 -0.539963054826E+00
 -0.561907691962E+00
 -0.231015792371E+00
 -0.239504257377E+00
 -0.171705468074E+00
 -0.174715005692E+00
 -0.124806897852E+00
 -0.125033036534E+00
  0.916300026867E-01
  0.894819056732E-01
  0.506987750667E+00
  0.507025305936E+00
 -0.556106316404E+00
 -0.568519515080E+00
 -0.598855526767E+00
 -0.607018432137E+00
 -0.260658497768E+00
 -0.264779366939E+00
  0.381969520140E-01
  0.395072183288E-01
  0.276500173302E+00
  0.275401714611E+00
  0.481152083123E+00
  0.478453260075E+00
 -0.464437452196E+00
 -0.538260302505E+00
 -0.203101780374E+00
 -0.229931360712E+00
 -0.166954418668E+00
 -0.170857025356E+00
 -0.124446022263E+00
 -0.130881098914E+00
  0.891564980385E-01
  0.820605546627E-01
  0.505080941603E+00
  0.505137708633E+00
 -0.540547658510E+00
 -0.556090451842E+00
 -0.589664505772E+00
 -0.598840041059E+00
 -0.254805891604E+00
 -0.260844382145E+00
  0.394897939180E-01
  0.441791470790E-01
  0.275795677277E+00
  0.277175728502E+00
  0.479984738995E+00
  0.474353593538E+00
 -0.110962072625E+00
 -0.461866660666E+00
 -0.112027918867E+00
 -0.199528024343E+00
 -0.155110405575E+00
 -0.164131754357E+00
 -0.128420432956E+00
 -0.152448119980E+00
  0.805251519010E-01
  0.584423010933E-01
  0.497189325440E+00
  0.497596884677E+00
 -0.513211584671E+00
 -0.540485504087E+00
 -0.574908110844E+00
 -0.588522410773E+00
 -0.244060131349E+00
 -0.254891418037E+00
  0.440842252330E-01
  0.544837228468E-01
  0.277797078686E+00
  0.295559526391E+00
  0.480653880165E+00
  0.512760009668E+00
 -0.238501164848E+02
 -0.139898538315E+01
  0.400746618864E+00
 -0.148391318319E+00
 -0.396850284160E+00
 -0.152131279077E+00
 -0.148320127710E+00
 -0.180968861983E+00
  0.520437605619E-01
 -0.125546021548E-02
  0.473899732424E+00
  0.476338996800E+00
 -0.468515822115E+00
 -0.513334525569E+00
 -0.549967958565E+00
 -0.571995989566E+00
 -0.218691249353E+00
 -0.245674939970E+00
  0.543941958302E-01
 -0.180169860776E+00
  0.200342968836E+00
 -0.814617283986E-02
  0.178275818386E+00
 -0.193991617160E+02
 -0.951701265433E+08
 -0.304067036451E+05
 -0.178516212356E+05
  0.551191281163E+00
 -0.111679894458E+01
 -0.392735886236E+00
 -0.194058369437E+00
 -0.220033851133E+00
 -0.276386969848E-01
 -0.522986938570E-01
  0.364207583882E+00
  0.383721370771E+00
 -0.400286813071E+00
 -0.472113073324E+00
 -0.400673254810E+00
 -0.560822674190E+00
 -0.223261982198E+00
 -0.222963229891E+00
 -0.180604515793E+00
 -0.135913782713E+01
  0.286921965121E+00
 -0.178241476713E+05
 -0.304811730485E+05
 -0.951730894136E+08
 -0.169159902054E+09
 -0.771760287980E+06
 -0.306956176303E+05
 -0.789115604453E+02
 -0.115307122338E+00
 -0.339305395015E+00
 -0.297134925553E+00
 -0.169369147588E+00
 -0.200053941854E+00
 -0.828274144586E-02
 -0.429427919410E+00
 -0.325945990713E+00
 -0.441694186448E+00
 -0.310098054298E+00
 -0.244099330385E+00
  0.620308710419E+00
 -0.886220212389E+02
 -0.307957638023E+05
 -0.770919920657E+06
 -0.169152821617E+09
 -0.116791646049E+09
 -0.110265825936E+07
 -0.321248062622E+05
 -0.100423281354E+03
 -0.530782210656E-01
 -0.461042582054E+00
 -0.406819443901E+00
 -0.298465494884E+00
 -0.332732182145E+00
 -0.218212169019E+00
 -0.363407171441E+00
 -0.377381303794E+00
 -0.372922456089E+00
 -0.427034622255E+00
 -0.333736779894E+00
  0.861244718284E+00
 -0.117790784590E+03
 -0.322336241415E+05
 -0.110096932789E+07
 -0.116784513354E+09
SCALARS inclination float 1
LOOKUP_TABLE default
  0.100000000000E+01
  0.100000000000E+01
  0.100000000000E+01
  0.100000000000E+01
  0.100000000000E+01
  0.100000000000E+01
  0.100000000000E+01
  0.100000000000E+01
  0.100000000000E+01
  0.100000000000E+01
  0.100000000000E+01
  0.100000000000E+01
  0.100000000000E+01
  0.100000000000E+01
  0.100000000000E+01
  0.100000000000E+01
  0.100000000000E+01
  0.100000000000E+01
  0.100000000000E+01
  0.100000000000E+01
  0.100000000000E+01
  0.100000000000E+01
  0.100000000000E+01
  0.100000000000E+01
  0.100000000000E+01
  0.100000000000E+01
  0.100000000000E+01
  0.100000000000E+01
  0.100000000000E+01
  0.100000000000E+01
  0.100000000000E+01
  0.100000000000E+01
  0.100000000000E+01
  0.100000000000E+01
  0.100000000000E+01
  0.100000000000E+01
  0.100000000000E+01
  0.100000000000E+01
  0.100000000000E+01
  0.100000000000E+01
  0.100000000000E+01
  0.100000000000E+01
  0.100000000000E+01
  0.100000000000E+01
  0.100000000000E+01
  0.100000000000E+01
  0.100000000000E+01
  0.100000000000E+01
  0.100000000000E+01
  0.100000000000E+01
  0.100000000000E+01
  0.100000000000E+01
  0.100000000000E+01
  0.100000000000E+01
  0.100000000000E+01
  0.100000000000E+01
  0.100000000000E+01
  0.100000000000E+01
  0.100000000000E+01
  0.100000000000E+01
  0.100000000000E+01
  0.100000000000E+01
  0.100000000000E+01
  0.100000000000E+01
  0.100000000000E+01
  0.100000000000E+01
  0.100000000000E+01
  0.100000000000E+01
  0.100000000000E+01
  0.100000000000E+01
  0.100000000000E+01
  0.100000000000E+01
  0.100000000000E+01
  0.100000000000E+01
  0.100000000000E+01
  0.100000000000E+01
  0.100000000000E+01
  0.100000000000E+01
  0.100000000000E+01
  0.100000000000E+01
  0.100000000000E+01
  0.100000000000E+01
  0.100000000000E+01
  0.100000000000E+01
  0.100000000000E+01
  0.100000000000E+01
  0.100000000000E+01
  0.100000000000E+01
  0.100000000000E+01
  0.100000000000E+01
  0.100000000000E+01
  0.100000000000E+01
  0.100000000000E+01
  0.100000000000E+01
  0.100000000000E+01
  0.100000000000E+01
  0.100000000000E+01
  0.100000000000E+01
  0.100000000000E+01
  0.100000000000E+01
  0.100000000000E+01
  0.100000000000E+01
  0.100000000000E+01
  0.100000000000E+01
  0.100000000000E+01
  0.100000000000E+01
  0.100000000000E+01
  0.100000000000E+01
  0.100000000000E+01
  0.100000000000E+01
  0.100000000000E+01
  0.100000000000E+01
  0.100000000000E+01
  0.100000000000E+01
  0.100000000000E+01
  0.100000000000E+01
  0.100000000000E+01
  0.100000000000E+01
  0.100000000000E+01
  0.100000000000E+01
  0.100000000000E+01
  0.100000000000E+01
  0.100000000000E+01
  0.100000000000E+01
  0.100000000000E+01
  0.100000000000E+01
  0.100000000000E+01
  0.100000000000E+01
  0.100000000000E+01
  0.100000000000E+01
  0.100000000000E+01
  0.100000000000E+01
  0.100000000000E+01
  0.100000000000E+01
  0.100000000000E+01
  0.100000000000E+01
  0.100000000000E+01
  0.100000000000E+01
  0.100000000000E+01
  0.100000000000E+01
  0.100000000000E+01
  0.100000000000E+01
  0.100000000000E+01
  0.100000000000E+01
  0.100000000000E+01
  0.100000000000E+01
  0.100000000000E+01
  0.100000000000E+01
  0.100000000000E+01
  0.100000000000E+01
  0.100000000000E+01
  0.100000000000E+01
  0.100000000000E+01
  0.100000000000E+01
  0.100000000000E+01
  0.100000000000E+01
  0.100000000000E+01
  0.100000000000E+01
  0.100000000000E+01
  0.100000000000E+01
  0.100000000000E+01
  0.100000000000E+01
  0.100000000000E+01
  0.100000000000E+01
  0.100000000000E+01
  0.100000000000E+01
  0.100000000000E+01
  0.100000000000E+01
  0.100000000000E+01
  0.100000000000E+01
  0.100000000000E+01
  0.100000000000E+01
  0.100000000000E+01
  0.100000000000E+01
  0.100000000000E+01
  0.100000000000E+01
  0.100000000000E+01
  0.100000000000E+01
  0.100000000000E+01
  0.100000000000E+01
  0.100000000000E+01
  0.100000000000E+01
  0.100000000000E+01
  0.100000000000E+01
  0.100000000000E+01
  0.100000000000E+01
  0.100000000000E+01
  0.100000000000E+01
  0.100000000000E+01
  0.100000000000E+01
  0.100000000000E+01
  0.100000000000E+01
  0.100000000000E+01
  0.100000000000E+01
  0.100000000000E+01
  0.100000000000E+01
  0.100000000000E+01
  0.100000000000E+01
  0.100000000000E+01
  0.100000000000E+01
  0.100000000000E+01
  0.100000000000E+01
  0.100000000000E+01
  0.100000000000E+01
  0.100000000000E+01
  0.100000000000E+01
  0.100000000000E+01
  0.100000000000E+01
  0.100000000000E+01
  0.100000000000E+01
  0.100000000000E+01
  0.100000000000E+01
  0.100000000000E+01
  0.100000000000E+01
  0.100000000000E+01
  0.100000000000E+01
  0.100000000000E+01
  0.100000000000E+01
  0.100000000000E+01
  0.100000000000E+01
  0.100000000000E+01
  0.100000000000E+01
  0.100000000000E+01
  0.100000000000E+01
  0.100000000000E+01
  0.100000000000E+01
  0.100000000000E+01
  0.100000000000E+01
  0.100000000000E+01
  0.100000000000E+01
  0.100000000000E+01
  0.100000000000E+01
  0.100000000000E+01
  0.100000000000E+01
  0.100000000000E+01
  0.100000000000E+01
  0.100000000000E+01
  0.100000000000E+01
  0.100000000000E+01
  0.100000000000E+01
  0.100000000000E+01
  0.100000000000E+01
  0.100000000000E+01
  0.100000000000E+01
  0.100000000000E+01
  0.100000000000E+01
  0.100000000000E+01
  0.100000000000E+01
  0.100000000000E+01
  0.100000000000E+01
  0.100000000000E+01
  0.100000000000E+01
  0.100000000000E+01
  0.100000000000E+01
  0.100000000000E+01
  0.100000000000E+01
VECTORS v float
  0.210874073057E+03 -0.540918651305E+02  0.282851618966E+02
  0.259546148235E+03 -0.782364546191E+02  0.360583540396E+02
  0.188168941273E+03 -0.685924765730E+01  0.210148991542E+02
  0.183940451220E+03 -0.898179493593E+01  0.207879707926E+02
  0.176306644977E+03 -0.134798490855E+01  0.175061846691E+02
  0.174965250164E+03 -0.399953644104E+01  0.176352910736E+02
  0.165804297069E+03  0.516141665451E+01  0.160797546094E+01
  0.169241436675E+03 -0.864865494952E+01  0.178061362781E+01
  0.140132717408E+03  0.204600643179E+02 -0.208499088883E+02
  0.149096759119E+03 -0.320728467953E+01 -0.265350962467E+02
  0.796935643699E+02  0.661959079197E+02 -0.977359901834E+01
  0.817357786725E+02  0.621001207724E+02 -0.142181002722E+02
  0.150180314587E+03 -0.634441514204E+01  0.113338922163E+03
  0.129469413126E+03  0.351925834406E+02  0.682654654994E+02
  0.194820632286E+03 -0.301586336948E+02  0.391969005321E+02
  0.184552296490E+03 -0.304761681752E+01  0.326845022560E+02
  0.186836655472E+03 -0.533197579966E+01 -0.192353649691E+01
  0.188175569842E+03 -0.107115953218E+02 -0.199078652135E+01
  0.172910458570E+03  0.455351595027E+01 -0.165899881406E+02
  0.165508806840E+03 -0.100774247134E+02 -0.173023639901E+02
  0.144207792814E+03  0.112235998725E+02 -0.143294585998E+02
  0.131925996112E+03  0.505859113873E+01 -0.136703608647E+02
  0.509872441297E+02  0.859973431214E+02  0.373733440899E+01
  0.903645332391E+02  0.664176746870E+02 -0.255633148809E+01
  0.202361414546E+03 -0.417219641112E+02  0.260559965466E+02
  0.210921186720E+03 -0.479353577106E+02  0.276329850705E+02
  0.182056591587E+03 -0.190707509348E+02  0.216720885261E+02
  0.188016546815E+03 -0.201369475297E+02  0.224291916945E+02
  0.176869847918E+03 -0.899025013066E+01  0.183147558143E+02
  0.176229233021E+03 -0.939759709794E+01  0.182917694594E+02
  0.169242061638E+03 -0.241042665359E+01  0.171817753608E+01
  0.171938430960E+03 -0.952009748335E+01  0.181633266394E+01
  0.149569763839E+03  0.128485726446E+02 -0.238201812201E+02
  0.151825164270E+03  0.862870059119E+01 -0.249483304539E+02
  0.859888907432E+02  0.744649785436E+02 -0.834441447509E+01
  0.837810469634E+02  0.777502008773E+02 -0.436690981236E+01
  0.162753472513E+03 -0.122222467276E+01  0.118734099796E+03
  0.155602277406E+03  0.941858908312E+01  0.105851015550E+03
  0.199292065802E+03 -0.342712022499E+02  0.406924411722E+02
  0.194939394443E+03 -0.261273196909E+02  0.385152389078E+02
  0.184848696156E+03 -0.160366200471E+02 -0.201078762183E+01
  0.186835058341E+03 -0.212741745395E+02 -0.208309595920E+01
  0.165605292943E+03 -0.444119953588E-01 -0.163232127182E+02
  0.160154139021E+03 -0.351063020350E+01 -0.161276160192E+02
  0.132149070511E+03  0.244944345410E+02 -0.116001250897E+02
  0.134606741683E+03  0.240547721356E+02 -0.119123125619E+02
  0.903854723491E+02  0.682760593068E+02 -0.236018090721E+01
  0.976195667345E+02  0.630198696172E+02 -0.369353224731E+01
  0.199783433547E+03 -0.385634760238E+02  0.254435761022E+02
  0.202340741072E+03 -0.406955625583E+02  0.259442204213E+02
  0.180038005815E+03 -0.183928326979E+02  0.213815448411E+02
  0.182052682367E+03 -0.194113567946E+02  0.217083679610E+02
  0.175688546686E+03 -0.130472206006E+02  0.185981260601E+02
  0.176830695950E+03 -0.130614288486E+02  0.187120741632E+02
  0.171938566286E+03 -0.816929879041E+01  0.180281301776E+01
  0.172642920434E+03 -0.956523881806E+01  0.182383587039E+01
  0.151900249651E+03  0.111774302926E+02 -0.245173612969E+02
  0.152879949694E+03  0.969084956283E+01 -0.249470558812E+02
  0.840471069318E+02  0.785236978777E+02 -0.399947224475E+01
  0.834087345483E+02  0.793400612769E+02 -0.294610701317E+01