# vtk DataFile Version 3.0
TriPan results file. Generated by TriPan, USU AeroLab (c) 2021.
ASCII
DATASET POLYDATA
POINTS                  20 float
  0.190000000000E+02  0.000000000000E+00  0.000000000000E+00
  0.993004936645E+02  0.000000000000E+00  0.121443078690E+02
  0.209237651825E+02  0.192375373840E+01  0.000000000000E+00
  0.993435106295E+02  0.192375373840E+01  0.118598714435E+02
  0.244703655243E+02  0.547033166885E+01  0.000000000000E+00
  0.994228155176E+02  0.547033166885E+01  0.113354923078E+02
  0.303820724487E+02  0.113820018768E+02  0.000000000000E+00
  0.995550061257E+02  0.113820018768E+02  0.104614226443E+02
  0.387563171387E+02  0.197561950684E+02  0.000000000000E+00
  0.997422610950E+02  0.197561950684E+02  0.922325686038E+01
  0.482439842224E+02  0.292438049316E+02  0.000000000000E+00
  0.999544131008E+02  0.292438049316E+02  0.782046709399E+01
  0.566182289124E+02  0.376179962158E+02  0.000000000000E+00
  0.100141668070E+03  0.376179962158E+02  0.658230131005E+01
  0.625299339294E+02  0.435296669006E+02  0.000000000000E+00
  0.100273858636E+03  0.435296669006E+02  0.570823192855E+01
  0.660765380859E+02  0.470762481689E+02  0.000000000000E+00
  0.100353163609E+03  0.470762481689E+02  0.518385222885E+01
  0.680002975464E+02  0.490000000000E+02  0.000000000000E+00
  0.100396180446E+03  0.490000000000E+02  0.489941664944E+01
POLYGONS                  18                  72
3                   0                   1                   3
3                   0                   3                   2
3                   2                   3                   5
3                   2                   5                   4
3                   4                   5                   7
3                   4                   7                   6
3                   6                   7                   9
3                   6                   9                   8
3                   8                   9                  11
3                   8                  11                  10
3                  10                  11                  13
3                  10                  13                  12
3                  12                  13                  15
3                  12                  15                  14
3                  14                  15                  17
3                  14                  17                  16
3                  16                  17                  19
3                  16                  19                  18
POINT_DATA                  20
SCALARS mu float 1
LOOKUP_TABLE default
 -0.506039074928E-03
 -0.506039074928E-03
 -0.117955638217E-03
 -0.117955638217E-03
 -0.169358935995E-03
 -0.169358935995E-03
 -0.227504649782E-03
 -0.227504649782E-03
 -0.261737784555E-03
 -0.261737784555E-03
 -0.242190724272E-03
 -0.242190724272E-03
 -0.173427335042E-03
 -0.173427335042E-03
 -0.717796313126E-04
 -0.717796313126E-04
  0.488015363857E-03
  0.488015363857E-03
  0.000000000000E+00
  0.000000000000E+00
