# vtk DataFile Version 3.0
TriPan results file. Generated by TriPan, USU AeroLab (c) 2021.
ASCII
DATASET POLYDATA
POINTS                  34 float
  0.190003013611E+02  0.000000000000E+00  0.000000000000E+00
  0.993005004032E+02  0.000000000000E+00  0.121442633115E+02
  0.199284744263E+02  0.928174138069E+00  0.000000000000E+00
  0.993212551131E+02  0.928174138069E+00  0.120070291879E+02
  0.212622661591E+02  0.226196575165E+01  0.000000000000E+00
  0.993510797885E+02  0.226196575165E+01  0.118098227117E+02
  0.231392364502E+02  0.413893461227E+01  0.000000000000E+00
  0.993930503813E+02  0.413893461227E+01  0.115323050993E+02
  0.257042465210E+02  0.670394468307E+01  0.000000000000E+00
  0.994504061071E+02  0.670394468307E+01  0.111530580361E+02
  0.290725154877E+02  0.100722141266E+02  0.000000000000E+00
  0.995257233596E+02  0.100722141266E+02  0.106550459120E+02
  0.332713356018E+02  0.142710342407E+02  0.000000000000E+00
  0.996196124159E+02  0.142710342407E+02  0.100342334578E+02
  0.381787681580E+02  0.191784667969E+02  0.000000000000E+00
  0.997293466268E+02  0.191784667969E+02  0.930864980183E+01
  0.435003013611E+02  0.245000000000E+02  0.000000000000E+00
  0.998483404672E+02  0.245000000000E+02  0.852183969846E+01
  0.488218345642E+02  0.298215332031E+02  0.000000000000E+00
  0.999673343077E+02  0.298215332031E+02  0.773502959509E+01
  0.537292671204E+02  0.347289657593E+02  0.000000000000E+00
  0.100077068518E+03  0.347289657593E+02  0.700944593914E+01
  0.579280853271E+02  0.389277839661E+02  0.000000000000E+00
  0.100170957532E+03  0.389277839661E+02  0.638863376694E+01
  0.612963562012E+02  0.422960548401E+02  0.000000000000E+00
  0.100246274827E+03  0.422960548401E+02  0.589062136084E+01
  0.638613662720E+02  0.448610649109E+02  0.000000000000E+00
  0.100303630553E+03  0.448610649109E+02  0.551137429765E+01
  0.657383346558E+02  0.467380332947E+02  0.000000000000E+00
  0.100345601103E+03  0.467380332947E+02  0.523385696727E+01
  0.670721282959E+02  0.480718269348E+02  0.000000000000E+00
  0.100375425821E+03  0.480718269348E+02  0.503665020903E+01
  0.680002975464E+02  0.490000000000E+02  0.000000000000E+00
  0.100396180446E+03  0.490000000000E+02  0.489941664944E+01
POLYGONS                  32                 128
3                   0                   1                   3
3                   0                   3                   2
3                   2                   3                   5
3                   2                   5                   4
3                   4                   5                   7
3                   4                   7                   6
3                   6                   7                   9
3                   6                   9                   8
3                   8                   9                  11
3                   8                  11                  10
3                  10                  11                  13
3                  10                  13                  12
3                  12                  13                  15
3                  12                  15                  14
3                  14                  15                  17
3                  14                  17                  16
3                  16                  17                  19
3                  16                  19                  18
3                  18                  19                  21
3                  18                  21                  20
3                  20                  21                  23
3                  20                  23                  22
3                  22                  23                  25
3                  22                  25                  24
3                  24                  25                  27
3                  24                  27                  26
3                  26                  27                  29
3                  26                  29                  28
3                  28                  29                  31
3                  28                  31                  30
3                  30                  31                  33
3                  30                  33                  32
POINT_DATA                  34
SCALARS mu float 1
LOOKUP_TABLE default
 -0.429306878360E-03
 -0.429306878360E-03
 -0.778920683047E-04
 -0.778920683047E-04
 -0.929613379057E-04
 -0.929613379057E-04
 -0.115677316970E-03
 -0.115677316970E-03
 -0.142908303989E-03
 -0.142908303989E-03
 -0.174512086332E-03
 -0.174512086332E-03
 -0.199705995989E-03
 -0.199705995989E-03
 -0.215784621069E-03
 -0.215784621069E-03
 -0.218313012063E-03
 -0.218313012063E-03
 -0.205773138731E-03
 -0.205773138731E-03
 -0.176058397130E-03
 -0.176058397130E-03
 -0.138884136049E-03
 -0.138884136049E-03
 -0.100035678798E-03
 -0.100035678798E-03
 -0.652312467793E-04
 -0.652312467793E-04
 -0.168680029446E-04
 -0.168680029446E-04
  0.969959812949E-04
  0.969959812949E-04
  0.000000000000E+00
  0.000000000000E+00
