# vtk DataFile Version 3.0
TriPan results file. Generated by TriPan, USU AeroLab (c) 2021.
ASCII
DATASET POLYDATA
POINTS                 309 float
  0.145119197349E-04  0.000000000000E+00  0.702222613473E-21
  0.420138497918E+00  0.000000000000E+00 -0.412059144854E+00
  0.420138497918E+00  0.000000000000E+00  0.412059144854E+00
  0.928185622804E+00  0.928162653334E+00  0.370492718948E-21
  0.134831331777E+01  0.928166164882E+00 -0.412060979457E+00
  0.134831331777E+01  0.928166164882E+00  0.412060979457E+00
  0.181353533969E+01  0.000000000000E+00 -0.806793832730E+00
  0.181353533969E+01  0.000000000000E+00  0.806793832730E+00
  0.226198092881E+01  0.226195057449E+01  0.000000000000E+00
  0.268210702775E+01  0.226195568206E+01 -0.412057187748E+00
  0.268210702775E+01  0.226195568206E+01  0.412057187748E+00
  0.274171014569E+01  0.928169171587E+00 -0.806795197448E+00
  0.274171014569E+01  0.928169171587E+00  0.806795197448E+00
  0.407550250541E+01  0.226195991982E+01 -0.806790662114E+00
  0.407550250541E+01  0.226195991982E+01  0.806790662114E+00
  0.413895454185E+01  0.413891468269E+01  0.321459894060E-20
  0.455907863241E+01  0.413892179865E+01 -0.412052224685E+00
  0.455907863241E+01  0.413892179865E+01  0.412052224685E+00
  0.479629669423E+01  0.000000000000E+00 -0.111703721841E+01
  0.479629669423E+01  0.000000000000E+00  0.111703721841E+01
  0.572447154981E+01  0.928172726805E+00 -0.111703822838E+01
  0.572447154981E+01  0.928172726805E+00  0.111703822838E+01
  0.595247250490E+01  0.413892764158E+01 -0.806784693282E+00
  0.595247250490E+01  0.413892764158E+01  0.806784693282E+00
  0.670397027304E+01  0.670391909310E+01  0.247656500064E-20
  0.705826345133E+01  0.226196417166E+01 -0.111703365070E+01
  0.705826345133E+01  0.226196417166E+01  0.111703365070E+01
  0.712409204420E+01  0.670392852846E+01 -0.412046181935E+00
  0.712409204420E+01  0.670392852846E+01  0.412046181935E+00
  0.851748444622E+01  0.670393631870E+01 -0.806777388893E+00
  0.851748444622E+01  0.670393631870E+01  0.806777388893E+00
  0.893523301137E+01  0.413893280970E+01 -0.111702761222E+01
  0.893523301137E+01  0.413893280970E+01  0.111702761222E+01
  0.939523493126E+01  0.000000000000E+00 -0.980728882398E+00
  0.939523493126E+01  0.000000000000E+00  0.980728882398E+00
  0.100722457449E+02  0.100721825083E+02  0.305997667590E-20
  0.103234084887E+02  0.928176637223E+00 -0.980721530569E+00
  0.103234084887E+02  0.928176637223E+00  0.980721530569E+00
  0.104923656357E+02  0.100721943008E+02 -0.412039541942E+00
  0.104923656357E+02  0.100721943008E+02  0.412039541942E+00
  0.115002433555E+02  0.670394260715E+01 -0.111702019620E+01
  0.115002433555E+02  0.670394260715E+01  0.111702019620E+01
  0.116572000425E+02  0.226196842976E+01 -0.980718679272E+00
  0.116572000425E+02  0.226196842976E+01  0.980718679272E+00
  0.118857549503E+02  0.100722042248E+02 -0.806769331235E+00
  0.118857549503E+02  0.100722042248E+02  0.806769331235E+00
  0.135341681758E+02  0.413893754088E+01 -0.980714688122E+00
  0.135341681758E+02  0.413893754088E+01  0.980714688122E+00
  0.139772048849E+02  0.000000000000E+00 -0.540117955762E+00
  0.139772048849E+02  0.000000000000E+00  0.540117955762E+00
  0.142710712716E+02  0.142709972098E+02  0.358380602499E-20
  0.146911892142E+02  0.142710109506E+02 -0.412033276042E+00
  0.146911892142E+02  0.142710109506E+02  0.412033276042E+00
  0.148685126249E+02  0.100722117480E+02 -0.111701198563E+01
  0.148685126249E+02  0.100722117480E+02  0.111701198563E+01
  0.149053790802E+02  0.928177214295E+00 -0.540120306661E+00
  0.149053790802E+02  0.928177214295E+00  0.540120306661E+00
  0.160845774727E+02  0.142710228843E+02 -0.806761707262E+00
  0.160845774727E+02  0.142710228843E+02  0.806761707262E+00
  0.160991788626E+02  0.670394794941E+01 -0.980709307171E+00
  0.160991788626E+02  0.670394794941E+01  0.980709307171E+00
  0.162391706293E+02  0.226196901156E+01 -0.540118505948E+00
  0.162391706293E+02  0.226196901156E+01  0.540118505948E+00
  0.169605804506E+02  0.000000000000E+00 -0.218323365097E+00
  0.169605804506E+02  0.000000000000E+00  0.218323365097E+00
  0.178887555873E+02  0.928176256456E+00 -0.218324870062E+00
  0.178887555873E+02  0.928176256456E+00  0.218324870062E+00
  0.181161386856E+02  0.413893819960E+01 -0.540115296205E+00
  0.181161386856E+02  0.413893819960E+01  0.540115296205E+00
  0.184032178921E+02  0.000000000000E+00 -0.636706128239E-01
  0.184032178921E+02  0.000000000000E+00  0.636706128239E-01
  0.190002907528E+02 -0.840944481527E-07 -0.788455474777E-06
  0.190673339798E+02  0.142710315750E+02 -0.111700419411E+01
  0.190673339798E+02  0.142710315750E+02  0.111700419411E+01
  0.191785074010E+02  0.191784261928E+02  0.261974574614E-20
  0.192225469940E+02  0.226196819618E+01 -0.218321837191E+00
  0.192225469940E+02  0.226196819618E+01  0.218321837191E+00
  0.193313927253E+02  0.928175608321E+00 -0.636692985335E-01
  0.193313927253E+02  0.928175608321E+00  0.636692985335E-01
  0.194674474091E+02  0.100722178131E+02 -0.980702613060E+00
  0.194674474091E+02  0.100722178131E+02  0.980702613060E+00
  0.195986242999E+02  0.191784409772E+02 -0.412028700899E+00
  0.195986242999E+02  0.191784409772E+02  0.412028700899E+00
  0.199284648759E+02  0.928183688477E+00 -0.100715878959E-05
  0.206651820729E+02  0.226196769971E+01 -0.636648302229E-01
  0.206651820729E+02  0.226196769971E+01  0.636648302229E-01
  0.206811482308E+02  0.670394879607E+01 -0.540110142948E+00
  0.206811482308E+02  0.670394879607E+01  0.540110142948E+00
  0.209920110930E+02  0.191784543764E+02 -0.806756130456E+00
  0.209920110930E+02  0.191784543764E+02  0.806756130456E+00
  0.210995148431E+02  0.413893759147E+01 -0.218316865234E+00
  0.210995148431E+02  0.413893759147E+01  0.218316865234E+00
  0.212622529717E+02  0.226197893907E+01 -0.139070631409E-05
  0.225421517127E+02  0.413893721166E+01 -0.636587391445E-01
  0.225421517127E+02  0.413893721166E+01  0.636587391445E-01
  0.231392185671E+02  0.413895249540E+01 -0.188590327224E-05
  0.236645241797E+02  0.670394839650E+01 -0.218310037539E+00
  0.236645241797E+02  0.670394839650E+01  0.218310037539E+00
  0.236662670754E+02  0.142710383750E+02 -0.980695478375E+00
  0.236662670754E+02  0.142710383750E+02  0.980695478375E+00
  0.239747667464E+02  0.191784639207E+02 -0.111699848317E+01
  0.239747667464E+02  0.191784639207E+02  0.111699848317E+01
  0.240494184145E+02  0.100722189299E+02 -0.540103376168E+00
  0.240494184145E+02  0.100722189299E+02  0.540103376168E+00
  0.245000413633E+02  0.244999586367E+02  0.000000000000E+00
  0.249201584372E+02  0.244999732461E+02 -0.412027011240E+00
  0.249201584372E+02  0.244999732461E+02  0.412027011240E+00
  0.251071609793E+02  0.670394808665E+01 -0.636512186147E-01
  0.251071609793E+02  0.670394808665E+01  0.636512186147E-01
  0.257042230406E+02  0.670396816347E+01 -0.247617573531E-05
  0.263135446900E+02  0.244999871856E+02 -0.806754065860E+00
  0.263135446900E+02  0.244999871856E+02  0.806754065860E+00
  0.270327922951E+02  0.100722186912E+02 -0.218302122370E+00
  0.270327922951E+02  0.100722186912E+02  0.218302122370E+00
  0.282482359082E+02  0.142710397571E+02 -0.540096384726E+00
  0.282482359082E+02  0.142710397571E+02  0.540096384726E+00
  0.284754290580E+02  0.100722184182E+02 -0.636429141243E-01
  0.284754290580E+02  0.100722184182E+02  0.636429141243E-01
  0.285736992607E+02  0.191784713021E+02 -0.980689568383E+00
  0.285736992607E+02  0.191784713021E+02  0.980689568383E+00
  0.290724860452E+02  0.100722435691E+02 -0.310492037916E-05
  0.292962981203E+02  0.244999970457E+02 -0.111699636567E+01
  0.292962981203E+02  0.244999970457E+02  0.111699636567E+01
  0.298215722923E+02  0.298214941139E+02 -0.252200432150E-20
  0.302416907090E+02  0.298215073806E+02 -0.412028695858E+00
  0.302416907090E+02  0.298215073806E+02  0.412028695858E+00
  0.312316115874E+02  0.142710396272E+02 -0.218294479658E+00
  0.312316115874E+02  0.142710396272E+02  0.218294479658E+00
  0.316350755952E+02  0.298215207793E+02 -0.806756113011E+00
  0.316350755952E+02  0.298215207793E+02  0.806756113011E+00
  0.326742502400E+02  0.142710393718E+02 -0.636350629714E-01
  0.326742502400E+02  0.142710393718E+02  0.636350629714E-01
  0.331556679204E+02  0.191784728572E+02 -0.540091052704E+00
  0.331556679204E+02  0.191784728572E+02  0.540091052704E+00
  0.332713008060E+02  0.142710690365E+02 -0.366946003233E-05
  0.338952322807E+02  0.245000046883E+02 -0.980686650712E+00
  0.338952322807E+02  0.245000046883E+02  0.980686650712E+00
  0.346178312461E+02  0.298215303261E+02 -0.111699846182E+01
  0.346178312461E+02  0.298215303261E+02  0.111699846182E+01
  0.347290001994E+02  0.347289313192E+02 -0.111102197025E-20
  0.351491207386E+02  0.347289424633E+02 -0.412033265542E+00
  0.351491207386E+02  0.347289424633E+02  0.412033265542E+00
  0.361390435369E+02  0.191784727900E+02 -0.218288838176E+00
  0.361390435369E+02  0.191784727900E+02  0.218288838176E+00
  0.365425070906E+02  0.347289543962E+02 -0.806761672327E+00
  0.365425070906E+02  0.347289543962E+02  0.806761672327E+00
  0.375816821825E+02  0.191784725416E+02 -0.636293256172E-01
  0.375816821825E+02  0.191784725416E+02  0.636293256172E-01
  0.381787298283E+02  0.191785051266E+02 -0.404213918334E-05
  0.384772009150E+02  0.245000062688E+02 -0.540089009297E+00
  0.384772009150E+02  0.245000062688E+02  0.540089009297E+00
  0.389278125514E+02  0.389277553808E+02 -0.922149802381E-21
  0.392167655509E+02  0.298215378243E+02 -0.980687720153E+00
  0.392167655509E+02  0.298215378243E+02  0.980687720153E+00
  0.393479354844E+02  0.389277641311E+02 -0.412039525323E+00
  0.393479354844E+02  0.389277641311E+02  0.412039525323E+00
  0.395252635926E+02  0.347289630920E+02 -0.111700415312E+01
  0.395252635926E+02  0.347289630920E+02  0.111700415312E+01
  0.407413276606E+02  0.389277740545E+02 -0.806769279584E+00
  0.407413276606E+02  0.389277740545E+02  0.806769279584E+00
  0.414605765133E+02  0.245000062199E+02 -0.218286729666E+00
[...]
POINT_DATA                 309
SCALARS phi float 1
LOOKUP_TABLE default
 -0.143487532395E-04
 -0.353797214995E+00
 -0.477032026485E+00
 -0.917749457344E+00
 -0.127153571651E+01
 -0.139477107668E+01
 -0.167250044650E+01
 -0.191378883223E+01
 -0.223654807716E+01
 -0.259033332525E+01
 -0.271356755143E+01
 -0.259023900460E+01
 -0.283152779847E+01
 -0.390903538945E+01
 -0.415032282694E+01
 -0.409241771412E+01
 -0.444620171856E+01
 -0.456943446043E+01
 -0.457533241772E+01
 -0.490940550591E+01
 -0.549307107788E+01
 -0.582714446812E+01
 -0.576490234603E+01
 -0.600618799842E+01
 -0.662859338581E+01
 -0.681186701602E+01
 -0.714593903721E+01
 -0.698237600054E+01
 -0.710560693520E+01
 -0.830107536274E+01
 -0.854235883060E+01
 -0.866773354850E+01
 -0.900180376376E+01
 -0.914294485947E+01
 -0.943625211998E+01
 -0.995899725171E+01
 -0.100606834865E+02
 -0.103539885483E+02
 -0.103127790002E+02
 -0.104360079490E+02
 -0.112039050027E+02
 -0.115379730000E+02
 -0.113794788226E+02
 -0.116727830317E+02
 -0.116314755216E+02
 -0.118727565797E+02
 -0.132353436383E+02
 -0.135286466537E+02
 -0.137392837951E+02
 -0.139008172431E+02
 -0.141106127842E+02
 -0.144643935433E+02
 -0.145876206182E+02
 -0.145343039636E+02
 -0.148683695054E+02
 -0.146570216019E+02
 -0.148185557530E+02
 -0.157830892237E+02
 -0.160243680016E+02
 -0.157715151269E+02
 -0.160648165330E+02
 -0.159758167763E+02
 -0.161373503889E+02
 -0.167372350875E+02
 -0.168025292062E+02
 -0.176549739515E+02
 -0.177202685204E+02
 -0.178316813990E+02
 -0.179932140516E+02
 -0.181867781157E+02
 -0.182058201296E+02
 -0.187866586057E+02
 -0.186859165363E+02
 -0.190199797479E+02
 -0.189628715717E+02
 -0.189737691694E+02
 -0.190390628312E+02
 -0.191045171013E+02
 -0.191235587221E+02
 -0.191019131464E+02
 -0.193952125505E+02
 -0.193166519830E+02
 -0.194398776896E+02
 -0.197043966599E+02
 -0.204233104979E+02
 -0.204423507824E+02
 -0.203678517249E+02
 -0.205293828363E+02
 -0.206353463642E+02
 -0.208766234743E+02
 -0.208296338507E+02
 -0.208949260255E+02
 -0.210231880932E+02
 -0.222791771171E+02
 -0.222982155799E+02
 -0.228790497286E+02
 -0.233658042206E+02
 -0.234310943535E+02
 -0.232535239512E+02
 -0.235468212216E+02
 -0.235381728529E+02
 -0.238722343565E+02
 -0.236982513740E+02
 -0.238597804617E+02
 -0.242245722339E+02
 -0.245783530709E+02
 -0.247015782721E+02
 -0.248153475214E+02
 -0.248343837351E+02
 -0.254152141810E+02
 -0.258970469739E+02
 -0.261383234665E+02
 -0.266962019965E+02
 -0.267614897621E+02
 -0.278498600091E+02
 -0.280113870059E+02
 -0.281457453191E+02
 -0.281647790492E+02
 -0.281057797227E+02
 -0.283990752255E+02
 -0.287456056258E+02
 -0.287998712723E+02
 -0.291339321427E+02
 -0.294862698969E+02
 -0.298400518096E+02
 -0.299632775147E+02
 -0.308478125075E+02
 -0.309130979874E+02
 -0.311587443073E+02
 -0.314000214121E+02
 -0.322973577297E+02
 -0.323163891117E+02
 -0.327021155231E+02
 -0.328636409252E+02
 -0.328972104290E+02
 -0.333674798895E+02
 -0.336607745197E+02
 -0.340615707940E+02
 -0.343956322912E+02
 -0.343385205545E+02
 -0.346923038826E+02
 -0.348155309543E+02
 -0.357000680056E+02
 -0.357653517984E+02
 -0.360109976816E+02
 -0.362522764491E+02
 -0.371496132354E+02
 -0.371686429015E+02
 -0.377494621336E+02
 -0.379638155341E+02
 -0.381253403250E+02
 -0.384901230604E+02
 -0.386291797074E+02
 -0.389224746575E+02
 -0.388439078193E+02
 -0.389671367631E+02
 -0.389138249900E+02
 -0.392478881894E+02
 -0.401626071755E+02
 -0.404038882181E+02
 -0.409617680083E+02
 -0.410270511705E+02
 -0.418205165251E+02
 -0.421743025208E+02
 -0.422975334485E+02
 -0.424113094681E+02
 -0.424303384999E+02
 -0.430111612909E+02
 -0.430654356105E+02
 -0.433995011354E+02
 -0.432255153540E+02
 -0.433870407085E+02
 -0.434930000030E+02
 -0.437342834514E+02
 -0.434814345466E+02
 -0.437747309166E+02
 -0.443566814296E+02
 -0.447104683931E+02
 -0.448337011261E+02
 -0.460291676102E+02
 -0.462704532409E+02
 -0.462125417332E+02
 -0.462234678317E+02
 -0.462887516043E+02
 -0.463958296329E+02
 -0.467298976110E+02
 -0.465663294072E+02
 -0.466895636233E+02
 -0.475313355665E+02
 -0.476730092873E+02
 -0.476920389497E+02
 -0.476330422304E+02
 -0.479263406895E+02
 -0.478851237403E+02
 -0.480083590903E+02
 -0.478850338290E+02
 -0.481263212456E+02
 -0.480777703587E+02
 -0.482392972473E+02
 -0.482728634619E+02
 -0.484490679197E+02
 -0.488028577519E+02
 -0.489260944395E+02
 -0.489319983284E+02
 -0.492660685248E+02
 -0.491090089516E+02
 -0.491961510315E+02
 -0.492719155002E+02
 -0.492038254923E+02
 -0.494451142686E+02
 -0.501215611236E+02
 -0.503628511687E+02
 -0.507209926594E+02
 -0.508916110303E+02
 -0.507878654417E+02
 -0.511219374472E+02
 -0.510399574435E+02
 -0.510757228462E+02
 -0.511410082793E+02
 -0.509634409046E+02
 -0.512567415706E+02
 -0.521066577885E+02
 -0.524407311673E+02
 -0.522293820979E+02
 -0.523909109981E+02
 -0.525252642911E+02
 -0.525442956648E+02
 -0.531251233355E+02
 -0.530243941662E+02
 -0.533584686282E+02
 -0.534996104262E+02
 -0.537929129841E+02
 -0.538543307508E+02
 -0.540905574263E+02
 -0.542959486253E+02
 -0.552273308169E+02
 -0.552926184934E+02
 -0.553554744807E+02
 -0.556487784471E+02
 -0.555597773277E+02
 -0.557213081830E+02
 -0.566768760148E+02
 -0.566959097296E+02
 -0.566742711680E+02
 -0.569675761099E+02
 -0.572767374469E+02
 -0.575920080291E+02
 -0.578853135685E+02
 -0.580959471494E+02
 -0.582574795603E+02
 -0.583206689368E+02
 -0.585280663787E+02
 -0.585577298047E+02
 -0.586230197792E+02
 -0.587083957448E+02
 -0.600072749726E+02
 -0.600263111593E+02
 -0.599518114446E+02
 -0.601133449085E+02
 -0.606071426489E+02
 -0.610938995974E+02
 -0.611591915256E+02
 -0.612706083165E+02
 -0.614321424001E+02
 -0.621883452648E+02
 -0.623498799085E+02
 -0.625434447212E+02
 -0.625624831355E+02
 -0.625896535409E+02
 -0.627038757596E+02
 -0.628031891999E+02
 -0.629497638548E+02
 -0.630150572300E+02
 -0.631433179145E+02
 -0.642685606870E+02
 -0.643338550352E+02
 -0.643993051549E+02
 -0.644183453515E+02
 -0.649991865488E+02
 -0.651863013772E+02
 -0.652515965739E+02
 -0.653485161585E+02
 -0.653946870859E+02
 -0.654348324555E+02
 -0.657181019398E+02
 -0.657371434181E+02
 -0.663179866338E+02
 -0.666358425840E+02
 -0.666548852133E+02
 -0.666831536347E+02
 -0.666966195096E+02
 -0.667083309028E+02
 -0.672357260182E+02
 -0.187866589789E+02
 -0.197043972547E+02
 -0.210231889145E+02
 -0.228790508424E+02
 -0.254152156433E+02
 -0.287456074595E+02
 -0.328972125960E+02
 -0.377494645207E+02
 -0.430111637248E+02
 -0.482728657557E+02
 -0.531251253429E+02
 -0.572767390937E+02
 -0.606071439310E+02
 -0.631433188748E+02
 -0.649991872507E+02
 -0.663179871427E+02
SCALARS phi_mu float 1
LOOKUP_TABLE default
 -0.143487532395E-04
 -0.353797214995E+00
 -0.477032026485E+00
 -0.917749457344E+00
 -0.127153571651E+01
 -0.139477107668E+01
 -0.167250044650E+01
 -0.191378883223E+01
 -0.223654807716E+01
 -0.259033332525E+01
 -0.271356755143E+01
 -0.259023900460E+01
 -0.283152779847E+01
 -0.390903538945E+01
 -0.415032282694E+01
 -0.409241771412E+01
 -0.444620171856E+01
 -0.456943446043E+01
 -0.457533241772E+01
 -0.490940550591E+01
 -0.549307107788E+01
 -0.582714446812E+01
 -0.576490234603E+01
 -0.600618799842E+01
 -0.662859338581E+01
 -0.681186701602E+01
 -0.714593903721E+01
 -0.698237600054E+01
 -0.710560693520E+01
 -0.830107536274E+01
 -0.854235883060E+01
 -0.866773354850E+01
 -0.900180376376E+01
 -0.914294485947E+01
 -0.943625211998E+01
 -0.995899725171E+01
 -0.100606834865E+02
 -0.103539885483E+02
 -0.103127790002E+02
 -0.104360079490E+02
 -0.112039050027E+02
 -0.115379730000E+02
 -0.113794788226E+02
 -0.116727830317E+02
 -0.116314755216E+02
 -0.118727565797E+02
 -0.132353436383E+02
 -0.135286466537E+02
 -0.137392837951E+02
 -0.139008172431E+02
 -0.141106127842E+02
 -0.144643935433E+02
 -0.145876206182E+02
 -0.145343039636E+02
 -0.148683695054E+02
 -0.146570216019E+02
 -0.148185557530E+02
 -0.157830892237E+02
 -0.160243680016E+02
 -0.157715151269E+02
 -0.160648165330E+02
 -0.159758167763E+02
 -0.161373503889E+02
 -0.167372350875E+02
 -0.168025292062E+02
 -0.176549739515E+02
 -0.177202685204E+02
 -0.178316813990E+02
 -0.179932140516E+02
 -0.181867781157E+02
 -0.182058201296E+02
 -0.187866586057E+02
 -0.186859165363E+02
 -0.190199797479E+02
 -0.189628715717E+02
 -0.189737691694E+02
 -0.190390628312E+02
 -0.191045171013E+02
 -0.191235587221E+02
 -0.191019131464E+02
 -0.193952125505E+02
 -0.193166519830E+02
 -0.194398776896E+02
 -0.197043966599E+02
 -0.204233104979E+02
 -0.204423507824E+02
 -0.203678517249E+02
 -0.205293828363E+02
 -0.206353463642E+02
 -0.208766234743E+02
 -0.208296338507E+02
 -0.208949260255E+02
 -0.210231880932E+02
 -0.222791771171E+02
 -0.222982155799E+02
 -0.228790497286E+02
 -0.233658042206E+02
 -0.234310943535E+02
 -0.232535239512E+02
 -0.235468212216E+02
 -0.235381728529E+02
 -0.238722343565E+02
 -0.236982513740E+02
 -0.238597804617E+02
 -0.242245722339E+02
 -0.245783530709E+02
 -0.247015782721E+02
 -0.248153475214E+02
 -0.248343837351E+02
 -0.254152141810E+02
 -0.258970469739E+02
 -0.261383234665E+02
 -0.266962019965E+02
 -0.267614897621E+02
 -0.278498600091E+02
 -0.280113870059E+02
 -0.281457453191E+02
 -0.281647790492E+02
 -0.281057797227E+02
 -0.283990752255E+02
 -0.287456056258E+02
 -0.287998712723E+02
 -0.291339321427E+02
 -0.294862698969E+02
 -0.298400518096E+02
 -0.299632775147E+02
 -0.308478125075E+02
 -0.309130979874E+02
 -0.311587443073E+02
 -0.314000214121E+02
 -0.322973577297E+02
 -0.323163891117E+02
 -0.327021155231E+02
 -0.328636409252E+02
 -0.328972104290E+02
 -0.333674798895E+02
 -0.336607745197E+02
 -0.340615707940E+02
 -0.343956322912E+02
 -0.343385205545E+02
 -0.346923038826E+02
 -0.348155309543E+02
 -0.357000680056E+02
 -0.357653517984E+02
 -0.360109976816E+02
 -0.362522764491E+02
 -0.371496132354E+02
 -0.371686429015E+02
 -0.377494621336E+02
 -0.379638155341E+02
 -0.381253403250E+02
 -0.384901230604E+02
 -0.386291797074E+02
 -0.389224746575E+02
 -0.388439078193E+02
 -0.389671367631E+02
 -0.389138249900E+02
 -0.392478881894E+02
 -0.401626071755E+02
 -0.404038882181E+02
 -0.409617680083E+02
 -0.410270511705E+02
 -0.418205165251E+02
 -0.421743025208E+02
 -0.422975334485E+02
 -0.424113094681E+02
 -0.424303384999E+02
 -0.430111612909E+02
 -0.430654356105E+02
 -0.433995011354E+02
 -0.432255153540E+02
 -0.433870407085E+02
 -0.434930000030E+02
 -0.437342834514E+02
 -0.434814345466E+02
 -0.437747309166E+02
 -0.443566814296E+02
 -0.447104683931E+02
 -0.448337011261E+02
 -0.460291676102E+02
 -0.462704532409E+02
 -0.462125417332E+02
 -0.462234678317E+02
 -0.462887516043E+02
 -0.463958296329E+02
 -0.467298976110E+02
 -0.465663294072E+02
 -0.466895636233E+02
 -0.475313355665E+02
 -0.476730092873E+02
 -0.476920389497E+02
 -0.476330422304E+02
 -0.479263406895E+02
 -0.478851237403E+02
 -0.480083590903E+02
 -0.478850338290E+02
 -0.481263212456E+02
 -0.480777703587E+02
 -0.482392972473E+02
 -0.482728634619E+02
 -0.484490679197E+02
 -0.488028577519E+02
 -0.489260944395E+02
 -0.489319983284E+02
 -0.492660685248E+02
 -0.491090089516E+02
 -0.491961510315E+02
 -0.492719155002E+02
 -0.492038254923E+02
 -0.494451142686E+02
 -0.501215611236E+02
 -0.503628511687E+02
 -0.507209926594E+02
 -0.508916110303E+02
 -0.507878654417E+02
 -0.511219374472E+02
 -0.510399574435E+02
 -0.510757228462E+02
 -0.511410082793E+02
 -0.509634409046E+02
 -0.512567415706E+02
 -0.521066577885E+02
 -0.524407311673E+02
 -0.522293820979E+02
 -0.523909109981E+02
 -0.525252642911E+02
 -0.525442956648E+02
 -0.531251233355E+02
 -0.530243941662E+02
 -0.533584686282E+02
 -0.534996104262E+02
 -0.537929129841E+02
 -0.538543307508E+02
 -0.540905574263E+02
 -0.542959486253E+02
 -0.552273308169E+02
 -0.552926184934E+02
 -0.553554744807E+02
 -0.556487784471E+02
 -0.555597773277E+02
 -0.557213081830E+02
 -0.566768760148E+02
 -0.566959097296E+02
 -0.566742711680E+02
 -0.569675761099E+02
 -0.572767374469E+02
 -0.575920080291E+02
 -0.578853135685E+02
 -0.580959471494E+02
 -0.582574795603E+02
 -0.583206689368E+02
 -0.585280663787E+02
 -0.585577298047E+02
 -0.586230197792E+02
 -0.587083957448E+02
 -0.600072749726E+02
 -0.600263111593E+02
 -0.599518114446E+02
 -0.601133449085E+02
 -0.606071426489E+02
 -0.610938995974E+02
 -0.611591915256E+02
 -0.612706083165E+02
 -0.614321424001E+02
 -0.621883452648E+02
 -0.623498799085E+02
 -0.625434447212E+02
 -0.625624831355E+02
 -0.625896535409E+02
 -0.627038757596E+02
 -0.628031891999E+02
 -0.629497638548E+02
 -0.630150572300E+02
 -0.631433179145E+02
 -0.642685606870E+02
 -0.643338550352E+02
 -0.643993051549E+02
 -0.644183453515E+02
 -0.649991865488E+02
 -0.651863013772E+02
 -0.652515965739E+02
 -0.653485161585E+02
 -0.653946870859E+02
 -0.654348324555E+02
 -0.657181019398E+02
 -0.657371434181E+02
 -0.663179866338E+02
 -0.666358425840E+02
 -0.666548852133E+02
 -0.666831536347E+02
 -0.666966195096E+02
 -0.667083309028E+02
 -0.672357260182E+02
 -0.187866589789E+02
 -0.197043972547E+02
 -0.210231889145E+02
 -0.228790508424E+02
 -0.254152156433E+02
 -0.287456074595E+02
 -0.328972125960E+02
 -0.377494645207E+02
 -0.430111637248E+02
 -0.482728657557E+02
 -0.531251253429E+02
 -0.572767390937E+02
 -0.606071439310E+02
 -0.631433188748E+02
 -0.649991872507E+02
 -0.663179871427E+02
SCALARS phi_sigma float 1
LOOKUP_TABLE default
  0.000000000000E+00
  0.000000000000E+00
  0.000000000000E+00
  0.000000000000E+00
  0.000000000000E+00
  0.000000000000E+00
  0.000000000000E+00
  0.000000000000E+00
  0.000000000000E+00
  0.000000000000E+00
  0.000000000000E+00
  0.000000000000E+00
  0.000000000000E+00
  0.000000000000E+00
  0.000000000000E+00
  0.000000000000E+00
  0.000000000000E+00
  0.000000000000E+00
  0.000000000000E+00
  0.000000000000E+00
  0.000000000000E+00
  0.000000000000E+00
  0.000000000000E+00
  0.000000000000E+00
  0.000000000000E+00
  0.000000000000E+00
  0.000000000000E+00
  0.000000000000E+00
  0.000000000000E+00
  0.000000000000E+00
  0.000000000000E+00
  0.000000000000E+00
  0.000000000000E+00
  0.000000000000E+00
  0.000000000000E+00
  0.000000000000E+00
  0.000000000000E+00
  0.000000000000E+00
  0.000000000000E+00
  0.000000000000E+00
  0.000000000000E+00
  0.000000000000E+00
  0.000000000000E+00
  0.000000000000E+00
  0.000000000000E+00
  0.000000000000E+00
  0.000000000000E+00
  0.000000000000E+00
  0.000000000000E+00
  0.000000000000E+00
  0.000000000000E+00
  0.000000000000E+00
  0.000000000000E+00
  0.000000000000E+00
  0.000000000000E+00
  0.000000000000E+00
  0.000000000000E+00
  0.000000000000E+00
  0.000000000000E+00
  0.000000000000E+00
  0.000000000000E+00
  0.000000000000E+00
  0.000000000000E+00
  0.000000000000E+00
  0.000000000000E+00
  0.000000000000E+00
  0.000000000000E+00
  0.000000000000E+00
  0.000000000000E+00
  0.000000000000E+00
  0.000000000000E+00
  0.000000000000E+00
  0.000000000000E+00
  0.000000000000E+00
  0.000000000000E+00
  0.000000000000E+00
  0.000000000000E+00
  0.000000000000E+00
  0.000000000000E+00
  0.000000000000E+00
  0.000000000000E+00
  0.000000000000E+00
  0.000000000000E+00
  0.000000000000E+00
  0.000000000000E+00
  0.000000000000E+00
  0.000000000000E+00
  0.000000000000E+00
  0.000000000000E+00
  0.000000000000E+00
  0.000000000000E+00
  0.000000000000E+00
  0.000000000000E+00
  0.000000000000E+00
  0.000000000000E+00
  0.000000000000E+00
  0.000000000000E+00
  0.000000000000E+00
  0.000000000000E+00
  0.000000000000E+00
  0.000000000000E+00
  0.000000000000E+00
  0.000000000000E+00
  0.000000000000E+00
  0.000000000000E+00
  0.000000000000E+00
  0.000000000000E+00
  0.000000000000E+00
  0.000000000000E+00
  0.000000000000E+00
  0.000000000000E+00
  0.000000000000E+00
  0.000000000000E+00
  0.000000000000E+00
  0.000000000000E+00
  0.000000000000E+00
  0.000000000000E+00
  0.000000000000E+00
  0.000000000000E+00
  0.000000000000E+00
  0.000000000000E+00
  0.000000000000E+00
  0.000000000000E+00
  0.000000000000E+00
  0.000000000000E+00
  0.000000000000E+00
  0.000000000000E+00
  0.000000000000E+00
  0.000000000000E+00
  0.000000000000E+00
  0.000000000000E+00
  0.000000000000E+00
  0.000000000000E+00
  0.000000000000E+00
  0.000000000000E+00
  0.000000000000E+00
  0.000000000000E+00
  0.000000000000E+00
  0.000000000000E+00
  0.000000000000E+00
  0.000000000000E+00
  0.000000000000E+00
  0.000000000000E+00
  0.000000000000E+00
  0.000000000000E+00
  0.000000000000E+00
  0.000000000000E+00
  0.000000000000E+00
  0.000000000000E+00
  0.000000000000E+00
  0.000000000000E+00
  0.000000000000E+00
  0.000000000000E+00
  0.000000000000E+00
  0.000000000000E+00
  0.000000000000E+00
  0.000000000000E+00
  0.000000000000E+00
  0.000000000000E+00
  0.000000000000E+00
  0.000000000000E+00
  0.000000000000E+00
  0.000000000000E+00
  0.000000000000E+00
  0.000000000000E+00
  0.000000000000E+00
  0.000000000000E+00
  0.000000000000E+00
  0.000000000000E+00
  0.000000000000E+00
  0.000000000000E+00
  0.000000000000E+00
  0.000000000000E+00
  0.000000000000E+00
  0.000000000000E+00
  0.000000000000E+00
  0.000000000000E+00
  0.000000000000E+00
  0.000000000000E+00
  0.000000000000E+00
  0.000000000000E+00
  0.000000000000E+00
  0.000000000000E+00
  0.000000000000E+00
  0.000000000000E+00
  0.000000000000E+00
  0.000000000000E+00
  0.000000000000E+00
  0.000000000000E+00
  0.000000000000E+00
  0.000000000000E+00
  0.000000000000E+00
  0.000000000000E+00
  0.000000000000E+00
  0.000000000000E+00
  0.000000000000E+00
  0.000000000000E+00
  0.000000000000E+00
  0.000000000000E+00
  0.000000000000E+00
  0.000000000000E+00
  0.000000000000E+00
  0.000000000000E+00
  0.000000000000E+00
  0.000000000000E+00
  0.000000000000E+00
  0.000000000000E+00
  0.000000000000E+00
  0.000000000000E+00
  0.000000000000E+00
  0.000000000000E+00
  0.000000000000E+00
  0.000000000000E+00
  0.000000000000E+00
  0.000000000000E+00
  0.000000000000E+00
  0.000000000000E+00
  0.000000000000E+00
  0.000000000000E+00
  0.000000000000E+00
  0.000000000000E+00
  0.000000000000E+00
  0.000000000000E+00
  0.000000000000E+00
  0.000000000000E+00
  0.000000000000E+00
  0.000000000000E+00
  0.000000000000E+00
  0.000000000000E+00
  0.000000000000E+00
  0.000000000000E+00
  0.000000000000E+00
  0.000000000000E+00
  0.000000000000E+00
  0.000000000000E+00
  0.000000000000E+00
  0.000000000000E+00
  0.000000000000E+00
  0.000000000000E+00
  0.000000000000E+00
  0.000000000000E+00
  0.000000000000E+00
  0.000000000000E+00
  0.000000000000E+00
  0.000000000000E+00
  0.000000000000E+00
  0.000000000000E+00
  0.000000000000E+00
  0.000000000000E+00
  0.000000000000E+00
  0.000000000000E+00
  0.000000000000E+00
  0.000000000000E+00
  0.000000000000E+00
  0.000000000000E+00
  0.000000000000E+00
  0.000000000000E+00
  0.000000000000E+00
  0.000000000000E+00
  0.000000000000E+00
  0.000000000000E+00
  0.000000000000E+00
  0.000000000000E+00
  0.000000000000E+00
  0.000000000000E+00
  0.000000000000E+00
  0.000000000000E+00
  0.000000000000E+00
  0.000000000000E+00
  0.000000000000E+00
  0.000000000000E+00
  0.000000000000E+00
  0.000000000000E+00
  0.000000000000E+00
  0.000000000000E+00
  0.000000000000E+00
  0.000000000000E+00
  0.000000000000E+00
  0.000000000000E+00
  0.000000000000E+00
  0.000000000000E+00
  0.000000000000E+00
  0.000000000000E+00
  0.000000000000E+00
  0.000000000000E+00
  0.000000000000E+00
  0.000000000000E+00
  0.000000000000E+00
  0.000000000000E+00
  0.000000000000E+00
  0.000000000000E+00
  0.000000000000E+00
  0.000000000000E+00
  0.000000000000E+00
  0.000000000000E+00
  0.000000000000E+00
  0.000000000000E+00
  0.000000000000E+00
  0.000000000000E+00
  0.000000000000E+00
  0.000000000000E+00
  0.000000000000E+00
  0.000000000000E+00
  0.000000000000E+00
  0.000000000000E+00
  0.000000000000E+00
  0.000000000000E+00
  0.000000000000E+00
  0.000000000000E+00
