# vtk DataFile Version 3.0
MachLine results file. Generated by MachLine, USU AeroLab (c) 2022.
ASCII
DATASET POLYDATA
POINTS                7064 float
  0.000000000000E+00  0.000000000000E+00  0.000000000000E+00
  0.389988087118E-01  0.000000000000E+00 -0.109218262136E+00
  0.389988087118E-01  0.000000000000E+00  0.109218262136E+00
  0.147665724158E+00  0.000000000000E+00 -0.234920635819E+00
  0.147665724158E+00  0.000000000000E+00  0.234920635819E+00
  0.161138445139E+00  0.161138445139E+00  0.000000000000E+00
  0.200137257576E+00  0.161138445139E+00 -0.109218269587E+00
  0.200137257576E+00  0.161138445139E+00  0.109218269587E+00
  0.290265858173E+00  0.000000000000E+00 -0.347333192825E+00
  0.290265858173E+00  0.000000000000E+00  0.347333192825E+00
  0.308804154396E+00  0.161138445139E+00 -0.234920650721E+00
  0.308804154396E+00  0.161138445139E+00  0.234920650721E+00
  0.335006117821E+00  0.335006117821E+00  0.000000000000E+00
  0.374004930258E+00  0.335006117821E+00 -0.109218277037E+00
  0.374004930258E+00  0.335006117821E+00  0.109218277037E+00
  0.451404303312E+00  0.161138445139E+00 -0.347333222628E+00
  0.451404303312E+00  0.161138445139E+00  0.347333222628E+00
  0.473465979099E+00  0.000000000000E+00 -0.436293870211E+00
  0.473465979099E+00  0.000000000000E+00  0.436293870211E+00
  0.482671856880E+00  0.335006117821E+00 -0.234920650721E+00
  0.482671856880E+00  0.335006117821E+00  0.234920650721E+00
  0.522506594658E+00  0.522506594658E+00  0.000000000000E+00
  0.561505436897E+00  0.522506594658E+00 -0.109218284488E+00
  0.561505436897E+00  0.522506594658E+00  0.109218284488E+00
  0.625271975994E+00  0.335006117821E+00 -0.347333222628E+00
  0.625271975994E+00  0.335006117821E+00  0.347333222628E+00
  0.634604454041E+00  0.161138445139E+00 -0.436293900013E+00
  0.634604454041E+00  0.161138445139E+00  0.436293900013E+00
  0.670172333717E+00  0.522506594658E+00 -0.234920665622E+00
  0.670172333717E+00  0.522506594658E+00  0.234920665622E+00
  0.689334988594E+00  0.000000000000E+00 -0.522850036621E+00
  0.689334988594E+00  0.000000000000E+00  0.522850036621E+00
  0.724590361118E+00  0.724590361118E+00  0.000000000000E+00
  0.763589203358E+00  0.724590361118E+00 -0.109218291938E+00
  0.763589203358E+00  0.724590361118E+00  0.109218291938E+00
  0.808472156525E+00  0.335006117821E+00 -0.436293929815E+00
  0.808472156525E+00  0.335006117821E+00  0.436293929815E+00
  0.812772512436E+00  0.522506594658E+00 -0.347333252430E+00
  0.812772512436E+00  0.522506594658E+00  0.347333252430E+00
  0.850473463535E+00  0.161138445139E+00 -0.522850036621E+00
  0.850473463535E+00  0.161138445139E+00  0.522850036621E+00
  0.872256100178E+00  0.724590361118E+00 -0.234920680523E+00
  0.872256100178E+00  0.724590361118E+00  0.234920680523E+00
  0.942254066467E+00  0.942254066467E+00  0.000000000000E+00
  0.944064557552E+00  0.000000000000E+00 -0.604293465614E+00
  0.944064557552E+00  0.000000000000E+00  0.604293465614E+00
  0.981252849102E+00  0.942254066467E+00 -0.109218299389E+00
  0.981252849102E+00  0.942254066467E+00  0.109218299389E+00
  0.995972692966E+00  0.522506594658E+00 -0.436293959618E+00
  0.995972692966E+00  0.522506594658E+00  0.436293959618E+00
  0.101485633850E+01  0.724590361118E+00 -0.347333282232E+00
  0.101485633850E+01  0.724590361118E+00  0.347333282232E+00
  0.102434122562E+01  0.335006117821E+00 -0.522850096226E+00
  0.102434122562E+01  0.335006117821E+00  0.522850096226E+00
  0.108991980553E+01  0.942254066467E+00 -0.234920710325E+00
  0.108991980553E+01  0.942254066467E+00  0.234920710325E+00
  0.110520303249E+01  0.161138445139E+00 -0.604293525219E+00
  0.110520303249E+01  0.161138445139E+00  0.604293525219E+00
  0.117653930187E+01  0.117653930187E+01  0.000000000000E+00
  0.119805645943E+01  0.724590361118E+00 -0.436293989420E+00
  0.119805645943E+01  0.724590361118E+00  0.436293989420E+00
  0.121184170246E+01  0.522506594658E+00 -0.522850096226E+00
  0.121184170246E+01  0.522506594658E+00  0.522850096226E+00
  0.121553814411E+01  0.117653930187E+01 -0.109218306839E+00
  0.121553814411E+01  0.117653930187E+01  0.109218306839E+00
  0.123251998425E+01  0.942254066467E+00 -0.347333312035E+00
  0.123251998425E+01  0.942254066467E+00  0.347333312035E+00
  0.123833239079E+01  0.000000000000E+00 -0.683996438980E+00
  0.123833239079E+01  0.000000000000E+00  0.683996438980E+00
  0.127907073498E+01  0.335006117821E+00 -0.604293525219E+00
  0.127907073498E+01  0.335006117821E+00  0.604293525219E+00
  0.132420504093E+01  0.117653930187E+01 -0.234920725226E+00
  0.132420504093E+01  0.117653930187E+01  0.234920725226E+00
  0.139947092533E+01  0.161138445139E+00 -0.683996498585E+00
  0.139947092533E+01  0.161138445139E+00  0.683996498585E+00
  0.141392552853E+01  0.724590361118E+00 -0.522850155830E+00
  0.141392552853E+01  0.724590361118E+00  0.522850155830E+00
  0.141572022438E+01  0.942254066467E+00 -0.436294019222E+00
  0.141572022438E+01  0.942254066467E+00  0.436294019222E+00
  0.142853081226E+01  0.142853081226E+01  0.000000000000E+00
  0.146657133102E+01  0.522506594658E+00 -0.604293584824E+00
  0.146657133102E+01  0.522506594658E+00  0.604293584824E+00
  0.146680521965E+01  0.117653930187E+01 -0.347333341837E+00
  0.146680521965E+01  0.117653930187E+01  0.347333341837E+00
  0.146752965450E+01  0.142853081226E+01 -0.109218314290E+00
  0.146752965450E+01  0.142853081226E+01  0.109218314290E+00
  0.157333862782E+01  0.335006117821E+00 -0.683996558189E+00
  0.157333862782E+01  0.335006117821E+00  0.683996558189E+00
  0.157619655132E+01  0.142853081226E+01 -0.234920740128E+00
  0.157619655132E+01  0.142853081226E+01  0.234920740128E+00
  0.157641971111E+01  0.000000000000E+00 -0.760520398617E+00
  0.157641971111E+01  0.000000000000E+00  0.760520398617E+00
  0.163158929348E+01  0.942254066467E+00 -0.522850155830E+00
  0.163158929348E+01  0.942254066467E+00  0.522850155830E+00
  0.165000545979E+01  0.117653930187E+01 -0.436294049025E+00
  0.165000545979E+01  0.117653930187E+01  0.436294049025E+00
  0.166865515709E+01  0.724590361118E+00 -0.604293584824E+00
  0.166865515709E+01  0.724590361118E+00  0.604293584824E+00
  0.169935321808E+01  0.169935321808E+01  0.000000000000E+00
  0.171879673004E+01  0.142853081226E+01 -0.347333371639E+00
  0.171879673004E+01  0.142853081226E+01  0.347333371639E+00
  0.173755824566E+01  0.161138445139E+00 -0.760520458221E+00
  0.173755824566E+01  0.161138445139E+00  0.760520458221E+00
  0.173835194111E+01  0.169935321808E+01 -0.109218329191E+00
  0.173835194111E+01  0.169935321808E+01  0.109218329191E+00
  0.176083922386E+01  0.522506594658E+00 -0.683996558189E+00
  0.176083922386E+01  0.522506594658E+00  0.683996558189E+00
  0.184701895714E+01  0.169935321808E+01 -0.234920755029E+00
  0.184701895714E+01  0.169935321808E+01  0.234920755029E+00
  0.186587452888E+01  0.117653930187E+01 -0.522850215435E+00
  0.186587452888E+01  0.117653930187E+01  0.522850215435E+00
  0.188631892204E+01  0.942254066467E+00 -0.604293644428E+00
  0.188631892204E+01  0.942254066467E+00  0.604293644428E+00
  0.190199697018E+01  0.142853081226E+01 -0.436294078827E+00
  0.190199697018E+01  0.142853081226E+01  0.436294078827E+00
  0.191142594814E+01  0.335006117821E+00 -0.760520458221E+00
  0.191142594814E+01  0.335006117821E+00  0.760520458221E+00
  0.196138751507E+01  0.000000000000E+00 -0.833668828011E+00
  0.196138751507E+01  0.000000000000E+00  0.833668828011E+00
  0.196292304993E+01  0.724590361118E+00 -0.683996617794E+00
  0.196292304993E+01  0.724590361118E+00  0.683996617794E+00
  0.198961913586E+01  0.169935321808E+01 -0.347333401442E+00
  0.198961913586E+01  0.169935321808E+01  0.347333401442E+00
  0.199016737938E+01  0.199016737938E+01  0.000000000000E+00
  0.202916622162E+01  0.199016737938E+01 -0.109218336642E+00
  0.202916622162E+01  0.199016737938E+01  0.109218336642E+00
  0.209892654419E+01  0.522506594658E+00 -0.760520517826E+00
  0.209892654419E+01  0.522506594658E+00  0.760520517826E+00
  0.211786603928E+01  0.142853081226E+01 -0.522850275040E+00
  0.211786603928E+01  0.142853081226E+01  0.522850275040E+00
  0.212060427666E+01  0.117653930187E+01 -0.604293704033E+00
  0.212060427666E+01  0.117653930187E+01  0.604293704033E+00
  0.212252616882E+01  0.161138445139E+00 -0.833668828011E+00
  0.212252616882E+01  0.161138445139E+00  0.833668828011E+00
  0.213783311844E+01  0.199016737938E+01 -0.234920784831E+00
  0.213783311844E+01  0.199016737938E+01  0.234920784831E+00
  0.217281937599E+01  0.169935321808E+01 -0.436294138432E+00
  0.217281937599E+01  0.169935321808E+01  0.436294138432E+00
  0.218058681488E+01  0.942254066467E+00 -0.683996677399E+00
  0.218058681488E+01  0.942254066467E+00  0.683996677399E+00
  0.228043341637E+01  0.199016737938E+01 -0.347333431244E+00
  0.228043341637E+01  0.199016737938E+01  0.347333431244E+00
  0.229639387131E+01  0.335006117821E+00 -0.833668887615E+00
  0.229639387131E+01  0.335006117821E+00  0.833668887615E+00
  0.230101037025E+01  0.724590361118E+00 -0.760520577431E+00
  0.230101037025E+01  0.724590361118E+00  0.760520577431E+00
  0.230216526985E+01  0.230216526985E+01  0.000000000000E+00
  0.234116411209E+01  0.230216526985E+01 -0.109218344092E+00
  0.234116411209E+01  0.230216526985E+01  0.109218344092E+00
  0.237259578705E+01  0.142853081226E+01 -0.604293763638E+00
  0.237259578705E+01  0.142853081226E+01  0.604293763638E+00
  0.238868856430E+01  0.169935321808E+01 -0.522850275040E+00
  0.238868856430E+01  0.169935321808E+01  0.522850275040E+00
  0.239635515213E+01  0.000000000000E+00 -0.902061045170E+00
  0.239635515213E+01  0.000000000000E+00  0.902061045170E+00
  0.241487216949E+01  0.117653930187E+01 -0.683996737003E+00
  0.241487216949E+01  0.117653930187E+01  0.683996737003E+00
  0.244983124733E+01  0.230216526985E+01 -0.234920799732E+00
  0.244983124733E+01  0.230216526985E+01  0.234920799732E+00
  0.246363353729E+01  0.199016737938E+01 -0.436294168234E+00
  0.246363353729E+01  0.199016737938E+01  0.436294168234E+00
[...]
CELL_DATA               13888
SCALARS C_p_inc float 1
LOOKUP_TABLE default
  0.213345476414E+00
  0.185026426894E+00
  0.156860624490E+00
  0.131336419072E+00
  0.126854737159E+00
  0.110371395897E+00
  0.106522107305E+00
  0.957824183195E-01
  0.918225344715E-01
  0.842219437842E-01
  0.800931651336E-01
  0.743790266153E-01
  0.701138703003E-01
  0.656286515126E-01
  0.612324118791E-01
  0.575737614658E-01
  0.529506265781E-01
  0.498179380012E-01
  0.447482112868E-01
  0.419076461278E-01
  0.364661200024E-01
  0.338993562035E-01
  0.284588996867E-01
  0.262193239868E-01
  0.206542207304E-01
  0.185699957250E-01
  0.118762484680E-01
  0.959041321384E-02
  0.296576169647E-02
  0.100427604132E-02
 -0.593831893259E-02
 -0.798622689077E-02
 -0.165628145044E-01
 -0.189635463480E-01
 -0.249223796434E-01
 -0.262649478148E-01
 -0.323144244776E-01
 -0.340781302784E-01
 -0.372119989447E-01
 -0.378248063252E-01
 -0.410501887688E-01
 -0.402208945271E-01
 -0.400079193622E-01
 -0.404153692244E-01
 -0.333294526031E-01
 -0.348869580661E-01
 -0.256199033782E-01
 -0.276298742270E-01
 -0.126407784788E-02
 -0.814079840135E-02
  0.319780102715E-01
  0.236771096670E-01
  0.680453960183E-01
  0.584116379779E-01
  0.106045570397E+00
  0.951824565925E-01
  0.144659749718E+00
  0.132767659205E+00
  0.182311260268E+00
  0.169351698758E+00
  0.222125308973E+00
  0.206511792445E+00
  0.267972349008E+00
  0.248668925658E+00
  0.319055613430E+00
  0.296320941381E+00
  0.377671448519E+00
  0.350783269624E+00
  0.441034878912E+00
  0.410807508840E+00
  0.520720164810E+00
  0.486121218953E+00
  0.608000629425E+00
  0.574152385219E+00
  0.726852515361E+00
  0.710083994712E+00
  0.820759548583E+00
  0.829141962681E+00
  0.812059338448E+00
  0.780826555060E+00
  0.494400697369E+00
  0.580822995641E+00
  0.183212893700E+00
  0.322596778113E+00
 -0.951471078400E-01
  0.814389349808E-01
 -0.236440623499E+00
 -0.107686175083E+00
 -0.262940115827E+00
 -0.173976084655E+00
 -0.300751803099E+00
 -0.242548153087E+00
 -0.325347534056E+00
 -0.282437656287E+00
 -0.351804958549E+00
 -0.321314984032E+00
 -0.373087285106E+00
 -0.350674319829E+00
 -0.389973832581E+00
 -0.374716598878E+00
 -0.402496633030E+00
 -0.391572247575E+00
 -0.417227655125E+00
 -0.407571820134E+00
 -0.435323500904E+00
 -0.426946551244E+00
 -0.453057636166E+00
 -0.446290583262E+00
 -0.468363206150E+00
 -0.463320871020E+00
 -0.480023473548E+00
 -0.476785214408E+00
 -0.474852976637E+00
 -0.478320232259E+00
 -0.454366493997E+00
 -0.457813144955E+00
 -0.433849078834E+00
 -0.438396923617E+00
 -0.407659303445E+00
 -0.413437529647E+00
 -0.384795114420E+00
 -0.379791160268E+00
 -0.357556935222E+00
 -0.351305344611E+00
 -0.326832973482E+00
 -0.321343804989E+00
 -0.298496369229E+00
 -0.291820624473E+00
 -0.267080629925E+00
 -0.260970070091E+00
 -0.239621652541E+00
 -0.233669239544E+00
 -0.213902324379E+00
 -0.207551519801E+00
 -0.188804747326E+00
 -0.182645659676E+00
 -0.166275977082E+00
 -0.159816717313E+00
 -0.144531525992E+00
 -0.137514198409E+00
 -0.123120442174E+00
 -0.115546375922E+00
 -0.102438065097E+00
 -0.942060408515E-01
 -0.824260784705E-01
 -0.731660463477E-01
 -0.624347470885E-01
 -0.516739834289E-01
 -0.418740011800E-01
 -0.289765810962E-01
 -0.201186123839E-01
 -0.407592168785E-02
  0.379305551571E-02
  0.248077855993E-01
  0.317650090989E-01
  0.613627725487E-01
  0.684135834674E-01
  0.111746128240E+00
  0.143742771146E+00
  0.198826985304E+00
  0.218978140703E+00
  0.211557247601E+00
  0.162783079525E+00
  0.156483116067E+00
  0.137988432358E+00
  0.126756819895E+00
  0.117153330381E+00
  0.106487699167E+00
  0.100141819626E+00
  0.918060145069E-01
  0.864744726354E-01
  0.800837459452E-01
  0.751246685855E-01
  0.701079554949E-01
  0.652934666487E-01
  0.612284406249E-01
  0.563656796637E-01
  0.529479549733E-01
  0.477379204810E-01
  0.447469745538E-01
  0.391357601738E-01
  0.364664535207E-01
  0.308387525842E-01
  0.284601614521E-01
  0.228485302953E-01
  0.206561394320E-01
  0.140434272331E-01
  0.118804945708E-01
  0.496494721952E-02
  0.297013213980E-02
 -0.398522889118E-02
 -0.593269727750E-02
 -0.146066519669E-01
 -0.165550405989E-01
 -0.235257334323E-01
 -0.249263994904E-01
 -0.310708250771E-01
 -0.323222822025E-01
 -0.366712393099E-01
 -0.372435712857E-01
 -0.402855969897E-01
 -0.400386190434E-01
 -0.404831868944E-01
 -0.412479029847E-01
 -0.349399098168E-01
 -0.368772341630E-01
 -0.276872397791E-01
 -0.308957477773E-01
 -0.804237689891E-02
 -0.143321862349E-01
  0.238524042787E-01
  0.158502152980E-01
  0.586201165779E-01
  0.494548216925E-01
  0.953768640400E-01
  0.852859902477E-01
  0.132890660818E+00
  0.122054148079E+00
  0.169369952012E+00
  0.157736557658E+00
  0.206360089573E+00
  0.193452928876E+00
  0.248054607655E+00
  0.233678849767E+00
  0.294714552632E+00
  0.279226398714E+00
  0.347118896278E+00
  0.331208360823E+00
  0.403544312651E+00
  0.388163662352E+00
  0.470537303874E+00
  0.457713481896E+00
  0.544154667591E+00
  0.535693221878E+00
  0.639021602779E+00
  0.638452803567E+00
  0.707982240496E+00
  0.705206850841E+00
  0.644415273904E+00
  0.610691918847E+00
  0.329881511149E+00
  0.372855305297E+00
  0.641335155385E-01
  0.136087285594E+00
 -0.192093212404E+00
 -0.101180113062E+00
 -0.317875724267E+00
 -0.227215227025E+00
 -0.327871790458E+00
 -0.258060070274E+00
 -0.353282286007E+00
 -0.298151742232E+00
 -0.366704932763E+00
 -0.324195791170E+00
 -0.384427022639E+00
 -0.351558888962E+00
 -0.398397836128E+00
 -0.373328560294E+00
 -0.409299264052E+00
 -0.390496725009E+00
 -0.417486747846E+00
 -0.403035794455E+00
 -0.429565603458E+00
 -0.417676410880E+00
 -0.445641921209E+00
 -0.435761696991E+00
 -0.461415981442E+00
 -0.453535001665E+00
 -0.474665292444E+00
 -0.468904320387E+00
 -0.483715071528E+00
 -0.480692121393E+00
 -0.474240305462E+00
 -0.475637042724E+00
 -0.452112532565E+00
 -0.454942701281E+00
 -0.430229246080E+00
 -0.434333811639E+00
 -0.402916049881E+00
 -0.408036786257E+00
 -0.379795857648E+00
 -0.374983066889E+00
 -0.351263891911E+00
 -0.345747219765E+00
 -0.321309106629E+00
 -0.315742695750E+00
 -0.291767381673E+00
 -0.285610255600E+00
 -0.260932183549E+00
 -0.254837143794E+00
 -0.233639865366E+00
 -0.227500406373E+00
 -0.207526542542E+00
 -0.201145715282E+00
 -0.182630027604E+00
 -0.176125567641E+00
 -0.159805186183E+00
 -0.152933445495E+00
 -0.137506959691E+00
 -0.130084620096E+00
 -0.115544652100E+00
 -0.107466385657E+00
 -0.942093473682E-01
 -0.852681475536E-01
 -0.731739838947E-01
 -0.630109442807E-01
 -0.516880506318E-01
 -0.398251466606E-01
 -0.290005418343E-01
 -0.148015028986E-01
 -0.411855488366E-02
  0.132150017438E-01
  0.247207232637E-01
  0.456231983611E-01
  0.611288295147E-01
  0.829520815912E-01
  0.110887146791E+00
  0.124076533926E+00
  0.194640581906E+00
  0.189124544229E+00
  0.217512559573E+00
  0.217588970057E+00
  0.164110015493E+00
  0.162265016108E+00
  0.141818112128E+00
  0.137719589708E+00
  0.123592464247E+00
  0.117036834966E+00
  0.107293914072E+00
  0.100089890022E+00
  0.928662644550E-01
  0.864479261698E-01
  0.804359503046E-01
  0.751093583116E-01
  0.696722963252E-01
  0.652838641976E-01
  0.600386450878E-01
  0.563594746330E-01
  0.509090418565E-01
  0.477345422458E-01
  0.419436015575E-01
  0.391352576568E-01
  0.333494535688E-01
  0.308404260457E-01
  0.251344543609E-01
  0.228516177823E-01
  0.162156686421E-01
  0.140493066367E-01
  0.700282983900E-02
  0.497314962246E-02
 -0.206551866382E-02
 -0.397542255184E-02
 -0.127757802780E-01
 -0.145944450347E-01
 -0.220949632354E-01
 -0.235234612701E-01
 -0.299796243119E-01
 -0.310787853379E-01
 -0.361510075028E-01
 -0.367091039310E-01
 -0.401204653698E-01
 -0.400741335430E-01
 -0.413069586420E-01
 -0.421655709907E-01
 -0.368783122283E-01
 -0.389253295833E-01
 -0.308115399336E-01
 -0.342475875498E-01
 -0.140268517891E-01
 -0.197656583311E-01
  0.162573696160E-01
  0.870612639907E-02
  0.498601381657E-01
  0.412288447655E-01
  0.855983287645E-01
  0.762162736617E-01
  0.122185141285E+00
  0.112272714194E+00
  0.157631391710E+00
  0.147254267567E+00
  0.192986662019E+00
  0.182076767236E+00
  0.232483640828E+00
  0.221108028392E+00
  0.276748317966E+00
  0.265288564207E+00
  0.326538246885E+00
  0.315729574234E+00
  0.380202759308E+00
  0.370845576907E+00
  0.443978507003E+00
  0.437445886492E+00
  0.513958921762E+00
  0.510894671646E+00
  0.602752950164E+00
  0.602743386769E+00
  0.658206492732E+00
  0.651836798628E+00
  0.566540144264E+00
  0.534605546620E+00
  0.236907900878E+00
  0.272956397173E+00
 -0.195954352139E-01
  0.368412980469E-01
 -0.268701515398E+00
 -0.197423202340E+00
 -0.384264783806E+00
 -0.310611891115E+00
 -0.382249665886E+00
 -0.322198869583E+00
 -0.398740800964E+00
 -0.348604673668E+00
 -0.404012857946E+00
 -0.363572729021E+00
 -0.415003208661E+00
 -0.382385363274E+00
 -0.423056904953E+00
 -0.397217769579E+00
 -0.429042671332E+00
 -0.408720662119E+00
 -0.433454158402E+00
 -0.417246755239E+00
 -0.442779463508E+00
 -0.429490472286E+00
 -0.456624313653E+00
 -0.445710680340E+00
 -0.470279349406E+00
 -0.461656434953E+00
 -0.481290432122E+00
 -0.475118116821E+00
 -0.487407861960E+00
 -0.484494600585E+00
 -0.474642459172E+00
 -0.475274893912E+00
 -0.450547989078E+00
 -0.453024831113E+00
 -0.427136923620E+00
 -0.431060610471E+00
 -0.398715549041E+00
 -0.403611262282E+00
 -0.374962144842E+00
 -0.370275780565E+00
 -0.345675320596E+00
 -0.340399127617E+00
 -0.315664374672E+00
 -0.310052914966E+00
 -0.285525544790E+00
 -0.279476568101E+00
 -0.254771777846E+00
 -0.248624260062E+00
 -0.227447271196E+00
 -0.221129562941E+00
 -0.201105092329E+00
 -0.194550192175E+00
 -0.176097297966E+00
 -0.169280238872E+00
 -0.152912811274E+00
 -0.145648043845E+00
 -0.130072785777E+00
 -0.122212012060E+00
 -0.107464485037E+00
 -0.988586357840E-01
 -0.852757722860E-01
 -0.756825724625E-01
 -0.630293987666E-01
 -0.521246913624E-01
 -0.398599955930E-01
 -0.273059388881E-01
 -0.148660849350E-01
 -0.488147182618E-03
  0.130870337561E-01
  0.286990911368E-01
  0.453408873979E-01
  0.597733639811E-01
  0.823096591705E-01
  0.919396066721E-01
  0.122854746145E+00
  0.126199114886E+00
  0.187301899591E+00
  0.186551948914E+00
  0.211384422404E+00
  0.216506601691E+00
  0.162579537838E+00
  0.163609402973E+00
  0.142503540879E+00
  0.141502598711E+00
  0.126324623098E+00
  0.123402428464E+00
  0.111790764995E+00
  0.107190577974E+00
  0.981361621465E-01
  0.928119625321E-01
  0.855151234188E-01
  0.804060496663E-01
  0.741543114671E-01
  0.696547003417E-01
  0.638958530515E-01
  0.600279450814E-01
  0.542493280146E-01
  0.509032537291E-01
  0.448882361612E-01
  0.419421424272E-01
  0.359803707055E-01
  0.333513273907E-01
  0.275142264171E-01
  0.251385744227E-01
  0.184257019833E-01
  0.162231277336E-01
  0.907127730781E-02
  0.701360702209E-02
 -0.152430821929E-03
 -0.205311368160E-02
 -0.110075995852E-01
 -0.127615623817E-01
 -0.206491250850E-01
 -0.220894384434E-01
 -0.289525638422E-01
 -0.299902296395E-01
 -0.356403146271E-01
 -0.361929872794E-01
 -0.401597529693E-01
 -0.402011546144E-01
 -0.422163706046E-01
 -0.431052467685E-01
 -0.388969369638E-01
 -0.409478633916E-01
 -0.340967579672E-01
 -0.375367058777E-01
 -0.194100810876E-01
 -0.246905911294E-01
  0.916839892321E-02
  0.215426389580E-02
  0.416654244581E-01
  0.336091907247E-01
  0.765129203746E-01
  0.678304092068E-01
  0.112326530287E+00
  0.103290199809E+00
  0.146995149981E+00
  0.137753809975E+00
  0.181370557096E+00
  0.172033266694E+00
  0.219622649255E+00
  0.210403699045E+00
  0.262562887510E+00
  0.253829221439E+00
  0.311087882262E+00
  0.303429131174E+00
  0.363583204743E+00
  0.357599684848E+00
  0.426137562403E+00
  0.422645318187E+00
  0.494658974678E+00
  0.493720596874E+00
  0.579398929068E+00
  0.579130673054E+00
  0.624310319119E+00
  0.616271076137E+00
  0.510520108252E+00
  0.479949485364E+00
  0.165001961878E+00
  0.198011743477E+00
 -0.876073757115E-01
 -0.387952846494E-01
 -0.333486297950E+00
 -0.272432297168E+00
 -0.441889472770E+00
 -0.378185554772E+00
 -0.430377724456E+00
 -0.376877574105E+00
 -0.439865797635E+00
 -0.393842253422E+00
 -0.438621200489E+00
 -0.400338678339E+00
 -0.444096449858E+00
 -0.412301467558E+00
 -0.447229760581E+00
 -0.421223238907E+00
 -0.449024285651E+00
 -0.427872803639E+00
 -0.449993081454E+00
 -0.432747191208E+00
 -0.456590551109E+00
 -0.442381376389E+00
 -0.468121232107E+00
 -0.456485209407E+00
 -0.479540216513E+00
 -0.470415781566E+00
 -0.488129595648E+00
 -0.481756913477E+00
 -0.491259830005E+00
 -0.488318956143E+00
 -0.475660522121E+00
 -0.475820084878E+00
 -0.449457687446E+00
 -0.451680173450E+00
 -0.424425865356E+00
 -0.428206625684E+00
 -0.394859903873E+00
 -0.399638052222E+00
 -0.370260807820E+00
 -0.365677104824E+00
 -0.340321458616E+00
 -0.335161941221E+00
 -0.309951839844E+00
 -0.304314076099E+00
 -0.279371233208E+00
 -0.273347013330E+00
 -0.248537593089E+00
 -0.242303948910E+00
 -0.221056600598E+00
 -0.214570319350E+00
 -0.194493780615E+00
 -0.187725644849E+00
 -0.169238939210E+00
 -0.162107635060E+00
 -0.145617829464E+00
 -0.137974544750E+00
 -0.122194740033E+00
 -0.113904516976E+00
 -0.988560283890E-01
 -0.897591447885E-01
 -0.756956926384E-01
 -0.655927435488E-01
 -0.521583134596E-01
 -0.408939233586E-01
 -0.273731792064E-01
 -0.150350248681E-01
 -0.618118289245E-03
  0.120813057290E-01
  0.284478253628E-01
  0.398935713636E-01
  0.593137693109E-01
  0.677928801168E-01
  0.912090174005E-01
  0.964057712743E-01
  0.125215874606E+00
  0.128486170299E+00
  0.185194528791E+00
  0.189951115804E+00
  0.208814184199E+00
  0.210923085937E+00
  0.160980225756E+00
  0.162198048134E+00
  0.141995553052E+00
  0.142211378322E+00
  0.127126613609E+00
  0.126115187702E+00
  0.114045997462E+00
  0.111651279939E+00
  0.101661796248E+00
  0.980509581386E-01
  0.897043421029E-01
  0.854655993324E-01
  0.783582738921E-01
  0.741254586263E-01
  0.677617484101E-01
  0.638788698540E-01
  0.576914574822E-01
  0.542401790238E-01
  0.479459906537E-01
  0.448852453992E-01
  0.387172139952E-01
  0.359819961873E-01
  0.299841845331E-01
  0.275190297965E-01
  0.206893874740E-01
  0.184343956896E-01
  0.111686351967E-01
  0.908384996871E-02
  0.176917994196E-02
 -0.138127112495E-03
 -0.927061781715E-02
 -0.109922141039E-01
 -0.192043225347E-01
 -0.206418734206E-01
 -0.279414241366E-01
 -0.289650057312E-01
 -0.351354431742E-01
 -0.356855285005E-01
 -0.402901536053E-01
 -0.403501723002E-01
 -0.431515544694E-01
 -0.440367537787E-01
 -0.409049630232E-01
 -0.428931057912E-01
 -0.373556775053E-01
 -0.406780625613E-01
 -0.243260394444E-01
 -0.292077064986E-01
  0.261892553876E-02
 -0.378955334408E-02
  0.340369461940E-01
  0.266221364670E-01
  0.680920548228E-01
  0.601369181736E-01
  0.103274650528E+00
  0.950953909886E-01
  0.137384959751E+00
  0.129183666192E+00
  0.171186323325E+00
  0.163156951410E+00
  0.208801433203E+00
  0.201227149154E+00
  0.251113844521E+00
  0.244334759207E+00
  0.299113815874E+00
  0.293581255041E+00
  0.351242833113E+00
  0.347370624287E+00
  0.413388982956E+00
  0.411622204407E+00
  0.481268643701E+00
  0.481341636132E+00
  0.562724566845E+00
  0.562148321788E+00
  0.598541994824E+00
  0.589684447083E+00
  0.465414477859E+00
  0.436015305974E+00
  0.104387625792E+00
  0.135875382850E+00
 -0.146426413715E+00
 -0.102050782785E+00
 -0.390866601306E+00
 -0.336105954486E+00
 -0.493740571054E+00
 -0.436588538833E+00
 -0.474186792100E+00
 -0.425412302969E+00
 -0.477849987093E+00
 -0.435100800777E+00
 -0.471131374198E+00
 -0.434805292997E+00
 -0.471951565679E+00
 -0.441093974885E+00
 -0.470880867954E+00
 -0.445014169755E+00
 -0.468993689324E+00
 -0.447465266002E+00
 -0.466771066823E+00
 -0.448960058276E+00
 -0.470703831811E+00
 -0.455958408915E+00
 -0.479893900713E+00
 -0.467839088525E+00
 -0.488999077249E+00
 -0.479627541058E+00
 -0.495046796441E+00
 -0.488652009906E+00
 -0.495335161655E+00
 -0.492285070401E+00
 -0.477107827424E+00
 -0.476956531600E+00
 -0.448736663241E+00
 -0.450766752303E+00
 -0.422040234573E+00
 -0.425688714593E+00
 -0.391253927050E+00
 -0.395975275159E+00
 -0.365686042397E+00
 -0.361193791176E+00
 -0.335091107878E+00
 -0.329983812538E+00
 -0.304203828829E+00
 -0.298555958230E+00
 -0.273229837751E+00
 -0.267188093280E+00
 -0.242201987619E+00
 -0.235862389880E+00
 -0.214482223793E+00
 -0.207828169668E+00
 -0.187655958115E+00
 -0.180655624174E+00
 -0.162055073287E+00
 -0.154616556314E+00
 -0.137936280605E+00
 -0.129939803943E+00
 -0.113883280441E+00
 -0.105214223271E+00
 -0.897579476817E-01
 -0.803025936186E-01
 -0.656153976672E-01
 -0.553228706322E-01
 -0.409504101157E-01
 -0.299941209564E-01
 -0.151469839762E-01
 -0.414843642899E-02
  0.118773434058E-01
  0.218155820329E-01
  0.395540746859E-01
  0.474143394519E-01
  0.672895613534E-01
  0.728495122838E-01
  0.957285152171E-01
  0.994621916187E-01
  0.127594052520E+00
  0.130093195329E+00
  0.188394487310E+00
  0.189855110025E+00
  0.214437157041E+00
  0.208510263689E+00
  0.161624542494E+00
  0.160701661370E+00
  0.141815963059E+00
  0.141753002439E+00
  0.127286214990E+00
  0.126930331152E+00
  0.115035746713E+00
  0.113896764260E+00
  0.103697993861E+00
  0.101556458416E+00
  0.926857757762E-01
  0.896356023961E-01
  0.818803027583E-01
  0.783158907570E-01
  0.713681718048E-01
  0.677365077711E-01
  0.610995077124E-01
  0.576776717603E-01
  0.510572520388E-01
  0.479406765918E-01
  0.415313502625E-01
  0.387180388055E-01
  0.325316358121E-01
  0.299892469694E-01
  0.230107840500E-01
  0.206989705010E-01
  0.132988089684E-01
  0.111824830752E-01
  0.370790477151E-02
  0.178496733928E-02
 -0.754331041974E-02
 -0.925431056289E-02
 -0.177622718018E-01
 -0.191959382398E-01
 -0.269195003782E-01
 -0.279538229877E-01
 -0.346214486705E-01
 -0.351817438736E-01
 -0.404420687744E-01
 -0.404746066330E-01
 -0.440799138459E-01
 -0.449230848023E-01
 -0.428434662344E-01
 -0.447163667037E-01
 -0.404864647875E-01
 -0.436083898740E-01
 -0.288496684988E-01
 -0.333362512145E-01
 -0.334647925269E-02
 -0.913098646734E-02
  0.270220401187E-01
  0.202963683574E-01
  0.603586684874E-01
  0.531499234878E-01
  0.950254363802E-01
  0.876804802869E-01
  0.128746330081E+00
  0.121504039852E+00
  0.162242856943E+00
  0.155338539145E+00
  0.199612135146E+00
  0.193349694091E+00
  0.241749675832E+00
  0.236438845616E+00
  0.289680380253E+00
  0.285664443405E+00
  0.341881265552E+00
  0.339429830099E+00
  0.404013643073E+00
  0.403323168783E+00
  0.471591074072E+00
  0.472205713147E+00
  0.550145237889E+00
  0.549318694646E+00
  0.577706463545E+00
  0.568444093547E+00
  0.426837335649E+00
  0.398424789230E+00
  0.507319622727E-01
  0.814267620870E-01
 -0.199281705492E+00
 -0.157735279686E+00
 -0.443219323803E+00
 -0.392697731437E+00
 -0.541513347762E+00
 -0.489011053141E+00
 -0.514836102969E+00
 -0.469620195940E+00
 -0.513445404779E+00
 -0.473335106142E+00
 -0.501971232084E+00
 -0.467359108299E+00
 -0.498758323065E+00
 -0.468847928792E+00
 -0.494001539987E+00
 -0.468470750215E+00
 -0.488796117899E+00
 -0.467209082409E+00
 -0.483580722128E+00
 -0.465537842856E+00
 -0.484918446588E+00
 -0.469925980195E+00
 -0.491757764383E+00
 -0.479531524953E+00
 -0.498490942883E+00
 -0.489081135621E+00
 -0.501960682485E+00
 -0.495637968766E+00
 -0.499591402547E+00
 -0.496444804780E+00
 -0.478847456101E+00
 -0.478502700639E+00
 -0.448297569039E+00
 -0.450188420329E+00
 -0.419918948795E+00
 -0.423460853671E+00
 -0.387834286532E+00
 -0.392535056870E+00
 -0.361237186379E+00
 -0.356814286645E+00
 -0.329927511600E+00
 -0.324837739397E+00
 -0.298446928864E+00
 -0.292787938011E+00
 -0.267066150653E+00
 -0.260978484405E+00
 -0.235750552674E+00
 -0.229293978854E+00
 -0.207729236385E+00
 -0.200903387478E+00
 -0.180575408380E+00
 -0.173341948381E+00
 -0.154554926135E+00
 -0.146834306329E+00
 -0.129895484292E+00
 -0.121602551989E+00
 -0.105191224891E+00
 -0.962626060741E-01
 -0.803060144362E-01
 -0.707490976471E-01
 -0.553600686228E-01
 -0.453653583642E-01
 -0.300796323323E-01
 -0.201561141263E-01
 -0.430547392261E-02
  0.474555206386E-02