# vtk DataFile Version 3.0
MachLine results file. Generated by MachLine, USU AeroLab (c) 2022.
ASCII
DATASET POLYDATA
POINTS                 781 float
  0.114300523028E+02  0.000000000000E+00  0.000000000000E+00
  0.110490505593E+02  0.333333333333E-01  0.000000000000E+00
  0.110490505593E+02  0.330704900438E-01  0.417777445214E-02
  0.110490505593E+02  0.322861053710E-01  0.828966290550E-02
  0.110490505593E+02  0.309925495296E-01  0.122708184228E-01
  0.110490505593E+02  0.292102226681E-01  0.160584558034E-01
  0.110490505593E+02  0.269672331458E-01  0.195928417431E-01
  0.110490505593E+02  0.242989542474E-01  0.228182368643E-01
  0.110490505593E+02  0.212474663250E-01  0.256837747592E-01
  0.110490505593E+02  0.178608931660E-01  0.281442641834E-01
  0.110490505593E+02  0.141926430522E-01  0.301609017489E-01
  0.110490505593E+02  0.103005664792E-01  0.317018838765E-01
  0.110490505593E+02  0.624604381952E-02  0.327429083576E-01
  0.110490505593E+02  0.209301731764E-02  0.332675576143E-01
  0.110490505593E+02 -0.209301731764E-02  0.332675576143E-01
  0.110490505593E+02 -0.624604381952E-02  0.327429083576E-01
  0.110490505593E+02 -0.103005664792E-01  0.317018838765E-01
  0.110490505593E+02 -0.141926430522E-01  0.301609017489E-01
  0.110490505593E+02 -0.178608931660E-01  0.281442641834E-01
  0.110490505593E+02 -0.212474663250E-01  0.256837747592E-01
  0.110490505593E+02 -0.242989542474E-01  0.228182368643E-01
  0.110490505593E+02 -0.269672331458E-01  0.195928417431E-01
  0.110490505593E+02 -0.292102226681E-01  0.160584558034E-01
  0.110490505593E+02 -0.309925495296E-01  0.122708184228E-01
  0.110490505593E+02 -0.322861053710E-01  0.828966290550E-02
  0.110490505593E+02 -0.330704900438E-01  0.417777445214E-02
  0.110490505593E+02 -0.333333333333E-01  0.408215599716E-17
  0.106680488159E+02  0.666666666667E-01  0.000000000000E+00
  0.106680488159E+02  0.661409800876E-01  0.835554890429E-02
  0.106680488159E+02  0.645722107419E-01  0.165793258110E-01
  0.106680488159E+02  0.619850990592E-01  0.245416368456E-01
  0.106680488159E+02  0.584204453363E-01  0.321169116068E-01
  0.106680488159E+02  0.539344662917E-01  0.391856834862E-01
  0.106680488159E+02  0.485979084948E-01  0.456364737286E-01
  0.106680488159E+02  0.424949326499E-01  0.513675495184E-01
  0.106680488159E+02  0.357217863319E-01  0.562885283668E-01
  0.106680488159E+02  0.283852861043E-01  0.603218034977E-01
  0.106680488159E+02  0.206011329583E-01  0.634037677530E-01
  0.106680488159E+02  0.124920876390E-01  0.654858167152E-01
  0.106680488159E+02  0.418603463529E-02  0.665351152286E-01
  0.106680488159E+02 -0.418603463529E-02  0.665351152286E-01
  0.106680488159E+02 -0.124920876390E-01  0.654858167152E-01
  0.106680488159E+02 -0.206011329583E-01  0.634037677530E-01
  0.106680488159E+02 -0.283852861043E-01  0.603218034977E-01
  0.106680488159E+02 -0.357217863319E-01  0.562885283668E-01
  0.106680488159E+02 -0.424949326499E-01  0.513675495184E-01
  0.106680488159E+02 -0.485979084948E-01  0.456364737286E-01
  0.106680488159E+02 -0.539344662917E-01  0.391856834862E-01
  0.106680488159E+02 -0.584204453363E-01  0.321169116068E-01
  0.106680488159E+02 -0.619850990592E-01  0.245416368456E-01
  0.106680488159E+02 -0.645722107419E-01  0.165793258110E-01
  0.106680488159E+02 -0.661409800876E-01  0.835554890429E-02
  0.106680488159E+02 -0.666666666667E-01  0.816431199432E-17
  0.102870470725E+02  0.100000000000E+00  0.000000000000E+00
  0.102870470725E+02  0.992114701314E-01  0.125333233564E-01
  0.102870470725E+02  0.968583161129E-01  0.248689887165E-01
  0.102870470725E+02  0.929776485888E-01  0.368124552685E-01
  0.102870470725E+02  0.876306680044E-01  0.481753674102E-01
  0.102870470725E+02  0.809016994375E-01  0.587785252292E-01
  0.102870470725E+02  0.728968627421E-01  0.684547105929E-01
  0.102870470725E+02  0.637423989749E-01  0.770513242776E-01
  0.102870470725E+02  0.535826794979E-01  0.844327925502E-01
  0.102870470725E+02  0.425779291565E-01  0.904827052466E-01
  0.102870470725E+02  0.309016994375E-01  0.951056516295E-01
  0.102870470725E+02  0.187381314586E-01  0.982287250729E-01
  0.102870470725E+02  0.627905195293E-02  0.998026728428E-01
  0.102870470725E+02 -0.627905195293E-02  0.998026728428E-01
  0.102870470725E+02 -0.187381314586E-01  0.982287250729E-01
  0.102870470725E+02 -0.309016994375E-01  0.951056516295E-01
  0.102870470725E+02 -0.425779291565E-01  0.904827052466E-01
  0.102870470725E+02 -0.535826794979E-01  0.844327925502E-01
  0.102870470725E+02 -0.637423989749E-01  0.770513242776E-01
  0.102870470725E+02 -0.728968627421E-01  0.684547105929E-01
  0.102870470725E+02 -0.809016994375E-01  0.587785252292E-01
  0.102870470725E+02 -0.876306680044E-01  0.481753674102E-01
  0.102870470725E+02 -0.929776485888E-01  0.368124552685E-01
  0.102870470725E+02 -0.968583161129E-01  0.248689887165E-01
  0.102870470725E+02 -0.992114701314E-01  0.125333233564E-01
  0.102870470725E+02 -0.100000000000E+00  0.122464679915E-16
  0.990604532906E+01  0.133333333333E+00  0.000000000000E+00
  0.990604532906E+01  0.132281960175E+00  0.167110978086E-01
  0.990604532906E+01  0.129144421484E+00  0.331586516220E-01
  0.990604532906E+01  0.123970198118E+00  0.490832736913E-01
  0.990604532906E+01  0.116840890673E+00  0.642338232136E-01
  0.990604532906E+01  0.107868932583E+00  0.783713669723E-01
  0.990604532906E+01  0.971958169895E-01  0.912729474572E-01
  0.990604532906E+01  0.849898652998E-01  0.102735099037E+00
  0.990604532906E+01  0.714435726639E-01  0.112577056734E+00
  0.990604532906E+01  0.567705722087E-01  0.120643606995E+00
  0.990604532906E+01  0.412022659167E-01  0.126807535506E+00
  0.990604532906E+01  0.249841752781E-01  0.130971633430E+00
  0.990604532906E+01  0.837206927058E-02  0.133070230457E+00
  0.990604532906E+01 -0.837206927058E-02  0.133070230457E+00
  0.990604532906E+01 -0.249841752781E-01  0.130971633430E+00
  0.990604532906E+01 -0.412022659167E-01  0.126807535506E+00
  0.990604532906E+01 -0.567705722087E-01  0.120643606995E+00
  0.990604532906E+01 -0.714435726639E-01  0.112577056734E+00
  0.990604532906E+01 -0.849898652998E-01  0.102735099037E+00
  0.990604532906E+01 -0.971958169895E-01  0.912729474572E-01
  0.990604532906E+01 -0.107868932583E+00  0.783713669723E-01
  0.990604532906E+01 -0.116840890673E+00  0.642338232136E-01
  0.990604532906E+01 -0.123970198118E+00  0.490832736913E-01
  0.990604532906E+01 -0.129144421484E+00  0.331586516220E-01
  0.990604532906E+01 -0.132281960175E+00  0.167110978086E-01
  0.990604532906E+01 -0.133333333333E+00  0.163286239886E-16
  0.952504358563E+01  0.166666666667E+00  0.000000000000E+00
  0.952504358563E+01  0.165352450219E+00  0.208888722607E-01
  0.952504358563E+01  0.161430526855E+00  0.414483145275E-01
  0.952504358563E+01  0.154962747648E+00  0.613540921141E-01
  0.952504358563E+01  0.146051113341E+00  0.802922790170E-01
  0.952504358563E+01  0.134836165729E+00  0.979642087154E-01
  0.952504358563E+01  0.121494771237E+00  0.114091184321E+00
  0.952504358563E+01  0.106237331625E+00  0.128418873796E+00
  0.952504358563E+01  0.893044658298E-01  0.140721320917E+00
  0.952504358563E+01  0.709632152608E-01  0.150804508744E+00
  0.952504358563E+01  0.515028323958E-01  0.158509419383E+00
  0.952504358563E+01  0.312302190976E-01  0.163714541788E+00
  0.952504358563E+01  0.104650865882E-01  0.166337788071E+00
  0.952504358563E+01 -0.104650865882E-01  0.166337788071E+00
  0.952504358563E+01 -0.312302190976E-01  0.163714541788E+00
  0.952504358563E+01 -0.515028323958E-01  0.158509419383E+00
  0.952504358563E+01 -0.709632152608E-01  0.150804508744E+00
  0.952504358563E+01 -0.893044658298E-01  0.140721320917E+00
  0.952504358563E+01 -0.106237331625E+00  0.128418873796E+00
  0.952504358563E+01 -0.121494771237E+00  0.114091184321E+00
  0.952504358563E+01 -0.134836165729E+00  0.979642087154E-01
  0.952504358563E+01 -0.146051113341E+00  0.802922790170E-01
  0.952504358563E+01 -0.154962747648E+00  0.613540921141E-01
  0.952504358563E+01 -0.161430526855E+00  0.414483145275E-01
  0.952504358563E+01 -0.165352450219E+00  0.208888722607E-01
  0.952504358563E+01 -0.166666666667E+00  0.204107799858E-16
  0.914404184221E+01  0.200000000000E+00  0.000000000000E+00
  0.914404184221E+01  0.198422940263E+00  0.250666467129E-01
  0.914404184221E+01  0.193716632226E+00  0.497379774330E-01
  0.914404184221E+01  0.185955297178E+00  0.736249105369E-01
  0.914404184221E+01  0.175261336009E+00  0.963507348203E-01
  0.914404184221E+01  0.161803398875E+00  0.117557050458E+00
  0.914404184221E+01  0.145793725484E+00  0.136909421186E+00
  0.914404184221E+01  0.127484797950E+00  0.154102648555E+00
  0.914404184221E+01  0.107165358996E+00  0.168865585100E+00
  0.914404184221E+01  0.851558583130E-01  0.180965410493E+00
  0.914404184221E+01  0.618033988750E-01  0.190211303259E+00
  0.914404184221E+01  0.374762629171E-01  0.196457450146E+00
  0.914404184221E+01  0.125581039059E-01  0.199605345686E+00
  0.914404184221E+01 -0.125581039059E-01  0.199605345686E+00
  0.914404184221E+01 -0.374762629171E-01  0.196457450146E+00
  0.914404184221E+01 -0.618033988750E-01  0.190211303259E+00
  0.914404184221E+01 -0.851558583130E-01  0.180965410493E+00
  0.914404184221E+01 -0.107165358996E+00  0.168865585100E+00
  0.914404184221E+01 -0.127484797950E+00  0.154102648555E+00
  0.914404184221E+01 -0.145793725484E+00  0.136909421186E+00
  0.914404184221E+01 -0.161803398875E+00  0.117557050458E+00
  0.914404184221E+01 -0.175261336009E+00  0.963507348203E-01
  0.914404184221E+01 -0.185955297178E+00  0.736249105369E-01
  0.914404184221E+01 -0.193716632226E+00  0.497379774330E-01
  0.914404184221E+01 -0.198422940263E+00  0.250666467129E-01
  0.914404184221E+01 -0.200000000000E+00  0.244929359829E-16
  0.876304009878E+01  0.233333333333E+00  0.000000000000E+00
  0.876304009878E+01  0.231493430307E+00  0.292444211650E-01
  0.876304009878E+01  0.226002737597E+00  0.580276403385E-01
  0.876304009878E+01  0.216947846707E+00  0.858957289598E-01
[...]
CELL_DATA                1475
SCALARS C_p_ise float 1
LOOKUP_TABLE default
  0.398373565076E-01
  0.398373564764E-01
  0.398373564750E-01
  0.398373564748E-01
  0.398373564754E-01
  0.398373564750E-01
  0.398373564766E-01
  0.398373564798E-01
  0.398373564816E-01
  0.398373564803E-01
  0.398373564754E-01
  0.398373564736E-01
  0.398373564759E-01
  0.398373564751E-01
  0.398373564727E-01
  0.398373564767E-01
  0.398373564803E-01
  0.398373564772E-01
  0.398373564738E-01
  0.398373564761E-01
  0.398373564776E-01
  0.398373564772E-01
  0.398373564781E-01
  0.398373564764E-01
  0.398373564455E-01
  0.398373561095E-01
  0.398373561749E-01
  0.398373561434E-01
  0.398373561426E-01
  0.398373561493E-01
  0.398373561737E-01
  0.398373561686E-01
  0.398373561538E-01
  0.398373561564E-01
  0.398373561622E-01
  0.398373561581E-01
  0.398373561473E-01
  0.398373561493E-01
  0.398373561508E-01
  0.398373561538E-01
  0.398373561531E-01
  0.398373561536E-01
  0.398373561495E-01
  0.398373561510E-01
  0.398373561595E-01
  0.398373561554E-01
  0.398373561582E-01
  0.398373561554E-01
  0.398373561521E-01
  0.398373561526E-01
  0.398373561472E-01
  0.398373561485E-01
  0.398373561549E-01
  0.398373561523E-01
  0.398373561518E-01
  0.398373561500E-01
  0.398373561326E-01
  0.398373561395E-01
  0.398373561495E-01
  0.398373561491E-01
  0.398373561568E-01
  0.398373561535E-01
  0.398373561537E-01
  0.398373561522E-01
  0.398373561405E-01
  0.398373561458E-01
  0.398373561572E-01
  0.398373561569E-01
  0.398373561570E-01
  0.398373561592E-01
  0.398373561631E-01
  0.398373561625E-01
  0.398373561659E-01
  0.398373561934E-01
  0.398373563682E-01
  0.398373561642E-01
  0.398373561640E-01
  0.398373561633E-01
  0.398373562085E-01
  0.398373561995E-01
  0.398373561225E-01
  0.398373561371E-01
  0.398373561950E-01
  0.398373561889E-01
  0.398373561703E-01
  0.398373561757E-01
  0.398373562136E-01
  0.398373562078E-01
  0.398373561863E-01
  0.398373561818E-01
  0.398373561421E-01
  0.398373561497E-01
  0.398373561866E-01
  0.398373561891E-01
  0.398373562010E-01
  0.398373561974E-01
  0.398373561854E-01
  0.398373561807E-01
  0.398373561671E-01
  0.398373561727E-01
  0.398373562034E-01
  0.398373562008E-01
  0.398373561904E-01
  0.398373561920E-01
  0.398373562023E-01
  0.398373562035E-01
  0.398373562192E-01
  0.398373562060E-01
  0.398373561343E-01
  0.398373561450E-01
  0.398373561839E-01
  0.398373561843E-01
  0.398373561900E-01
  0.398373561823E-01
  0.398373561510E-01
  0.398373561515E-01
  0.398373561469E-01
  0.398373561559E-01
  0.398373561836E-01
  0.398373561825E-01
  0.398373561655E-01
  0.398373561675E-01
  0.398373561743E-01
  0.398373562153E-01
  0.398373562773E-01
  0.398373561197E-01
  0.398373562023E-01
  0.398373561952E-01
  0.398373561502E-01
  0.398373561507E-01
  0.398373561541E-01
  0.398373561458E-01
  0.398373560935E-01
  0.398373560998E-01
  0.398373561053E-01
  0.398373561069E-01
  0.398373561058E-01
  0.398373561056E-01
  0.398373560918E-01
  0.398373560982E-01
  0.398373562040E-01
  0.398373561884E-01
  0.398373560816E-01
  0.398373560975E-01
  0.398373561401E-01
  0.398373561413E-01
  0.398373561577E-01
  0.398373561425E-01
  0.398373560857E-01
  0.398373560821E-01
  0.398373560368E-01
  0.398373560394E-01
  0.398373560329E-01
  0.398373560395E-01
  0.398373560891E-01
  0.398373560887E-01
  0.398373560631E-01
  0.398373560714E-01
  0.398373562002E-01
  0.398373561952E-01
  0.398373561860E-01
  0.398373561833E-01
  0.398373561073E-01
  0.398373561031E-01
  0.398373561199E-01
  0.398373561131E-01
  0.398373561057E-01
  0.398373561038E-01
  0.398373560341E-01
  0.398373560584E-01
  0.398373561984E-01
  0.398373561893E-01
  0.398373561346E-01
  0.398373561817E-01
  0.398373562154E-01
  0.398373562680E-01
  0.398373563250E-01
  0.398373563275E-01
  0.398373563080E-01
  0.398373563062E-01
  0.398373563433E-01
  0.398373563220E-01
  0.398373562011E-01
  0.398373562107E-01
  0.398373563080E-01
  0.398373562974E-01
  0.398373561807E-01
  0.398373561824E-01
  0.398373562005E-01
  0.398373562050E-01
  0.398373562063E-01
  0.398373562281E-01
  0.398373564288E-01
  0.398373564140E-01
  0.398373562734E-01
  0.398373562792E-01
  0.398373562663E-01
  0.398373562561E-01
  0.398373562805E-01
  0.398373562822E-01
  0.398373564032E-01
  0.398373564091E-01
  0.398373564963E-01
  0.398373564870E-01
  0.398373563516E-01
  0.398373563566E-01
  0.398373563416E-01
  0.398373563413E-01
  0.398373562966E-01
  0.398373562872E-01
  0.398373560818E-01
  0.398373560954E-01
  0.398373562543E-01
  0.398373562519E-01
  0.398373563657E-01
  0.398373563653E-01
  0.398373564023E-01
  0.398373563982E-01
  0.398373563878E-01
  0.398373563865E-01
  0.398373562451E-01
  0.398373562565E-01
  0.398373562619E-01
  0.398373563284E-01
  0.398373565724E-01
  0.398373557442E-01
  0.398373557473E-01
  0.398373557445E-01
  0.398373556156E-01
  0.398373555975E-01
  0.398373554419E-01
  0.398373554619E-01
  0.398373558695E-01
  0.398373558465E-01
  0.398373556356E-01
  0.398373556649E-01
  0.398373559854E-01
  0.398373559685E-01
  0.398373559069E-01
  0.398373559059E-01
  0.398373558226E-01
  0.398373558230E-01
  0.398373555866E-01
  0.398373556080E-01
  0.398373557621E-01
  0.398373557394E-01
  0.398373555974E-01
  0.398373556240E-01
  0.398373560441E-01
  0.398373560129E-01
  0.398373556213E-01
  0.398373556285E-01
  0.398373554957E-01
  0.398373555204E-01
  0.398373557879E-01
  0.398373557885E-01
  0.398373559053E-01
  0.398373558914E-01
  0.398373557609E-01
  0.398373557508E-01
  0.398373557978E-01
  0.398373557827E-01
  0.398373557178E-01
  0.398373557422E-01
  0.398373558434E-01
  0.398373558375E-01
  0.398373556367E-01
  0.398373556597E-01
  0.398373559112E-01
  0.398373558848E-01
  0.398373556213E-01
  0.398373556391E-01
  0.398373558814E-01
  0.398373559305E-01
  0.398373557328E-01
  0.398373566429E-01
  0.398373565500E-01
  0.398373565778E-01
  0.398373569734E-01
  0.398373569455E-01
  0.398373569709E-01
  0.398373569469E-01
  0.398373565594E-01
  0.398373565868E-01
  0.398373567603E-01
  0.398373567507E-01
  0.398373564938E-01
  0.398373565284E-01
  0.398373568195E-01
  0.398373568031E-01
  0.398373566755E-01
  0.398373566908E-01
  0.398373569818E-01
  0.398373569508E-01
  0.398373565495E-01
  0.398373565657E-01
  0.398373568898E-01
  0.398373568947E-01
  0.398373567805E-01
  0.398373567828E-01
  0.398373567212E-01
  0.398373567003E-01
  0.398373567970E-01
  0.398373567979E-01
  0.398373566454E-01
  0.398373566684E-01
  0.398373566439E-01
  0.398373566180E-01
  0.398373563234E-01
  0.398373563427E-01
  0.398373568785E-01
  0.398373568654E-01
  0.398373568349E-01
  0.398373568341E-01
  0.398373565822E-01
  0.398373565863E-01
  0.398373565973E-01
  0.398373566072E-01
  0.398373566756E-01
  0.398373566835E-01
  0.398373568317E-01
  0.398373568155E-01
  0.398373566858E-01
  0.398373568121E-01
  0.398373575287E-01
  0.398373556745E-01
  0.398373556156E-01
  0.398373556209E-01
  0.398373553906E-01
  0.398373554032E-01
  0.398373555544E-01
  0.398373555498E-01
  0.398373558122E-01
  0.398373557756E-01
  0.398373552631E-01
  0.398373552954E-01
  0.398373557246E-01
  0.398373557148E-01
  0.398373553453E-01
  0.398373553505E-01
  0.398373553387E-01
  0.398373553437E-01
  0.398373553368E-01
  0.398373553504E-01
  0.398373556822E-01
  0.398373556867E-01
  0.398373559747E-01
  0.398373559605E-01
  0.398373552996E-01
  0.398373553196E-01
  0.398373557169E-01
  0.398373557011E-01
  0.398373558485E-01
  0.398373558163E-01
  0.398373552096E-01
  0.398373552531E-01
  0.398373557365E-01
  0.398373557319E-01
  0.398373560803E-01
  0.398373560521E-01
  0.398373556805E-01
  0.398373556898E-01
  0.398373554084E-01
  0.398373553928E-01
  0.398373552066E-01
  0.398373552358E-01
  0.398373559024E-01
  0.398373558731E-01
  0.398373552719E-01
  0.398373553228E-01
  0.398373558888E-01
  0.398373558709E-01
  0.398373556732E-01
  0.398373557888E-01
  0.398373557803E-01
  0.398373563510E-01
  0.398373565020E-01
  0.398373564935E-01
  0.398373563235E-01
  0.398373563168E-01
  0.398373562480E-01
  0.398373562463E-01
  0.398373561238E-01
  0.398373561403E-01
  0.398373567446E-01
  0.398373567214E-01
  0.398373563575E-01
  0.398373563602E-01
  0.398373560853E-01
  0.398373561039E-01
  0.398373567501E-01
  0.398373567445E-01
  0.398373565774E-01
  0.398373565789E-01
  0.398373563839E-01
  0.398373563882E-01
  0.398373560082E-01
  0.398373560199E-01
  0.398373561333E-01
  0.398373561335E-01
  0.398373565458E-01
  0.398373565385E-01
  0.398373562329E-01
  0.398373562361E-01
  0.398373566707E-01
  0.398373566209E-01
  0.398373557213E-01
  0.398373557709E-01
  0.398373561429E-01
  0.398373561266E-01
  0.398373559332E-01
  0.398373559491E-01
  0.398373564809E-01
  0.398373564520E-01
  0.398373565456E-01
  0.398373565387E-01
  0.398373561360E-01
  0.398373561820E-01
  0.398373567063E-01
  0.398373566862E-01
  0.398373561615E-01
  0.398373561875E-01
  0.398373562918E-01
  0.398373563981E-01
  0.398373564630E-01
  0.398373561837E-01
  0.398373558975E-01
  0.398373559049E-01
  0.398373560395E-01
  0.398373560462E-01
  0.398373564899E-01
  0.398373564478E-01
  0.398373557569E-01
  0.398373557630E-01
  0.398373557021E-01
  0.398373557222E-01
  0.398373558689E-01
  0.398373558676E-01
  0.398373561999E-01
  0.398373561874E-01
  0.398373559048E-01
  0.398373559389E-01
  0.398373559718E-01
  0.398373559727E-01
  0.398373561452E-01
  0.398373561283E-01
  0.398373559451E-01
  0.398373559485E-01
  0.398373562166E-01
  0.398373562061E-01
  0.398373558766E-01
  0.398373559079E-01
  0.398373561810E-01
  0.398373561839E-01
  0.398373565195E-01
  0.398373564940E-01
  0.398373564708E-01
  0.398373564656E-01
  0.398373564322E-01
  0.398373564351E-01
  0.398373563841E-01
  0.398373563693E-01
  0.398373560030E-01
  0.398373560288E-01
  0.398373564718E-01
  0.398373564487E-01
  0.398373560381E-01
  0.398373560486E-01
  0.398373558237E-01
  0.398373558473E-01
  0.398373560926E-01
  0.398373561082E-01
  0.398373564988E-01
  0.398373565929E-01
  0.398373562444E-01
  0.398373561128E-01
  0.398373561217E-01
  0.398373561056E-01
  0.398373559266E-01
  0.398373559496E-01
  0.398373561452E-01
  0.398373561428E-01
  0.398373564853E-01
  0.398373564693E-01
  0.398373567690E-01
  0.398373567972E-01
  0.398373570357E-01
  0.398373570153E-01
  0.398373564516E-01
  0.398373564490E-01
  0.398373562895E-01
  0.398373563115E-01
  0.398373563698E-01
  0.398373563789E-01
  0.398373565157E-01
  0.398373564901E-01
  0.398373561137E-01
  0.398373561232E-01
  0.398373564533E-01
  0.398373564471E-01
  0.398373562410E-01
  0.398373562247E-01
  0.398373555881E-01
  0.398373556292E-01
  0.398373561281E-01
  0.398373561285E-01
  0.398373563016E-01
  0.398373562811E-01
  0.398373559847E-01
  0.398373559454E-01
  0.398373550951E-01
  0.398373551268E-01
  0.398373561609E-01
  0.398373561620E-01
  0.398373560490E-01
  0.398373560593E-01
  0.398373562708E-01
  0.398373562466E-01
  0.398373559719E-01
  0.398373559980E-01
  0.398373562981E-01
  0.398373562840E-01
  0.398373553911E-01
  0.398373555767E-01
  0.398373570653E-01
  0.398373566022E-01
  0.398373566404E-01
  0.398373566273E-01
  0.398373566879E-01
  0.398373566402E-01
  0.398373552085E-01
  0.398373552720E-01
  0.398373565723E-01
  0.398373565492E-01
  0.398373560100E-01
  0.398373560355E-01
  0.398373556457E-01
  0.398373556819E-01
  0.398373567210E-01
  0.398373566852E-01
  0.398373565374E-01
  0.398373565115E-01
  0.398373555835E-01
  0.398373556329E-01
  0.398373564941E-01
  0.398373564777E-01
  0.398373565413E-01
  0.398373565276E-01
  0.398373564055E-01
  0.398373564067E-01
  0.398373562144E-01
  0.398373562282E-01
  0.398373571473E-01
  0.398373570892E-01
  0.398373555052E-01
  0.398373555600E-01
  0.398373562637E-01
  0.398373562409E-01
  0.398373559963E-01
  0.398373559995E-01
  0.398373573055E-01
  0.398373572568E-01
  0.398373563383E-01
  0.398373563847E-01
  0.398373562938E-01
  0.398373562990E-01
  0.398373563043E-01
  0.398373563144E-01
  0.398373568744E-01
  0.398373569013E-01
  0.398373572223E-01
  0.398373572024E-01
  0.398373567389E-01
  0.398373568524E-01
  0.398373561721E-01
  0.398373552539E-01
  0.398373550220E-01
  0.398373550398E-01
  0.398373557718E-01
  0.398373557399E-01
  0.398373560694E-01
  0.398373560217E-01
  0.398373547988E-01
  0.398373548538E-01
  0.398373553952E-01
  0.398373553867E-01
  0.398373551246E-01
  0.398373551526E-01
  0.398373553735E-01
  0.398373553773E-01
  0.398373552403E-01
  0.398373552390E-01
  0.398373560131E-01
  0.398373559934E-01
  0.398373552749E-01
  0.398373553090E-01
  0.398373556362E-01
  0.398373556007E-01
  0.398373549881E-01
  0.398373549901E-01
  0.398373551436E-01
  0.398373551500E-01
  0.398373551728E-01
  0.398373551926E-01
  0.398373561426E-01
  0.398373560977E-01
  0.398373553291E-01
  0.398373553390E-01
  0.398373553935E-01
  0.398373554038E-01
  0.398373558432E-01
  0.398373558401E-01
  0.398373555595E-01
  0.398373555433E-01
  0.398373549788E-01
  0.398373549636E-01
  0.398373545513E-01
  0.398373545867E-01
  0.398373552105E-01
  0.398373552395E-01
  0.398373546791E-01
  0.398373546879E-01
  0.398373550554E-01
  0.398373552436E-01
  0.398373576174E-01
  0.398373565108E-01
  0.398373556305E-01
  0.398373556525E-01
  0.398373560165E-01
  0.398373560499E-01
  0.398373570249E-01
  0.398373569933E-01
  0.398373570729E-01
  0.398373570612E-01
  0.398373565801E-01
  0.398373565869E-01
  0.398373564119E-01
  0.398373564285E-01
  0.398373564030E-01
  0.398373564220E-01
  0.398373565926E-01
  0.398373565684E-01
  0.398373560991E-01
  0.398373560782E-01
  0.398373552099E-01
  0.398373552653E-01
  0.398373566147E-01
  0.398373565934E-01
  0.398373566228E-01
  0.398373566130E-01
  0.398373569546E-01
  0.398373569642E-01
  0.398373568845E-01
  0.398373569195E-01
  0.398373573045E-01
  0.398373572640E-01
  0.398373563555E-01
  0.398373563492E-01
  0.398373567436E-01
  0.398373567230E-01
  0.398373558337E-01
  0.398373558849E-01
  0.398373568750E-01
  0.398373568676E-01
  0.398373574037E-01
  0.398373573794E-01
  0.398373577433E-01
  0.398373577178E-01
  0.398373565204E-01
  0.398373565714E-01
  0.398373564929E-01
  0.398373564710E-01
  0.398373562473E-01
  0.398373563869E-01
  0.398373546770E-01
  0.398373568245E-01
  0.398373580623E-01
  0.398373579819E-01
  0.398373559584E-01
  0.398373560017E-01
  0.398373558952E-01
  0.398373559227E-01
  0.398373565925E-01
  0.398373565634E-01
  0.398373559724E-01
  0.398373559840E-01
  0.398373566414E-01
  0.398373566379E-01
  0.398373562435E-01
  0.398373562515E-01
  0.398373559621E-01
  0.398373559479E-01
  0.398373560530E-01
  0.398373560359E-01
  0.398373566515E-01
  0.398373566658E-01
  0.398373564058E-01
  0.398373564132E-01
  0.398373557946E-01
  0.398373557669E-01
  0.398373552178E-01
  0.398373552571E-01
  0.398373557518E-01
  0.398373557823E-01
  0.398373557339E-01
  0.398373557304E-01
  0.398373563908E-01
  0.398373563740E-01
  0.398373570400E-01
  0.398373570397E-01
  0.398373572028E-01
  0.398373571681E-01
  0.398373556331E-01
  0.398373556917E-01
  0.398373565457E-01
  0.398373565483E-01
  0.398373567550E-01
  0.398373567704E-01
  0.398373575660E-01
  0.398373575317E-01
  0.398373563445E-01
  0.398373563451E-01
  0.398373570818E-01
  0.398373572586E-01
  0.398373585797E-01
  0.398373559216E-01
  0.398373558068E-01
  0.398373558255E-01
  0.398373575735E-01
  0.398373575332E-01
  0.398373571035E-01
  0.398373571228E-01
  0.398373569776E-01
  0.398373569340E-01
  0.398373557715E-01
  0.398373557941E-01
  0.398373567643E-01
  0.398373567714E-01
  0.398373563951E-01
  0.398373563835E-01
  0.398373561954E-01
  0.398373561745E-01
  0.398373562801E-01
  0.398373562927E-01
  0.398373571007E-01
  0.398373571081E-01
  0.398373562387E-01
  0.398373562843E-01
  0.398373577459E-01
  0.398373577101E-01
  0.398373581225E-01
  0.398373581041E-01
  0.398373569026E-01
  0.398373568992E-01
  0.398373553245E-01
  0.398373553755E-01
  0.398373571163E-01
  0.398373570500E-01
  0.398373548130E-01
  0.398373548959E-01
  0.398373567625E-01
  0.398373567438E-01
  0.398373570664E-01
  0.398373570392E-01
  0.398373560221E-01
  0.398373560603E-01
  0.398373562492E-01
  0.398373562551E-01
  0.398373557389E-01
  0.398373557283E-01
  0.398373556135E-01
  0.398373555711E-01
  0.398373555105E-01
  0.398373557784E-01
  0.398373578096E-01
  0.398373570043E-01
  0.398373557915E-01
  0.398373557813E-01
  0.398373549487E-01
  0.398373549732E-01
  0.398373552540E-01
  0.398373552122E-01
  0.398373536569E-01
  0.398373537250E-01
  0.398373575619E-01
  0.398373574798E-01
  0.398373552621E-01
  0.398373552964E-01
  0.398373551614E-01
  0.398373551534E-01
  0.398373556738E-01
  0.398373556190E-01
  0.398373546964E-01
  0.398373547562E-01
  0.398373562029E-01
  0.398373561449E-01
  0.398373531243E-01
  0.398373531641E-01
  0.398373538999E-01
  0.398373539354E-01
  0.398373547307E-01
  0.398373547377E-01
  0.398373551404E-01
  0.398373550949E-01
  0.398373549847E-01
  0.398373549256E-01
  0.398373529666E-01
  0.398373530731E-01
  0.398373569233E-01
  0.398373568477E-01
  0.398373539996E-01
  0.398373540958E-01
  0.398373559005E-01
  0.398373558819E-01
  0.398373558196E-01
  0.398373558309E-01
  0.398373560255E-01
  0.398373560371E-01
  0.398373560262E-01
  0.398373559782E-01
  0.398373552941E-01
  0.398373552988E-01
  0.398373569720E-01
  0.398373571718E-01
  0.398373549922E-01
  0.398373528229E-01
  0.398373555601E-01
  0.398373555215E-01
  0.398373558134E-01
  0.398373558371E-01
  0.398373566922E-01
  0.398373566541E-01
  0.398373564851E-01
  0.398373565271E-01
  0.398373572645E-01
  0.398373572716E-01
  0.398373563259E-01
  0.398373563291E-01
  0.398373575946E-01
  0.398373575340E-01
  0.398373558362E-01
  0.398373558438E-01
  0.398373574765E-01
  0.398373574235E-01
  0.398373544511E-01
  0.398373544971E-01
  0.398373566073E-01
  0.398373564940E-01
  0.398373543385E-01
  0.398373544275E-01
  0.398373555179E-01
  0.398373555670E-01
  0.398373561948E-01
  0.398373561127E-01
  0.398373544018E-01
  0.398373544164E-01
  0.398373571129E-01
  0.398373571229E-01
  0.398373558252E-01
  0.398373559119E-01
  0.398373575064E-01
  0.398373574596E-01
  0.398373554752E-01
  0.398373555014E-01
  0.398373551537E-01
  0.398373551469E-01
  0.398373545814E-01
  0.398373546154E-01
  0.398373551886E-01
  0.398373551892E-01
  0.398373569014E-01
  0.398373568489E-01
  0.398373555744E-01
  0.398373558780E-01
  0.398373577382E-01
  0.398373580035E-01
  0.398373584864E-01
  0.398373584835E-01
  0.398373569093E-01
  0.398373569094E-01
  0.398373557260E-01
  0.398373557378E-01
  0.398373566801E-01
  0.398373566210E-01
  0.398373530612E-01
  0.398373531644E-01
  0.398373559395E-01
  0.398373558845E-01
  0.398373547307E-01
  0.398373547493E-01
  0.398373563417E-01
  0.398373563345E-01
  0.398373575834E-01
  0.398373575743E-01
  0.398373574717E-01
  0.398373574227E-01
  0.398373570452E-01
  0.398373570375E-01
  0.398373587163E-01
  0.398373587354E-01
  0.398373584300E-01
  0.398373584461E-01
  0.398373560749E-01
  0.398373561431E-01
  0.398373610424E-01
  0.398373609033E-01
  0.398373570277E-01
  0.398373571259E-01
  0.398373575337E-01
  0.398373575471E-01
  0.398373562086E-01
  0.398373562052E-01
  0.398373561275E-01
  0.398373561554E-01
  0.398373583202E-01
  0.398373582535E-01
  0.398373564036E-01
  0.398373564549E-01
  0.398373576969E-01
  0.398373577366E-01
  0.398373585756E-01
  0.398373585204E-01
  0.398373566096E-01
  0.398373568315E-01
  0.398373551542E-01
  0.398373572941E-01
  0.398373550983E-01
  0.398373551378E-01
  0.398373562844E-01
  0.398373562489E-01
  0.398373565199E-01
  0.398373565369E-01
  0.398373579884E-01
  0.398373579630E-01
  0.398373582828E-01
  0.398373581585E-01
  0.398373530399E-01
  0.398373531702E-01
  0.398373574759E-01
  0.398373574718E-01
  0.398373578057E-01
  0.398373577288E-01
  0.398373533346E-01
  0.398373534047E-01
  0.398373551810E-01
  0.398373551997E-01
  0.398373579485E-01
  0.398373578446E-01