# vtk DataFile Version 3.0
MachLine results file. Generated by MachLine, USU AeroLab (c) 2022.
ASCII
DATASET POLYDATA
POINTS                 781 float
  0.114300523028E+02  0.000000000000E+00  0.000000000000E+00
  0.110490505593E+02  0.333333333333E-01  0.000000000000E+00
  0.110490505593E+02  0.330704900438E-01  0.417777445214E-02
  0.110490505593E+02  0.322861053710E-01  0.828966290550E-02
  0.110490505593E+02  0.309925495296E-01  0.122708184228E-01
  0.110490505593E+02  0.292102226681E-01  0.160584558034E-01
  0.110490505593E+02  0.269672331458E-01  0.195928417431E-01
  0.110490505593E+02  0.242989542474E-01  0.228182368643E-01
  0.110490505593E+02  0.212474663250E-01  0.256837747592E-01
  0.110490505593E+02  0.178608931660E-01  0.281442641834E-01
  0.110490505593E+02  0.141926430522E-01  0.301609017489E-01
  0.110490505593E+02  0.103005664792E-01  0.317018838765E-01
  0.110490505593E+02  0.624604381952E-02  0.327429083576E-01
  0.110490505593E+02  0.209301731764E-02  0.332675576143E-01
  0.110490505593E+02 -0.209301731764E-02  0.332675576143E-01
  0.110490505593E+02 -0.624604381952E-02  0.327429083576E-01
  0.110490505593E+02 -0.103005664792E-01  0.317018838765E-01
  0.110490505593E+02 -0.141926430522E-01  0.301609017489E-01
  0.110490505593E+02 -0.178608931660E-01  0.281442641834E-01
  0.110490505593E+02 -0.212474663250E-01  0.256837747592E-01
  0.110490505593E+02 -0.242989542474E-01  0.228182368643E-01
  0.110490505593E+02 -0.269672331458E-01  0.195928417431E-01
  0.110490505593E+02 -0.292102226681E-01  0.160584558034E-01
  0.110490505593E+02 -0.309925495296E-01  0.122708184228E-01
  0.110490505593E+02 -0.322861053710E-01  0.828966290550E-02
  0.110490505593E+02 -0.330704900438E-01  0.417777445214E-02
  0.110490505593E+02 -0.333333333333E-01  0.408215599716E-17
  0.106680488159E+02  0.666666666667E-01  0.000000000000E+00
  0.106680488159E+02  0.661409800876E-01  0.835554890429E-02
  0.106680488159E+02  0.645722107419E-01  0.165793258110E-01
  0.106680488159E+02  0.619850990592E-01  0.245416368456E-01
  0.106680488159E+02  0.584204453363E-01  0.321169116068E-01
  0.106680488159E+02  0.539344662917E-01  0.391856834862E-01
  0.106680488159E+02  0.485979084948E-01  0.456364737286E-01
  0.106680488159E+02  0.424949326499E-01  0.513675495184E-01
  0.106680488159E+02  0.357217863319E-01  0.562885283668E-01
  0.106680488159E+02  0.283852861043E-01  0.603218034977E-01
  0.106680488159E+02  0.206011329583E-01  0.634037677530E-01
  0.106680488159E+02  0.124920876390E-01  0.654858167152E-01
  0.106680488159E+02  0.418603463529E-02  0.665351152286E-01
  0.106680488159E+02 -0.418603463529E-02  0.665351152286E-01
  0.106680488159E+02 -0.124920876390E-01  0.654858167152E-01
  0.106680488159E+02 -0.206011329583E-01  0.634037677530E-01
  0.106680488159E+02 -0.283852861043E-01  0.603218034977E-01
  0.106680488159E+02 -0.357217863319E-01  0.562885283668E-01
  0.106680488159E+02 -0.424949326499E-01  0.513675495184E-01
  0.106680488159E+02 -0.485979084948E-01  0.456364737286E-01
  0.106680488159E+02 -0.539344662917E-01  0.391856834862E-01
  0.106680488159E+02 -0.584204453363E-01  0.321169116068E-01
  0.106680488159E+02 -0.619850990592E-01  0.245416368456E-01
  0.106680488159E+02 -0.645722107419E-01  0.165793258110E-01
  0.106680488159E+02 -0.661409800876E-01  0.835554890429E-02
  0.106680488159E+02 -0.666666666667E-01  0.816431199432E-17
  0.102870470725E+02  0.100000000000E+00  0.000000000000E+00
  0.102870470725E+02  0.992114701314E-01  0.125333233564E-01
  0.102870470725E+02  0.968583161129E-01  0.248689887165E-01
  0.102870470725E+02  0.929776485888E-01  0.368124552685E-01
  0.102870470725E+02  0.876306680044E-01  0.481753674102E-01
  0.102870470725E+02  0.809016994375E-01  0.587785252292E-01
  0.102870470725E+02  0.728968627421E-01  0.684547105929E-01
  0.102870470725E+02  0.637423989749E-01  0.770513242776E-01
  0.102870470725E+02  0.535826794979E-01  0.844327925502E-01
  0.102870470725E+02  0.425779291565E-01  0.904827052466E-01
  0.102870470725E+02  0.309016994375E-01  0.951056516295E-01
  0.102870470725E+02  0.187381314586E-01  0.982287250729E-01
  0.102870470725E+02  0.627905195293E-02  0.998026728428E-01
  0.102870470725E+02 -0.627905195293E-02  0.998026728428E-01
  0.102870470725E+02 -0.187381314586E-01  0.982287250729E-01
  0.102870470725E+02 -0.309016994375E-01  0.951056516295E-01
  0.102870470725E+02 -0.425779291565E-01  0.904827052466E-01
  0.102870470725E+02 -0.535826794979E-01  0.844327925502E-01
  0.102870470725E+02 -0.637423989749E-01  0.770513242776E-01
  0.102870470725E+02 -0.728968627421E-01  0.684547105929E-01
  0.102870470725E+02 -0.809016994375E-01  0.587785252292E-01
  0.102870470725E+02 -0.876306680044E-01  0.481753674102E-01
  0.102870470725E+02 -0.929776485888E-01  0.368124552685E-01
  0.102870470725E+02 -0.968583161129E-01  0.248689887165E-01
  0.102870470725E+02 -0.992114701314E-01  0.125333233564E-01
  0.102870470725E+02 -0.100000000000E+00  0.122464679915E-16
  0.990604532906E+01  0.133333333333E+00  0.000000000000E+00
  0.990604532906E+01  0.132281960175E+00  0.167110978086E-01
  0.990604532906E+01  0.129144421484E+00  0.331586516220E-01
  0.990604532906E+01  0.123970198118E+00  0.490832736913E-01
  0.990604532906E+01  0.116840890673E+00  0.642338232136E-01
  0.990604532906E+01  0.107868932583E+00  0.783713669723E-01
  0.990604532906E+01  0.971958169895E-01  0.912729474572E-01
  0.990604532906E+01  0.849898652998E-01  0.102735099037E+00
  0.990604532906E+01  0.714435726639E-01  0.112577056734E+00
  0.990604532906E+01  0.567705722087E-01  0.120643606995E+00
  0.990604532906E+01  0.412022659167E-01  0.126807535506E+00
  0.990604532906E+01  0.249841752781E-01  0.130971633430E+00
  0.990604532906E+01  0.837206927058E-02  0.133070230457E+00
  0.990604532906E+01 -0.837206927058E-02  0.133070230457E+00
  0.990604532906E+01 -0.249841752781E-01  0.130971633430E+00
  0.990604532906E+01 -0.412022659167E-01  0.126807535506E+00
  0.990604532906E+01 -0.567705722087E-01  0.120643606995E+00
  0.990604532906E+01 -0.714435726639E-01  0.112577056734E+00
  0.990604532906E+01 -0.849898652998E-01  0.102735099037E+00
  0.990604532906E+01 -0.971958169895E-01  0.912729474572E-01
  0.990604532906E+01 -0.107868932583E+00  0.783713669723E-01
  0.990604532906E+01 -0.116840890673E+00  0.642338232136E-01
  0.990604532906E+01 -0.123970198118E+00  0.490832736913E-01
  0.990604532906E+01 -0.129144421484E+00  0.331586516220E-01
  0.990604532906E+01 -0.132281960175E+00  0.167110978086E-01
  0.990604532906E+01 -0.133333333333E+00  0.163286239886E-16
  0.952504358563E+01  0.166666666667E+00  0.000000000000E+00
  0.952504358563E+01  0.165352450219E+00  0.208888722607E-01
  0.952504358563E+01  0.161430526855E+00  0.414483145275E-01
  0.952504358563E+01  0.154962747648E+00  0.613540921141E-01
  0.952504358563E+01  0.146051113341E+00  0.802922790170E-01
  0.952504358563E+01  0.134836165729E+00  0.979642087154E-01
  0.952504358563E+01  0.121494771237E+00  0.114091184321E+00
  0.952504358563E+01  0.106237331625E+00  0.128418873796E+00
  0.952504358563E+01  0.893044658298E-01  0.140721320917E+00
  0.952504358563E+01  0.709632152608E-01  0.150804508744E+00
  0.952504358563E+01  0.515028323958E-01  0.158509419383E+00
  0.952504358563E+01  0.312302190976E-01  0.163714541788E+00
  0.952504358563E+01  0.104650865882E-01  0.166337788071E+00
  0.952504358563E+01 -0.104650865882E-01  0.166337788071E+00
  0.952504358563E+01 -0.312302190976E-01  0.163714541788E+00
  0.952504358563E+01 -0.515028323958E-01  0.158509419383E+00
  0.952504358563E+01 -0.709632152608E-01  0.150804508744E+00
  0.952504358563E+01 -0.893044658298E-01  0.140721320917E+00
  0.952504358563E+01 -0.106237331625E+00  0.128418873796E+00
  0.952504358563E+01 -0.121494771237E+00  0.114091184321E+00
  0.952504358563E+01 -0.134836165729E+00  0.979642087154E-01
  0.952504358563E+01 -0.146051113341E+00  0.802922790170E-01
  0.952504358563E+01 -0.154962747648E+00  0.613540921141E-01
  0.952504358563E+01 -0.161430526855E+00  0.414483145275E-01
  0.952504358563E+01 -0.165352450219E+00  0.208888722607E-01
  0.952504358563E+01 -0.166666666667E+00  0.204107799858E-16
  0.914404184221E+01  0.200000000000E+00  0.000000000000E+00
  0.914404184221E+01  0.198422940263E+00  0.250666467129E-01
  0.914404184221E+01  0.193716632226E+00  0.497379774330E-01
  0.914404184221E+01  0.185955297178E+00  0.736249105369E-01
  0.914404184221E+01  0.175261336009E+00  0.963507348203E-01
  0.914404184221E+01  0.161803398875E+00  0.117557050458E+00
  0.914404184221E+01  0.145793725484E+00  0.136909421186E+00
  0.914404184221E+01  0.127484797950E+00  0.154102648555E+00
  0.914404184221E+01  0.107165358996E+00  0.168865585100E+00
  0.914404184221E+01  0.851558583130E-01  0.180965410493E+00
  0.914404184221E+01  0.618033988750E-01  0.190211303259E+00
  0.914404184221E+01  0.374762629171E-01  0.196457450146E+00
  0.914404184221E+01  0.125581039059E-01  0.199605345686E+00
  0.914404184221E+01 -0.125581039059E-01  0.199605345686E+00
  0.914404184221E+01 -0.374762629171E-01  0.196457450146E+00
  0.914404184221E+01 -0.618033988750E-01  0.190211303259E+00
  0.914404184221E+01 -0.851558583130E-01  0.180965410493E+00
  0.914404184221E+01 -0.107165358996E+00  0.168865585100E+00
  0.914404184221E+01 -0.127484797950E+00  0.154102648555E+00
  0.914404184221E+01 -0.145793725484E+00  0.136909421186E+00
  0.914404184221E+01 -0.161803398875E+00  0.117557050458E+00
  0.914404184221E+01 -0.175261336009E+00  0.963507348203E-01
  0.914404184221E+01 -0.185955297178E+00  0.736249105369E-01
  0.914404184221E+01 -0.193716632226E+00  0.497379774330E-01
  0.914404184221E+01 -0.198422940263E+00  0.250666467129E-01
  0.914404184221E+01 -0.200000000000E+00  0.244929359829E-16
  0.876304009878E+01  0.233333333333E+00  0.000000000000E+00
  0.876304009878E+01  0.231493430307E+00  0.292444211650E-01
  0.876304009878E+01  0.226002737597E+00  0.580276403385E-01
  0.876304009878E+01  0.216947846707E+00  0.858957289598E-01
[...]
CELL_DATA                1475
SCALARS C_p_ise float 1
LOOKUP_TABLE default
  0.415951385947E-01
  0.415951385642E-01
  0.415951385649E-01
  0.415951385658E-01
  0.415951385631E-01
  0.415951385627E-01
  0.415951385645E-01
  0.415951385642E-01
  0.415951385682E-01
  0.415951385697E-01
  0.415951385651E-01
  0.415951385624E-01
  0.415951385636E-01
  0.415951385645E-01
  0.415951385633E-01
  0.415951385666E-01
  0.415951385691E-01
  0.415951385656E-01
  0.415951385632E-01
  0.415951385643E-01
  0.415951385647E-01
  0.415951385652E-01
  0.415951385652E-01
  0.415951385650E-01
  0.415951385399E-01
  0.415951382018E-01
  0.415951382817E-01
  0.415951382483E-01
  0.415951382394E-01
  0.415951382438E-01
  0.415951382546E-01
  0.415951382573E-01
  0.415951382625E-01
  0.415951382591E-01
  0.415951382571E-01
  0.415951382527E-01
  0.415951382410E-01
  0.415951382423E-01
  0.415951382408E-01
  0.415951382452E-01
  0.415951382594E-01
  0.415951382535E-01
  0.415951382238E-01
  0.415951382333E-01
  0.415951382573E-01
  0.415951382527E-01
  0.415951382528E-01
  0.415951382474E-01
  0.415951382394E-01
  0.415951382401E-01
  0.415951382387E-01
  0.415951382400E-01
  0.415951382415E-01
  0.415951382398E-01
  0.415951382381E-01
  0.415951382392E-01
  0.415951382327E-01
  0.415951382379E-01
  0.415951382464E-01
  0.415951382471E-01
  0.415951382596E-01
  0.415951382524E-01
  0.415951382380E-01
  0.415951382378E-01
  0.415951382338E-01
  0.415951382404E-01
  0.415951382589E-01
  0.415951382577E-01
  0.415951382528E-01
  0.415951382512E-01
  0.415951382463E-01
  0.415951382450E-01
  0.415951382415E-01
  0.415951382779E-01
  0.415951384622E-01
  0.415951382637E-01
  0.415951382927E-01
  0.415951382832E-01
  0.415951382701E-01
  0.415951382691E-01
  0.415951382571E-01
  0.415951382655E-01
  0.415951382760E-01
  0.415951382769E-01
  0.415951382899E-01
  0.415951382915E-01
  0.415951383248E-01
  0.415951383157E-01
  0.415951382831E-01
  0.415951382785E-01
  0.415951382356E-01
  0.415951382407E-01
  0.415951382726E-01
  0.415951382718E-01
  0.415951382695E-01
  0.415951382732E-01
  0.415951382746E-01
  0.415951382757E-01
  0.415951383083E-01
  0.415951382992E-01
  0.415951382634E-01
  0.415951382614E-01
  0.415951382476E-01
  0.415951382539E-01
  0.415951382919E-01
  0.415951382923E-01
  0.415951382916E-01
  0.415951382948E-01
  0.415951382955E-01
  0.415951382934E-01
  0.415951382653E-01
  0.415951382665E-01
  0.415951382876E-01
  0.415951382730E-01
  0.415951382256E-01
  0.415951382349E-01
  0.415951382545E-01
  0.415951382603E-01
  0.415951382645E-01
  0.415951382637E-01
  0.415951382756E-01
  0.415951382739E-01
  0.415951382807E-01
  0.415951383129E-01
  0.415951382976E-01
  0.415951382377E-01
  0.415951381500E-01
  0.415951381607E-01
  0.415951382614E-01
  0.415951382495E-01
  0.415951381915E-01
  0.415951381936E-01
  0.415951381660E-01
  0.415951381683E-01
  0.415951381632E-01
  0.415951381687E-01
  0.415951381779E-01
  0.415951381825E-01
  0.415951382314E-01
  0.415951382311E-01
  0.415951383074E-01
  0.415951382907E-01
  0.415951381978E-01
  0.415951382020E-01
  0.415951381926E-01
  0.415951382022E-01
  0.415951382466E-01
  0.415951382418E-01
  0.415951381983E-01
  0.415951382002E-01
  0.415951382312E-01
  0.415951382332E-01
  0.415951383105E-01
  0.415951383027E-01
  0.415951382229E-01
  0.415951382287E-01
  0.415951382136E-01
  0.415951382160E-01
  0.415951382114E-01
  0.415951382088E-01
  0.415951382038E-01
  0.415951382074E-01
  0.415951382637E-01
  0.415951382632E-01
  0.415951383322E-01
  0.415951383163E-01
  0.415951382070E-01
  0.415951382109E-01
  0.415951381703E-01
  0.415951381760E-01
  0.415951382164E-01
  0.415951382177E-01
  0.415951382214E-01
  0.415951382630E-01
  0.415951383189E-01
  0.415951383290E-01
  0.415951383442E-01
  0.415951383458E-01
  0.415951383766E-01
  0.415951383911E-01
  0.415951384988E-01
  0.415951384825E-01
  0.415951383928E-01
  0.415951384014E-01
  0.415951384934E-01
  0.415951384726E-01
  0.415951382425E-01
  0.415951382637E-01
  0.415951384021E-01
  0.415951383994E-01
  0.415951383143E-01
  0.415951383232E-01
  0.415951384556E-01
  0.415951384438E-01
  0.415951384199E-01
  0.415951384147E-01
  0.415951382939E-01
  0.415951382915E-01
  0.415951382566E-01
  0.415951382715E-01
  0.415951384449E-01
  0.415951384422E-01
  0.415951383605E-01
  0.415951383758E-01
  0.415951384847E-01
  0.415951384736E-01
  0.415951384230E-01
  0.415951384255E-01
  0.415951384461E-01
  0.415951384345E-01
  0.415951383594E-01
  0.415951383544E-01
  0.415951382841E-01
  0.415951383021E-01
  0.415951383953E-01
  0.415951383898E-01
  0.415951383941E-01
  0.415951383984E-01
  0.415951385421E-01
  0.415951385281E-01
  0.415951384032E-01
  0.415951384140E-01
  0.415951384470E-01
  0.415951385080E-01
  0.415951386785E-01
  0.415951378027E-01
  0.415951380114E-01
  0.415951380035E-01
  0.415951378799E-01
  0.415951378833E-01
  0.415951377242E-01
  0.415951377387E-01
  0.415951379455E-01
  0.415951379117E-01
  0.415951375548E-01
  0.415951375748E-01
  0.415951379114E-01
  0.415951378986E-01
  0.415951378053E-01
  0.415951378199E-01
  0.415951378404E-01
  0.415951378330E-01
  0.415951377576E-01
  0.415951377759E-01
  0.415951379444E-01
  0.415951379344E-01
  0.415951379107E-01
  0.415951379108E-01
  0.415951380862E-01
  0.415951380658E-01
  0.415951377196E-01
  0.415951377388E-01
  0.415951377678E-01
  0.415951377767E-01
  0.415951378052E-01
  0.415951378120E-01
  0.415951378759E-01
  0.415951378761E-01
  0.415951379122E-01
  0.415951379218E-01
  0.415951381297E-01
  0.415951381045E-01
  0.415951379738E-01
  0.415951379719E-01
  0.415951378403E-01
  0.415951378466E-01
  0.415951378630E-01
  0.415951378599E-01
  0.415951377734E-01
  0.415951377874E-01
  0.415951379181E-01
  0.415951379102E-01
  0.415951378591E-01
  0.415951379503E-01
  0.415951382425E-01
  0.415951386320E-01
  0.415951384819E-01
  0.415951384968E-01
  0.415951385478E-01
  0.415951385566E-01
  0.415951387730E-01
  0.415951387691E-01
  0.415951387172E-01
  0.415951387206E-01
  0.415951389603E-01
  0.415951389303E-01
  0.415951387012E-01
  0.415951387198E-01
  0.415951387310E-01
  0.415951387407E-01
  0.415951387876E-01
  0.415951387798E-01
  0.415951387500E-01
  0.415951387473E-01
  0.415951385643E-01
  0.415951385881E-01
  0.415951388275E-01
  0.415951388374E-01
  0.415951389915E-01
  0.415951389640E-01
  0.415951386646E-01
  0.415951386778E-01
  0.415951390093E-01
  0.415951389960E-01
  0.415951386741E-01
  0.415951386979E-01
  0.415951388864E-01
  0.415951388721E-01
  0.415951386073E-01
  0.415951386055E-01
  0.415951384159E-01
  0.415951384427E-01
  0.415951388735E-01
  0.415951388487E-01
  0.415951387038E-01
  0.415951387034E-01
  0.415951387732E-01
  0.415951387694E-01
  0.415951387408E-01
  0.415951387491E-01
  0.415951387785E-01
  0.415951387575E-01
  0.415951384314E-01
  0.415951385532E-01
  0.415951390103E-01
  0.415951379529E-01
  0.415951380245E-01
  0.415951380181E-01
  0.415951378711E-01
  0.415951378786E-01
  0.415951378007E-01
  0.415951378127E-01
  0.415951378024E-01
  0.415951377990E-01
  0.415951377563E-01
  0.415951377607E-01
  0.415951380001E-01
  0.415951380042E-01
  0.415951380512E-01
  0.415951380392E-01
  0.415951377011E-01
  0.415951377181E-01
  0.415951380366E-01
  0.415951380239E-01
  0.415951379071E-01
  0.415951378958E-01
  0.415951375823E-01
  0.415951376164E-01
  0.415951377041E-01
  0.415951377076E-01
  0.415951379948E-01
  0.415951379552E-01
  0.415951375077E-01
  0.415951375349E-01
  0.415951377598E-01
  0.415951377539E-01
  0.415951376798E-01
  0.415951376998E-01
  0.415951379976E-01
  0.415951379825E-01
  0.415951380880E-01
  0.415951380731E-01
  0.415951376658E-01
  0.415951376753E-01
  0.415951376927E-01
  0.415951376768E-01
  0.415951376105E-01
  0.415951376081E-01
  0.415951375483E-01
  0.415951375520E-01
  0.415951375158E-01
  0.415951375549E-01
  0.415951384226E-01
  0.415951385164E-01
  0.415951384729E-01
  0.415951383980E-01
  0.415951380038E-01
  0.415951380340E-01
  0.415951385753E-01
  0.415951385612E-01
  0.415951383600E-01
  0.415951383472E-01
  0.415951380134E-01
  0.415951380414E-01
  0.415951385870E-01
  0.415951385860E-01
  0.415951385430E-01
  0.415951385030E-01
  0.415951374796E-01
  0.415951375093E-01
  0.415951381649E-01
  0.415951381790E-01
  0.415951385117E-01
  0.415951384784E-01
  0.415951377685E-01
  0.415951378080E-01
  0.415951388042E-01
  0.415951387563E-01
  0.415951377180E-01
  0.415951377636E-01
  0.415951383789E-01
  0.415951383453E-01
  0.415951381219E-01
  0.415951381363E-01
  0.415951384254E-01
  0.415951384283E-01
  0.415951383231E-01
  0.415951383256E-01
  0.415951381119E-01
  0.415951381232E-01
  0.415951382352E-01
  0.415951382253E-01
  0.415951381906E-01
  0.415951381682E-01
  0.415951380904E-01
  0.415951380981E-01
  0.415951384801E-01
  0.415951384919E-01
  0.415951388106E-01
  0.415951387953E-01
  0.415951385396E-01
  0.415951385851E-01
  0.415951387337E-01
  0.415951388510E-01
  0.415951382682E-01
  0.415951383835E-01
  0.415951390513E-01
  0.415951389950E-01
  0.415951377916E-01
  0.415951378257E-01
  0.415951381351E-01
  0.415951381304E-01
  0.415951385081E-01
  0.415951384572E-01
  0.415951373324E-01
  0.415951373603E-01
  0.415951372995E-01
  0.415951373355E-01
  0.415951388294E-01
  0.415951388012E-01
  0.415951388458E-01
  0.415951388402E-01
  0.415951377347E-01
  0.415951377869E-01
  0.415951390380E-01
  0.415951389720E-01
  0.415951377609E-01
  0.415951378081E-01
  0.415951385017E-01
  0.415951384845E-01
  0.415951384541E-01
  0.415951384660E-01
  0.415951386432E-01
  0.415951386009E-01
  0.415951377723E-01
  0.415951377929E-01
  0.415951378041E-01
  0.415951378292E-01
  0.415951383763E-01
  0.415951383746E-01
  0.415951383652E-01
  0.415951383623E-01
  0.415951383694E-01
  0.415951383309E-01
  0.415951380602E-01
  0.415951380859E-01
  0.415951385134E-01
  0.415951385202E-01
  0.415951379955E-01
  0.415951380179E-01
  0.415951383784E-01
  0.415951383733E-01
  0.415951376978E-01
  0.415951379234E-01
  0.415951398130E-01
  0.415951379810E-01
  0.415951374801E-01
  0.415951374884E-01
  0.415951381071E-01
  0.415951380870E-01
  0.415951382782E-01
  0.415951382998E-01
  0.415951385113E-01
  0.415951385217E-01
  0.415951393902E-01
  0.415951393537E-01
  0.415951392447E-01
  0.415951392313E-01
  0.415951382606E-01
  0.415951382878E-01
  0.415951378016E-01
  0.415951378196E-01
  0.415951382654E-01
  0.415951382235E-01
  0.415951374681E-01
  0.415951375132E-01
  0.415951384634E-01
  0.415951384602E-01
  0.415951387394E-01
  0.415951387297E-01
  0.415951381205E-01
  0.415951381060E-01
  0.415951375856E-01
  0.415951376165E-01
  0.415951389600E-01
  0.415951389324E-01
  0.415951388375E-01
  0.415951388552E-01
  0.415951386877E-01
  0.415951386884E-01
  0.415951381337E-01
  0.415951381430E-01
  0.415951384098E-01
  0.415951383927E-01
  0.415951388352E-01
  0.415951388031E-01
  0.415951378899E-01
  0.415951379452E-01
  0.415951384926E-01
  0.415951384319E-01
  0.415951372667E-01
  0.415951372983E-01
  0.415951376732E-01
  0.415951378648E-01
  0.415951378998E-01
  0.415951387034E-01
  0.415951390994E-01
  0.415951390692E-01
  0.415951387326E-01
  0.415951387469E-01
  0.415951388623E-01
  0.415951388649E-01
  0.415951382174E-01
  0.415951382413E-01
  0.415951383195E-01
  0.415951383083E-01
  0.415951379392E-01
  0.415951379393E-01
  0.415951383698E-01
  0.415951383424E-01
  0.415951381465E-01
  0.415951381666E-01
  0.415951387477E-01
  0.415951387298E-01
  0.415951387966E-01
  0.415951387789E-01
  0.415951381616E-01
  0.415951381962E-01
  0.415951380256E-01
  0.415951380270E-01
  0.415951379752E-01
  0.415951379709E-01
  0.415951388731E-01
  0.415951388303E-01
  0.415951377047E-01
  0.415951377739E-01
  0.415951385276E-01
  0.415951385031E-01
  0.415951376360E-01
  0.415951376633E-01
  0.415951384588E-01
  0.415951384175E-01
  0.415951378629E-01
  0.415951379063E-01
  0.415951390044E-01
  0.415951389904E-01
  0.415951389195E-01
  0.415951389449E-01
  0.415951392558E-01
  0.415951392450E-01
  0.415951397925E-01
  0.415951396916E-01
  0.415951379175E-01
  0.415951381116E-01
  0.415951377571E-01
  0.415951374418E-01
  0.415951369772E-01
  0.415951370180E-01
  0.415951383609E-01
  0.415951383288E-01
  0.415951375368E-01
  0.415951375404E-01
  0.415951374417E-01
  0.415951373923E-01
  0.415951362651E-01
  0.415951362777E-01
  0.415951367891E-01
  0.415951368237E-01
  0.415951380870E-01
  0.415951380962E-01
  0.415951385421E-01
  0.415951385084E-01
  0.415951373757E-01
  0.415951373911E-01
  0.415951375915E-01
  0.415951375900E-01
  0.415951379221E-01
  0.415951378956E-01
  0.415951370366E-01
  0.415951370506E-01
  0.415951375513E-01
  0.415951375228E-01
  0.415951369742E-01
  0.415951369958E-01
  0.415951376245E-01
  0.415951376260E-01
  0.415951371567E-01
  0.415951372187E-01
  0.415951385623E-01
  0.415951385236E-01
  0.415951378180E-01
  0.415951377765E-01
  0.415951369076E-01
  0.415951369270E-01
  0.415951369346E-01
  0.415951369717E-01
  0.415951370584E-01
  0.415951370966E-01
  0.415951374951E-01
  0.415951374934E-01
  0.415951373837E-01
  0.415951373263E-01
  0.415951378210E-01
  0.415951380039E-01
  0.415951396521E-01
  0.415951385323E-01
  0.415951385242E-01
  0.415951385189E-01
  0.415951377788E-01
  0.415951378065E-01
  0.415951379667E-01
  0.415951380095E-01
  0.415951399222E-01
  0.415951398530E-01
  0.415951394255E-01
  0.415951393872E-01
  0.415951392290E-01
  0.415951392874E-01
  0.415951393781E-01
  0.415951394017E-01
  0.415951384300E-01
  0.415951384288E-01
  0.415951388247E-01
  0.415951387958E-01
  0.415951388220E-01
  0.415951388233E-01
  0.415951386816E-01
  0.415951386658E-01
  0.415951385973E-01
  0.415951385754E-01
  0.415951385329E-01
  0.415951385479E-01
  0.415951391813E-01
  0.415951391812E-01
  0.415951391872E-01
  0.415951392180E-01
  0.415951393319E-01
  0.415951393026E-01
  0.415951373435E-01
  0.415951373953E-01
  0.415951383883E-01
  0.415951383859E-01
  0.415951401989E-01
  0.415951401237E-01
  0.415951385045E-01
  0.415951385522E-01
  0.415951388308E-01
  0.415951388440E-01
  0.415951380773E-01
  0.415951381194E-01
  0.415951388705E-01
  0.415951388020E-01
  0.415951386210E-01
  0.415951388097E-01
  0.415951384330E-01
  0.415951391785E-01
  0.415951386049E-01
  0.415951385979E-01
  0.415951385548E-01
  0.415951385689E-01
  0.415951389715E-01
  0.415951389252E-01
  0.415951361692E-01
  0.415951362672E-01
  0.415951390598E-01
  0.415951389850E-01
  0.415951383819E-01
  0.415951384084E-01
  0.415951376521E-01
  0.415951376945E-01
  0.415951381416E-01
  0.415951380943E-01
  0.415951377996E-01
  0.415951378285E-01
  0.415951390791E-01
  0.415951390527E-01
  0.415951382218E-01
  0.415951382190E-01
  0.415951387487E-01
  0.415951387237E-01
  0.415951387063E-01
  0.415951386782E-01
  0.415951374720E-01
  0.415951375243E-01
  0.415951383633E-01
  0.415951383824E-01
  0.415951380384E-01
  0.415951380591E-01
  0.415951393866E-01
  0.415951393417E-01
  0.415951386404E-01
  0.415951386590E-01
  0.415951382052E-01
  0.415951382021E-01
  0.415951383439E-01
  0.415951383377E-01
  0.415951385145E-01
  0.415951385287E-01
  0.415951382577E-01
  0.415951382742E-01
  0.415951383572E-01
  0.415951383447E-01
  0.415951391610E-01
  0.415951393604E-01
  0.415951398653E-01
  0.415951375797E-01
  0.415951383776E-01
  0.415951383843E-01
  0.415951394214E-01
  0.415951394319E-01
  0.415951393644E-01
  0.415951393329E-01
  0.415951393586E-01
  0.415951392885E-01
  0.415951370245E-01
  0.415951370854E-01
  0.415951383111E-01
  0.415951382823E-01
  0.415951372142E-01
  0.415951372806E-01
  0.415951388320E-01
  0.415951388265E-01
  0.415951396470E-01
  0.415951395723E-01
  0.415951366748E-01
  0.415951367557E-01
  0.415951387445E-01
  0.415951387462E-01
  0.415951397721E-01
  0.415951397091E-01
  0.415951379679E-01
  0.415951379393E-01
  0.415951379442E-01
  0.415951379964E-01
  0.415951392831E-01
  0.415951392878E-01
  0.415951379399E-01
  0.415951379433E-01
  0.415951377768E-01
  0.415951377317E-01
  0.415951363039E-01
  0.415951363763E-01
  0.415951387933E-01
  0.415951387539E-01
  0.415951381186E-01
  0.415951381390E-01
  0.415951388091E-01
  0.415951387867E-01
  0.415951374598E-01
  0.415951375054E-01
  0.415951386945E-01
  0.415951386800E-01
  0.415951385290E-01
  0.415951387127E-01
  0.415951373544E-01
  0.415951386816E-01
  0.415951380325E-01
  0.415951380321E-01
  0.415951369487E-01
  0.415951370015E-01
  0.415951372962E-01
  0.415951372483E-01
  0.415951367791E-01
  0.415951367592E-01
  0.415951383864E-01
  0.415951383487E-01
  0.415951375028E-01
  0.415951375122E-01
  0.415951374670E-01
  0.415951375126E-01
  0.415951379649E-01
  0.415951379683E-01
  0.415951366081E-01
  0.415951366088E-01
  0.415951382232E-01
  0.415951381396E-01
  0.415951357982E-01
  0.415951358413E-01
  0.415951350910E-01
  0.415951350991E-01
  0.415951363526E-01
  0.415951363939E-01
  0.415951405543E-01
  0.415951405203E-01
  0.415951376709E-01
  0.415951377191E-01
  0.415951377892E-01
  0.415951377610E-01
  0.415951381513E-01
  0.415951381619E-01
  0.415951401811E-01
  0.415951400927E-01
  0.415951363048E-01
  0.415951364071E-01
  0.415951385090E-01
  0.415951384893E-01
  0.415951378426E-01
  0.415951378975E-01
  0.415951397365E-01
  0.415951396362E-01
  0.415951362372E-01
  0.415951363037E-01
  0.415951377116E-01
  0.415951379721E-01
  0.415951406648E-01
  0.415951364675E-01
  0.415951397008E-01
  0.415951396678E-01
  0.415951392190E-01
  0.415951391706E-01
  0.415951367769E-01
  0.415951368556E-01
  0.415951409777E-01
  0.415951408809E-01
  0.415951386909E-01
  0.415951387187E-01
  0.415951392864E-01
  0.415951393010E-01
  0.415951403800E-01
  0.415951402901E-01
  0.415951355945E-01
  0.415951357180E-01
  0.415951394418E-01
  0.415951393954E-01
  0.415951391906E-01
  0.415951391773E-01
  0.415951399225E-01
  0.415951399062E-01
  0.415951403098E-01
  0.415951402657E-01
  0.415951392338E-01
  0.415951392577E-01
  0.415951373193E-01
  0.415951373803E-01
  0.415951362963E-01
  0.415951362313E-01
  0.415951352892E-01
  0.415951353055E-01
  0.415951367891E-01
  0.415951368850E-01
  0.415951394519E-01
  0.415951394196E-01
  0.415951392418E-01
  0.415951392159E-01
  0.415951387455E-01
  0.415951387991E-01
  0.415951391340E-01
  0.415951390929E-01
  0.415951364180E-01
  0.415951364498E-01
  0.415951391226E-01
  0.415951390451E-01
  0.415951376120E-01
  0.415951378840E-01
  0.415951367931E-01
  0.415951392206E-01
  0.415951372952E-01
  0.415951373619E-01
  0.415951376305E-01
  0.415951376363E-01
  0.415951401169E-01
  0.415951400431E-01
  0.415951369278E-01
  0.415951370198E-01
  0.415951396438E-01
  0.415951395622E-01
  0.415951378297E-01
  0.415951378433E-01
  0.415951372062E-01
  0.415951372073E-01
  0.415951394338E-01
  0.415951393599E-01
  0.415951370213E-01
  0.415951370805E-01
  0.415951370525E-01
  0.415951370565E-01
  0.415951379154E-01
  0.415951379615E-01
  0.415951394873E-01
  0.415951394541E-01
  0.415951394333E-01
  0.415951394056E-01
  0.415951385890E-01
  0.415951386468E-01
  0.415951405733E-01
  0.415951404662E-01
  0.415951400537E-01
  0.415951400381E-01
  0.415951398532E-01
  0.415951399444E-01
  0.415951382055E-01
  0.415951382596E-01
  0.415951387448E-01
  0.415951387170E-01
  0.415951388329E-01
  0.415951388040E-01
  0.415951362503E-01
  0.415951362976E-01
  0.415951392162E-01
  0.415951392322E-01
  0.415951414744E-01
  0.415951413918E-01
  0.415951383725E-01
  0.415951386240E-01
  0.415951393790E-01
  0.415951384411E-01
  0.415951374839E-01
  0.415951374959E-01
  0.415951373913E-01
  0.415951374231E-01
  0.415951381507E-01
  0.415951381563E-01
  0.415951386394E-01
  0.415951385936E-01
  0.415951365021E-01
  0.415951364713E-01
  0.415951356871E-01
  0.415951357017E-01
  0.415951375706E-01
  0.415951375912E-01
  0.415951390216E-01
  0.415951389462E-01
  0.415951365431E-01
  0.415951366024E-01
  0.415951390700E-01
  0.415951390245E-01
  0.415951371223E-01
  0.415951371533E-01