# vtk DataFile Version 3.0
MachLine results file. Generated by MachLine, USU AeroLab (c) 2022.
ASCII
DATASET POLYDATA
POINTS                 781 float
  0.572899616308E+02  0.000000000000E+00  0.000000000000E+00
  0.553802962431E+02  0.333333333333E-01  0.000000000000E+00
  0.553802962431E+02  0.330704900438E-01  0.417777445214E-02
  0.553802962431E+02  0.322861053710E-01  0.828966290550E-02
  0.553802962431E+02  0.309925495296E-01  0.122708184228E-01
  0.553802962431E+02  0.292102226681E-01  0.160584558034E-01
  0.553802962431E+02  0.269672331458E-01  0.195928417431E-01
  0.553802962431E+02  0.242989542474E-01  0.228182368643E-01
  0.553802962431E+02  0.212474663250E-01  0.256837747592E-01
  0.553802962431E+02  0.178608931660E-01  0.281442641834E-01
  0.553802962431E+02  0.141926430522E-01  0.301609017489E-01
  0.553802962431E+02  0.103005664792E-01  0.317018838765E-01
  0.553802962431E+02  0.624604381952E-02  0.327429083576E-01
  0.553802962431E+02  0.209301731764E-02  0.332675576143E-01
  0.553802962431E+02 -0.209301731764E-02  0.332675576143E-01
  0.553802962431E+02 -0.624604381952E-02  0.327429083576E-01
  0.553802962431E+02 -0.103005664792E-01  0.317018838765E-01
  0.553802962431E+02 -0.141926430522E-01  0.301609017489E-01
  0.553802962431E+02 -0.178608931660E-01  0.281442641834E-01
  0.553802962431E+02 -0.212474663250E-01  0.256837747592E-01
  0.553802962431E+02 -0.242989542474E-01  0.228182368643E-01
  0.553802962431E+02 -0.269672331458E-01  0.195928417431E-01
  0.553802962431E+02 -0.292102226681E-01  0.160584558034E-01
  0.553802962431E+02 -0.309925495296E-01  0.122708184228E-01
  0.553802962431E+02 -0.322861053710E-01  0.828966290550E-02
  0.553802962431E+02 -0.330704900438E-01  0.417777445214E-02
  0.553802962431E+02 -0.333333333333E-01  0.408215599716E-17
  0.534706308554E+02  0.666666666667E-01  0.000000000000E+00
  0.534706308554E+02  0.661409800876E-01  0.835554890429E-02
  0.534706308554E+02  0.645722107419E-01  0.165793258110E-01
  0.534706308554E+02  0.619850990592E-01  0.245416368456E-01
  0.534706308554E+02  0.584204453363E-01  0.321169116068E-01
  0.534706308554E+02  0.539344662917E-01  0.391856834862E-01
  0.534706308554E+02  0.485979084948E-01  0.456364737286E-01
  0.534706308554E+02  0.424949326499E-01  0.513675495184E-01
  0.534706308554E+02  0.357217863319E-01  0.562885283668E-01
  0.534706308554E+02  0.283852861043E-01  0.603218034977E-01
  0.534706308554E+02  0.206011329583E-01  0.634037677530E-01
  0.534706308554E+02  0.124920876390E-01  0.654858167152E-01
  0.534706308554E+02  0.418603463529E-02  0.665351152286E-01
  0.534706308554E+02 -0.418603463529E-02  0.665351152286E-01
  0.534706308554E+02 -0.124920876390E-01  0.654858167152E-01
  0.534706308554E+02 -0.206011329583E-01  0.634037677530E-01
  0.534706308554E+02 -0.283852861043E-01  0.603218034977E-01
  0.534706308554E+02 -0.357217863319E-01  0.562885283668E-01
  0.534706308554E+02 -0.424949326499E-01  0.513675495184E-01
  0.534706308554E+02 -0.485979084948E-01  0.456364737286E-01
  0.534706308554E+02 -0.539344662917E-01  0.391856834862E-01
  0.534706308554E+02 -0.584204453363E-01  0.321169116068E-01
  0.534706308554E+02 -0.619850990592E-01  0.245416368456E-01
  0.534706308554E+02 -0.645722107419E-01  0.165793258110E-01
  0.534706308554E+02 -0.661409800876E-01  0.835554890429E-02
  0.534706308554E+02 -0.666666666667E-01  0.816431199432E-17
  0.515609654677E+02  0.100000000000E+00  0.000000000000E+00
  0.515609654677E+02  0.992114701314E-01  0.125333233564E-01
  0.515609654677E+02  0.968583161129E-01  0.248689887165E-01
  0.515609654677E+02  0.929776485888E-01  0.368124552685E-01
  0.515609654677E+02  0.876306680044E-01  0.481753674102E-01
  0.515609654677E+02  0.809016994375E-01  0.587785252292E-01
  0.515609654677E+02  0.728968627421E-01  0.684547105929E-01
  0.515609654677E+02  0.637423989749E-01  0.770513242776E-01
  0.515609654677E+02  0.535826794979E-01  0.844327925502E-01
  0.515609654677E+02  0.425779291565E-01  0.904827052466E-01
  0.515609654677E+02  0.309016994375E-01  0.951056516295E-01
  0.515609654677E+02  0.187381314586E-01  0.982287250729E-01
  0.515609654677E+02  0.627905195293E-02  0.998026728428E-01
  0.515609654677E+02 -0.627905195293E-02  0.998026728428E-01
  0.515609654677E+02 -0.187381314586E-01  0.982287250729E-01
  0.515609654677E+02 -0.309016994375E-01  0.951056516295E-01
  0.515609654677E+02 -0.425779291565E-01  0.904827052466E-01
  0.515609654677E+02 -0.535826794979E-01  0.844327925502E-01
  0.515609654677E+02 -0.637423989749E-01  0.770513242776E-01
  0.515609654677E+02 -0.728968627421E-01  0.684547105929E-01
  0.515609654677E+02 -0.809016994375E-01  0.587785252292E-01
  0.515609654677E+02 -0.876306680044E-01  0.481753674102E-01
  0.515609654677E+02 -0.929776485888E-01  0.368124552685E-01
  0.515609654677E+02 -0.968583161129E-01  0.248689887165E-01
  0.515609654677E+02 -0.992114701314E-01  0.125333233564E-01
  0.515609654677E+02 -0.100000000000E+00  0.122464679915E-16
  0.496513000800E+02  0.133333333333E+00  0.000000000000E+00
  0.496513000800E+02  0.132281960175E+00  0.167110978086E-01
  0.496513000800E+02  0.129144421484E+00  0.331586516220E-01
  0.496513000800E+02  0.123970198118E+00  0.490832736913E-01
  0.496513000800E+02  0.116840890673E+00  0.642338232136E-01
  0.496513000800E+02  0.107868932583E+00  0.783713669723E-01
  0.496513000800E+02  0.971958169895E-01  0.912729474572E-01
  0.496513000800E+02  0.849898652998E-01  0.102735099037E+00
  0.496513000800E+02  0.714435726639E-01  0.112577056734E+00
  0.496513000800E+02  0.567705722087E-01  0.120643606995E+00
  0.496513000800E+02  0.412022659167E-01  0.126807535506E+00
  0.496513000800E+02  0.249841752781E-01  0.130971633430E+00
  0.496513000800E+02  0.837206927058E-02  0.133070230457E+00
  0.496513000800E+02 -0.837206927058E-02  0.133070230457E+00
  0.496513000800E+02 -0.249841752781E-01  0.130971633430E+00
  0.496513000800E+02 -0.412022659167E-01  0.126807535506E+00
  0.496513000800E+02 -0.567705722087E-01  0.120643606995E+00
  0.496513000800E+02 -0.714435726639E-01  0.112577056734E+00
  0.496513000800E+02 -0.849898652998E-01  0.102735099037E+00
  0.496513000800E+02 -0.971958169895E-01  0.912729474572E-01
  0.496513000800E+02 -0.107868932583E+00  0.783713669723E-01
  0.496513000800E+02 -0.116840890673E+00  0.642338232136E-01
  0.496513000800E+02 -0.123970198118E+00  0.490832736913E-01
  0.496513000800E+02 -0.129144421484E+00  0.331586516220E-01
  0.496513000800E+02 -0.132281960175E+00  0.167110978086E-01
  0.496513000800E+02 -0.133333333333E+00  0.163286239886E-16
  0.477416346923E+02  0.166666666667E+00  0.000000000000E+00
  0.477416346923E+02  0.165352450219E+00  0.208888722607E-01
  0.477416346923E+02  0.161430526855E+00  0.414483145275E-01
  0.477416346923E+02  0.154962747648E+00  0.613540921141E-01
  0.477416346923E+02  0.146051113341E+00  0.802922790170E-01
  0.477416346923E+02  0.134836165729E+00  0.979642087154E-01
  0.477416346923E+02  0.121494771237E+00  0.114091184321E+00
  0.477416346923E+02  0.106237331625E+00  0.128418873796E+00
  0.477416346923E+02  0.893044658298E-01  0.140721320917E+00
  0.477416346923E+02  0.709632152608E-01  0.150804508744E+00
  0.477416346923E+02  0.515028323958E-01  0.158509419383E+00
  0.477416346923E+02  0.312302190976E-01  0.163714541788E+00
  0.477416346923E+02  0.104650865882E-01  0.166337788071E+00
  0.477416346923E+02 -0.104650865882E-01  0.166337788071E+00
  0.477416346923E+02 -0.312302190976E-01  0.163714541788E+00
  0.477416346923E+02 -0.515028323958E-01  0.158509419383E+00
  0.477416346923E+02 -0.709632152608E-01  0.150804508744E+00
  0.477416346923E+02 -0.893044658298E-01  0.140721320917E+00
  0.477416346923E+02 -0.106237331625E+00  0.128418873796E+00
  0.477416346923E+02 -0.121494771237E+00  0.114091184321E+00
  0.477416346923E+02 -0.134836165729E+00  0.979642087154E-01
  0.477416346923E+02 -0.146051113341E+00  0.802922790170E-01
  0.477416346923E+02 -0.154962747648E+00  0.613540921141E-01
  0.477416346923E+02 -0.161430526855E+00  0.414483145275E-01
  0.477416346923E+02 -0.165352450219E+00  0.208888722607E-01
  0.477416346923E+02 -0.166666666667E+00  0.204107799858E-16
  0.458319693046E+02  0.200000000000E+00  0.000000000000E+00
  0.458319693046E+02  0.198422940263E+00  0.250666467129E-01
  0.458319693046E+02  0.193716632226E+00  0.497379774330E-01
  0.458319693046E+02  0.185955297178E+00  0.736249105369E-01
  0.458319693046E+02  0.175261336009E+00  0.963507348203E-01
  0.458319693046E+02  0.161803398875E+00  0.117557050458E+00
  0.458319693046E+02  0.145793725484E+00  0.136909421186E+00
  0.458319693046E+02  0.127484797950E+00  0.154102648555E+00
  0.458319693046E+02  0.107165358996E+00  0.168865585100E+00
  0.458319693046E+02  0.851558583130E-01  0.180965410493E+00
  0.458319693046E+02  0.618033988750E-01  0.190211303259E+00
  0.458319693046E+02  0.374762629171E-01  0.196457450146E+00
  0.458319693046E+02  0.125581039059E-01  0.199605345686E+00
  0.458319693046E+02 -0.125581039059E-01  0.199605345686E+00
  0.458319693046E+02 -0.374762629171E-01  0.196457450146E+00
  0.458319693046E+02 -0.618033988750E-01  0.190211303259E+00
  0.458319693046E+02 -0.851558583130E-01  0.180965410493E+00
  0.458319693046E+02 -0.107165358996E+00  0.168865585100E+00
  0.458319693046E+02 -0.127484797950E+00  0.154102648555E+00
  0.458319693046E+02 -0.145793725484E+00  0.136909421186E+00
  0.458319693046E+02 -0.161803398875E+00  0.117557050458E+00
  0.458319693046E+02 -0.175261336009E+00  0.963507348203E-01
  0.458319693046E+02 -0.185955297178E+00  0.736249105369E-01
  0.458319693046E+02 -0.193716632226E+00  0.497379774330E-01
  0.458319693046E+02 -0.198422940263E+00  0.250666467129E-01
  0.458319693046E+02 -0.200000000000E+00  0.244929359829E-16
  0.439223039169E+02  0.233333333333E+00  0.000000000000E+00
  0.439223039169E+02  0.231493430307E+00  0.292444211650E-01
  0.439223039169E+02  0.226002737597E+00  0.580276403385E-01
  0.439223039169E+02  0.216947846707E+00  0.858957289598E-01
[...]
CELL_DATA                1475
SCALARS C_p_ise float 1
LOOKUP_TABLE default
  0.239250058744E-02
  0.239250058199E-02
  0.239250058198E-02
  0.239250058196E-02
  0.239250058198E-02
  0.239250058199E-02
  0.239250058201E-02
  0.239250058197E-02
  0.239250058191E-02
  0.239250058193E-02
  0.239250058192E-02
  0.239250058190E-02
  0.239250058192E-02
  0.239250058192E-02
  0.239250058191E-02
  0.239250058194E-02
  0.239250058193E-02
  0.239250058197E-02
  0.239250058200E-02
  0.239250058193E-02
  0.239250058193E-02
  0.239250058196E-02
  0.239250058196E-02
  0.239250058188E-02
  0.239250057379E-02
  0.239250052533E-02
  0.239250054129E-02
  0.239250053591E-02
  0.239250053610E-02
  0.239250053612E-02
  0.239250053622E-02
  0.239250053623E-02
  0.239250053629E-02
  0.239250053623E-02
  0.239250053601E-02
  0.239250053608E-02
  0.239250053628E-02
  0.239250053631E-02
  0.239250053632E-02
  0.239250053632E-02
  0.239250053646E-02
  0.239250053640E-02
  0.239250053641E-02
  0.239250053643E-02
  0.239250053642E-02
  0.239250053640E-02
  0.239250053637E-02
  0.239250053631E-02
  0.239250053617E-02
  0.239250053619E-02
  0.239250053618E-02
  0.239250053620E-02
  0.239250053625E-02
  0.239250053627E-02
  0.239250053637E-02
  0.239250053634E-02
  0.239250053618E-02
  0.239250053624E-02
  0.239250053643E-02
  0.239250053643E-02
  0.239250053632E-02
  0.239250053637E-02
  0.239250053647E-02
  0.239250053640E-02
  0.239250053638E-02
  0.239250053634E-02
  0.239250053621E-02
  0.239250053622E-02
  0.239250053619E-02
  0.239250053624E-02
  0.239250053637E-02
  0.239250053631E-02
  0.239250053638E-02
  0.239250053677E-02
  0.239250056222E-02
  0.239250052940E-02
  0.239250052982E-02
  0.239250052965E-02
  0.239250052914E-02
  0.239250052923E-02
  0.239250052925E-02
  0.239250052936E-02
  0.239250052968E-02
  0.239250052961E-02
  0.239250052944E-02
  0.239250052947E-02
  0.239250052962E-02
  0.239250052962E-02
  0.239250052917E-02
  0.239250052923E-02
  0.239250052948E-02
  0.239250052941E-02
  0.239250052913E-02
  0.239250052916E-02
  0.239250052925E-02
  0.239250052930E-02
  0.239250052970E-02
  0.239250052963E-02
  0.239250052966E-02
  0.239250052966E-02
  0.239250052977E-02
  0.239250052975E-02
  0.239250052957E-02
  0.239250052953E-02
  0.239250052915E-02
  0.239250052922E-02
  0.239250052955E-02
  0.239250052950E-02
  0.239250052926E-02
  0.239250052935E-02
  0.239250052948E-02
  0.239250052956E-02
  0.239250052984E-02
  0.239250052972E-02
  0.239250052931E-02
  0.239250052933E-02
  0.239250052968E-02
  0.239250052963E-02
  0.239250052956E-02
  0.239250052961E-02
  0.239250052969E-02
  0.239250052963E-02
  0.239250052938E-02
  0.239250052995E-02
  0.239250053068E-02
  0.239250052730E-02
  0.239250052700E-02
  0.239250052693E-02
  0.239250052706E-02
  0.239250052711E-02
  0.239250052758E-02
  0.239250052759E-02
  0.239250052687E-02
  0.239250052694E-02
  0.239250052750E-02
  0.239250052747E-02
  0.239250052720E-02
  0.239250052726E-02
  0.239250052745E-02
  0.239250052742E-02
  0.239250052743E-02
  0.239250052742E-02
  0.239250052756E-02
  0.239250052750E-02
  0.239250052724E-02
  0.239250052719E-02
  0.239250052635E-02
  0.239250052639E-02
  0.239250052657E-02
  0.239250052657E-02
  0.239250052661E-02
  0.239250052669E-02
  0.239250052722E-02
  0.239250052709E-02
  0.239250052675E-02
  0.239250052687E-02
  0.239250052774E-02
  0.239250052771E-02
  0.239250052738E-02
  0.239250052734E-02
  0.239250052677E-02
  0.239250052674E-02
  0.239250052588E-02
  0.239250052597E-02
  0.239250052706E-02
  0.239250052700E-02
  0.239250052705E-02
  0.239250052714E-02
  0.239250052760E-02
  0.239250052748E-02
  0.239250052635E-02
  0.239250052652E-02
  0.239250052799E-02
  0.239250052862E-02
  0.239250052947E-02
  0.239250052973E-02
  0.239250053010E-02
  0.239250053004E-02
  0.239250053049E-02
  0.239250053053E-02
  0.239250053022E-02
  0.239250053020E-02
  0.239250052932E-02
  0.239250052929E-02
  0.239250052929E-02
  0.239250052928E-02
  0.239250052888E-02
  0.239250052887E-02
  0.239250052861E-02
  0.239250052875E-02
  0.239250052997E-02
  0.239250052992E-02
  0.239250052946E-02
  0.239250052944E-02
  0.239250052951E-02
  0.239250052961E-02
  0.239250053120E-02
  0.239250053105E-02
  0.239250053043E-02
  0.239250053043E-02
  0.239250053017E-02
  0.239250053025E-02
  0.239250053018E-02
  0.239250053008E-02
  0.239250052966E-02
  0.239250052970E-02
  0.239250052946E-02
  0.239250052954E-02
  0.239250052940E-02
  0.239250052936E-02
  0.239250052972E-02
  0.239250052956E-02
  0.239250052900E-02
  0.239250052917E-02
  0.239250053096E-02
  0.239250053096E-02
  0.239250053013E-02
  0.239250053013E-02
  0.239250052930E-02
  0.239250052934E-02
  0.239250053015E-02
  0.239250053010E-02
  0.239250052956E-02
  0.239250053057E-02
  0.239250053215E-02
  0.239250052501E-02
  0.239250052747E-02
  0.239250052737E-02
  0.239250052653E-02
  0.239250052651E-02
  0.239250052545E-02
  0.239250052526E-02
  0.239250052376E-02
  0.239250052375E-02
  0.239250052513E-02
  0.239250052534E-02
  0.239250052771E-02
  0.239250052757E-02
  0.239250052657E-02
  0.239250052653E-02
  0.239250052501E-02
  0.239250052513E-02
  0.239250052545E-02
  0.239250052540E-02
  0.239250052570E-02
  0.239250052562E-02
  0.239250052366E-02
  0.239250052406E-02
  0.239250052816E-02
  0.239250052788E-02
  0.239250052566E-02
  0.239250052560E-02
  0.239250052436E-02
  0.239250052454E-02
  0.239250052768E-02
  0.239250052745E-02
  0.239250052497E-02
  0.239250052519E-02
  0.239250052703E-02
  0.239250052691E-02
  0.239250052633E-02
  0.239250052625E-02
  0.239250052676E-02
  0.239250052653E-02
  0.239250052284E-02
  0.239250052316E-02
  0.239250052439E-02
  0.239250052441E-02
  0.239250052567E-02
  0.239250052565E-02
  0.239250052610E-02
  0.239250052620E-02
  0.239250052698E-02
  0.239250052788E-02
  0.239250052726E-02
  0.239250052962E-02
  0.239250052720E-02
  0.239250052761E-02
  0.239250053130E-02
  0.239250053135E-02
  0.239250053312E-02
  0.239250053281E-02
  0.239250053252E-02
  0.239250053247E-02
  0.239250053359E-02
  0.239250053343E-02
  0.239250052695E-02
  0.239250052716E-02
  0.239250052902E-02
  0.239250052916E-02
  0.239250053260E-02
  0.239250053260E-02
  0.239250053290E-02
  0.239250053276E-02
  0.239250053121E-02
  0.239250053113E-02
  0.239250053071E-02
  0.239250053063E-02
  0.239250052674E-02
  0.239250052688E-02
  0.239250052728E-02
  0.239250052725E-02
  0.239250053033E-02
  0.239250053012E-02
  0.239250052652E-02
  0.239250052697E-02
  0.239250053212E-02
  0.239250053170E-02
  0.239250052635E-02
  0.239250052665E-02
  0.239250052982E-02
  0.239250052972E-02
  0.239250053005E-02
  0.239250053012E-02
  0.239250053343E-02
  0.239250053316E-02
  0.239250052992E-02
  0.239250053008E-02
  0.239250053034E-02
  0.239250053064E-02
  0.239250053320E-02
  0.239250053304E-02
  0.239250052902E-02
  0.239250053044E-02
  0.239250053625E-02
  0.239250052586E-02
  0.239250052507E-02
  0.239250052521E-02
  0.239250052397E-02
  0.239250052413E-02
  0.239250052171E-02
  0.239250052171E-02
  0.239250052440E-02
  0.239250052415E-02
  0.239250052155E-02
  0.239250052176E-02
  0.239250052608E-02
  0.239250052591E-02
  0.239250052763E-02
  0.239250052748E-02
  0.239250052097E-02
  0.239250052132E-02
  0.239250052267E-02
  0.239250052261E-02
  0.239250052336E-02
  0.239250052312E-02
  0.239250052250E-02
  0.239250052239E-02
  0.239250052242E-02
  0.239250052252E-02
  0.239250052654E-02
  0.239250052678E-02
  0.239250053038E-02
  0.239250053009E-02
  0.239250052538E-02
  0.239250052546E-02
  0.239250052411E-02
  0.239250052424E-02
  0.239250052637E-02
  0.239250052631E-02
  0.239250052718E-02
  0.239250052711E-02
  0.239250052408E-02
  0.239250052410E-02
  0.239250052303E-02
  0.239250052329E-02
  0.239250052731E-02
  0.239250052706E-02
  0.239250052473E-02
  0.239250052472E-02
  0.239250051995E-02
  0.239250052049E-02
  0.239250052818E-02
  0.239250052927E-02
  0.239250052892E-02
  0.239250052939E-02
  0.239250052690E-02
  0.239250052705E-02
  0.239250052792E-02
  0.239250052806E-02
  0.239250052887E-02
  0.239250052884E-02
  0.239250053102E-02
  0.239250053083E-02
  0.239250052876E-02
  0.239250052911E-02
  0.239250053454E-02
  0.239250053429E-02
  0.239250052801E-02
  0.239250052814E-02
  0.239250053105E-02
  0.239250053087E-02
  0.239250052908E-02
  0.239250052933E-02
  0.239250053331E-02
  0.239250053314E-02
  0.239250053351E-02
  0.239250053330E-02
  0.239250053237E-02
  0.239250053250E-02
  0.239250053287E-02
  0.239250053304E-02
  0.239250052737E-02
  0.239250052749E-02
  0.239250053046E-02
  0.239250053020E-02
  0.239250052968E-02
  0.239250053002E-02
  0.239250053531E-02
  0.239250053488E-02
  0.239250052607E-02
  0.239250052620E-02
  0.239250052865E-02
  0.239250052874E-02
  0.239250053338E-02
  0.239250053323E-02
  0.239250052755E-02
  0.239250052754E-02
  0.239250052695E-02
  0.239250052730E-02
  0.239250053599E-02
  0.239250053568E-02
  0.239250052664E-02
  0.239250052864E-02
  0.239250053540E-02
  0.239250053150E-02
  0.239250053345E-02
  0.239250053323E-02
  0.239250052906E-02
  0.239250052932E-02
  0.239250053075E-02
  0.239250053067E-02
  0.239250052876E-02
  0.239250052861E-02
  0.239250052704E-02
  0.239250052707E-02
  0.239250052325E-02
  0.239250052341E-02
  0.239250052528E-02
  0.239250052527E-02
  0.239250052963E-02
  0.239250052948E-02
  0.239250052698E-02
  0.239250052687E-02
  0.239250052197E-02
  0.239250052235E-02
  0.239250052837E-02
  0.239250052848E-02
  0.239250053416E-02
  0.239250053382E-02
  0.239250052611E-02
  0.239250052648E-02
  0.239250052968E-02
  0.239250052951E-02
  0.239250053011E-02
  0.239250052991E-02
  0.239250052763E-02
  0.239250052807E-02
  0.239250053045E-02
  0.239250053034E-02
  0.239250053060E-02
  0.239250053023E-02
  0.239250053056E-02
  0.239250053062E-02
  0.239250052715E-02
  0.239250052700E-02
  0.239250052173E-02
  0.239250052217E-02
  0.239250053717E-02
  0.239250053708E-02
  0.239250052928E-02
  0.239250052953E-02
  0.239250053034E-02
  0.239250053190E-02
  0.239250053369E-02
  0.239250052651E-02
  0.239250052937E-02
  0.239250052922E-02
  0.239250052843E-02
  0.239250052828E-02
  0.239250052418E-02
  0.239250052456E-02
  0.239250053265E-02
  0.239250053226E-02
  0.239250052925E-02
  0.239250052922E-02
  0.239250052954E-02
  0.239250052963E-02
  0.239250053224E-02
  0.239250053180E-02
  0.239250052079E-02
  0.239250052115E-02
  0.239250052699E-02
  0.239250052703E-02
  0.239250053300E-02
  0.239250053289E-02
  0.239250052810E-02
  0.239250052826E-02
  0.239250052250E-02
  0.239250052264E-02
  0.239250052638E-02
  0.239250052644E-02
  0.239250052872E-02
  0.239250052887E-02
  0.239250053212E-02
  0.239250053162E-02
  0.239250052480E-02
  0.239250052457E-02
  0.239250051299E-02
  0.239250051352E-02
  0.239250052427E-02
  0.239250052458E-02
  0.239250053850E-02
  0.239250053796E-02
  0.239250052505E-02
  0.239250052520E-02
  0.239250053528E-02
  0.239250053490E-02
  0.239250052345E-02
  0.239250052370E-02
  0.239250051430E-02
  0.239250051460E-02
  0.239250052414E-02
  0.239250052618E-02
  0.239250053521E-02
  0.239250052742E-02
  0.239250052674E-02
  0.239250052644E-02
  0.239250051990E-02
  0.239250052004E-02
  0.239250052770E-02
  0.239250052763E-02
  0.239250052167E-02
  0.239250052185E-02
  0.239250052616E-02
  0.239250052598E-02
  0.239250052581E-02
  0.239250052564E-02
  0.239250051923E-02
  0.239250051971E-02
  0.239250053778E-02
  0.239250053738E-02
  0.239250053188E-02
  0.239250053195E-02
  0.239250052627E-02
  0.239250052611E-02
  0.239250051827E-02
  0.239250051877E-02
  0.239250053194E-02
  0.239250053184E-02
  0.239250053264E-02
  0.239250053244E-02
  0.239250052220E-02
  0.239250052217E-02
  0.239250051554E-02
  0.239250051585E-02
  0.239250053091E-02
  0.239250053051E-02
  0.239250053408E-02
  0.239250053348E-02
  0.239250052013E-02
  0.239250052069E-02
  0.239250051474E-02
  0.239250051594E-02
  0.239250054068E-02
  0.239250053979E-02
  0.239250052998E-02
  0.239250052939E-02
  0.239250051346E-02
  0.239250051399E-02
  0.239250053283E-02
  0.239250053224E-02
  0.239250052234E-02
  0.239250052503E-02
  0.239250052985E-02
  0.239250052496E-02
  0.239250052360E-02
  0.239250052384E-02
  0.239250053809E-02
  0.239250053791E-02
  0.239250053714E-02
  0.239250053671E-02
  0.239250051952E-02
  0.239250052009E-02
  0.239250053619E-02
  0.239250053582E-02
  0.239250052664E-02
  0.239250052675E-02
  0.239250053388E-02
  0.239250053379E-02
  0.239250052652E-02
  0.239250052689E-02
  0.239250052647E-02
  0.239250052610E-02
  0.239250052089E-02
  0.239250052125E-02
  0.239250054039E-02
  0.239250053986E-02
  0.239250052254E-02
  0.239250052284E-02
  0.239250051863E-02
  0.239250051881E-02
  0.239250052736E-02
  0.239250052771E-02
  0.239250054837E-02
  0.239250054750E-02
  0.239250052502E-02
  0.239250052568E-02
  0.239250053577E-02
  0.239250053577E-02
  0.239250054686E-02
  0.239250054600E-02
  0.239250052480E-02
  0.239250052526E-02
  0.239250051326E-02
  0.239250051421E-02
  0.239250053344E-02
  0.239250053271E-02
  0.239250054001E-02
  0.239250053943E-02
  0.239250052919E-02
  0.239250052927E-02
  0.239250052535E-02
  0.239250052835E-02
  0.239250054680E-02
  0.239250052604E-02
  0.239250052490E-02
  0.239250052513E-02
  0.239250052664E-02
  0.239250052662E-02
  0.239250051527E-02
  0.239250051574E-02
  0.239250054092E-02
  0.239250054007E-02
  0.239250052049E-02
  0.239250052104E-02
  0.239250052816E-02
  0.239250052784E-02
  0.239250052611E-02
  0.239250052643E-02
  0.239250052999E-02
  0.239250053004E-02
  0.239250052935E-02
  0.239250052893E-02
  0.239250052790E-02
  0.239250052787E-02
  0.239250052293E-02
  0.239250052336E-02
  0.239250052865E-02
  0.239250052786E-02
  0.239250051706E-02
  0.239250051781E-02
  0.239250053782E-02
  0.239250053727E-02
  0.239250050372E-02
  0.239250050501E-02
  0.239250054124E-02
  0.239250054000E-02
  0.239250051323E-02
  0.239250051359E-02
  0.239250051239E-02
  0.239250051290E-02
  0.239250053796E-02
  0.239250053688E-02
  0.239250051832E-02
  0.239250051861E-02
  0.239250051386E-02
  0.239250051421E-02
  0.239250052260E-02
  0.239250052223E-02
  0.239250051996E-02
  0.239250051986E-02
  0.239250052607E-02
  0.239250052859E-02
  0.239250051976E-02
  0.239250053514E-02
  0.239250053168E-02
  0.239250053176E-02
  0.239250052864E-02
  0.239250052862E-02
  0.239250052716E-02
  0.239250052703E-02
  0.239250052183E-02
  0.239250052191E-02
  0.239250052167E-02
  0.239250052156E-02
  0.239250052349E-02
  0.239250052426E-02
  0.239250054839E-02
  0.239250054739E-02
  0.239250051064E-02
  0.239250051122E-02
  0.239250052278E-02
  0.239250052269E-02
  0.239250053320E-02
  0.239250053252E-02
  0.239250051492E-02
  0.239250051558E-02
  0.239250052752E-02
  0.239250052737E-02
  0.239250054002E-02
  0.239250053970E-02
  0.239250052031E-02
  0.239250052099E-02
  0.239250053532E-02
  0.239250053448E-02
  0.239250050879E-02
  0.239250050957E-02
  0.239250052888E-02
  0.239250052869E-02
  0.239250054156E-02
  0.239250054089E-02
  0.239250050822E-02
  0.239250050895E-02
  0.239250053450E-02
  0.239250053410E-02
  0.239250053422E-02
  0.239250053422E-02
  0.239250052909E-02
  0.239250052962E-02
  0.239250054683E-02
  0.239250054656E-02
  0.239250054408E-02
  0.239250054684E-02
  0.239250054697E-02
  0.239250051954E-02
  0.239250052889E-02
  0.239250052870E-02
  0.239250052385E-02
  0.239250052426E-02
  0.239250054094E-02
  0.239250054004E-02
  0.239250051770E-02
  0.239250051778E-02
  0.239250052350E-02
  0.239250052382E-02
  0.239250053737E-02
  0.239250053710E-02
  0.239250050293E-02
  0.239250050413E-02
  0.239250054666E-02
  0.239250054507E-02
  0.239250051715E-02
  0.239250051720E-02
  0.239250050910E-02
  0.239250050953E-02
  0.239250053268E-02
  0.239250053271E-02
  0.239250053211E-02
  0.239250053200E-02
  0.239250052061E-02
  0.239250052104E-02
  0.239250053043E-02
  0.239250053088E-02
  0.239250054425E-02
  0.239250054366E-02
  0.239250053581E-02
  0.239250053574E-02
  0.239250053697E-02
  0.239250053672E-02
  0.239250051413E-02
  0.239250051453E-02
  0.239250053377E-02
  0.239250053309E-02
  0.239250052442E-02
  0.239250052546E-02
  0.239250054250E-02
  0.239250054206E-02
  0.239250052834E-02
  0.239250052817E-02
  0.239250051186E-02
  0.239250051225E-02
  0.239250051443E-02
  0.239250051689E-02
  0.239250051046E-02
  0.239250054108E-02
  0.239250052679E-02
  0.239250052630E-02
  0.239250050648E-02
  0.239250050621E-02
  0.239250048883E-02
  0.239250048971E-02
  0.239250053064E-02
  0.239250053034E-02
  0.239250054157E-02
  0.239250054107E-02
  0.239250050801E-02
  0.239250050871E-02
  0.239250052619E-02
  0.239250052656E-02
  0.239250053566E-02
  0.239250053574E-02
  0.239250054532E-02
  0.239250054434E-02
  0.239250054016E-02
  0.239250053917E-02
  0.239250050091E-02
  0.239250050201E-02
  0.239250051277E-02
  0.239250051346E-02
  0.239250054052E-02
  0.239250054008E-02
  0.239250052386E-02
  0.239250052462E-02
  0.239250052478E-02
  0.239250052444E-02
  0.239250051868E-02
  0.239250051873E-02
  0.239250053119E-02
  0.239250053127E-02
  0.239250054096E-02
  0.239250054061E-02
  0.239250053988E-02
  0.239250053970E-02
  0.239250053568E-02
  0.239250053568E-02
  0.239250051062E-02
  0.239250051130E-02
  0.239250053033E-02
  0.239250052937E-02
  0.239250051771E-02
  0.239250051773E-02
  0.239250052307E-02
  0.239250052643E-02
  0.239250055351E-02
  0.239250050118E-02
  0.239250053732E-02
  0.239250053650E-02
  0.239250054011E-02
  0.239250053945E-02
  0.239250054666E-02
  0.239250054645E-02
  0.239250052668E-02
  0.239250052748E-02
  0.239250052276E-02
  0.239250052289E-02
  0.239250053312E-02
  0.239250053331E-02
  0.239250055066E-02
  0.239250055012E-02
  0.239250049954E-02
  0.239250050049E-02
  0.239250052134E-02
  0.239250052030E-02
  0.239250050783E-02
  0.239250050823E-02
  0.239250056114E-02
  0.239250056028E-02
  0.239250053188E-02
  0.239250053246E-02
  0.239250051721E-02
  0.239250051779E-02
  0.239250052466E-02
  0.239250052440E-02
  0.239250050620E-02
  0.239250050647E-02
  0.239250052783E-02
  0.239250052745E-02
  0.239250051841E-02
  0.239250051889E-02
  0.239250051986E-02
  0.239250051976E-02
  0.239250051834E-02
  0.239250051801E-02
  0.239250051345E-02
  0.239250051352E-02
  0.239250051998E-02
  0.239250051933E-02
  0.239250049905E-02
  0.239250049960E-02
  0.239250053245E-02
  0.239250053223E-02
  0.239250053590E-02
  0.239250054014E-02
  0.239250056563E-02
  0.239250053801E-02
  0.239250052396E-02
  0.239250052412E-02
  0.239250052225E-02
  0.239250052215E-02
  0.239250053943E-02
  0.239250053931E-02
  0.239250053503E-02
  0.239250053499E-02
  0.239250052473E-02
  0.239250052497E-02
  0.239250053377E-02
  0.239250053387E-02
  0.239250051926E-02
  0.239250051931E-02
  0.239250052263E-02
  0.239250052235E-02
  0.239250053060E-02
  0.239250053064E-02
  0.239250054874E-02
  0.239250054763E-02
  0.239250050529E-02
  0.239250050680E-02
  0.239250053902E-02
  0.239250053879E-02
  0.239250053905E-02
  0.239250053877E-02
  0.239250052307E-02
  0.239250052357E-02
  0.239250054423E-02
  0.239250054332E-02
  0.239250051856E-02
  0.239250051915E-02
  0.239250053240E-02
  0.239250053218E-02
  0.239250051581E-02
  0.239250051667E-02
  0.239250055100E-02
  0.239250055038E-02
  0.239250054094E-02
  0.239250054063E-02
  0.239250053152E-02
  0.239250053157E-02
  0.239250055057E-02
  0.239250055089E-02
  0.239250056375E-02
  0.239250056336E-02
  0.239250052217E-02
  0.239250052641E-02
  0.239250052243E-02
  0.239250054105E-02
  0.239250051525E-02
  0.239250051576E-02
  0.239250054428E-02
  0.239250054409E-02
  0.239250054234E-02
  0.239250054194E-02
  0.239250051315E-02
  0.239250051324E-02
  0.239250052289E-02
  0.239250052265E-02
  0.239250051521E-02
  0.239250051539E-02
  0.239250050986E-02
  0.239250051037E-02
  0.239250054419E-02
  0.239250054286E-02
  0.239250049817E-02
  0.239250049857E-02
  0.239250050383E-02
  0.239250050420E-02
  0.239250054266E-02
  0.239250054238E-02