# vtk DataFile Version 3.0
MachLine results file. Generated by MachLine, USU AeroLab (c) 2022.
ASCII
DATASET POLYDATA
POINTS                 781 float
  0.567128181962E+01  0.000000000000E+00  0.000000000000E+00
  0.548223909230E+01  0.333333333333E-01  0.000000000000E+00
  0.548223909230E+01  0.330704900438E-01  0.417777445214E-02
  0.548223909230E+01  0.322861053710E-01  0.828966290550E-02
  0.548223909230E+01  0.309925495296E-01  0.122708184228E-01
  0.548223909230E+01  0.292102226681E-01  0.160584558034E-01
  0.548223909230E+01  0.269672331458E-01  0.195928417431E-01
  0.548223909230E+01  0.242989542474E-01  0.228182368643E-01
  0.548223909230E+01  0.212474663250E-01  0.256837747592E-01
  0.548223909230E+01  0.178608931660E-01  0.281442641834E-01
  0.548223909230E+01  0.141926430522E-01  0.301609017489E-01
  0.548223909230E+01  0.103005664792E-01  0.317018838765E-01
  0.548223909230E+01  0.624604381952E-02  0.327429083576E-01
  0.548223909230E+01  0.209301731764E-02  0.332675576143E-01
  0.548223909230E+01 -0.209301731764E-02  0.332675576143E-01
  0.548223909230E+01 -0.624604381952E-02  0.327429083576E-01
  0.548223909230E+01 -0.103005664792E-01  0.317018838765E-01
  0.548223909230E+01 -0.141926430522E-01  0.301609017489E-01
  0.548223909230E+01 -0.178608931660E-01  0.281442641834E-01
  0.548223909230E+01 -0.212474663250E-01  0.256837747592E-01
  0.548223909230E+01 -0.242989542474E-01  0.228182368643E-01
  0.548223909230E+01 -0.269672331458E-01  0.195928417431E-01
  0.548223909230E+01 -0.292102226681E-01  0.160584558034E-01
  0.548223909230E+01 -0.309925495296E-01  0.122708184228E-01
  0.548223909230E+01 -0.322861053710E-01  0.828966290550E-02
  0.548223909230E+01 -0.330704900438E-01  0.417777445214E-02
  0.548223909230E+01 -0.333333333333E-01  0.408215599716E-17
  0.529319636498E+01  0.666666666667E-01  0.000000000000E+00
  0.529319636498E+01  0.661409800876E-01  0.835554890429E-02
  0.529319636498E+01  0.645722107419E-01  0.165793258110E-01
  0.529319636498E+01  0.619850990592E-01  0.245416368456E-01
  0.529319636498E+01  0.584204453363E-01  0.321169116068E-01
  0.529319636498E+01  0.539344662917E-01  0.391856834862E-01
  0.529319636498E+01  0.485979084948E-01  0.456364737286E-01
  0.529319636498E+01  0.424949326499E-01  0.513675495184E-01
  0.529319636498E+01  0.357217863319E-01  0.562885283668E-01
  0.529319636498E+01  0.283852861043E-01  0.603218034977E-01
  0.529319636498E+01  0.206011329583E-01  0.634037677530E-01
  0.529319636498E+01  0.124920876390E-01  0.654858167152E-01
  0.529319636498E+01  0.418603463529E-02  0.665351152286E-01
  0.529319636498E+01 -0.418603463529E-02  0.665351152286E-01
  0.529319636498E+01 -0.124920876390E-01  0.654858167152E-01
  0.529319636498E+01 -0.206011329583E-01  0.634037677530E-01
  0.529319636498E+01 -0.283852861043E-01  0.603218034977E-01
  0.529319636498E+01 -0.357217863319E-01  0.562885283668E-01
  0.529319636498E+01 -0.424949326499E-01  0.513675495184E-01
  0.529319636498E+01 -0.485979084948E-01  0.456364737286E-01
  0.529319636498E+01 -0.539344662917E-01  0.391856834862E-01
  0.529319636498E+01 -0.584204453363E-01  0.321169116068E-01
  0.529319636498E+01 -0.619850990592E-01  0.245416368456E-01
  0.529319636498E+01 -0.645722107419E-01  0.165793258110E-01
  0.529319636498E+01 -0.661409800876E-01  0.835554890429E-02
  0.529319636498E+01 -0.666666666667E-01  0.816431199432E-17
  0.510415363766E+01  0.100000000000E+00  0.000000000000E+00
  0.510415363766E+01  0.992114701314E-01  0.125333233564E-01
  0.510415363766E+01  0.968583161129E-01  0.248689887165E-01
  0.510415363766E+01  0.929776485888E-01  0.368124552685E-01
  0.510415363766E+01  0.876306680044E-01  0.481753674102E-01
  0.510415363766E+01  0.809016994375E-01  0.587785252292E-01
  0.510415363766E+01  0.728968627421E-01  0.684547105929E-01
  0.510415363766E+01  0.637423989749E-01  0.770513242776E-01
  0.510415363766E+01  0.535826794979E-01  0.844327925502E-01
  0.510415363766E+01  0.425779291565E-01  0.904827052466E-01
  0.510415363766E+01  0.309016994375E-01  0.951056516295E-01
  0.510415363766E+01  0.187381314586E-01  0.982287250729E-01
  0.510415363766E+01  0.627905195293E-02  0.998026728428E-01
  0.510415363766E+01 -0.627905195293E-02  0.998026728428E-01
  0.510415363766E+01 -0.187381314586E-01  0.982287250729E-01
  0.510415363766E+01 -0.309016994375E-01  0.951056516295E-01
  0.510415363766E+01 -0.425779291565E-01  0.904827052466E-01
  0.510415363766E+01 -0.535826794979E-01  0.844327925502E-01
  0.510415363766E+01 -0.637423989749E-01  0.770513242776E-01
  0.510415363766E+01 -0.728968627421E-01  0.684547105929E-01
  0.510415363766E+01 -0.809016994375E-01  0.587785252292E-01
  0.510415363766E+01 -0.876306680044E-01  0.481753674102E-01
  0.510415363766E+01 -0.929776485888E-01  0.368124552685E-01
  0.510415363766E+01 -0.968583161129E-01  0.248689887165E-01
  0.510415363766E+01 -0.992114701314E-01  0.125333233564E-01
  0.510415363766E+01 -0.100000000000E+00  0.122464679915E-16
  0.491511091034E+01  0.133333333333E+00  0.000000000000E+00
  0.491511091034E+01  0.132281960175E+00  0.167110978086E-01
  0.491511091034E+01  0.129144421484E+00  0.331586516220E-01
  0.491511091034E+01  0.123970198118E+00  0.490832736913E-01
  0.491511091034E+01  0.116840890673E+00  0.642338232136E-01
  0.491511091034E+01  0.107868932583E+00  0.783713669723E-01
  0.491511091034E+01  0.971958169895E-01  0.912729474572E-01
  0.491511091034E+01  0.849898652998E-01  0.102735099037E+00
  0.491511091034E+01  0.714435726639E-01  0.112577056734E+00
  0.491511091034E+01  0.567705722087E-01  0.120643606995E+00
  0.491511091034E+01  0.412022659167E-01  0.126807535506E+00
  0.491511091034E+01  0.249841752781E-01  0.130971633430E+00
  0.491511091034E+01  0.837206927058E-02  0.133070230457E+00
  0.491511091034E+01 -0.837206927058E-02  0.133070230457E+00
  0.491511091034E+01 -0.249841752781E-01  0.130971633430E+00
  0.491511091034E+01 -0.412022659167E-01  0.126807535506E+00
  0.491511091034E+01 -0.567705722087E-01  0.120643606995E+00
  0.491511091034E+01 -0.714435726639E-01  0.112577056734E+00
  0.491511091034E+01 -0.849898652998E-01  0.102735099037E+00
  0.491511091034E+01 -0.971958169895E-01  0.912729474572E-01
  0.491511091034E+01 -0.107868932583E+00  0.783713669723E-01
  0.491511091034E+01 -0.116840890673E+00  0.642338232136E-01
  0.491511091034E+01 -0.123970198118E+00  0.490832736913E-01
  0.491511091034E+01 -0.129144421484E+00  0.331586516220E-01
  0.491511091034E+01 -0.132281960175E+00  0.167110978086E-01
  0.491511091034E+01 -0.133333333333E+00  0.163286239886E-16
  0.472606818301E+01  0.166666666667E+00  0.000000000000E+00
  0.472606818301E+01  0.165352450219E+00  0.208888722607E-01
  0.472606818301E+01  0.161430526855E+00  0.414483145275E-01
  0.472606818301E+01  0.154962747648E+00  0.613540921141E-01
  0.472606818301E+01  0.146051113341E+00  0.802922790170E-01
  0.472606818301E+01  0.134836165729E+00  0.979642087154E-01
  0.472606818301E+01  0.121494771237E+00  0.114091184321E+00
  0.472606818301E+01  0.106237331625E+00  0.128418873796E+00
  0.472606818301E+01  0.893044658298E-01  0.140721320917E+00
  0.472606818301E+01  0.709632152608E-01  0.150804508744E+00
  0.472606818301E+01  0.515028323958E-01  0.158509419383E+00
  0.472606818301E+01  0.312302190976E-01  0.163714541788E+00
  0.472606818301E+01  0.104650865882E-01  0.166337788071E+00
  0.472606818301E+01 -0.104650865882E-01  0.166337788071E+00
  0.472606818301E+01 -0.312302190976E-01  0.163714541788E+00
  0.472606818301E+01 -0.515028323958E-01  0.158509419383E+00
  0.472606818301E+01 -0.709632152608E-01  0.150804508744E+00
  0.472606818301E+01 -0.893044658298E-01  0.140721320917E+00
  0.472606818301E+01 -0.106237331625E+00  0.128418873796E+00
  0.472606818301E+01 -0.121494771237E+00  0.114091184321E+00
  0.472606818301E+01 -0.134836165729E+00  0.979642087154E-01
  0.472606818301E+01 -0.146051113341E+00  0.802922790170E-01
  0.472606818301E+01 -0.154962747648E+00  0.613540921141E-01
  0.472606818301E+01 -0.161430526855E+00  0.414483145275E-01
  0.472606818301E+01 -0.165352450219E+00  0.208888722607E-01
  0.472606818301E+01 -0.166666666667E+00  0.204107799858E-16
  0.453702545569E+01  0.200000000000E+00  0.000000000000E+00
  0.453702545569E+01  0.198422940263E+00  0.250666467129E-01
  0.453702545569E+01  0.193716632226E+00  0.497379774330E-01
  0.453702545569E+01  0.185955297178E+00  0.736249105369E-01
  0.453702545569E+01  0.175261336009E+00  0.963507348203E-01
  0.453702545569E+01  0.161803398875E+00  0.117557050458E+00
  0.453702545569E+01  0.145793725484E+00  0.136909421186E+00
  0.453702545569E+01  0.127484797950E+00  0.154102648555E+00
  0.453702545569E+01  0.107165358996E+00  0.168865585100E+00
  0.453702545569E+01  0.851558583130E-01  0.180965410493E+00
  0.453702545569E+01  0.618033988750E-01  0.190211303259E+00
  0.453702545569E+01  0.374762629171E-01  0.196457450146E+00
  0.453702545569E+01  0.125581039059E-01  0.199605345686E+00
  0.453702545569E+01 -0.125581039059E-01  0.199605345686E+00
  0.453702545569E+01 -0.374762629171E-01  0.196457450146E+00
  0.453702545569E+01 -0.618033988750E-01  0.190211303259E+00
  0.453702545569E+01 -0.851558583130E-01  0.180965410493E+00
  0.453702545569E+01 -0.107165358996E+00  0.168865585100E+00
  0.453702545569E+01 -0.127484797950E+00  0.154102648555E+00
  0.453702545569E+01 -0.145793725484E+00  0.136909421186E+00
  0.453702545569E+01 -0.161803398875E+00  0.117557050458E+00
  0.453702545569E+01 -0.175261336009E+00  0.963507348203E-01
  0.453702545569E+01 -0.185955297178E+00  0.736249105369E-01
  0.453702545569E+01 -0.193716632226E+00  0.497379774330E-01
  0.453702545569E+01 -0.198422940263E+00  0.250666467129E-01
  0.453702545569E+01 -0.200000000000E+00  0.244929359829E-16
  0.434798272837E+01  0.233333333333E+00  0.000000000000E+00
  0.434798272837E+01  0.231493430307E+00  0.292444211650E-01
  0.434798272837E+01  0.226002737597E+00  0.580276403385E-01
  0.434798272837E+01  0.216947846707E+00  0.858957289598E-01
[...]
CELL_DATA                1475
SCALARS C_p_ise float 1
LOOKUP_TABLE default
  0.124438607664E+00
  0.124438607569E+00
  0.124438607578E+00
  0.124438607592E+00
  0.124438607593E+00
  0.124438607603E+00
  0.124438607619E+00
  0.124438607611E+00
  0.124438607597E+00
  0.124438607610E+00
  0.124438607600E+00
  0.124438607587E+00
  0.124438607594E+00
  0.124438607583E+00
  0.124438607584E+00
  0.124438607606E+00
  0.124438607625E+00
  0.124438607619E+00
  0.124438607624E+00
  0.124438607626E+00
  0.124438607593E+00
  0.124438607578E+00
  0.124438607588E+00
  0.124438607586E+00
  0.124438607592E+00
  0.124438606721E+00
  0.124438606905E+00
  0.124438606811E+00
  0.124438606813E+00
  0.124438606806E+00
  0.124438606757E+00
  0.124438606771E+00
  0.124438606769E+00
  0.124438606784E+00
  0.124438606827E+00
  0.124438606856E+00
  0.124438606913E+00
  0.124438606897E+00
  0.124438606800E+00
  0.124438606809E+00
  0.124438606861E+00
  0.124438606825E+00
  0.124438606760E+00
  0.124438606772E+00
  0.124438606769E+00
  0.124438606798E+00
  0.124438606915E+00
  0.124438606876E+00
  0.124438606797E+00
  0.124438606806E+00
  0.124438606814E+00
  0.124438606800E+00
  0.124438606789E+00
  0.124438606794E+00
  0.124438606810E+00
  0.124438606806E+00
  0.124438606728E+00
  0.124438606758E+00
  0.124438606791E+00
  0.124438606756E+00
  0.124438606674E+00
  0.124438606696E+00
  0.124438606750E+00
  0.124438606771E+00
  0.124438606831E+00
  0.124438606815E+00
  0.124438606867E+00
  0.124438606846E+00
  0.124438606829E+00
  0.124438606817E+00
  0.124438606756E+00
  0.124438606777E+00
  0.124438606845E+00
  0.124438606985E+00
  0.124438607387E+00
  0.124438606647E+00
  0.124438606862E+00
  0.124438606863E+00
  0.124438607031E+00
  0.124438607014E+00
  0.124438606960E+00
  0.124438606943E+00
  0.124438606873E+00
  0.124438606880E+00
  0.124438606842E+00
  0.124438606896E+00
  0.124438606949E+00
  0.124438606891E+00
  0.124438606586E+00
  0.124438606620E+00
  0.124438606910E+00
  0.124438606855E+00
  0.124438606673E+00
  0.124438606679E+00
  0.124438606759E+00
  0.124438606772E+00
  0.124438606699E+00
  0.124438606741E+00
  0.124438606952E+00
  0.124438606949E+00
  0.124438607022E+00
  0.124438606979E+00
  0.124438606821E+00
  0.124438606799E+00
  0.124438606677E+00
  0.124438606743E+00
  0.124438607068E+00
  0.124438607030E+00
  0.124438606822E+00
  0.124438606835E+00
  0.124438607014E+00
  0.124438606964E+00
  0.124438606741E+00
  0.124438606779E+00
  0.124438606769E+00
  0.124438606769E+00
  0.124438606752E+00
  0.124438606761E+00
  0.124438606827E+00
  0.124438606858E+00
  0.124438607097E+00
  0.124438607034E+00
  0.124438606715E+00
  0.124438606991E+00
  0.124438607557E+00
  0.124438606166E+00
  0.124438606346E+00
  0.124438606413E+00
  0.124438606575E+00
  0.124438606593E+00
  0.124438606600E+00
  0.124438606577E+00
  0.124438606609E+00
  0.124438606638E+00
  0.124438606894E+00
  0.124438606882E+00
  0.124438606475E+00
  0.124438606479E+00
  0.124438606836E+00
  0.124438606740E+00
  0.124438606254E+00
  0.124438606303E+00
  0.124438606624E+00
  0.124438606569E+00
  0.124438606397E+00
  0.124438606441E+00
  0.124438606541E+00
  0.124438606561E+00
  0.124438606501E+00
  0.124438606484E+00
  0.124438606091E+00
  0.124438606139E+00
  0.124438606675E+00
  0.124438606633E+00
  0.124438606715E+00
  0.124438606706E+00
  0.124438606349E+00
  0.124438606418E+00
  0.124438606712E+00
  0.124438606639E+00
  0.124438606337E+00
  0.124438606352E+00
  0.124438606552E+00
  0.124438606541E+00
  0.124438606509E+00
  0.124438606530E+00
  0.124438606691E+00
  0.124438606615E+00
  0.124438606034E+00
  0.124438606101E+00
  0.124438606263E+00
  0.124438606314E+00
  0.124438606776E+00
  0.124438607090E+00
  0.124438607807E+00
  0.124438606919E+00
  0.124438606120E+00
  0.124438606183E+00
  0.124438605918E+00
  0.124438605936E+00
  0.124438605737E+00
  0.124438605695E+00
  0.124438605521E+00
  0.124438605581E+00
  0.124438605814E+00
  0.124438605755E+00
  0.124438605005E+00
  0.124438604993E+00
  0.124438605376E+00
  0.124438605402E+00
  0.124438606043E+00
  0.124438606109E+00
  0.124438606883E+00
  0.124438606759E+00
  0.124438605722E+00
  0.124438605778E+00
  0.124438606107E+00
  0.124438606092E+00
  0.124438605655E+00
  0.124438605696E+00
  0.124438606289E+00
  0.124438606276E+00
  0.124438606234E+00
  0.124438606280E+00
  0.124438606391E+00
  0.124438606324E+00
  0.124438605700E+00
  0.124438605711E+00
  0.124438605643E+00
  0.124438605603E+00
  0.124438605521E+00
  0.124438605542E+00
  0.124438605986E+00
  0.124438605993E+00
  0.124438605898E+00
  0.124438605907E+00
  0.124438605841E+00
  0.124438605823E+00
  0.124438606146E+00
  0.124438606080E+00
  0.124438605627E+00
  0.124438605739E+00
  0.124438606079E+00
  0.124438606433E+00
  0.124438606195E+00
  0.124438606748E+00
  0.124438607985E+00
  0.124438607900E+00
  0.124438607248E+00
  0.124438607350E+00
  0.124438608591E+00
  0.124438608610E+00
  0.124438609510E+00
  0.124438609359E+00
  0.124438607241E+00
  0.124438607474E+00
  0.124438610406E+00
  0.124438610243E+00
  0.124438609502E+00
  0.124438609500E+00
  0.124438608721E+00
  0.124438608789E+00
  0.124438608037E+00
  0.124438608024E+00
  0.124438608311E+00
  0.124438608259E+00
  0.124438608342E+00
  0.124438608396E+00
  0.124438608759E+00
  0.124438608745E+00
  0.124438608668E+00
  0.124438608616E+00
  0.124438607465E+00
  0.124438607567E+00
  0.124438608221E+00
  0.124438608243E+00
  0.124438609083E+00
  0.124438608987E+00
  0.124438608572E+00
  0.124438608628E+00
  0.124438609756E+00
  0.124438609657E+00
  0.124438608439E+00
  0.124438608499E+00
  0.124438608545E+00
  0.124438608502E+00
  0.124438608040E+00
  0.124438608069E+00
  0.124438608671E+00
  0.124438608649E+00
  0.124438608737E+00
  0.124438608697E+00
  0.124438607578E+00
  0.124438608149E+00
  0.124438610118E+00
  0.124438606964E+00
  0.124438606523E+00
  0.124438606559E+00
  0.124438606668E+00
  0.124438606627E+00
  0.124438605535E+00
  0.124438605636E+00
  0.124438605247E+00
  0.124438605291E+00
  0.124438606772E+00
  0.124438606610E+00
  0.124438603977E+00
  0.124438604110E+00
  0.124438604486E+00
  0.124438604490E+00
  0.124438605440E+00
  0.124438605461E+00
  0.124438605768E+00
  0.124438605808E+00
  0.124438607376E+00
  0.124438607183E+00
  0.124438605006E+00
  0.124438605125E+00
  0.124438605861E+00
  0.124438605827E+00
  0.124438605141E+00
  0.124438605185E+00
  0.124438606525E+00
  0.124438606373E+00
  0.124438604436E+00
  0.124438604631E+00
  0.124438606114E+00
  0.124438606075E+00
  0.124438605830E+00
  0.124438605825E+00
  0.124438605532E+00
  0.124438605604E+00
  0.124438606492E+00
  0.124438606394E+00
  0.124438605772E+00
  0.124438605776E+00
  0.124438606335E+00
  0.124438606363E+00
  0.124438606896E+00
  0.124438606860E+00
  0.124438605971E+00
  0.124438605902E+00
  0.124438605415E+00
  0.124438605920E+00
  0.124438606385E+00
  0.124438606334E+00
  0.124438605134E+00
  0.124438605161E+00
  0.124438605530E+00
  0.124438605501E+00
  0.124438605563E+00
  0.124438605622E+00
  0.124438606261E+00
  0.124438606150E+00
  0.124438604277E+00
  0.124438604336E+00
  0.124438605933E+00
  0.124438605938E+00
  0.124438607061E+00
  0.124438606993E+00
  0.124438605487E+00
  0.124438605559E+00
  0.124438605217E+00
  0.124438605215E+00
  0.124438604220E+00
  0.124438604328E+00
  0.124438607032E+00
  0.124438606956E+00
  0.124438606544E+00
  0.124438606535E+00
  0.124438606072E+00
  0.124438606090E+00
  0.124438606485E+00
  0.124438606377E+00
  0.124438605498E+00
  0.124438605445E+00
  0.124438603942E+00
  0.124438604060E+00
  0.124438604709E+00
  0.124438604732E+00
  0.124438605431E+00
  0.124438605352E+00
  0.124438603421E+00
  0.124438603536E+00
  0.124438605718E+00
  0.124438605761E+00
  0.124438607076E+00
  0.124438607032E+00
  0.124438605304E+00
  0.124438605343E+00
  0.124438605850E+00
  0.124438605796E+00
  0.124438607053E+00
  0.124438607308E+00
  0.124438604121E+00
  0.124438607381E+00
  0.124438608398E+00
  0.124438608369E+00
  0.124438608778E+00
  0.124438608752E+00
  0.124438608384E+00
  0.124438608399E+00
  0.124438607564E+00
  0.124438607757E+00
  0.124438612185E+00
  0.124438612011E+00
  0.124438610175E+00
  0.124438610195E+00
  0.124438608651E+00
  0.124438608652E+00
  0.124438608547E+00
  0.124438608521E+00
  0.124438608573E+00
  0.124438608607E+00
  0.124438609610E+00
  0.124438609571E+00
  0.124438608195E+00
  0.124438608190E+00
  0.124438606348E+00
  0.124438606474E+00
  0.124438609242E+00
  0.124438609180E+00
  0.124438608347E+00
  0.124438608426E+00
  0.124438611159E+00
  0.124438610968E+00
  0.124438609630E+00
  0.124438609706E+00
  0.124438610678E+00
  0.124438610585E+00
  0.124438607871E+00
  0.124438607936E+00
  0.124438609598E+00
  0.124438609482E+00
  0.124438607732E+00
  0.124438607871E+00
  0.124438607004E+00
  0.124438607177E+00
  0.124438609364E+00
  0.124438609182E+00
  0.124438607382E+00
  0.124438607451E+00
  0.124438608972E+00
  0.124438609802E+00
  0.124438618157E+00
  0.124438605490E+00
  0.124438605086E+00
  0.124438605016E+00
  0.124438603100E+00
  0.124438603265E+00
  0.124438606443E+00
  0.124438606303E+00
  0.124438603770E+00
  0.124438603897E+00
  0.124438603608E+00
  0.124438603756E+00
  0.124438604924E+00
  0.124438604714E+00
  0.124438602397E+00
  0.124438602444E+00
  0.124438605054E+00
  0.124438605018E+00
  0.124438604940E+00
  0.124438604811E+00
  0.124438601655E+00
  0.124438601875E+00
  0.124438605690E+00
  0.124438605722E+00
  0.124438607953E+00
  0.124438607832E+00
  0.124438605183E+00
  0.124438605214E+00
  0.124438603875E+00
  0.124438603860E+00
  0.124438602993E+00
  0.124438602971E+00
  0.124438603121E+00
  0.124438603136E+00
  0.124438603476E+00
  0.124438603498E+00
  0.124438604604E+00
  0.124438604595E+00
  0.124438606228E+00
  0.124438606108E+00
  0.124438604185E+00
  0.124438604296E+00
  0.124438605729E+00
  0.124438605794E+00
  0.124438604703E+00
  0.124438604823E+00
  0.124438608123E+00
  0.124438607991E+00
  0.124438606190E+00
  0.124438607053E+00
  0.124438605968E+00
  0.124438607091E+00
  0.124438608026E+00
  0.124438607847E+00
  0.124438606010E+00
  0.124438606151E+00
  0.124438607749E+00
  0.124438607763E+00
  0.124438607484E+00
  0.124438607358E+00
  0.124438604823E+00
  0.124438605013E+00
  0.124438606224E+00
  0.124438606211E+00
  0.124438609053E+00
  0.124438608771E+00
  0.124438604419E+00
  0.124438604589E+00
  0.124438606038E+00
  0.124438605907E+00
  0.124438605968E+00
  0.124438605868E+00
  0.124438602628E+00
  0.124438602797E+00
  0.124438601452E+00
  0.124438601460E+00
  0.124438601696E+00
  0.124438601832E+00
  0.124438606990E+00
  0.124438606863E+00
  0.124438605991E+00
  0.124438605813E+00
  0.124438603493E+00
  0.124438603596E+00
  0.124438605294E+00
  0.124438605333E+00
  0.124438605315E+00
  0.124438605366E+00
  0.124438605395E+00
  0.124438605447E+00
  0.124438607252E+00
  0.124438607393E+00
  0.124438610154E+00
  0.124438610148E+00
  0.124438607085E+00
  0.124438606856E+00
  0.124438600713E+00
  0.124438600792E+00
  0.124438601570E+00
  0.124438602428E+00
  0.124438604326E+00
  0.124438608731E+00
  0.124438613015E+00
  0.124438612870E+00
  0.124438612610E+00
  0.124438612306E+00
  0.124438604088E+00
  0.124438604443E+00
  0.124438610530E+00
  0.124438610319E+00
  0.124438608681E+00
  0.124438608712E+00
  0.124438607808E+00
  0.124438607771E+00
  0.124438605892E+00
  0.124438605928E+00
  0.124438610118E+00
  0.124438610121E+00
  0.124438611047E+00
  0.124438611178E+00
  0.124438615601E+00
  0.124438615499E+00
  0.124438615379E+00
  0.124438615166E+00
  0.124438609928E+00
  0.124438610115E+00
  0.124438615716E+00
  0.124438615603E+00
  0.124438609593E+00
  0.124438609892E+00
  0.124438614053E+00
  0.124438613824E+00
  0.124438613620E+00
  0.124438613584E+00
  0.124438612918E+00
  0.124438612949E+00
  0.124438610890E+00
  0.124438610934E+00
  0.124438610790E+00
  0.124438610894E+00
  0.124438612042E+00
  0.124438611898E+00
  0.124438603365E+00
  0.124438603795E+00
  0.124438610803E+00
  0.124438610658E+00
  0.124438615948E+00
  0.124438615725E+00
  0.124438615512E+00
  0.124438616288E+00
  0.124438613542E+00
  0.124438601970E+00
  0.124438597247E+00
  0.124438597470E+00
  0.124438602026E+00
  0.124438601748E+00
  0.124438602686E+00
  0.124438602487E+00
  0.124438597574E+00
  0.124438597728E+00
  0.124438600251E+00
  0.124438600223E+00
  0.124438600549E+00
  0.124438600633E+00
  0.124438604632E+00
  0.124438604561E+00
  0.124438603920E+00
  0.124438603903E+00
  0.124438598842E+00
  0.124438599110E+00
  0.124438601532E+00
  0.124438601478E+00
  0.124438597882E+00
  0.124438598117E+00
  0.124438609434E+00
  0.124438608913E+00
  0.124438596899E+00
  0.124438597081E+00
  0.124438598356E+00
  0.124438598624E+00
  0.124438604373E+00
  0.124438604419E+00
  0.124438606774E+00
  0.124438606587E+00
  0.124438603031E+00
  0.124438603291E+00
  0.124438609746E+00
  0.124438609330E+00
  0.124438600087E+00
  0.124438600243E+00
  0.124438601719E+00
  0.124438601816E+00
  0.124438606600E+00
  0.124438606423E+00
  0.124438600533E+00
  0.124438600823E+00
  0.124438604096E+00
  0.124438603913E+00
  0.124438599159E+00
  0.124438600479E+00
  0.124438614308E+00
  0.124438609900E+00
  0.124438601763E+00
  0.124438601667E+00
  0.124438598166E+00
  0.124438598632E+00
  0.124438613817E+00
  0.124438613688E+00
  0.124438614567E+00
  0.124438614131E+00
  0.124438603488E+00
  0.124438603405E+00
  0.124438599185E+00
  0.124438599572E+00
  0.124438607405E+00
  0.124438607437E+00
  0.124438605923E+00
  0.124438605866E+00
  0.124438605475E+00
  0.124438605377E+00
  0.124438600977E+00
  0.124438601231E+00
  0.124438606954E+00
  0.124438606903E+00
  0.124438603082E+00
  0.124438603231E+00
  0.124438609128E+00
  0.124438608792E+00
  0.124438607802E+00
  0.124438607649E+00
  0.124438594891E+00
  0.124438595192E+00
  0.124438595875E+00
  0.124438596101E+00
  0.124438604712E+00
  0.124438604481E+00
  0.124438595064E+00
  0.124438595442E+00
  0.124438609888E+00
  0.124438609160E+00
  0.124438595274E+00
  0.124438595754E+00
  0.124438604498E+00
  0.124438604584E+00
  0.124438606523E+00
  0.124438606584E+00
  0.124438606763E+00
  0.124438606667E+00
  0.124438605501E+00
  0.124438606228E+00
  0.124438595364E+00
  0.124438606904E+00
  0.124438614010E+00
  0.124438613822E+00
  0.124438619892E+00
  0.124438619610E+00
  0.124438601645E+00
  0.124438602302E+00
  0.124438608799E+00
  0.124438608726E+00
  0.124438618319E+00
  0.124438617579E+00
  0.124438609967E+00
  0.124438610190E+00
  0.124438609959E+00
  0.124438610277E+00
  0.124438610165E+00
  0.124438609981E+00
  0.124438607946E+00
  0.124438607936E+00
  0.124438610912E+00
  0.124438610822E+00
  0.124438605547E+00
  0.124438605759E+00
  0.124438607240E+00
  0.124438607365E+00
  0.124438610763E+00
  0.124438610596E+00
  0.124438609154E+00
  0.124438609176E+00
  0.124438615325E+00
  0.124438615054E+00
  0.124438612135E+00
  0.124438612175E+00
  0.124438606034E+00
  0.124438606122E+00
  0.124438606142E+00
  0.124438606236E+00
  0.124438608123E+00
  0.124438608238E+00
  0.124438617182E+00
  0.124438616826E+00
  0.124438607468E+00
  0.124438607911E+00
  0.124438608848E+00
  0.124438608804E+00
  0.124438603643E+00
  0.124438603987E+00
  0.124438616532E+00
  0.124438617264E+00
  0.124438618673E+00
  0.124438609190E+00
  0.124438602760E+00
  0.124438602811E+00
  0.124438602624E+00
  0.124438602741E+00
  0.124438608646E+00
  0.124438608419E+00
  0.124438600218E+00
  0.124438600361E+00
  0.124438600088E+00
  0.124438600192E+00
  0.124438616106E+00
  0.124438615820E+00
  0.124438608194E+00
  0.124438608359E+00
  0.124438603839E+00
  0.124438603886E+00
  0.124438611135E+00
  0.124438610953E+00
  0.124438607764E+00
  0.124438607866E+00
  0.124438610625E+00
  0.124438610837E+00
  0.124438616484E+00
  0.124438616337E+00
  0.124438606305E+00
  0.124438606264E+00
  0.124438606542E+00
  0.124438606466E+00
  0.124438604979E+00
  0.124438605454E+00
  0.124438622006E+00
  0.124438621373E+00
  0.124438603625E+00
  0.124438603893E+00
  0.124438616028E+00
  0.124438615975E+00
  0.124438611393E+00
  0.124438611738E+00
  0.124438616835E+00
  0.124438616607E+00
  0.124438611061E+00
  0.124438611200E+00
  0.124438611783E+00
  0.124438611737E+00
  0.124438610702E+00
  0.124438610566E+00
  0.124438601192E+00
  0.124438602600E+00
  0.124438610147E+00
  0.124438608522E+00
  0.124438619788E+00
  0.124438619312E+00
  0.124438608768E+00
  0.124438609051E+00
  0.124438614710E+00
  0.124438614558E+00
  0.124438610745E+00
  0.124438610599E+00
  0.124438609780E+00
  0.124438609700E+00
  0.124438603923E+00
  0.124438604213E+00
  0.124438606248E+00
  0.124438606493E+00
  0.124438617280E+00
  0.124438616967E+00
  0.124438609923E+00
  0.124438609993E+00
  0.124438610606E+00
  0.124438610320E+00
  0.124438600932E+00
  0.124438601100E+00
  0.124438596702E+00
  0.124438597250E+00
  0.124438614172E+00
  0.124438613710E+00
  0.124438610489E+00
  0.124438610329E+00
  0.124438607259E+00
  0.124438607481E+00
  0.124438600747E+00
  0.124438600989E+00
  0.124438612263E+00
  0.124438611852E+00
  0.124438608344E+00
  0.124438608449E+00
  0.124438600720E+00
  0.124438600972E+00
  0.124438602786E+00
  0.124438602863E+00
  0.124438607495E+00
  0.124438607290E+00
  0.124438601858E+00
  0.124438601878E+00
  0.124438603438E+00
  0.124438603355E+00
  0.124438606231E+00
  0.124438607363E+00
  0.124438608202E+00
  0.124438594141E+00
  0.124438582823E+00
  0.124438583243E+00
  0.124438602647E+00
  0.124438602221E+00
  0.124438588613E+00
  0.124438588538E+00
  0.124438585261E+00
  0.124438585556E+00
  0.124438605040E+00
  0.124438604830E+00
  0.124438601139E+00
  0.124438601089E+00
  0.124438595326E+00
  0.124438595405E+00
  0.124438587410E+00
  0.124438587083E+00
  0.124438575114E+00
  0.124438575638E+00
  0.124438599009E+00
  0.124438598869E+00
  0.124438603313E+00
  0.124438602683E+00
  0.124438584702E+00
  0.124438585439E+00
  0.124438596718E+00
  0.124438596665E+00
  0.124438593021E+00
  0.124438592631E+00
  0.124438587993E+00
  0.124438588098E+00
  0.124438587260E+00
  0.124438587607E+00
  0.124438598447E+00
  0.124438598595E+00
  0.124438606210E+00
  0.124438606019E+00
  0.124438599403E+00
  0.124438599266E+00
  0.124438593845E+00
  0.124438594124E+00
  0.124438599249E+00
  0.124438599347E+00
  0.124438605042E+00
  0.124438604676E+00
  0.124438596935E+00
  0.124438597091E+00
  0.124438603810E+00
  0.124438605272E+00
  0.124438613798E+00
  0.124438610686E+00
  0.124438615574E+00
  0.124438615143E+00
  0.124438595629E+00
  0.124438596139E+00
  0.124438610270E+00
  0.124438609995E+00
  0.124438616957E+00
  0.124438617071E+00
  0.124438613828E+00
  0.124438613960E+00
  0.124438606007E+00
  0.124438606090E+00
  0.124438614911E+00
  0.124438614759E+00
  0.124438612285E+00
  0.124438612423E+00
  0.124438638091E+00
  0.124438637366E+00
  0.124438603799E+00
  0.124438604622E+00
  0.124438615557E+00
  0.124438615302E+00
  0.124438624493E+00
  0.124438624204E+00
  0.124438605251E+00
  0.124438605733E+00
  0.124438613629E+00
  0.124438613177E+00
  0.124438614702E+00
  0.124438614462E+00
  0.124438606601E+00
  0.124438606786E+00
  0.124438601663E+00
  0.124438602611E+00
  0.124438620746E+00
  0.124438620593E+00
  0.124438613954E+00
  0.124438613931E+00
  0.124438625145E+00
  0.124438624978E+00
  0.124438614238E+00
  0.124438614323E+00
  0.124438608424E+00
  0.124438608585E+00
  0.124438622089E+00
  0.124438621534E+00
  0.124438603403E+00
  0.124438604680E+00
  0.124438590729E+00
  0.124438616287E+00
  0.124438616016E+00
  0.124438616082E+00
  0.124438630301E+00
  0.124438630038E+00
  0.124438620400E+00
  0.124438620891E+00
  0.124438635895E+00
  0.124438635808E+00
  0.124438620669E+00
  0.124438620502E+00
  0.124438612284E+00
  0.124438612012E+00
  0.124438606581E+00
  0.124438606669E+00
  0.124438606785E+00
  0.124438606536E+00
  0.124438594073E+00
  0.124438594489E+00
  0.124438611967E+00
  0.124438611927E+00
  0.124438613658E+00
  0.124438613697E+00