# vtk DataFile Version 3.0
MachLine results file. Generated by MachLine, USU AeroLab (c) 2022.
ASCII
DATASET POLYDATA
POINTS                3061 float
  0.373205080757E+01  0.000000000000E+00  0.000000000000E+00
  0.366984996078E+01  0.166666666667E-01  0.000000000000E+00
  0.366984996078E+01  0.166337788071E-01  0.104650865882E-02
  0.366984996078E+01  0.165352450219E-01  0.208888722607E-02
  0.366984996078E+01  0.163714541788E-01  0.312302190976E-02
  0.366984996078E+01  0.161430526855E-01  0.414483145275E-02
  0.366984996078E+01  0.158509419383E-01  0.515028323958E-02
  0.366984996078E+01  0.154962747648E-01  0.613540921141E-02
  0.366984996078E+01  0.150804508744E-01  0.709632152608E-02
  0.366984996078E+01  0.146051113341E-01  0.802922790170E-02
  0.366984996078E+01  0.140721320917E-01  0.893044658298E-02
  0.366984996078E+01  0.134836165729E-01  0.979642087154E-02
  0.366984996078E+01  0.128418873796E-01  0.106237331625E-01
  0.366984996078E+01  0.121494771237E-01  0.114091184321E-01
  0.366984996078E+01  0.114091184321E-01  0.121494771237E-01
  0.366984996078E+01  0.106237331625E-01  0.128418873796E-01
  0.366984996078E+01  0.979642087154E-02  0.134836165729E-01
  0.366984996078E+01  0.893044658298E-02  0.140721320917E-01
  0.366984996078E+01  0.802922790170E-02  0.146051113341E-01
  0.366984996078E+01  0.709632152608E-02  0.150804508744E-01
  0.366984996078E+01  0.613540921141E-02  0.154962747648E-01
  0.366984996078E+01  0.515028323958E-02  0.158509419383E-01
  0.366984996078E+01  0.414483145275E-02  0.161430526855E-01
  0.366984996078E+01  0.312302190976E-02  0.163714541788E-01
  0.366984996078E+01  0.208888722607E-02  0.165352450219E-01
  0.366984996078E+01  0.104650865882E-02  0.166337788071E-01
  0.366984996078E+01 -0.268020441613E-17  0.166666666667E-01
  0.366984996078E+01 -0.104650865882E-02  0.166337788071E-01
  0.366984996078E+01 -0.208888722607E-02  0.165352450219E-01
  0.366984996078E+01 -0.312302190976E-02  0.163714541788E-01
  0.366984996078E+01 -0.414483145275E-02  0.161430526855E-01
  0.366984996078E+01 -0.515028323958E-02  0.158509419383E-01
  0.366984996078E+01 -0.613540921141E-02  0.154962747648E-01
  0.366984996078E+01 -0.709632152608E-02  0.150804508744E-01
  0.366984996078E+01 -0.802922790170E-02  0.146051113341E-01
  0.366984996078E+01 -0.893044658298E-02  0.140721320917E-01
  0.366984996078E+01 -0.979642087154E-02  0.134836165729E-01
  0.366984996078E+01 -0.106237331625E-01  0.128418873796E-01
  0.366984996078E+01 -0.114091184321E-01  0.121494771237E-01
  0.366984996078E+01 -0.121494771237E-01  0.114091184321E-01
  0.366984996078E+01 -0.128418873796E-01  0.106237331625E-01
  0.366984996078E+01 -0.134836165729E-01  0.979642087154E-02
  0.366984996078E+01 -0.140721320917E-01  0.893044658298E-02
  0.366984996078E+01 -0.146051113341E-01  0.802922790170E-02
  0.366984996078E+01 -0.150804508744E-01  0.709632152608E-02
  0.366984996078E+01 -0.154962747648E-01  0.613540921141E-02
  0.366984996078E+01 -0.158509419383E-01  0.515028323958E-02
  0.366984996078E+01 -0.161430526855E-01  0.414483145275E-02
  0.366984996078E+01 -0.163714541788E-01  0.312302190976E-02
  0.366984996078E+01 -0.165352450219E-01  0.208888722607E-02
  0.366984996078E+01 -0.166337788071E-01  0.104650865882E-02
  0.366984996078E+01 -0.166666666667E-01  0.204107799858E-17
  0.360764911398E+01  0.333333333333E-01  0.000000000000E+00
  0.360764911398E+01  0.332675576143E-01  0.209301731764E-02
  0.360764911398E+01  0.330704900438E-01  0.417777445214E-02
  0.360764911398E+01  0.327429083576E-01  0.624604381952E-02
  0.360764911398E+01  0.322861053710E-01  0.828966290550E-02
  0.360764911398E+01  0.317018838765E-01  0.103005664792E-01
  0.360764911398E+01  0.309925495296E-01  0.122708184228E-01
  0.360764911398E+01  0.301609017489E-01  0.141926430522E-01
  0.360764911398E+01  0.292102226681E-01  0.160584558034E-01
  0.360764911398E+01  0.281442641834E-01  0.178608931660E-01
  0.360764911398E+01  0.269672331458E-01  0.195928417431E-01
  0.360764911398E+01  0.256837747592E-01  0.212474663250E-01
  0.360764911398E+01  0.242989542474E-01  0.228182368643E-01
  0.360764911398E+01  0.228182368643E-01  0.242989542474E-01
  0.360764911398E+01  0.212474663250E-01  0.256837747592E-01
  0.360764911398E+01  0.195928417431E-01  0.269672331458E-01
  0.360764911398E+01  0.178608931660E-01  0.281442641834E-01
  0.360764911398E+01  0.160584558034E-01  0.292102226681E-01
  0.360764911398E+01  0.141926430522E-01  0.301609017489E-01
  0.360764911398E+01  0.122708184228E-01  0.309925495296E-01
  0.360764911398E+01  0.103005664792E-01  0.317018838765E-01
  0.360764911398E+01  0.828966290550E-02  0.322861053710E-01
  0.360764911398E+01  0.624604381952E-02  0.327429083576E-01
  0.360764911398E+01  0.417777445214E-02  0.330704900438E-01
  0.360764911398E+01  0.209301731764E-02  0.332675576143E-01
  0.360764911398E+01 -0.536040883226E-17  0.333333333333E-01
  0.360764911398E+01 -0.209301731764E-02  0.332675576143E-01
  0.360764911398E+01 -0.417777445214E-02  0.330704900438E-01
  0.360764911398E+01 -0.624604381952E-02  0.327429083576E-01
  0.360764911398E+01 -0.828966290550E-02  0.322861053710E-01
  0.360764911398E+01 -0.103005664792E-01  0.317018838765E-01
  0.360764911398E+01 -0.122708184228E-01  0.309925495296E-01
  0.360764911398E+01 -0.141926430522E-01  0.301609017489E-01
  0.360764911398E+01 -0.160584558034E-01  0.292102226681E-01
  0.360764911398E+01 -0.178608931660E-01  0.281442641834E-01
  0.360764911398E+01 -0.195928417431E-01  0.269672331458E-01
  0.360764911398E+01 -0.212474663250E-01  0.256837747592E-01
  0.360764911398E+01 -0.228182368643E-01  0.242989542474E-01
  0.360764911398E+01 -0.242989542474E-01  0.228182368643E-01
  0.360764911398E+01 -0.256837747592E-01  0.212474663250E-01
  0.360764911398E+01 -0.269672331458E-01  0.195928417431E-01
  0.360764911398E+01 -0.281442641834E-01  0.178608931660E-01
  0.360764911398E+01 -0.292102226681E-01  0.160584558034E-01
  0.360764911398E+01 -0.301609017489E-01  0.141926430522E-01
  0.360764911398E+01 -0.309925495296E-01  0.122708184228E-01
  0.360764911398E+01 -0.317018838765E-01  0.103005664792E-01
  0.360764911398E+01 -0.322861053710E-01  0.828966290550E-02
  0.360764911398E+01 -0.327429083576E-01  0.624604381952E-02
  0.360764911398E+01 -0.330704900438E-01  0.417777445214E-02
  0.360764911398E+01 -0.332675576143E-01  0.209301731764E-02
  0.360764911398E+01 -0.333333333333E-01  0.408215599716E-17
  0.354544826719E+01  0.500000000000E-01  0.000000000000E+00
  0.354544826719E+01  0.499013364214E-01  0.313952597647E-02
  0.354544826719E+01  0.496057350657E-01  0.626666167822E-02
  0.354544826719E+01  0.491143625364E-01  0.936906572929E-02
  0.354544826719E+01  0.484291580564E-01  0.124344943582E-01
  0.354544826719E+01  0.475528258148E-01  0.154508497187E-01
  0.354544826719E+01  0.464888242944E-01  0.184062276342E-01
  0.354544826719E+01  0.452413526233E-01  0.212889645783E-01
  0.354544826719E+01  0.438153340022E-01  0.240876837051E-01
  0.354544826719E+01  0.422163962751E-01  0.267913397489E-01
  0.354544826719E+01  0.404508497187E-01  0.293892626146E-01
  0.354544826719E+01  0.385256621388E-01  0.318711994874E-01
  0.354544826719E+01  0.364484313711E-01  0.342273552964E-01
  0.354544826719E+01  0.342273552964E-01  0.364484313711E-01
  0.354544826719E+01  0.318711994874E-01  0.385256621388E-01
  0.354544826719E+01  0.293892626146E-01  0.404508497187E-01
  0.354544826719E+01  0.267913397489E-01  0.422163962751E-01
  0.354544826719E+01  0.240876837051E-01  0.438153340022E-01
  0.354544826719E+01  0.212889645783E-01  0.452413526233E-01
  0.354544826719E+01  0.184062276342E-01  0.464888242944E-01
  0.354544826719E+01  0.154508497187E-01  0.475528258148E-01
  0.354544826719E+01  0.124344943582E-01  0.484291580564E-01
  0.354544826719E+01  0.936906572929E-02  0.491143625364E-01
  0.354544826719E+01  0.626666167822E-02  0.496057350657E-01
  0.354544826719E+01  0.313952597647E-02  0.499013364214E-01
  0.354544826719E+01 -0.804061324838E-17  0.500000000000E-01
  0.354544826719E+01 -0.313952597647E-02  0.499013364214E-01
  0.354544826719E+01 -0.626666167822E-02  0.496057350657E-01
  0.354544826719E+01 -0.936906572929E-02  0.491143625364E-01
  0.354544826719E+01 -0.124344943582E-01  0.484291580564E-01
  0.354544826719E+01 -0.154508497187E-01  0.475528258148E-01
  0.354544826719E+01 -0.184062276342E-01  0.464888242944E-01
  0.354544826719E+01 -0.212889645783E-01  0.452413526233E-01
  0.354544826719E+01 -0.240876837051E-01  0.438153340022E-01
  0.354544826719E+01 -0.267913397489E-01  0.422163962751E-01
  0.354544826719E+01 -0.293892626146E-01  0.404508497187E-01
  0.354544826719E+01 -0.318711994874E-01  0.385256621388E-01
  0.354544826719E+01 -0.342273552964E-01  0.364484313711E-01
  0.354544826719E+01 -0.364484313711E-01  0.342273552964E-01
  0.354544826719E+01 -0.385256621388E-01  0.318711994874E-01
  0.354544826719E+01 -0.404508497187E-01  0.293892626146E-01
  0.354544826719E+01 -0.422163962751E-01  0.267913397489E-01
  0.354544826719E+01 -0.438153340022E-01  0.240876837051E-01
  0.354544826719E+01 -0.452413526233E-01  0.212889645783E-01
  0.354544826719E+01 -0.464888242944E-01  0.184062276342E-01
  0.354544826719E+01 -0.475528258148E-01  0.154508497187E-01
  0.354544826719E+01 -0.484291580564E-01  0.124344943582E-01
  0.354544826719E+01 -0.491143625364E-01  0.936906572929E-02
  0.354544826719E+01 -0.496057350657E-01  0.626666167822E-02
  0.354544826719E+01 -0.499013364214E-01  0.313952597647E-02
  0.354544826719E+01 -0.500000000000E-01  0.612323399574E-17
  0.348324742040E+01  0.666666666667E-01  0.000000000000E+00
  0.348324742040E+01  0.665351152286E-01  0.418603463529E-02
  0.348324742040E+01  0.661409800876E-01  0.835554890429E-02
  0.348324742040E+01  0.654858167152E-01  0.124920876390E-01
  0.348324742040E+01  0.645722107419E-01  0.165793258110E-01
  0.348324742040E+01  0.634037677530E-01  0.206011329583E-01
  0.348324742040E+01  0.619850990592E-01  0.245416368456E-01
[...]
CELL_DATA                5950
SCALARS C_p_ise float 1
LOOKUP_TABLE default
  0.232676525374E+00
  0.232676525342E+00
  0.232676525345E+00
  0.232676525363E+00
  0.232676525359E+00
  0.232676525366E+00
  0.232676525365E+00
  0.232676525399E+00
  0.232676525438E+00
  0.232676525386E+00
  0.232676525360E+00
  0.232676525342E+00
  0.232676525306E+00
  0.232676525331E+00
  0.232676525356E+00
  0.232676525377E+00
  0.232676525405E+00
  0.232676525373E+00
  0.232676525382E+00
  0.232676525399E+00
  0.232676525384E+00
  0.232676525369E+00
  0.232676525348E+00
  0.232676525358E+00
  0.232676525372E+00
  0.232676525368E+00
  0.232676525354E+00
  0.232676525351E+00
  0.232676525364E+00
  0.232676525358E+00
  0.232676525363E+00
  0.232676525362E+00
  0.232676525397E+00
  0.232676525437E+00
  0.232676525385E+00
  0.232676525360E+00
  0.232676525342E+00
  0.232676525305E+00
  0.232676525330E+00
  0.232676525355E+00
  0.232676525377E+00
  0.232676525405E+00
  0.232676525373E+00
  0.232676525381E+00
  0.232676525397E+00
  0.232676525378E+00
  0.232676525362E+00
  0.232676525346E+00
  0.232676525343E+00
  0.232676525578E+00
  0.232676524497E+00
  0.232676524868E+00
  0.232676524843E+00
  0.232676524864E+00
  0.232676524830E+00
  0.232676524716E+00
  0.232676524730E+00
  0.232676524717E+00
  0.232676524702E+00
  0.232676524668E+00
  0.232676524711E+00
  0.232676524818E+00
  0.232676524817E+00
  0.232676524818E+00
  0.232676524800E+00
  0.232676524647E+00
  0.232676524683E+00
  0.232676524672E+00
  0.232676524666E+00
  0.232676524805E+00
  0.232676524810E+00
  0.232676524906E+00
  0.232676524850E+00
  0.232676524736E+00
  0.232676524734E+00
  0.232676524834E+00
  0.232676524820E+00
  0.232676524703E+00
  0.232676524758E+00
  0.232676524852E+00
  0.232676524829E+00
  0.232676524697E+00
  0.232676524760E+00
  0.232676524868E+00
  0.232676524837E+00
  0.232676524842E+00
  0.232676524815E+00
  0.232676524710E+00
  0.232676524743E+00
  0.232676524793E+00
  0.232676524760E+00
  0.232676524705E+00
  0.232676524740E+00
  0.232676524890E+00
  0.232676524841E+00
  0.232676524753E+00
  0.232676524739E+00
  0.232676524667E+00
  0.232676524711E+00
  0.232676524801E+00
  0.232676524787E+00
  0.232676524758E+00
  0.232676524752E+00
  0.232676524773E+00
  0.232676524759E+00
  0.232676524729E+00
  0.232676524763E+00
  0.232676524822E+00
  0.232676524789E+00
  0.232676524708E+00
  0.232676524746E+00
  0.232676524844E+00
  0.232676524827E+00
  0.232676524780E+00
  0.232676524770E+00
  0.232676524633E+00
  0.232676524672E+00
  0.232676524667E+00
  0.232676524649E+00
  0.232676524753E+00
  0.232676524771E+00
  0.232676524900E+00
  0.232676524848E+00
  0.232676524749E+00
  0.232676524749E+00
  0.232676524859E+00
  0.232676524837E+00
  0.232676524695E+00
  0.232676524751E+00
  0.232676524849E+00
  0.232676524826E+00
  0.232676524692E+00
  0.232676524761E+00
  0.232676524887E+00
  0.232676524850E+00
  0.232676524834E+00
  0.232676524809E+00
  0.232676524713E+00
  0.232676524740E+00
  0.232676524770E+00
  0.232676524736E+00
  0.232676524695E+00
  0.232676524723E+00
  0.232676524852E+00
  0.232676524815E+00
  0.232676524753E+00
  0.232676524754E+00
  0.232676524767E+00
  0.232676525282E+00
  0.232676526124E+00
  0.232676524431E+00
  0.232676525606E+00
  0.232676525719E+00
  0.232676525790E+00
  0.232676525735E+00
  0.232676525596E+00
  0.232676525598E+00
  0.232676525731E+00
  0.232676525749E+00
  0.232676525935E+00
  0.232676525922E+00
  0.232676525697E+00
  0.232676525724E+00
  0.232676525683E+00
  0.232676525725E+00
  0.232676526023E+00
  0.232676526042E+00
  0.232676526215E+00
  0.232676526124E+00
  0.232676525715E+00
  0.232676525746E+00
  0.232676525643E+00
  0.232676525666E+00
  0.232676525902E+00
  0.232676525846E+00
  0.232676525768E+00
  0.232676525815E+00
  0.232676525950E+00
  0.232676525940E+00
  0.232676525810E+00
  0.232676525840E+00
  0.232676525947E+00
  0.232676525879E+00
  0.232676525445E+00
  0.232676525520E+00
  0.232676525867E+00
  0.232676525833E+00
  0.232676525787E+00
  0.232676525819E+00
  0.232676525989E+00
  0.232676525962E+00
  0.232676525908E+00
  0.232676525846E+00
  0.232676525452E+00
  0.232676525519E+00
  0.232676525850E+00
  0.232676525809E+00
  0.232676525820E+00
  0.232676525775E+00
  0.232676525451E+00
  0.232676525503E+00
  0.232676525681E+00
  0.232676525668E+00
  0.232676525683E+00
  0.232676525654E+00
  0.232676525541E+00
  0.232676525565E+00
  0.232676525569E+00
  0.232676525610E+00
  0.232676525882E+00
  0.232676525853E+00
  0.232676525656E+00
  0.232676525694E+00
  0.232676525804E+00
  0.232676525814E+00
  0.232676525989E+00
  0.232676526016E+00
  0.232676526188E+00
  0.232676526099E+00
  0.232676525752E+00
  0.232676525771E+00
  0.232676525604E+00
  0.232676525641E+00
  0.232676525872E+00
  0.232676525836E+00
  0.232676525821E+00
  0.232676525853E+00
  0.232676525944E+00
  0.232676525915E+00
  0.232676525721E+00
  0.232676525765E+00
  0.232676525936E+00
  0.232676525866E+00
  0.232676525393E+00
  0.232676525478E+00
  0.232676525883E+00
  0.232676525834E+00
  0.232676525739E+00
  0.232676525778E+00
  0.232676526005E+00
  0.232676525970E+00
  0.232676525911E+00
  0.232676525852E+00
  0.232676525492E+00
  0.232676525535E+00
  0.232676525722E+00
  0.232676525725E+00
  0.232676525837E+00
  0.232676526719E+00
  0.232676528533E+00
  0.232676521923E+00
  0.232676518690E+00
  0.232676518964E+00
  0.232676518446E+00
  0.232676518454E+00
  0.232676518796E+00
  0.232676518794E+00
  0.232676518960E+00
  0.232676519050E+00
  0.232676519374E+00
  0.232676519315E+00
  0.232676518732E+00
  0.232676518765E+00
  0.232676519121E+00
  0.232676519078E+00
  0.232676518532E+00
  0.232676518541E+00
  0.232676518050E+00
  0.232676518159E+00
  0.232676519317E+00
  0.232676519319E+00
  0.232676519690E+00
  0.232676519601E+00
  0.232676518962E+00
  0.232676518899E+00
  0.232676518512E+00
  0.232676518595E+00
  0.232676518958E+00
  0.232676518884E+00
  0.232676518241E+00
  0.232676518345E+00
  0.232676519043E+00
  0.232676518968E+00
  0.232676518775E+00
  0.232676518753E+00
  0.232676518681E+00
  0.232676518747E+00
  0.232676518960E+00
  0.232676518942E+00
  0.232676518656E+00
  0.232676518687E+00
  0.232676518856E+00
  0.232676518704E+00
  0.232676518151E+00
  0.232676518216E+00
  0.232676518750E+00
  0.232676518785E+00
  0.232676518853E+00
  0.232676518858E+00
  0.232676519198E+00
  0.232676519217E+00
  0.232676519438E+00
  0.232676519357E+00
  0.232676518637E+00
  0.232676518630E+00
  0.232676518763E+00
  0.232676518788E+00
  0.232676518957E+00
  0.232676519024E+00
  0.232676519196E+00
  0.232676519157E+00
  0.232676518704E+00
  0.232676518749E+00
  0.232676519077E+00
  0.232676519048E+00
  0.232676518622E+00
  0.232676518603E+00
  0.232676518034E+00
  0.232676518192E+00
  0.232676519675E+00
  0.232676519631E+00
  0.232676519676E+00
  0.232676519587E+00
  0.232676518935E+00
  0.232676518876E+00
  0.232676518388E+00
  0.232676518477E+00
  0.232676518894E+00
  0.232676518816E+00
  0.232676518351E+00
  0.232676518450E+00
  0.232676519104E+00
  0.232676519040E+00
  0.232676518841E+00
  0.232676518818E+00
  0.232676518713E+00
  0.232676518783E+00
  0.232676519046E+00
  0.232676519040E+00
  0.232676518858E+00
  0.232676518884E+00
  0.232676518994E+00
  0.232676518832E+00
  0.232676518191E+00
  0.232676518260E+00
  0.232676518947E+00
  0.232676518979E+00
  0.232676518920E+00
  0.232676519749E+00
  0.232676519218E+00
  0.232676525131E+00
  0.232676527449E+00
  0.232676527415E+00
  0.232676528800E+00
  0.232676528668E+00
  0.232676528081E+00
  0.232676528055E+00
  0.232676527394E+00
  0.232676527488E+00
  0.232676527302E+00
  0.232676527341E+00
  0.232676527813E+00
  0.232676527714E+00
  0.232676527284E+00
  0.232676527310E+00
  0.232676527482E+00
  0.232676527517E+00
  0.232676528458E+00
  0.232676528430E+00
  0.232676527837E+00
  0.232676527862E+00
  0.232676526583E+00
  0.232676526696E+00
  0.232676528032E+00
  0.232676527976E+00
  0.232676528861E+00
  0.232676528789E+00
  0.232676527886E+00
  0.232676527873E+00
  0.232676527962E+00
  0.232676527913E+00
  0.232676527370E+00
  0.232676527418E+00
  0.232676527615E+00
  0.232676527625E+00
  0.232676528164E+00
  0.232676528176E+00
  0.232676527785E+00
  0.232676527718E+00
  0.232676527009E+00
  0.232676527001E+00
  0.232676527021E+00
  0.232676527075E+00
  0.232676528713E+00
  0.232676528613E+00
  0.232676527840E+00
  0.232676527891E+00
  0.232676527346E+00
  0.232676527495E+00
  0.232676528698E+00
  0.232676528687E+00
  0.232676527988E+00
  0.232676528052E+00
  0.232676529066E+00
  0.232676528883E+00
  0.232676528229E+00
  0.232676528207E+00
  0.232676527607E+00
  0.232676527691E+00
  0.232676527626E+00
  0.232676527640E+00
  0.232676527898E+00
  0.232676527820E+00
  0.232676527288E+00
  0.232676527273E+00
  0.232676526973E+00
  0.232676527078E+00
  0.232676528743E+00
  0.232676528693E+00
  0.232676527559E+00
  0.232676527629E+00
  0.232676526747E+00
  0.232676526812E+00
  0.232676528135E+00
  0.232676528076E+00
  0.232676528912E+00
  0.232676528836E+00
  0.232676527973E+00
  0.232676527914E+00
  0.232676527542E+00
  0.232676527577E+00
  0.232676527611E+00
  0.232676527628E+00
  0.232676527516E+00
  0.232676527411E+00
  0.232676526931E+00
  0.232676527053E+00
  0.232676527654E+00
  0.232676527583E+00
  0.232676526665E+00
  0.232676526680E+00
  0.232676526815E+00
  0.232676526907E+00
  0.232676529053E+00
  0.232676528895E+00
  0.232676527666E+00
  0.232676527723E+00
  0.232676527070E+00
  0.232676528404E+00
  0.232676533019E+00
  0.232676526022E+00
  0.232676526543E+00
  0.232676526649E+00
  0.232676525348E+00
  0.232676525500E+00
  0.232676526926E+00
  0.232676526861E+00
  0.232676527150E+00
  0.232676526932E+00
  0.232676524317E+00
  0.232676524490E+00
  0.232676526190E+00
  0.232676526207E+00
  0.232676526896E+00
  0.232676526880E+00
  0.232676526939E+00
  0.232676526911E+00
  0.232676526011E+00
  0.232676526065E+00
  0.232676525804E+00
  0.232676525889E+00
  0.232676527261E+00
  0.232676527227E+00
  0.232676527172E+00
  0.232676527134E+00
  0.232676525708E+00
  0.232676525683E+00
  0.232676525121E+00
  0.232676525194E+00
  0.232676527238E+00
  0.232676527126E+00
  0.232676526312E+00
  0.232676526377E+00
  0.232676527235E+00
  0.232676527129E+00
  0.232676525616E+00
  0.232676525672E+00
  0.232676525493E+00
  0.232676525551E+00
  0.232676527391E+00
  0.232676527231E+00
  0.232676526424E+00
  0.232676526419E+00
  0.232676525745E+00
  0.232676525970E+00
  0.232676527538E+00
  0.232676527400E+00
  0.232676526274E+00
  0.232676526276E+00
  0.232676525318E+00
  0.232676525550E+00
  0.232676526753E+00
  0.232676526632E+00
  0.232676525453E+00
  0.232676525531E+00
  0.232676527165E+00
  0.232676527086E+00
  0.232676527260E+00
  0.232676527029E+00
  0.232676524308E+00
  0.232676524476E+00
  0.232676526248E+00
  0.232676526258E+00
  0.232676526922E+00
  0.232676526915E+00
  0.232676527656E+00
  0.232676527529E+00
  0.232676525352E+00
  0.232676525532E+00
  0.232676526027E+00
  0.232676526057E+00
  0.232676527011E+00
  0.232676527025E+00
  0.232676527548E+00
  0.232676527477E+00
  0.232676525738E+00
  0.232676525713E+00
  0.232676525253E+00
  0.232676525322E+00
  0.232676527787E+00
  0.232676527637E+00
  0.232676526042E+00
  0.232676526179E+00
  0.232676527458E+00
  0.232676527315E+00
  0.232676527043E+00
  0.232676526984E+00
  0.232676525590E+00
  0.232676525758E+00
  0.232676527641E+00
  0.232676527479E+00
  0.232676526652E+00
  0.232676526643E+00
  0.232676525365E+00
  0.232676525631E+00
  0.232676527676E+00
  0.232676527511E+00
  0.232676526566E+00
  0.232676527821E+00
  0.232676527758E+00
  0.232676528501E+00
  0.232676532111E+00
  0.232676532262E+00
  0.232676532243E+00
  0.232676532219E+00
  0.232676531466E+00
  0.232676531559E+00
  0.232676531936E+00
  0.232676531957E+00
  0.232676534722E+00
  0.232676534614E+00
  0.232676534043E+00
  0.232676534095E+00
  0.232676532545E+00
  0.232676532642E+00
  0.232676533297E+00
  0.232676533245E+00
  0.232676532848E+00
  0.232676532785E+00
  0.232676532343E+00
  0.232676532362E+00
  0.232676531818E+00
  0.232676531885E+00
  0.232676531574E+00
  0.232676531574E+00
  0.232676532122E+00
  0.232676532079E+00
  0.232676533528E+00
  0.232676533351E+00
  0.232676530763E+00
  0.232676530957E+00
  0.232676532527E+00
  0.232676532488E+00
  0.232676532093E+00
  0.232676532131E+00
  0.232676532978E+00
  0.232676532911E+00
  0.232676533106E+00
  0.232676532992E+00
  0.232676530975E+00
  0.232676531184E+00
  0.232676533806E+00
  0.232676533715E+00
  0.232676533544E+00
  0.232676533548E+00
  0.232676531475E+00
  0.232676531588E+00
  0.232676532981E+00
  0.232676532796E+00
  0.232676531696E+00
  0.232676531753E+00
  0.232676530609E+00
  0.232676530678E+00
  0.232676531727E+00
  0.232676531558E+00
  0.232676529730E+00
  0.232676529908E+00
  0.232676531326E+00
  0.232676531344E+00
  0.232676534366E+00
  0.232676534247E+00
  0.232676533734E+00
  0.232676533786E+00
  0.232676532236E+00
  0.232676532336E+00
  0.232676532952E+00
  0.232676532912E+00
  0.232676533158E+00
  0.232676532978E+00
  0.232676530867E+00
  0.232676531028E+00
  0.232676532141E+00
  0.232676532201E+00
  0.232676531676E+00
  0.232676531694E+00
  0.232676532232E+00
  0.232676532186E+00
  0.232676533972E+00
  0.232676533799E+00
  0.232676531188E+00
  0.232676531366E+00
  0.232676532723E+00
  0.232676532666E+00
  0.232676532028E+00
  0.232676532084E+00
  0.232676533158E+00
  0.232676533073E+00
  0.232676533044E+00
  0.232676532958E+00
  0.232676531301E+00
  0.232676531496E+00
  0.232676533904E+00
  0.232676533762E+00
  0.232676533009E+00
  0.232676533070E+00
  0.232676531910E+00
  0.232676531968E+00
  0.232676532455E+00
  0.232676534104E+00
  0.232676540342E+00
  0.232676516189E+00
  0.232676498322E+00
  0.232676499000E+00
  0.232676502743E+00
  0.232676502633E+00
  0.232676501376E+00
  0.232676501398E+00
  0.232676501204E+00
  0.232676501423E+00
  0.232676503957E+00
  0.232676503809E+00
  0.232676500021E+00
  0.232676500190E+00
  0.232676502600E+00
  0.232676502564E+00
  0.232676502359E+00
  0.232676502338E+00
  0.232676502064E+00
  0.232676501871E+00
  0.232676500382E+00
  0.232676500459E+00
  0.232676501826E+00
  0.232676501868E+00
  0.232676502129E+00
  0.232676502166E+00
  0.232676503081E+00
  0.232676503039E+00
  0.232676502422E+00
  0.232676502478E+00
  0.232676504304E+00
  0.232676504071E+00
  0.232676500652E+00
  0.232676500986E+00
  0.232676504784E+00
  0.232676504693E+00
  0.232676503212E+00
  0.232676503129E+00
  0.232676501910E+00
  0.232676502031E+00
  0.232676505337E+00
  0.232676505227E+00
  0.232676502769E+00
  0.232676502789E+00
  0.232676501436E+00
  0.232676501345E+00
  0.232676500130E+00
  0.232676500240E+00
  0.232676502587E+00
  0.232676502398E+00
  0.232676500734E+00
  0.232676500712E+00
  0.232676500791E+00
  0.232676500936E+00
  0.232676503391E+00
  0.232676503277E+00
  0.232676502905E+00
  0.232676502840E+00
  0.232676501297E+00
  0.232676501595E+00
  0.232676504163E+00
  0.232676504016E+00
  0.232676500113E+00
  0.232676500301E+00
  0.232676502913E+00
  0.232676502879E+00
  0.232676502645E+00
  0.232676502634E+00
  0.232676502360E+00
  0.232676502168E+00
  0.232676501711E+00
  0.232676501707E+00
  0.232676501664E+00
  0.232676501789E+00
  0.232676501476E+00
  0.232676501555E+00
  0.232676503073E+00
  0.232676503009E+00
  0.232676502122E+00
  0.232676502186E+00
  0.232676503696E+00
  0.232676503534E+00
  0.232676501454E+00
  0.232676501771E+00
  0.232676505821E+00
  0.232676505646E+00
  0.232676502914E+00
  0.232676502861E+00
  0.232676502104E+00
  0.232676502201E+00
  0.232676504987E+00
  0.232676504934E+00
  0.232676503138E+00
  0.232676503208E+00
  0.232676503606E+00
  0.232676503381E+00
  0.232676499974E+00
  0.232676500121E+00
  0.232676502799E+00
  0.232676503517E+00
  0.232676488996E+00
  0.232676525585E+00
  0.232676527662E+00
  0.232676526725E+00
  0.232676519511E+00
  0.232676519952E+00
  0.232676525077E+00
  0.232676524820E+00
  0.232676521500E+00
  0.232676521727E+00
  0.232676522086E+00
  0.232676522342E+00
  0.232676526331E+00
  0.232676526230E+00
  0.232676525940E+00
  0.232676525749E+00
  0.232676520395E+00
  0.232676520637E+00
  0.232676525335E+00
  0.232676525019E+00
  0.232676523212E+00
  0.232676523130E+00
  0.232676522124E+00
  0.232676522114E+00
  0.232676519672E+00
  0.232676520077E+00
  0.232676526028E+00
  0.232676525670E+00
  0.232676519271E+00
  0.232676519330E+00
  0.232676520081E+00
  0.232676520337E+00
  0.232676526592E+00
  0.232676526444E+00
  0.232676522104E+00
  0.232676522527E+00
  0.232676526975E+00
  0.232676526764E+00
  0.232676526257E+00
  0.232676526141E+00
  0.232676523500E+00
  0.232676523306E+00
  0.232676518130E+00
  0.232676518378E+00
  0.232676525049E+00
  0.232676524806E+00
  0.232676523757E+00
  0.232676523690E+00
  0.232676522075E+00
  0.232676522183E+00
  0.232676524578E+00
  0.232676524549E+00
  0.232676526314E+00
  0.232676526079E+00
  0.232676519548E+00
  0.232676519886E+00
  0.232676524770E+00
  0.232676524538E+00
  0.232676522125E+00
  0.232676522371E+00
  0.232676523234E+00
  0.232676523384E+00
  0.232676525516E+00
  0.232676525437E+00
  0.232676525339E+00
  0.232676525164E+00
  0.232676519823E+00
  0.232676520059E+00
  0.232676524510E+00
  0.232676524195E+00
  0.232676522403E+00
  0.232676522320E+00
  0.232676521498E+00
  0.232676521484E+00
  0.232676519181E+00
  0.232676519617E+00
  0.232676526041E+00
  0.232676525718E+00
  0.232676519585E+00
  0.232676519662E+00
  0.232676520889E+00
  0.232676521105E+00
  0.232676525820E+00
  0.232676525759E+00
  0.232676521692E+00
  0.232676522094E+00
  0.232676527313E+00
  0.232676527062E+00
  0.232676526786E+00
  0.232676526641E+00
  0.232676523380E+00
  0.232676523188E+00
  0.232676517665E+00
  0.232676517934E+00
  0.232676523365E+00
  0.232676523177E+00
  0.232676523340E+00
  0.232676523261E+00
  0.232676523276E+00
  0.232676524313E+00
  0.232676526686E+00
  0.232676522098E+00
  0.232676530023E+00
  0.232676529225E+00
  0.232676529554E+00
  0.232676529248E+00
  0.232676523098E+00
  0.232676523492E+00
  0.232676530133E+00
  0.232676530180E+00
  0.232676530477E+00
  0.232676530509E+00
  0.232676525865E+00
  0.232676525654E+00
  0.232676519092E+00
  0.232676519548E+00
  0.232676532161E+00
  0.232676531616E+00
  0.232676522638E+00
  0.232676522822E+00
  0.232676527095E+00
  0.232676526704E+00
  0.232676522865E+00
  0.232676523187E+00
  0.232676530630E+00
  0.232676530465E+00
  0.232676522389E+00
  0.232676522851E+00
  0.232676531763E+00
  0.232676531415E+00
  0.232676530828E+00
  0.232676530922E+00
  0.232676526989E+00
  0.232676527046E+00
  0.232676523955E+00
  0.232676524106E+00
  0.232676523771E+00
  0.232676524075E+00
  0.232676528904E+00
  0.232676528808E+00
  0.232676529744E+00
  0.232676529526E+00
  0.232676532022E+00
  0.232676531598E+00
  0.232676524599E+00
  0.232676524756E+00
  0.232676524889E+00
  0.232676525028E+00
  0.232676530120E+00
  0.232676529981E+00
  0.232676527086E+00
  0.232676527100E+00
  0.232676525233E+00
  0.232676525262E+00
  0.232676528299E+00
  0.232676527935E+00
  0.232676521902E+00
  0.232676522296E+00
  0.232676528726E+00
  0.232676528798E+00
  0.232676528187E+00
  0.232676528293E+00
  0.232676526492E+00
  0.232676526230E+00
  0.232676520372E+00
  0.232676520834E+00
  0.232676533055E+00
  0.232676532525E+00
  0.232676523940E+00
  0.232676524115E+00
  0.232676528446E+00
  0.232676528084E+00
  0.232676524795E+00
  0.232676525151E+00
  0.232676533088E+00
  0.232676532813E+00
  0.232676521876E+00
  0.232676522389E+00
  0.232676531109E+00
  0.232676530850E+00
  0.232676531317E+00
  0.232676531331E+00
  0.232676526104E+00
  0.232676526212E+00
  0.232676524155E+00
  0.232676524237E+00
  0.232676522706E+00
  0.232676522962E+00
  0.232676526765E+00
  0.232676526718E+00
  0.232676528890E+00
  0.232676528715E+00
  0.232676532682E+00
  0.232676532290E+00
  0.232676525879E+00
  0.232676526024E+00
  0.232676526284E+00
  0.232676526401E+00
  0.232676529948E+00