# vtk DataFile Version 3.0
MachLine results file. Generated by MachLine, USU AeroLab (c) 2022.
ASCII
DATASET POLYDATA
POINTS                3061 float
  0.567128181962E+01  0.000000000000E+00  0.000000000000E+00
  0.557676045596E+01  0.166666666667E-01  0.000000000000E+00
  0.557676045596E+01  0.166337788071E-01  0.104650865882E-02
  0.557676045596E+01  0.165352450219E-01  0.208888722607E-02
  0.557676045596E+01  0.163714541788E-01  0.312302190976E-02
  0.557676045596E+01  0.161430526855E-01  0.414483145275E-02
  0.557676045596E+01  0.158509419383E-01  0.515028323958E-02
  0.557676045596E+01  0.154962747648E-01  0.613540921141E-02
  0.557676045596E+01  0.150804508744E-01  0.709632152608E-02
  0.557676045596E+01  0.146051113341E-01  0.802922790170E-02
  0.557676045596E+01  0.140721320917E-01  0.893044658298E-02
  0.557676045596E+01  0.134836165729E-01  0.979642087154E-02
  0.557676045596E+01  0.128418873796E-01  0.106237331625E-01
  0.557676045596E+01  0.121494771237E-01  0.114091184321E-01
  0.557676045596E+01  0.114091184321E-01  0.121494771237E-01
  0.557676045596E+01  0.106237331625E-01  0.128418873796E-01
  0.557676045596E+01  0.979642087154E-02  0.134836165729E-01
  0.557676045596E+01  0.893044658298E-02  0.140721320917E-01
  0.557676045596E+01  0.802922790170E-02  0.146051113341E-01
  0.557676045596E+01  0.709632152608E-02  0.150804508744E-01
  0.557676045596E+01  0.613540921141E-02  0.154962747648E-01
  0.557676045596E+01  0.515028323958E-02  0.158509419383E-01
  0.557676045596E+01  0.414483145275E-02  0.161430526855E-01
  0.557676045596E+01  0.312302190976E-02  0.163714541788E-01
  0.557676045596E+01  0.208888722607E-02  0.165352450219E-01
  0.557676045596E+01  0.104650865882E-02  0.166337788071E-01
  0.557676045596E+01 -0.268020441613E-17  0.166666666667E-01
  0.557676045596E+01 -0.104650865882E-02  0.166337788071E-01
  0.557676045596E+01 -0.208888722607E-02  0.165352450219E-01
  0.557676045596E+01 -0.312302190976E-02  0.163714541788E-01
  0.557676045596E+01 -0.414483145275E-02  0.161430526855E-01
  0.557676045596E+01 -0.515028323958E-02  0.158509419383E-01
  0.557676045596E+01 -0.613540921141E-02  0.154962747648E-01
  0.557676045596E+01 -0.709632152608E-02  0.150804508744E-01
  0.557676045596E+01 -0.802922790170E-02  0.146051113341E-01
  0.557676045596E+01 -0.893044658298E-02  0.140721320917E-01
  0.557676045596E+01 -0.979642087154E-02  0.134836165729E-01
  0.557676045596E+01 -0.106237331625E-01  0.128418873796E-01
  0.557676045596E+01 -0.114091184321E-01  0.121494771237E-01
  0.557676045596E+01 -0.121494771237E-01  0.114091184321E-01
  0.557676045596E+01 -0.128418873796E-01  0.106237331625E-01
  0.557676045596E+01 -0.134836165729E-01  0.979642087154E-02
  0.557676045596E+01 -0.140721320917E-01  0.893044658298E-02
  0.557676045596E+01 -0.146051113341E-01  0.802922790170E-02
  0.557676045596E+01 -0.150804508744E-01  0.709632152608E-02
  0.557676045596E+01 -0.154962747648E-01  0.613540921141E-02
  0.557676045596E+01 -0.158509419383E-01  0.515028323958E-02
  0.557676045596E+01 -0.161430526855E-01  0.414483145275E-02
  0.557676045596E+01 -0.163714541788E-01  0.312302190976E-02
  0.557676045596E+01 -0.165352450219E-01  0.208888722607E-02
  0.557676045596E+01 -0.166337788071E-01  0.104650865882E-02
  0.557676045596E+01 -0.166666666667E-01  0.204107799858E-17
  0.548223909230E+01  0.333333333333E-01  0.000000000000E+00
  0.548223909230E+01  0.332675576143E-01  0.209301731764E-02
  0.548223909230E+01  0.330704900438E-01  0.417777445214E-02
  0.548223909230E+01  0.327429083576E-01  0.624604381952E-02
  0.548223909230E+01  0.322861053710E-01  0.828966290550E-02
  0.548223909230E+01  0.317018838765E-01  0.103005664792E-01
  0.548223909230E+01  0.309925495296E-01  0.122708184228E-01
  0.548223909230E+01  0.301609017489E-01  0.141926430522E-01
  0.548223909230E+01  0.292102226681E-01  0.160584558034E-01
  0.548223909230E+01  0.281442641834E-01  0.178608931660E-01
  0.548223909230E+01  0.269672331458E-01  0.195928417431E-01
  0.548223909230E+01  0.256837747592E-01  0.212474663250E-01
  0.548223909230E+01  0.242989542474E-01  0.228182368643E-01
  0.548223909230E+01  0.228182368643E-01  0.242989542474E-01
  0.548223909230E+01  0.212474663250E-01  0.256837747592E-01
  0.548223909230E+01  0.195928417431E-01  0.269672331458E-01
  0.548223909230E+01  0.178608931660E-01  0.281442641834E-01
  0.548223909230E+01  0.160584558034E-01  0.292102226681E-01
  0.548223909230E+01  0.141926430522E-01  0.301609017489E-01
  0.548223909230E+01  0.122708184228E-01  0.309925495296E-01
  0.548223909230E+01  0.103005664792E-01  0.317018838765E-01
  0.548223909230E+01  0.828966290550E-02  0.322861053710E-01
  0.548223909230E+01  0.624604381952E-02  0.327429083576E-01
  0.548223909230E+01  0.417777445214E-02  0.330704900438E-01
  0.548223909230E+01  0.209301731764E-02  0.332675576143E-01
  0.548223909230E+01 -0.536040883226E-17  0.333333333333E-01
  0.548223909230E+01 -0.209301731764E-02  0.332675576143E-01
  0.548223909230E+01 -0.417777445214E-02  0.330704900438E-01
  0.548223909230E+01 -0.624604381952E-02  0.327429083576E-01
  0.548223909230E+01 -0.828966290550E-02  0.322861053710E-01
  0.548223909230E+01 -0.103005664792E-01  0.317018838765E-01
  0.548223909230E+01 -0.122708184228E-01  0.309925495296E-01
  0.548223909230E+01 -0.141926430522E-01  0.301609017489E-01
  0.548223909230E+01 -0.160584558034E-01  0.292102226681E-01
  0.548223909230E+01 -0.178608931660E-01  0.281442641834E-01
  0.548223909230E+01 -0.195928417431E-01  0.269672331458E-01
  0.548223909230E+01 -0.212474663250E-01  0.256837747592E-01
  0.548223909230E+01 -0.228182368643E-01  0.242989542474E-01
  0.548223909230E+01 -0.242989542474E-01  0.228182368643E-01
  0.548223909230E+01 -0.256837747592E-01  0.212474663250E-01
  0.548223909230E+01 -0.269672331458E-01  0.195928417431E-01
  0.548223909230E+01 -0.281442641834E-01  0.178608931660E-01
  0.548223909230E+01 -0.292102226681E-01  0.160584558034E-01
  0.548223909230E+01 -0.301609017489E-01  0.141926430522E-01
  0.548223909230E+01 -0.309925495296E-01  0.122708184228E-01
  0.548223909230E+01 -0.317018838765E-01  0.103005664792E-01
  0.548223909230E+01 -0.322861053710E-01  0.828966290550E-02
  0.548223909230E+01 -0.327429083576E-01  0.624604381952E-02
  0.548223909230E+01 -0.330704900438E-01  0.417777445214E-02
  0.548223909230E+01 -0.332675576143E-01  0.209301731764E-02
  0.548223909230E+01 -0.333333333333E-01  0.408215599716E-17
  0.538771772864E+01  0.500000000000E-01  0.000000000000E+00
  0.538771772864E+01  0.499013364214E-01  0.313952597647E-02
  0.538771772864E+01  0.496057350657E-01  0.626666167822E-02
  0.538771772864E+01  0.491143625364E-01  0.936906572929E-02
  0.538771772864E+01  0.484291580564E-01  0.124344943582E-01
  0.538771772864E+01  0.475528258148E-01  0.154508497187E-01
  0.538771772864E+01  0.464888242944E-01  0.184062276342E-01
  0.538771772864E+01  0.452413526233E-01  0.212889645783E-01
  0.538771772864E+01  0.438153340022E-01  0.240876837051E-01
  0.538771772864E+01  0.422163962751E-01  0.267913397489E-01
  0.538771772864E+01  0.404508497187E-01  0.293892626146E-01
  0.538771772864E+01  0.385256621388E-01  0.318711994874E-01
  0.538771772864E+01  0.364484313711E-01  0.342273552964E-01
  0.538771772864E+01  0.342273552964E-01  0.364484313711E-01
  0.538771772864E+01  0.318711994874E-01  0.385256621388E-01
  0.538771772864E+01  0.293892626146E-01  0.404508497187E-01
  0.538771772864E+01  0.267913397489E-01  0.422163962751E-01
  0.538771772864E+01  0.240876837051E-01  0.438153340022E-01
  0.538771772864E+01  0.212889645783E-01  0.452413526233E-01
  0.538771772864E+01  0.184062276342E-01  0.464888242944E-01
  0.538771772864E+01  0.154508497187E-01  0.475528258148E-01
  0.538771772864E+01  0.124344943582E-01  0.484291580564E-01
  0.538771772864E+01  0.936906572929E-02  0.491143625364E-01
  0.538771772864E+01  0.626666167822E-02  0.496057350657E-01
  0.538771772864E+01  0.313952597647E-02  0.499013364214E-01
  0.538771772864E+01 -0.804061324838E-17  0.500000000000E-01
  0.538771772864E+01 -0.313952597647E-02  0.499013364214E-01
  0.538771772864E+01 -0.626666167822E-02  0.496057350657E-01
  0.538771772864E+01 -0.936906572929E-02  0.491143625364E-01
  0.538771772864E+01 -0.124344943582E-01  0.484291580564E-01
  0.538771772864E+01 -0.154508497187E-01  0.475528258148E-01
  0.538771772864E+01 -0.184062276342E-01  0.464888242944E-01
  0.538771772864E+01 -0.212889645783E-01  0.452413526233E-01
  0.538771772864E+01 -0.240876837051E-01  0.438153340022E-01
  0.538771772864E+01 -0.267913397489E-01  0.422163962751E-01
  0.538771772864E+01 -0.293892626146E-01  0.404508497187E-01
  0.538771772864E+01 -0.318711994874E-01  0.385256621388E-01
  0.538771772864E+01 -0.342273552964E-01  0.364484313711E-01
  0.538771772864E+01 -0.364484313711E-01  0.342273552964E-01
  0.538771772864E+01 -0.385256621388E-01  0.318711994874E-01
  0.538771772864E+01 -0.404508497187E-01  0.293892626146E-01
  0.538771772864E+01 -0.422163962751E-01  0.267913397489E-01
  0.538771772864E+01 -0.438153340022E-01  0.240876837051E-01
  0.538771772864E+01 -0.452413526233E-01  0.212889645783E-01
  0.538771772864E+01 -0.464888242944E-01  0.184062276342E-01
  0.538771772864E+01 -0.475528258148E-01  0.154508497187E-01
  0.538771772864E+01 -0.484291580564E-01  0.124344943582E-01
  0.538771772864E+01 -0.491143625364E-01  0.936906572929E-02
  0.538771772864E+01 -0.496057350657E-01  0.626666167822E-02
  0.538771772864E+01 -0.499013364214E-01  0.313952597647E-02
  0.538771772864E+01 -0.500000000000E-01  0.612323399574E-17
  0.529319636498E+01  0.666666666667E-01  0.000000000000E+00
  0.529319636498E+01  0.665351152286E-01  0.418603463529E-02
  0.529319636498E+01  0.661409800876E-01  0.835554890429E-02
  0.529319636498E+01  0.654858167152E-01  0.124920876390E-01
  0.529319636498E+01  0.645722107419E-01  0.165793258110E-01
  0.529319636498E+01  0.634037677530E-01  0.206011329583E-01
  0.529319636498E+01  0.619850990592E-01  0.245416368456E-01
[...]
CELL_DATA                5950
SCALARS C_p_ise float 1
LOOKUP_TABLE default
  0.115569450862E+00
  0.115569450845E+00
  0.115569450834E+00
  0.115569450835E+00
  0.115569450855E+00
  0.115569450859E+00
  0.115569450855E+00
  0.115569450853E+00
  0.115569450849E+00
  0.115569450835E+00
  0.115569450833E+00
  0.115569450845E+00
  0.115569450829E+00
  0.115569450828E+00
  0.115569450832E+00
  0.115569450825E+00
  0.115569450841E+00
  0.115569450859E+00
  0.115569450861E+00
  0.115569450858E+00
  0.115569450853E+00
  0.115569450840E+00
  0.115569450832E+00
  0.115569450836E+00
  0.115569450836E+00
  0.115569450839E+00
  0.115569450845E+00
  0.115569450839E+00
  0.115569450839E+00
  0.115569450855E+00
  0.115569450859E+00
  0.115569450854E+00
  0.115569450853E+00
  0.115569450851E+00
  0.115569450836E+00
  0.115569450836E+00
  0.115569450847E+00
  0.115569450829E+00
  0.115569450831E+00
  0.115569450837E+00
  0.115569450826E+00
  0.115569450846E+00
  0.115569450865E+00
  0.115569450859E+00
  0.115569450854E+00
  0.115569450850E+00
  0.115569450836E+00
  0.115569450829E+00
  0.115569450837E+00
  0.115569450907E+00
  0.115569450395E+00
  0.115569450396E+00
  0.115569450386E+00
  0.115569450409E+00
  0.115569450403E+00
  0.115569450419E+00
  0.115569450420E+00
  0.115569450420E+00
  0.115569450424E+00
  0.115569450377E+00
  0.115569450387E+00
  0.115569450402E+00
  0.115569450384E+00
  0.115569450341E+00
  0.115569450352E+00
  0.115569450389E+00
  0.115569450376E+00
  0.115569450345E+00
  0.115569450370E+00
  0.115569450489E+00
  0.115569450473E+00
  0.115569450433E+00
  0.115569450425E+00
  0.115569450365E+00
  0.115569450359E+00
  0.115569450388E+00
  0.115569450387E+00
  0.115569450387E+00
  0.115569450400E+00
  0.115569450426E+00
  0.115569450426E+00
  0.115569450448E+00
  0.115569450457E+00
  0.115569450437E+00
  0.115569450445E+00
  0.115569450415E+00
  0.115569450410E+00
  0.115569450387E+00
  0.115569450381E+00
  0.115569450373E+00
  0.115569450383E+00
  0.115569450429E+00
  0.115569450420E+00
  0.115569450433E+00
  0.115569450425E+00
  0.115569450422E+00
  0.115569450418E+00
  0.115569450396E+00
  0.115569450398E+00
  0.115569450401E+00
  0.115569450399E+00
  0.115569450384E+00
  0.115569450393E+00
  0.115569450403E+00
  0.115569450402E+00
  0.115569450415E+00
  0.115569450422E+00
  0.115569450441E+00
  0.115569450433E+00
  0.115569450362E+00
  0.115569450376E+00
  0.115569450406E+00
  0.115569450397E+00
  0.115569450385E+00
  0.115569450386E+00
  0.115569450389E+00
  0.115569450377E+00
  0.115569450349E+00
  0.115569450364E+00
  0.115569450451E+00
  0.115569450440E+00
  0.115569450406E+00
  0.115569450420E+00
  0.115569450424E+00
  0.115569450398E+00
  0.115569450374E+00
  0.115569450381E+00
  0.115569450399E+00
  0.115569450404E+00
  0.115569450400E+00
  0.115569450405E+00
  0.115569450451E+00
  0.115569450455E+00
  0.115569450408E+00
  0.115569450421E+00
  0.115569450406E+00
  0.115569450404E+00
  0.115569450416E+00
  0.115569450400E+00
  0.115569450366E+00
  0.115569450374E+00
  0.115569450410E+00
  0.115569450404E+00
  0.115569450430E+00
  0.115569450418E+00
  0.115569450402E+00
  0.115569450409E+00
  0.115569450403E+00
  0.115569450555E+00
  0.115569450800E+00
  0.115569450354E+00
  0.115569450520E+00
  0.115569450509E+00
  0.115569450505E+00
  0.115569450490E+00
  0.115569450403E+00
  0.115569450421E+00
  0.115569450479E+00
  0.115569450466E+00
  0.115569450380E+00
  0.115569450386E+00
  0.115569450445E+00
  0.115569450462E+00
  0.115569450615E+00
  0.115569450605E+00
  0.115569450571E+00
  0.115569450556E+00
  0.115569450487E+00
  0.115569450467E+00
  0.115569450296E+00
  0.115569450331E+00
  0.115569450388E+00
  0.115569450394E+00
  0.115569450530E+00
  0.115569450515E+00
  0.115569450571E+00
  0.115569450546E+00
  0.115569450378E+00
  0.115569450416E+00
  0.115569450541E+00
  0.115569450525E+00
  0.115569450401E+00
  0.115569450427E+00
  0.115569450475E+00
  0.115569450479E+00
  0.115569450492E+00
  0.115569450470E+00
  0.115569450435E+00
  0.115569450425E+00
  0.115569450443E+00
  0.115569450429E+00
  0.115569450321E+00
  0.115569450336E+00
  0.115569450377E+00
  0.115569450395E+00
  0.115569450508E+00
  0.115569450501E+00
  0.115569450492E+00
  0.115569450473E+00
  0.115569450409E+00
  0.115569450417E+00
  0.115569450460E+00
  0.115569450473E+00
  0.115569450525E+00
  0.115569450507E+00
  0.115569450410E+00
  0.115569450428E+00
  0.115569450463E+00
  0.115569450449E+00
  0.115569450388E+00
  0.115569450376E+00
  0.115569450364E+00
  0.115569450394E+00
  0.115569450543E+00
  0.115569450543E+00
  0.115569450563E+00
  0.115569450544E+00
  0.115569450500E+00
  0.115569450474E+00
  0.115569450318E+00
  0.115569450343E+00
  0.115569450378E+00
  0.115569450391E+00
  0.115569450444E+00
  0.115569450451E+00
  0.115569450610E+00
  0.115569450565E+00
  0.115569450342E+00
  0.115569450377E+00
  0.115569450501E+00
  0.115569450484E+00
  0.115569450384E+00
  0.115569450416E+00
  0.115569450475E+00
  0.115569450478E+00
  0.115569450506E+00
  0.115569450492E+00
  0.115569450458E+00
  0.115569450446E+00
  0.115569450447E+00
  0.115569450433E+00
  0.115569450380E+00
  0.115569450380E+00
  0.115569450351E+00
  0.115569450384E+00
  0.115569450568E+00
  0.115569450569E+00
  0.115569450565E+00
  0.115569450789E+00
  0.115569451159E+00
  0.115569449237E+00
  0.115569448927E+00
  0.115569448935E+00
  0.115569448833E+00
  0.115569448814E+00
  0.115569448795E+00
  0.115569448781E+00
  0.115569448680E+00
  0.115569448722E+00
  0.115569449026E+00
  0.115569448990E+00
  0.115569448818E+00
  0.115569448815E+00
  0.115569448590E+00
  0.115569448631E+00
  0.115569448773E+00
  0.115569448782E+00
  0.115569448995E+00
  0.115569448976E+00
  0.115569449077E+00
  0.115569449073E+00
  0.115569449031E+00
  0.115569448999E+00
  0.115569448650E+00
  0.115569448686E+00
  0.115569448851E+00
  0.115569448849E+00
  0.115569448928E+00
  0.115569448933E+00
  0.115569448938E+00
  0.115569448942E+00
  0.115569448909E+00
  0.115569448888E+00
  0.115569448737E+00
  0.115569448757E+00
  0.115569448804E+00
  0.115569448809E+00
  0.115569448982E+00
  0.115569448968E+00
  0.115569448987E+00
  0.115569448986E+00
  0.115569449046E+00
  0.115569449056E+00
  0.115569449172E+00
  0.115569449134E+00
  0.115569448683E+00
  0.115569448734E+00
  0.115569448980E+00
  0.115569448960E+00
  0.115569448965E+00
  0.115569448950E+00
  0.115569448881E+00
  0.115569448880E+00
  0.115569448710E+00
  0.115569448712E+00
  0.115569448782E+00
  0.115569448777E+00
  0.115569448750E+00
  0.115569448776E+00
  0.115569448999E+00
  0.115569448974E+00
  0.115569448969E+00
  0.115569448942E+00
  0.115569448560E+00
  0.115569448615E+00
  0.115569448792E+00
  0.115569448807E+00
  0.115569449024E+00
  0.115569449000E+00
  0.115569449076E+00
  0.115569449069E+00
  0.115569449064E+00
  0.115569449041E+00
  0.115569448742E+00
  0.115569448781E+00
  0.115569448931E+00
  0.115569448932E+00
  0.115569449032E+00
  0.115569449017E+00
  0.115569448976E+00
  0.115569448987E+00
  0.115569449010E+00
  0.115569448998E+00
  0.115569448832E+00
  0.115569448841E+00
  0.115569448800E+00
  0.115569448809E+00
  0.115569448930E+00
  0.115569448923E+00
  0.115569449002E+00
  0.115569448982E+00
  0.115569448939E+00
  0.115569448964E+00
  0.115569449211E+00
  0.115569449175E+00
  0.115569448731E+00
  0.115569448786E+00
  0.115569448914E+00
  0.115569449187E+00
  0.115569449540E+00
  0.115569450825E+00
  0.115569450593E+00
  0.115569450549E+00
  0.115569450483E+00
  0.115569450490E+00
  0.115569450855E+00
  0.115569450831E+00
  0.115569450760E+00
  0.115569450752E+00
  0.115569450433E+00
  0.115569450482E+00
  0.115569450859E+00
  0.115569450846E+00
  0.115569450975E+00
  0.115569450954E+00
  0.115569450692E+00
  0.115569450728E+00
  0.115569450790E+00
  0.115569450781E+00
  0.115569450595E+00
  0.115569450610E+00
  0.115569450659E+00
  0.115569450651E+00
  0.115569450921E+00
  0.115569450904E+00
  0.115569450870E+00
  0.115569450892E+00
  0.115569450895E+00
  0.115569450884E+00
  0.115569450644E+00
  0.115569450652E+00
  0.115569450682E+00
  0.115569450673E+00
  0.115569450821E+00
  0.115569450811E+00
  0.115569450731E+00
  0.115569450726E+00
  0.115569450574E+00
  0.115569450595E+00
  0.115569450682E+00
  0.115569450672E+00
  0.115569450571E+00
  0.115569450569E+00
  0.115569450393E+00
  0.115569450440E+00
  0.115569451051E+00
  0.115569450979E+00
  0.115569450449E+00
  0.115569450494E+00
  0.115569450765E+00
  0.115569450722E+00
  0.115569450461E+00
  0.115569450493E+00
  0.115569450878E+00
  0.115569450843E+00
  0.115569450719E+00
  0.115569450694E+00
  0.115569450432E+00
  0.115569450465E+00
  0.115569450564E+00
  0.115569450595E+00
  0.115569450811E+00
  0.115569450821E+00
  0.115569451153E+00
  0.115569451108E+00
  0.115569450687E+00
  0.115569450733E+00
  0.115569450787E+00
  0.115569450780E+00
  0.115569450657E+00
  0.115569450670E+00
  0.115569450755E+00
  0.115569450720E+00
  0.115569450612E+00
  0.115569450609E+00
  0.115569450610E+00
  0.115569450671E+00
  0.115569451014E+00
  0.115569450960E+00
  0.115569450474E+00
  0.115569450495E+00
  0.115569450635E+00
  0.115569450630E+00
  0.115569450664E+00
  0.115569450658E+00
  0.115569450737E+00
  0.115569450739E+00
  0.115569450726E+00
  0.115569450710E+00
  0.115569450472E+00
  0.115569450465E+00
  0.115569450487E+00
  0.115569450494E+00
  0.115569450386E+00
  0.115569450444E+00
  0.115569450971E+00
  0.115569450902E+00
  0.115569450356E+00
  0.115569450748E+00
  0.115569451649E+00
  0.115569450418E+00
  0.115569450440E+00
  0.115569450337E+00
  0.115569449972E+00
  0.115569450011E+00
  0.115569450437E+00
  0.115569450434E+00
  0.115569450221E+00
  0.115569450243E+00
  0.115569450655E+00
  0.115569450621E+00
  0.115569450087E+00
  0.115569450132E+00
  0.115569450309E+00
  0.115569450283E+00
  0.115569450070E+00
  0.115569450067E+00
  0.115569449964E+00
  0.115569449998E+00
  0.115569450390E+00
  0.115569450353E+00
  0.115569450006E+00
  0.115569450034E+00
  0.115569450369E+00
  0.115569450332E+00
  0.115569449790E+00
  0.115569449850E+00
  0.115569450319E+00
  0.115569450287E+00
  0.115569450047E+00
  0.115569450022E+00
  0.115569449942E+00
  0.115569449973E+00
  0.115569450380E+00
  0.115569450349E+00
  0.115569449938E+00
  0.115569449946E+00
  0.115569450178E+00
  0.115569450184E+00
  0.115569450212E+00
  0.115569450205E+00
  0.115569450128E+00
  0.115569450115E+00
  0.115569450110E+00
  0.115569450175E+00
  0.115569450598E+00
  0.115569450548E+00
  0.115569450051E+00
  0.115569450031E+00
  0.115569449966E+00
  0.115569450007E+00
  0.115569450600E+00
  0.115569450568E+00
  0.115569450185E+00
  0.115569450228E+00
  0.115569450622E+00
  0.115569450578E+00
  0.115569450512E+00
  0.115569450519E+00
  0.115569450556E+00
  0.115569450584E+00
  0.115569450430E+00
  0.115569450413E+00
  0.115569449854E+00
  0.115569449884E+00
  0.115569450314E+00
  0.115569450291E+00
  0.115569450039E+00
  0.115569450068E+00
  0.115569450387E+00
  0.115569450352E+00
  0.115569449974E+00
  0.115569449990E+00
  0.115569450455E+00
  0.115569450404E+00
  0.115569450007E+00
  0.115569450068E+00
  0.115569450071E+00
  0.115569450080E+00
  0.115569450367E+00
  0.115569450302E+00
  0.115569449944E+00
  0.115569450020E+00
  0.115569450744E+00
  0.115569450683E+00
  0.115569450038E+00
  0.115569450028E+00
  0.115569449796E+00
  0.115569449821E+00
  0.115569450298E+00
  0.115569450292E+00
  0.115569450588E+00
  0.115569450581E+00
  0.115569450401E+00
  0.115569450458E+00
  0.115569450591E+00
  0.115569450555E+00
  0.115569450262E+00
  0.115569450586E+00
  0.115569450503E+00
  0.115569451245E+00
  0.115569453013E+00
  0.115569452942E+00
  0.115569453328E+00
  0.115569453319E+00
  0.115569453129E+00
  0.115569453158E+00
  0.115569453079E+00
  0.115569453046E+00
  0.115569452583E+00
  0.115569452626E+00
  0.115569453145E+00
  0.115569453105E+00
  0.115569452642E+00
  0.115569452700E+00
  0.115569453580E+00
  0.115569453550E+00
  0.115569453451E+00
  0.115569453408E+00
  0.115569452538E+00
  0.115569452605E+00
  0.115569453505E+00
  0.115569453498E+00
  0.115569453462E+00
  0.115569453459E+00
  0.115569453512E+00
  0.115569453521E+00
  0.115569453498E+00
  0.115569453474E+00
  0.115569453025E+00
  0.115569453001E+00
  0.115569453302E+00
  0.115569453275E+00
  0.115569452607E+00
  0.115569452659E+00
  0.115569453273E+00
  0.115569453261E+00
  0.115569453489E+00
  0.115569453473E+00
  0.115569452902E+00
  0.115569452922E+00
  0.115569453249E+00
  0.115569453204E+00
  0.115569452886E+00
  0.115569452924E+00
  0.115569452568E+00
  0.115569452624E+00
  0.115569453491E+00
  0.115569453395E+00
  0.115569452994E+00
  0.115569453009E+00
  0.115569452744E+00
  0.115569452747E+00
  0.115569452516E+00
  0.115569452548E+00
  0.115569452850E+00
  0.115569452833E+00
  0.115569452726E+00
  0.115569452776E+00
  0.115569453405E+00
  0.115569453390E+00
  0.115569452798E+00
  0.115569452770E+00
  0.115569452814E+00
  0.115569452830E+00
  0.115569453303E+00
  0.115569453321E+00
  0.115569453342E+00
  0.115569453292E+00
  0.115569452581E+00
  0.115569452611E+00
  0.115569453083E+00
  0.115569453108E+00
  0.115569453671E+00
  0.115569453633E+00
  0.115569453253E+00
  0.115569453295E+00
  0.115569453513E+00
  0.115569453486E+00
  0.115569453012E+00
  0.115569452998E+00
  0.115569453327E+00
  0.115569453295E+00
  0.115569452314E+00
  0.115569452376E+00
  0.115569453116E+00
  0.115569453075E+00
  0.115569453442E+00
  0.115569453416E+00
  0.115569453015E+00
  0.115569453029E+00
  0.115569452716E+00
  0.115569452724E+00
  0.115569452576E+00
  0.115569452614E+00
  0.115569452570E+00
  0.115569452633E+00
  0.115569453769E+00
  0.115569454267E+00
  0.115569456873E+00
  0.115569447773E+00
  0.115569446775E+00
  0.115569446890E+00
  0.115569447638E+00
  0.115569447601E+00
  0.115569446744E+00
  0.115569446750E+00
  0.115569446625E+00
  0.115569446659E+00
  0.115569447751E+00
  0.115569447688E+00
  0.115569446631E+00
  0.115569446651E+00
  0.115569446946E+00
  0.115569446951E+00
  0.115569446690E+00
  0.115569446727E+00
  0.115569446711E+00
  0.115569446715E+00
  0.115569447530E+00
  0.115569447459E+00
  0.115569446389E+00
  0.115569446478E+00
  0.115569446873E+00
  0.115569446912E+00
  0.115569447578E+00
  0.115569447541E+00
  0.115569446785E+00
  0.115569446825E+00
  0.115569447809E+00
  0.115569447734E+00
  0.115569447486E+00
  0.115569447490E+00
  0.115569447600E+00
  0.115569447552E+00
  0.115569446817E+00
  0.115569446810E+00
  0.115569446191E+00
  0.115569446270E+00
  0.115569447443E+00
  0.115569447442E+00
  0.115569447792E+00
  0.115569447774E+00
  0.115569447801E+00
  0.115569447783E+00
  0.115569447321E+00
  0.115569447372E+00
  0.115569447720E+00
  0.115569447641E+00
  0.115569446888E+00
  0.115569446869E+00
  0.115569446838E+00
  0.115569446881E+00
  0.115569447775E+00
  0.115569447766E+00
  0.115569447422E+00
  0.115569447395E+00
  0.115569446895E+00
  0.115569446941E+00
  0.115569447001E+00
  0.115569447013E+00
  0.115569446679E+00
  0.115569446682E+00
  0.115569447827E+00
  0.115569447749E+00
  0.115569446289E+00
  0.115569446363E+00
  0.115569446658E+00
  0.115569446696E+00
  0.115569447971E+00
  0.115569447869E+00
  0.115569446694E+00
  0.115569446730E+00
  0.115569446361E+00
  0.115569446471E+00
  0.115569448047E+00
  0.115569447976E+00
  0.115569446733E+00
  0.115569446777E+00
  0.115569447575E+00
  0.115569447472E+00
  0.115569446698E+00
  0.115569446726E+00
  0.115569447241E+00
  0.115569447220E+00
  0.115569447117E+00
  0.115569447070E+00
  0.115569446121E+00
  0.115569446212E+00
  0.115569447538E+00
  0.115569447567E+00
  0.115569448267E+00
  0.115569448207E+00
  0.115569447537E+00
  0.115569447554E+00
  0.115569447414E+00
  0.115569447422E+00
  0.115569446652E+00
  0.115569447249E+00
  0.115569447427E+00
  0.115569450233E+00
  0.115569451063E+00
  0.115569451013E+00
  0.115569449340E+00
  0.115569449476E+00
  0.115569451573E+00
  0.115569451483E+00
  0.115569450817E+00
  0.115569450853E+00
  0.115569451041E+00
  0.115569451063E+00
  0.115569451279E+00
  0.115569451153E+00
  0.115569449853E+00
  0.115569449913E+00
  0.115569450517E+00
  0.115569450548E+00
  0.115569450743E+00
  0.115569450698E+00
  0.115569449884E+00
  0.115569449910E+00
  0.115569450632E+00
  0.115569450554E+00
  0.115569448929E+00
  0.115569449048E+00
  0.115569449951E+00
  0.115569449939E+00
  0.115569449608E+00
  0.115569449607E+00
  0.115569449774E+00
  0.115569449854E+00
  0.115569451383E+00
  0.115569451307E+00
  0.115569450238E+00
  0.115569450253E+00
  0.115569451190E+00
  0.115569451183E+00
  0.115569452001E+00
  0.115569451919E+00
  0.115569449893E+00
  0.115569449896E+00
  0.115569448609E+00
  0.115569448731E+00
  0.115569450713E+00
  0.115569450577E+00
  0.115569448538E+00
  0.115569448587E+00
  0.115569449069E+00
  0.115569449087E+00
  0.115569450334E+00
  0.115569450283E+00
  0.115569450590E+00
  0.115569450570E+00
  0.115569449528E+00
  0.115569449627E+00
  0.115569450432E+00
  0.115569450383E+00
  0.115569450413E+00
  0.115569450427E+00
  0.115569450463E+00
  0.115569450517E+00
  0.115569451174E+00
  0.115569451077E+00
  0.115569449738E+00
  0.115569449752E+00
  0.115569450028E+00
  0.115569450017E+00
  0.115569450236E+00
  0.115569450247E+00
  0.115569449458E+00
  0.115569449509E+00
  0.115569450687E+00
  0.115569450582E+00
  0.115569449503E+00
  0.115569449611E+00
  0.115569450007E+00
  0.115569450024E+00
  0.115569449718E+00
  0.115569449684E+00
  0.115569449772E+00
  0.115569449784E+00
  0.115569450827E+00
  0.115569450800E+00
  0.115569450763E+00
  0.115569450796E+00
  0.115569451124E+00
  0.115569451134E+00
  0.115569452218E+00
  0.115569452134E+00
  0.115569450233E+00
  0.115569450220E+00
  0.115569447999E+00
  0.115569448202E+00
  0.115569451867E+00
  0.115569451721E+00
  0.115569449701E+00
  0.115569449771E+00
  0.115569450987E+00
  0.115569451521E+00
  0.115569451327E+00
  0.115569451949E+00
  0.115569448216E+00
  0.115569448241E+00
  0.115569448735E+00
  0.115569448653E+00
  0.115569446385E+00
  0.115569446538E+00
  0.115569448819E+00
  0.115569448783E+00
  0.115569448151E+00
  0.115569448255E+00
  0.115569449588E+00
  0.115569449447E+00
  0.115569448942E+00
  0.115569448892E+00
  0.115569448260E+00
  0.115569448418E+00
  0.115569450160E+00
  0.115569450055E+00
  0.115569448691E+00
  0.115569448712E+00
  0.115569449528E+00
  0.115569449538E+00
  0.115569450410E+00
  0.115569450300E+00
  0.115569447772E+00
  0.115569447797E+00
  0.115569447486E+00
  0.115569447562E+00
  0.115569449396E+00
  0.115569449377E+00
  0.115569447297E+00
  0.115569447377E+00
  0.115569448629E+00
  0.115569448550E+00
  0.115569447973E+00
  0.115569448011E+00
  0.115569447818E+00
  0.115569447938E+00
  0.115569450851E+00
  0.115569450678E+00
  0.115569449614E+00
  0.115569449602E+00
  0.115569448494E+00
  0.115569448533E+00
  0.115569449640E+00
  0.115569449596E+00
  0.115569450106E+00
  0.115569450107E+00
  0.115569449266E+00
  0.115569449284E+00
  0.115569449174E+00
  0.115569449128E+00
  0.115569448296E+00
  0.115569448268E+00
  0.115569447035E+00
  0.115569447173E+00
  0.115569449804E+00
  0.115569449740E+00
  0.115569448212E+00
  0.115569448335E+00
  0.115569449609E+00
  0.115569449508E+00
  0.115569448718E+00
  0.115569448665E+00
  0.115569448873E+00
  0.115569448955E+00
  0.115569450402E+00
  0.115569450382E+00
  0.115569449573E+00
  0.115569449556E+00
  0.115569449134E+00
  0.115569449167E+00
  0.115569450464E+00
  0.115569450373E+00
  0.115569447780E+00
  0.115569447840E+00
  0.115569448209E+00
  0.115569448232E+00
  0.115569449653E+00
  0.115569449614E+00
  0.115569448532E+00
  0.115569448558E+00
  0.115569448380E+00
  0.115569448434E+00
  0.115569448868E+00
  0.115569448816E+00
  0.115569447290E+00
  0.115569447431E+00
  0.115569450510E+00
  0.115569450398E+00
  0.115569450657E+00
  0.115569450590E+00
  0.115569447956E+00
  0.115569448059E+00
  0.115569448708E+00
  0.115569448692E+00
  0.115569449322E+00