# vtk DataFile Version 3.0
MachLine results file. Generated by MachLine, USU AeroLab (c) 2022.
ASCII
DATASET POLYDATA
POINTS                 781 float
  0.114300523028E+02  0.000000000000E+00  0.000000000000E+00
  0.110490505593E+02  0.333333333333E-01  0.000000000000E+00
  0.110490505593E+02  0.330704900438E-01  0.417777445214E-02
  0.110490505593E+02  0.322861053710E-01  0.828966290550E-02
  0.110490505593E+02  0.309925495296E-01  0.122708184228E-01
  0.110490505593E+02  0.292102226681E-01  0.160584558034E-01
  0.110490505593E+02  0.269672331458E-01  0.195928417431E-01
  0.110490505593E+02  0.242989542474E-01  0.228182368643E-01
  0.110490505593E+02  0.212474663250E-01  0.256837747592E-01
  0.110490505593E+02  0.178608931660E-01  0.281442641834E-01
  0.110490505593E+02  0.141926430522E-01  0.301609017489E-01
  0.110490505593E+02  0.103005664792E-01  0.317018838765E-01
  0.110490505593E+02  0.624604381952E-02  0.327429083576E-01
  0.110490505593E+02  0.209301731764E-02  0.332675576143E-01
  0.110490505593E+02 -0.209301731764E-02  0.332675576143E-01
  0.110490505593E+02 -0.624604381952E-02  0.327429083576E-01
  0.110490505593E+02 -0.103005664792E-01  0.317018838765E-01
  0.110490505593E+02 -0.141926430522E-01  0.301609017489E-01
  0.110490505593E+02 -0.178608931660E-01  0.281442641834E-01
  0.110490505593E+02 -0.212474663250E-01  0.256837747592E-01
  0.110490505593E+02 -0.242989542474E-01  0.228182368643E-01
  0.110490505593E+02 -0.269672331458E-01  0.195928417431E-01
  0.110490505593E+02 -0.292102226681E-01  0.160584558034E-01
  0.110490505593E+02 -0.309925495296E-01  0.122708184228E-01
  0.110490505593E+02 -0.322861053710E-01  0.828966290550E-02
  0.110490505593E+02 -0.330704900438E-01  0.417777445214E-02
  0.110490505593E+02 -0.333333333333E-01  0.408215599716E-17
  0.106680488159E+02  0.666666666667E-01  0.000000000000E+00
  0.106680488159E+02  0.661409800876E-01  0.835554890429E-02
  0.106680488159E+02  0.645722107419E-01  0.165793258110E-01
  0.106680488159E+02  0.619850990592E-01  0.245416368456E-01
  0.106680488159E+02  0.584204453363E-01  0.321169116068E-01
  0.106680488159E+02  0.539344662917E-01  0.391856834862E-01
  0.106680488159E+02  0.485979084948E-01  0.456364737286E-01
  0.106680488159E+02  0.424949326499E-01  0.513675495184E-01
  0.106680488159E+02  0.357217863319E-01  0.562885283668E-01
  0.106680488159E+02  0.283852861043E-01  0.603218034977E-01
  0.106680488159E+02  0.206011329583E-01  0.634037677530E-01
  0.106680488159E+02  0.124920876390E-01  0.654858167152E-01
  0.106680488159E+02  0.418603463529E-02  0.665351152286E-01
  0.106680488159E+02 -0.418603463529E-02  0.665351152286E-01
  0.106680488159E+02 -0.124920876390E-01  0.654858167152E-01
  0.106680488159E+02 -0.206011329583E-01  0.634037677530E-01
  0.106680488159E+02 -0.283852861043E-01  0.603218034977E-01
  0.106680488159E+02 -0.357217863319E-01  0.562885283668E-01
  0.106680488159E+02 -0.424949326499E-01  0.513675495184E-01
  0.106680488159E+02 -0.485979084948E-01  0.456364737286E-01
  0.106680488159E+02 -0.539344662917E-01  0.391856834862E-01
  0.106680488159E+02 -0.584204453363E-01  0.321169116068E-01
  0.106680488159E+02 -0.619850990592E-01  0.245416368456E-01
  0.106680488159E+02 -0.645722107419E-01  0.165793258110E-01
  0.106680488159E+02 -0.661409800876E-01  0.835554890429E-02
  0.106680488159E+02 -0.666666666667E-01  0.816431199432E-17
  0.102870470725E+02  0.100000000000E+00  0.000000000000E+00
  0.102870470725E+02  0.992114701314E-01  0.125333233564E-01
  0.102870470725E+02  0.968583161129E-01  0.248689887165E-01
  0.102870470725E+02  0.929776485888E-01  0.368124552685E-01
  0.102870470725E+02  0.876306680044E-01  0.481753674102E-01
  0.102870470725E+02  0.809016994375E-01  0.587785252292E-01
  0.102870470725E+02  0.728968627421E-01  0.684547105929E-01
  0.102870470725E+02  0.637423989749E-01  0.770513242776E-01
  0.102870470725E+02  0.535826794979E-01  0.844327925502E-01
  0.102870470725E+02  0.425779291565E-01  0.904827052466E-01
  0.102870470725E+02  0.309016994375E-01  0.951056516295E-01
  0.102870470725E+02  0.187381314586E-01  0.982287250729E-01
  0.102870470725E+02  0.627905195293E-02  0.998026728428E-01
  0.102870470725E+02 -0.627905195293E-02  0.998026728428E-01
  0.102870470725E+02 -0.187381314586E-01  0.982287250729E-01
  0.102870470725E+02 -0.309016994375E-01  0.951056516295E-01
  0.102870470725E+02 -0.425779291565E-01  0.904827052466E-01
  0.102870470725E+02 -0.535826794979E-01  0.844327925502E-01
  0.102870470725E+02 -0.637423989749E-01  0.770513242776E-01
  0.102870470725E+02 -0.728968627421E-01  0.684547105929E-01
  0.102870470725E+02 -0.809016994375E-01  0.587785252292E-01
  0.102870470725E+02 -0.876306680044E-01  0.481753674102E-01
  0.102870470725E+02 -0.929776485888E-01  0.368124552685E-01
  0.102870470725E+02 -0.968583161129E-01  0.248689887165E-01
  0.102870470725E+02 -0.992114701314E-01  0.125333233564E-01
  0.102870470725E+02 -0.100000000000E+00  0.122464679915E-16
  0.990604532906E+01  0.133333333333E+00  0.000000000000E+00
  0.990604532906E+01  0.132281960175E+00  0.167110978086E-01
  0.990604532906E+01  0.129144421484E+00  0.331586516220E-01
  0.990604532906E+01  0.123970198118E+00  0.490832736913E-01
  0.990604532906E+01  0.116840890673E+00  0.642338232136E-01
  0.990604532906E+01  0.107868932583E+00  0.783713669723E-01
  0.990604532906E+01  0.971958169895E-01  0.912729474572E-01
  0.990604532906E+01  0.849898652998E-01  0.102735099037E+00
  0.990604532906E+01  0.714435726639E-01  0.112577056734E+00
  0.990604532906E+01  0.567705722087E-01  0.120643606995E+00
  0.990604532906E+01  0.412022659167E-01  0.126807535506E+00
  0.990604532906E+01  0.249841752781E-01  0.130971633430E+00
  0.990604532906E+01  0.837206927058E-02  0.133070230457E+00
  0.990604532906E+01 -0.837206927058E-02  0.133070230457E+00
  0.990604532906E+01 -0.249841752781E-01  0.130971633430E+00
  0.990604532906E+01 -0.412022659167E-01  0.126807535506E+00
  0.990604532906E+01 -0.567705722087E-01  0.120643606995E+00
  0.990604532906E+01 -0.714435726639E-01  0.112577056734E+00
  0.990604532906E+01 -0.849898652998E-01  0.102735099037E+00
  0.990604532906E+01 -0.971958169895E-01  0.912729474572E-01
  0.990604532906E+01 -0.107868932583E+00  0.783713669723E-01
  0.990604532906E+01 -0.116840890673E+00  0.642338232136E-01
  0.990604532906E+01 -0.123970198118E+00  0.490832736913E-01
  0.990604532906E+01 -0.129144421484E+00  0.331586516220E-01
  0.990604532906E+01 -0.132281960175E+00  0.167110978086E-01
  0.990604532906E+01 -0.133333333333E+00  0.163286239886E-16
  0.952504358563E+01  0.166666666667E+00  0.000000000000E+00
  0.952504358563E+01  0.165352450219E+00  0.208888722607E-01
  0.952504358563E+01  0.161430526855E+00  0.414483145275E-01
  0.952504358563E+01  0.154962747648E+00  0.613540921141E-01
  0.952504358563E+01  0.146051113341E+00  0.802922790170E-01
  0.952504358563E+01  0.134836165729E+00  0.979642087154E-01
  0.952504358563E+01  0.121494771237E+00  0.114091184321E+00
  0.952504358563E+01  0.106237331625E+00  0.128418873796E+00
  0.952504358563E+01  0.893044658298E-01  0.140721320917E+00
  0.952504358563E+01  0.709632152608E-01  0.150804508744E+00
  0.952504358563E+01  0.515028323958E-01  0.158509419383E+00
  0.952504358563E+01  0.312302190976E-01  0.163714541788E+00
  0.952504358563E+01  0.104650865882E-01  0.166337788071E+00
  0.952504358563E+01 -0.104650865882E-01  0.166337788071E+00
  0.952504358563E+01 -0.312302190976E-01  0.163714541788E+00
  0.952504358563E+01 -0.515028323958E-01  0.158509419383E+00
  0.952504358563E+01 -0.709632152608E-01  0.150804508744E+00
  0.952504358563E+01 -0.893044658298E-01  0.140721320917E+00
  0.952504358563E+01 -0.106237331625E+00  0.128418873796E+00
  0.952504358563E+01 -0.121494771237E+00  0.114091184321E+00
  0.952504358563E+01 -0.134836165729E+00  0.979642087154E-01
  0.952504358563E+01 -0.146051113341E+00  0.802922790170E-01
  0.952504358563E+01 -0.154962747648E+00  0.613540921141E-01
  0.952504358563E+01 -0.161430526855E+00  0.414483145275E-01
  0.952504358563E+01 -0.165352450219E+00  0.208888722607E-01
  0.952504358563E+01 -0.166666666667E+00  0.204107799858E-16
  0.914404184221E+01  0.200000000000E+00  0.000000000000E+00
  0.914404184221E+01  0.198422940263E+00  0.250666467129E-01
  0.914404184221E+01  0.193716632226E+00  0.497379774330E-01
  0.914404184221E+01  0.185955297178E+00  0.736249105369E-01
  0.914404184221E+01  0.175261336009E+00  0.963507348203E-01
  0.914404184221E+01  0.161803398875E+00  0.117557050458E+00
  0.914404184221E+01  0.145793725484E+00  0.136909421186E+00
  0.914404184221E+01  0.127484797950E+00  0.154102648555E+00
  0.914404184221E+01  0.107165358996E+00  0.168865585100E+00
  0.914404184221E+01  0.851558583130E-01  0.180965410493E+00
  0.914404184221E+01  0.618033988750E-01  0.190211303259E+00
  0.914404184221E+01  0.374762629171E-01  0.196457450146E+00
  0.914404184221E+01  0.125581039059E-01  0.199605345686E+00
  0.914404184221E+01 -0.125581039059E-01  0.199605345686E+00
  0.914404184221E+01 -0.374762629171E-01  0.196457450146E+00
  0.914404184221E+01 -0.618033988750E-01  0.190211303259E+00
  0.914404184221E+01 -0.851558583130E-01  0.180965410493E+00
  0.914404184221E+01 -0.107165358996E+00  0.168865585100E+00
  0.914404184221E+01 -0.127484797950E+00  0.154102648555E+00
  0.914404184221E+01 -0.145793725484E+00  0.136909421186E+00
  0.914404184221E+01 -0.161803398875E+00  0.117557050458E+00
  0.914404184221E+01 -0.175261336009E+00  0.963507348203E-01
  0.914404184221E+01 -0.185955297178E+00  0.736249105369E-01
  0.914404184221E+01 -0.193716632226E+00  0.497379774330E-01
  0.914404184221E+01 -0.198422940263E+00  0.250666467129E-01
  0.914404184221E+01 -0.200000000000E+00  0.244929359829E-16
  0.876304009878E+01  0.233333333333E+00  0.000000000000E+00
  0.876304009878E+01  0.231493430307E+00  0.292444211650E-01
  0.876304009878E+01  0.226002737597E+00  0.580276403385E-01
  0.876304009878E+01  0.216947846707E+00  0.858957289598E-01
[...]
CELL_DATA                1475
SCALARS C_p_ise float 1
LOOKUP_TABLE default
  0.343204451032E-01
  0.343204450696E-01
  0.343204450704E-01
  0.343204450692E-01
  0.343204450693E-01
  0.343204450703E-01
  0.343204450706E-01
  0.343204450731E-01
  0.343204450742E-01
  0.343204450703E-01
  0.343204450673E-01
  0.343204450690E-01
  0.343204450699E-01
  0.343204450683E-01
  0.343204450692E-01
  0.343204450719E-01
  0.343204450736E-01
  0.343204450717E-01
  0.343204450708E-01
  0.343204450728E-01
  0.343204450710E-01
  0.343204450694E-01
  0.343204450700E-01
  0.343204450688E-01
  0.343204450338E-01
  0.343204446633E-01
  0.343204447570E-01
  0.343204447241E-01
  0.343204447261E-01
  0.343204447276E-01
  0.343204447299E-01
  0.343204447290E-01
  0.343204447299E-01
  0.343204447293E-01
  0.343204447274E-01
  0.343204447256E-01
  0.343204447173E-01
  0.343204447183E-01
  0.343204447204E-01
  0.343204447218E-01
  0.343204447185E-01
  0.343204447200E-01
  0.343204447211E-01
  0.343204447198E-01
  0.343204447277E-01
  0.343204447279E-01
  0.343204447371E-01
  0.343204447319E-01
  0.343204447109E-01
  0.343204447115E-01
  0.343204447104E-01
  0.343204447102E-01
  0.343204447144E-01
  0.343204447132E-01
  0.343204447065E-01
  0.343204447090E-01
  0.343204447086E-01
  0.343204447116E-01
  0.343204447156E-01
  0.343204447149E-01
  0.343204447186E-01
  0.343204447167E-01
  0.343204447139E-01
  0.343204447154E-01
  0.343204447137E-01
  0.343204447171E-01
  0.343204447325E-01
  0.343204447261E-01
  0.343204447118E-01
  0.343204447130E-01
  0.343204447148E-01
  0.343204447157E-01
  0.343204447221E-01
  0.343204447438E-01
  0.343204449141E-01
  0.343204447397E-01
  0.343204447427E-01
  0.343204447384E-01
  0.343204447252E-01
  0.343204447282E-01
  0.343204447326E-01
  0.343204447297E-01
  0.343204447157E-01
  0.343204447144E-01
  0.343204447091E-01
  0.343204447051E-01
  0.343204446971E-01
  0.343204447032E-01
  0.343204447426E-01
  0.343204447422E-01
  0.343204447294E-01
  0.343204447270E-01
  0.343204447129E-01
  0.343204447184E-01
  0.343204447505E-01
  0.343204447481E-01
  0.343204447224E-01
  0.343204447253E-01
  0.343204447510E-01
  0.343204447464E-01
  0.343204447555E-01
  0.343204447560E-01
  0.343204447612E-01
  0.343204447616E-01
  0.343204447625E-01
  0.343204447609E-01
  0.343204447515E-01
  0.343204447488E-01
  0.343204447213E-01
  0.343204447195E-01
  0.343204447071E-01
  0.343204447150E-01
  0.343204447579E-01
  0.343204447537E-01
  0.343204447298E-01
  0.343204447310E-01
  0.343204447236E-01
  0.343204447201E-01
  0.343204447090E-01
  0.343204447099E-01
  0.343204447317E-01
  0.343204447338E-01
  0.343204447366E-01
  0.343204447802E-01
  0.343204448787E-01
  0.343204446876E-01
  0.343204446576E-01
  0.343204446589E-01
  0.343204446941E-01
  0.343204447013E-01
  0.343204447490E-01
  0.343204447430E-01
  0.343204447147E-01
  0.343204447121E-01
  0.343204447230E-01
  0.343204447227E-01
  0.343204447559E-01
  0.343204447499E-01
  0.343204446769E-01
  0.343204446819E-01
  0.343204446651E-01
  0.343204446644E-01
  0.343204446937E-01
  0.343204446919E-01
  0.343204446605E-01
  0.343204446734E-01
  0.343204447355E-01
  0.343204447221E-01
  0.343204446433E-01
  0.343204446466E-01
  0.343204446661E-01
  0.343204446625E-01
  0.343204446211E-01
  0.343204446248E-01
  0.343204446405E-01
  0.343204446479E-01
  0.343204447098E-01
  0.343204447021E-01
  0.343204446794E-01
  0.343204446727E-01
  0.343204446766E-01
  0.343204446773E-01
  0.343204446436E-01
  0.343204446581E-01
  0.343204447294E-01
  0.343204447203E-01
  0.343204446810E-01
  0.343204446862E-01
  0.343204447571E-01
  0.343204447512E-01
  0.343204447194E-01
  0.343204447260E-01
  0.343204447271E-01
  0.343204447659E-01
  0.343204447280E-01
  0.343204449061E-01
  0.343204450490E-01
  0.343204450395E-01
  0.343204449812E-01
  0.343204449743E-01
  0.343204448024E-01
  0.343204448068E-01
  0.343204448397E-01
  0.343204448357E-01
  0.343204448592E-01
  0.343204448567E-01
  0.343204448234E-01
  0.343204448090E-01
  0.343204446905E-01
  0.343204447092E-01
  0.343204449261E-01
  0.343204449282E-01
  0.343204449767E-01
  0.343204449739E-01
  0.343204449275E-01
  0.343204449205E-01
  0.343204447819E-01
  0.343204447851E-01
  0.343204448551E-01
  0.343204448524E-01
  0.343204448992E-01
  0.343204449060E-01
  0.343204449750E-01
  0.343204449647E-01
  0.343204448925E-01
  0.343204449004E-01
  0.343204448848E-01
  0.343204448912E-01
  0.343204449389E-01
  0.343204449192E-01
  0.343204448319E-01
  0.343204448347E-01
  0.343204448489E-01
  0.343204448536E-01
  0.343204448084E-01
  0.343204448177E-01
  0.343204448919E-01
  0.343204449017E-01
  0.343204449944E-01
  0.343204449814E-01
  0.343204448263E-01
  0.343204448385E-01
  0.343204449305E-01
  0.343204449799E-01
  0.343204450748E-01
  0.343204441660E-01
  0.343204442167E-01
  0.343204442131E-01
  0.343204441030E-01
  0.343204440881E-01
  0.343204440702E-01
  0.343204440769E-01
  0.343204443129E-01
  0.343204443062E-01
  0.343204442370E-01
  0.343204442351E-01
  0.343204442131E-01
  0.343204442256E-01
  0.343204445613E-01
  0.343204445236E-01
  0.343204440482E-01
  0.343204440956E-01
  0.343204443285E-01
  0.343204443185E-01
  0.343204441803E-01
  0.343204441727E-01
  0.343204442220E-01
  0.343204442283E-01
  0.343204444309E-01
  0.343204444154E-01
  0.343204441893E-01
  0.343204442046E-01
  0.343204442401E-01
  0.343204442431E-01
  0.343204443055E-01
  0.343204442965E-01
  0.343204441982E-01
  0.343204442140E-01
  0.343204443364E-01
  0.343204443222E-01
  0.343204443240E-01
  0.343204443175E-01
  0.343204443223E-01
  0.343204443210E-01
  0.343204442380E-01
  0.343204442518E-01
  0.343204443558E-01
  0.343204443475E-01
  0.343204440564E-01
  0.343204440737E-01
  0.343204442940E-01
  0.343204442893E-01
  0.343204442931E-01
  0.343204443462E-01
  0.343204442749E-01
  0.343204452521E-01
  0.343204452603E-01
  0.343204452778E-01
  0.343204454929E-01
  0.343204454670E-01
  0.343204454544E-01
  0.343204454357E-01
  0.343204451254E-01
  0.343204451636E-01
  0.343204454667E-01
  0.343204454551E-01
  0.343204454104E-01
  0.343204454037E-01
  0.343204451809E-01
  0.343204452035E-01
  0.343204455901E-01
  0.343204455681E-01
  0.343204452271E-01
  0.343204452623E-01
  0.343204455740E-01
  0.343204455469E-01
  0.343204454567E-01
  0.343204454582E-01
  0.343204453397E-01
  0.343204453453E-01
  0.343204453801E-01
  0.343204453715E-01
  0.343204453281E-01
  0.343204453285E-01
  0.343204452516E-01
  0.343204452715E-01
  0.343204455739E-01
  0.343204455497E-01
  0.343204451464E-01
  0.343204451657E-01
  0.343204454578E-01
  0.343204454369E-01
  0.343204452478E-01
  0.343204452627E-01
  0.343204454672E-01
  0.343204454627E-01
  0.343204453244E-01
  0.343204453338E-01
  0.343204454413E-01
  0.343204454457E-01
  0.343204456229E-01
  0.343204455983E-01
  0.343204450786E-01
  0.343204451621E-01
  0.343204455519E-01
  0.343204444684E-01
  0.343204447342E-01
  0.343204447282E-01
  0.343204443651E-01
  0.343204443674E-01
  0.343204445430E-01
  0.343204445425E-01
  0.343204448309E-01
  0.343204447980E-01
  0.343204440900E-01
  0.343204441294E-01
  0.343204445455E-01
  0.343204445345E-01
  0.343204445218E-01
  0.343204445128E-01
  0.343204442960E-01
  0.343204443286E-01
  0.343204447012E-01
  0.343204446779E-01
  0.343204441935E-01
  0.343204442191E-01
  0.343204446500E-01
  0.343204446344E-01
  0.343204444803E-01
  0.343204444844E-01
  0.343204445991E-01
  0.343204445711E-01
  0.343204442407E-01
  0.343204442533E-01
  0.343204444872E-01
  0.343204444784E-01
  0.343204441357E-01
  0.343204441664E-01
  0.343204446404E-01
  0.343204446122E-01
  0.343204443644E-01
  0.343204443707E-01
  0.343204444423E-01
  0.343204444360E-01
  0.343204443364E-01
  0.343204443593E-01
  0.343204445330E-01
  0.343204445213E-01
  0.343204443651E-01
  0.343204443664E-01
  0.343204441940E-01
  0.343204442217E-01
  0.343204448016E-01
  0.343204448609E-01
  0.343204450970E-01
  0.343204443778E-01
  0.343204436909E-01
  0.343204437337E-01
  0.343204442634E-01
  0.343204442334E-01
  0.343204440954E-01
  0.343204440885E-01
  0.343204437814E-01
  0.343204437791E-01
  0.343204439713E-01
  0.343204439647E-01
  0.343204439828E-01
  0.343204439980E-01
  0.343204439717E-01
  0.343204439900E-01
  0.343204444697E-01
  0.343204444434E-01
  0.343204436882E-01
  0.343204437184E-01
  0.343204442071E-01
  0.343204441937E-01
  0.343204440792E-01
  0.343204440831E-01
  0.343204439274E-01
  0.343204439143E-01
  0.343204437958E-01
  0.343204438079E-01
  0.343204443590E-01
  0.343204443392E-01
  0.343204441628E-01
  0.343204441653E-01
  0.343204440935E-01
  0.343204440995E-01
  0.343204440671E-01
  0.343204440715E-01
  0.343204440882E-01
  0.343204440700E-01
  0.343204439341E-01
  0.343204439386E-01
  0.343204440428E-01
  0.343204440423E-01
  0.343204437589E-01
  0.343204437754E-01
  0.343204440587E-01
  0.343204440508E-01
  0.343204440737E-01
  0.343204440855E-01
  0.343204440116E-01
  0.343204441428E-01
  0.343204447087E-01
  0.343204451588E-01
  0.343204451656E-01
  0.343204451707E-01
  0.343204452231E-01
  0.343204452423E-01
  0.343204455839E-01
  0.343204455474E-01
  0.343204451367E-01
  0.343204451306E-01
  0.343204454042E-01
  0.343204453954E-01
  0.343204451407E-01
  0.343204451822E-01
  0.343204456618E-01
  0.343204456381E-01
  0.343204448706E-01
  0.343204448930E-01
  0.343204452833E-01
  0.343204452598E-01
  0.343204450834E-01
  0.343204450854E-01
  0.343204448335E-01
  0.343204448506E-01
  0.343204452288E-01
  0.343204452144E-01
  0.343204453632E-01
  0.343204453551E-01
  0.343204451041E-01
  0.343204451288E-01
  0.343204453592E-01
  0.343204453593E-01
  0.343204455085E-01
  0.343204454854E-01
  0.343204450146E-01
  0.343204450309E-01
  0.343204452938E-01
  0.343204452797E-01
  0.343204453381E-01
  0.343204453410E-01
  0.343204454610E-01
  0.343204454570E-01
  0.343204452724E-01
  0.343204452647E-01
  0.343204451194E-01
  0.343204451273E-01
  0.343204451099E-01
  0.343204451311E-01
  0.343204452831E-01
  0.343204453942E-01
  0.343204450943E-01
  0.343204450118E-01
  0.343204457140E-01
  0.343204456791E-01
  0.343204448302E-01
  0.343204448355E-01
  0.343204444874E-01
  0.343204445092E-01
  0.343204453585E-01
  0.343204453439E-01
  0.343204456182E-01
  0.343204456175E-01
  0.343204454847E-01
  0.343204454723E-01
  0.343204446216E-01
  0.343204446378E-01
  0.343204449430E-01
  0.343204449476E-01
  0.343204454225E-01
  0.343204454096E-01
  0.343204451992E-01
  0.343204452041E-01
  0.343204454584E-01
  0.343204454587E-01
  0.343204453834E-01
  0.343204453729E-01
  0.343204450381E-01
  0.343204450440E-01
  0.343204451722E-01
  0.343204451760E-01
  0.343204450122E-01
  0.343204450165E-01
  0.343204448520E-01
  0.343204448486E-01
  0.343204450979E-01
  0.343204450987E-01
  0.343204452915E-01
  0.343204452997E-01
  0.343204454772E-01
  0.343204454738E-01
  0.343204452772E-01
  0.343204452853E-01
  0.343204454061E-01
  0.343204453743E-01
  0.343204450724E-01
  0.343204450587E-01
  0.343204447656E-01
  0.343204448062E-01
  0.343204452309E-01
  0.343204453577E-01
  0.343204455206E-01
  0.343204447798E-01
  0.343204442583E-01
  0.343204442787E-01
  0.343204447828E-01
  0.343204447404E-01
  0.343204445716E-01
  0.343204445983E-01
  0.343204450915E-01
  0.343204450725E-01
  0.343204440400E-01
  0.343204440511E-01
  0.343204440220E-01
  0.343204440477E-01
  0.343204450701E-01
  0.343204450327E-01
  0.343204447310E-01
  0.343204447018E-01
  0.343204435871E-01
  0.343204436763E-01
  0.343204455056E-01
  0.343204454491E-01
  0.343204442685E-01
  0.343204442839E-01
  0.343204443546E-01
  0.343204443606E-01
  0.343204448223E-01
  0.343204447876E-01
  0.343204442205E-01
  0.343204442747E-01
  0.343204452940E-01
  0.343204452580E-01
  0.343204445123E-01
  0.343204445085E-01
  0.343204446782E-01
  0.343204446610E-01
  0.343204439764E-01
  0.343204440206E-01
  0.343204446379E-01
  0.343204446252E-01
  0.343204442159E-01
  0.343204442336E-01
  0.343204446714E-01
  0.343204446834E-01
  0.343204455580E-01
  0.343204455011E-01
  0.343204448392E-01
  0.343204448328E-01
  0.343204440735E-01
  0.343204442423E-01
  0.343204447431E-01
  0.343204436907E-01
  0.343204433325E-01
  0.343204433328E-01
  0.343204433945E-01
  0.343204433804E-01
  0.343204435423E-01
  0.343204435297E-01
  0.343204427290E-01
  0.343204427817E-01
  0.343204440409E-01
  0.343204439982E-01
  0.343204437749E-01
  0.343204437881E-01
  0.343204435055E-01
  0.343204435237E-01
  0.343204438033E-01
  0.343204437597E-01
  0.343204437299E-01
  0.343204437242E-01
  0.343204425616E-01
  0.343204426362E-01
  0.343204439250E-01
  0.343204438679E-01
  0.343204433374E-01
  0.343204433471E-01
  0.343204433648E-01
  0.343204433694E-01
  0.343204438506E-01
  0.343204438382E-01
  0.343204427910E-01
  0.343204428588E-01
  0.343204443436E-01
  0.343204442704E-01
  0.343204433466E-01
  0.343204433827E-01
  0.343204445307E-01
  0.343204444991E-01
  0.343204433496E-01
  0.343204433841E-01
  0.343204438958E-01
  0.343204438882E-01
  0.343204436985E-01
  0.343204436960E-01
  0.343204428611E-01
  0.343204428565E-01
  0.343204432117E-01
  0.343204432085E-01
  0.343204440076E-01
  0.343204441853E-01
  0.343204452347E-01
  0.343204448140E-01
  0.343204444973E-01
  0.343204444750E-01
  0.343204442521E-01
  0.343204443021E-01
  0.343204459640E-01
  0.343204459574E-01
  0.343204459469E-01
  0.343204459244E-01
  0.343204447573E-01
  0.343204447640E-01
  0.343204447390E-01
  0.343204447799E-01
  0.343204457693E-01
  0.343204457716E-01
  0.343204456497E-01
  0.343204456240E-01
  0.343204458035E-01
  0.343204457915E-01
  0.343204456535E-01
  0.343204456606E-01
  0.343204450931E-01
  0.343204450877E-01
  0.343204450909E-01
  0.343204450497E-01
  0.343204442434E-01
  0.343204443087E-01
  0.343204459306E-01
  0.343204458830E-01
  0.343204444133E-01
  0.343204444230E-01
  0.343204439839E-01
  0.343204440355E-01
  0.343204458011E-01
  0.343204457612E-01
  0.343204447078E-01
  0.343204447315E-01
  0.343204449820E-01
  0.343204449577E-01
  0.343204446098E-01
  0.343204446351E-01
  0.343204449703E-01
  0.343204449469E-01
  0.343204445854E-01
  0.343204445958E-01
  0.343204459026E-01
  0.343204458782E-01
  0.343204449229E-01
  0.343204450997E-01
  0.343204442087E-01
  0.343204454662E-01
  0.343204464499E-01
  0.343204464062E-01
  0.343204461254E-01
  0.343204460882E-01
  0.343204437981E-01
  0.343204438879E-01
  0.343204448990E-01
  0.343204448928E-01
  0.343204453760E-01
  0.343204453474E-01
  0.343204455769E-01
  0.343204456094E-01
  0.343204453931E-01
  0.343204453972E-01
  0.343204443846E-01
  0.343204443794E-01
  0.343204451039E-01
  0.343204450746E-01
  0.343204443825E-01
  0.343204443933E-01
  0.343204446478E-01
  0.343204446269E-01
  0.343204447861E-01
  0.343204447913E-01
  0.343204461380E-01
  0.343204460973E-01
  0.343204438849E-01
  0.343204439404E-01
  0.343204451875E-01
  0.343204451345E-01
  0.343204448957E-01
  0.343204449280E-01
  0.343204448385E-01
  0.343204448434E-01
  0.343204442440E-01
  0.343204442420E-01
  0.343204446287E-01
  0.343204446113E-01
  0.343204445418E-01
  0.343204445715E-01
  0.343204450739E-01
  0.343204450742E-01
  0.343204454014E-01
  0.343204453832E-01
  0.343204449425E-01
  0.343204449680E-01
  0.343204450118E-01
  0.343204451873E-01
  0.343204461786E-01
  0.343204448886E-01
  0.343204439263E-01
  0.343204439711E-01
  0.343204456641E-01
  0.343204456310E-01
  0.343204460599E-01
  0.343204460585E-01
  0.343204456767E-01
  0.343204456772E-01
  0.343204448062E-01
  0.343204448251E-01
  0.343204457801E-01
  0.343204457715E-01
  0.343204442510E-01
  0.343204443056E-01
  0.343204461027E-01
  0.343204460292E-01
  0.343204449972E-01
  0.343204449981E-01
  0.343204451579E-01
  0.343204451234E-01
  0.343204444625E-01
  0.343204444915E-01
  0.343204457690E-01
  0.343204457891E-01
  0.343204460769E-01
  0.343204460603E-01
  0.343204453726E-01
  0.343204453765E-01
  0.343204461396E-01
  0.343204461519E-01
  0.343204468430E-01
  0.343204467991E-01
  0.343204446939E-01
  0.343204447313E-01
  0.343204458320E-01
  0.343204458096E-01
  0.343204458164E-01
  0.343204458267E-01
  0.343204462746E-01
  0.343204462706E-01
  0.343204453019E-01
  0.343204453407E-01
  0.343204459969E-01
  0.343204459594E-01
  0.343204450117E-01
  0.343204450399E-01
  0.343204455941E-01
  0.343204457867E-01
  0.343204462678E-01
  0.343204454553E-01
  0.343204453918E-01
  0.343204453479E-01
  0.343204434473E-01
  0.343204435124E-01
  0.343204449518E-01
  0.343204449309E-01
  0.343204438292E-01
  0.343204438540E-01
  0.343204450591E-01
  0.343204450105E-01
  0.343204437135E-01
  0.343204437299E-01
  0.343204435370E-01
  0.343204435425E-01
  0.343204435413E-01
  0.343204435336E-01
  0.343204437916E-01
  0.343204438120E-01
  0.343204455552E-01
  0.343204455649E-01
  0.343204468503E-01
  0.343204467979E-01
  0.343204448165E-01
  0.343204448235E-01
  0.343204430312E-01
  0.343204430761E-01
  0.343204447961E-01
  0.343204447508E-01
  0.343204438639E-01
  0.343204438883E-01
  0.343204434789E-01
  0.343204435164E-01
  0.343204454695E-01
  0.343204454183E-01
  0.343204447379E-01
  0.343204447619E-01
  0.343204451238E-01
  0.343204451313E-01
  0.343204450302E-01
  0.343204450584E-01
  0.343204456425E-01
  0.343204456146E-01
  0.343204444487E-01
  0.343204444516E-01
  0.343204450850E-01
  0.343204451000E-01
  0.343204456746E-01
  0.343204458676E-01
  0.343204452924E-01
  0.343204423774E-01
  0.343204431655E-01
  0.343204431949E-01
  0.343204458258E-01
  0.343204457868E-01
  0.343204441558E-01
  0.343204441947E-01
  0.343204447668E-01
  0.343204447402E-01
  0.343204441135E-01
  0.343204441349E-01
  0.343204453049E-01
  0.343204453138E-01
  0.343204464326E-01
  0.343204463980E-01
  0.343204451969E-01
  0.343204451705E-01
  0.343204445150E-01
  0.343204445141E-01
  0.343204434961E-01
  0.343204435351E-01
  0.343204427149E-01
  0.343204427195E-01
  0.343204433495E-01
  0.343204433489E-01
  0.343204451863E-01
  0.343204451311E-01
  0.343204435319E-01
  0.343204435306E-01
  0.343204432456E-01
  0.343204432313E-01
  0.343204428135E-01
  0.343204428406E-01
  0.343204429094E-01
  0.343204429497E-01
  0.343204440804E-01
  0.343204440810E-01
  0.343204439845E-01
  0.343204440101E-01
  0.343204442555E-01
  0.343204442377E-01
  0.343204427363E-01
  0.343204427606E-01
  0.343204439609E-01
  0.343204439337E-01
  0.343204441171E-01
  0.343204440829E-01
  0.343204416890E-01
  0.343204420289E-01
  0.343204465588E-01
  0.343204456268E-01
  0.343204455985E-01
  0.343204455828E-01
  0.343204430813E-01
  0.343204431916E-01
  0.343204459378E-01
  0.343204458858E-01
  0.343204442449E-01
  0.343204442512E-01
  0.343204448637E-01
  0.343204448633E-01
  0.343204447156E-01
  0.343204447166E-01
  0.343204431817E-01
  0.343204431524E-01
  0.343204421688E-01
  0.343204421767E-01
  0.343204447168E-01
  0.343204446660E-01
  0.343204435132E-01
  0.343204435421E-01
  0.343204442414E-01
  0.343204442579E-01
  0.343204455628E-01
  0.343204455554E-01
  0.343204446371E-01
  0.343204446401E-01
  0.343204448487E-01
  0.343204448075E-01
  0.343204450193E-01
  0.343204450183E-01
  0.343204458141E-01
  0.343204457931E-01
  0.343204444530E-01
  0.343204445263E-01
  0.343204456750E-01
  0.343204456949E-01
  0.343204452143E-01
  0.343204452128E-01
  0.343204443168E-01
  0.343204443269E-01
  0.343204451033E-01
  0.343204450869E-01
  0.343204451720E-01
  0.343204451778E-01
  0.343204451295E-01
  0.343204450969E-01
  0.343204449627E-01
  0.343204451200E-01
  0.343204408965E-01
  0.343204439216E-01
  0.343204438850E-01
  0.343204439005E-01
  0.343204451433E-01
  0.343204451209E-01
  0.343204425785E-01
  0.343204426512E-01
  0.343204446201E-01
  0.343204445966E-01
  0.343204451611E-01
  0.343204451250E-01
  0.343204430869E-01
  0.343204431251E-01
  0.343204447348E-01
  0.343204446899E-01
  0.343204457015E-01
  0.343204456430E-01
  0.343204440913E-01
  0.343204441074E-01
  0.343204440366E-01
  0.343204441053E-01
  0.343204468728E-01
  0.343204468404E-01