# vtk DataFile Version 3.0
MachLine results file. Generated by MachLine, USU AeroLab (c) 2022.
ASCII
DATASET POLYDATA
POINTS                3061 float
  0.373205080757E+01  0.000000000000E+00  0.000000000000E+00
  0.366984996078E+01  0.166666666667E-01  0.000000000000E+00
  0.366984996078E+01  0.166337788071E-01  0.104650865882E-02
  0.366984996078E+01  0.165352450219E-01  0.208888722607E-02
  0.366984996078E+01  0.163714541788E-01  0.312302190976E-02
  0.366984996078E+01  0.161430526855E-01  0.414483145275E-02
  0.366984996078E+01  0.158509419383E-01  0.515028323958E-02
  0.366984996078E+01  0.154962747648E-01  0.613540921141E-02
  0.366984996078E+01  0.150804508744E-01  0.709632152608E-02
  0.366984996078E+01  0.146051113341E-01  0.802922790170E-02
  0.366984996078E+01  0.140721320917E-01  0.893044658298E-02
  0.366984996078E+01  0.134836165729E-01  0.979642087154E-02
  0.366984996078E+01  0.128418873796E-01  0.106237331625E-01
  0.366984996078E+01  0.121494771237E-01  0.114091184321E-01
  0.366984996078E+01  0.114091184321E-01  0.121494771237E-01
  0.366984996078E+01  0.106237331625E-01  0.128418873796E-01
  0.366984996078E+01  0.979642087154E-02  0.134836165729E-01
  0.366984996078E+01  0.893044658298E-02  0.140721320917E-01
  0.366984996078E+01  0.802922790170E-02  0.146051113341E-01
  0.366984996078E+01  0.709632152608E-02  0.150804508744E-01
  0.366984996078E+01  0.613540921141E-02  0.154962747648E-01
  0.366984996078E+01  0.515028323958E-02  0.158509419383E-01
  0.366984996078E+01  0.414483145275E-02  0.161430526855E-01
  0.366984996078E+01  0.312302190976E-02  0.163714541788E-01
  0.366984996078E+01  0.208888722607E-02  0.165352450219E-01
  0.366984996078E+01  0.104650865882E-02  0.166337788071E-01
  0.366984996078E+01 -0.268020441613E-17  0.166666666667E-01
  0.366984996078E+01 -0.104650865882E-02  0.166337788071E-01
  0.366984996078E+01 -0.208888722607E-02  0.165352450219E-01
  0.366984996078E+01 -0.312302190976E-02  0.163714541788E-01
  0.366984996078E+01 -0.414483145275E-02  0.161430526855E-01
  0.366984996078E+01 -0.515028323958E-02  0.158509419383E-01
  0.366984996078E+01 -0.613540921141E-02  0.154962747648E-01
  0.366984996078E+01 -0.709632152608E-02  0.150804508744E-01
  0.366984996078E+01 -0.802922790170E-02  0.146051113341E-01
  0.366984996078E+01 -0.893044658298E-02  0.140721320917E-01
  0.366984996078E+01 -0.979642087154E-02  0.134836165729E-01
  0.366984996078E+01 -0.106237331625E-01  0.128418873796E-01
  0.366984996078E+01 -0.114091184321E-01  0.121494771237E-01
  0.366984996078E+01 -0.121494771237E-01  0.114091184321E-01
  0.366984996078E+01 -0.128418873796E-01  0.106237331625E-01
  0.366984996078E+01 -0.134836165729E-01  0.979642087154E-02
  0.366984996078E+01 -0.140721320917E-01  0.893044658298E-02
  0.366984996078E+01 -0.146051113341E-01  0.802922790170E-02
  0.366984996078E+01 -0.150804508744E-01  0.709632152608E-02
  0.366984996078E+01 -0.154962747648E-01  0.613540921141E-02
  0.366984996078E+01 -0.158509419383E-01  0.515028323958E-02
  0.366984996078E+01 -0.161430526855E-01  0.414483145275E-02
  0.366984996078E+01 -0.163714541788E-01  0.312302190976E-02
  0.366984996078E+01 -0.165352450219E-01  0.208888722607E-02
  0.366984996078E+01 -0.166337788071E-01  0.104650865882E-02
  0.366984996078E+01 -0.166666666667E-01  0.204107799858E-17
  0.360764911398E+01  0.333333333333E-01  0.000000000000E+00
  0.360764911398E+01  0.332675576143E-01  0.209301731764E-02
  0.360764911398E+01  0.330704900438E-01  0.417777445214E-02
  0.360764911398E+01  0.327429083576E-01  0.624604381952E-02
  0.360764911398E+01  0.322861053710E-01  0.828966290550E-02
  0.360764911398E+01  0.317018838765E-01  0.103005664792E-01
  0.360764911398E+01  0.309925495296E-01  0.122708184228E-01
  0.360764911398E+01  0.301609017489E-01  0.141926430522E-01
  0.360764911398E+01  0.292102226681E-01  0.160584558034E-01
  0.360764911398E+01  0.281442641834E-01  0.178608931660E-01
  0.360764911398E+01  0.269672331458E-01  0.195928417431E-01
  0.360764911398E+01  0.256837747592E-01  0.212474663250E-01
  0.360764911398E+01  0.242989542474E-01  0.228182368643E-01
  0.360764911398E+01  0.228182368643E-01  0.242989542474E-01
  0.360764911398E+01  0.212474663250E-01  0.256837747592E-01
  0.360764911398E+01  0.195928417431E-01  0.269672331458E-01
  0.360764911398E+01  0.178608931660E-01  0.281442641834E-01
  0.360764911398E+01  0.160584558034E-01  0.292102226681E-01
  0.360764911398E+01  0.141926430522E-01  0.301609017489E-01
  0.360764911398E+01  0.122708184228E-01  0.309925495296E-01
  0.360764911398E+01  0.103005664792E-01  0.317018838765E-01
  0.360764911398E+01  0.828966290550E-02  0.322861053710E-01
  0.360764911398E+01  0.624604381952E-02  0.327429083576E-01
  0.360764911398E+01  0.417777445214E-02  0.330704900438E-01
  0.360764911398E+01  0.209301731764E-02  0.332675576143E-01
  0.360764911398E+01 -0.536040883226E-17  0.333333333333E-01
  0.360764911398E+01 -0.209301731764E-02  0.332675576143E-01
  0.360764911398E+01 -0.417777445214E-02  0.330704900438E-01
  0.360764911398E+01 -0.624604381952E-02  0.327429083576E-01
  0.360764911398E+01 -0.828966290550E-02  0.322861053710E-01
  0.360764911398E+01 -0.103005664792E-01  0.317018838765E-01
  0.360764911398E+01 -0.122708184228E-01  0.309925495296E-01
  0.360764911398E+01 -0.141926430522E-01  0.301609017489E-01
  0.360764911398E+01 -0.160584558034E-01  0.292102226681E-01
  0.360764911398E+01 -0.178608931660E-01  0.281442641834E-01
  0.360764911398E+01 -0.195928417431E-01  0.269672331458E-01
  0.360764911398E+01 -0.212474663250E-01  0.256837747592E-01
  0.360764911398E+01 -0.228182368643E-01  0.242989542474E-01
  0.360764911398E+01 -0.242989542474E-01  0.228182368643E-01
  0.360764911398E+01 -0.256837747592E-01  0.212474663250E-01
  0.360764911398E+01 -0.269672331458E-01  0.195928417431E-01
  0.360764911398E+01 -0.281442641834E-01  0.178608931660E-01
  0.360764911398E+01 -0.292102226681E-01  0.160584558034E-01
  0.360764911398E+01 -0.301609017489E-01  0.141926430522E-01
  0.360764911398E+01 -0.309925495296E-01  0.122708184228E-01
  0.360764911398E+01 -0.317018838765E-01  0.103005664792E-01
  0.360764911398E+01 -0.322861053710E-01  0.828966290550E-02
  0.360764911398E+01 -0.327429083576E-01  0.624604381952E-02
  0.360764911398E+01 -0.330704900438E-01  0.417777445214E-02
  0.360764911398E+01 -0.332675576143E-01  0.209301731764E-02
  0.360764911398E+01 -0.333333333333E-01  0.408215599716E-17
  0.354544826719E+01  0.500000000000E-01  0.000000000000E+00
  0.354544826719E+01  0.499013364214E-01  0.313952597647E-02
  0.354544826719E+01  0.496057350657E-01  0.626666167822E-02
  0.354544826719E+01  0.491143625364E-01  0.936906572929E-02
  0.354544826719E+01  0.484291580564E-01  0.124344943582E-01
  0.354544826719E+01  0.475528258148E-01  0.154508497187E-01
  0.354544826719E+01  0.464888242944E-01  0.184062276342E-01
  0.354544826719E+01  0.452413526233E-01  0.212889645783E-01
  0.354544826719E+01  0.438153340022E-01  0.240876837051E-01
  0.354544826719E+01  0.422163962751E-01  0.267913397489E-01
  0.354544826719E+01  0.404508497187E-01  0.293892626146E-01
  0.354544826719E+01  0.385256621388E-01  0.318711994874E-01
  0.354544826719E+01  0.364484313711E-01  0.342273552964E-01
  0.354544826719E+01  0.342273552964E-01  0.364484313711E-01
  0.354544826719E+01  0.318711994874E-01  0.385256621388E-01
  0.354544826719E+01  0.293892626146E-01  0.404508497187E-01
  0.354544826719E+01  0.267913397489E-01  0.422163962751E-01
  0.354544826719E+01  0.240876837051E-01  0.438153340022E-01
  0.354544826719E+01  0.212889645783E-01  0.452413526233E-01
  0.354544826719E+01  0.184062276342E-01  0.464888242944E-01
  0.354544826719E+01  0.154508497187E-01  0.475528258148E-01
  0.354544826719E+01  0.124344943582E-01  0.484291580564E-01
  0.354544826719E+01  0.936906572929E-02  0.491143625364E-01
  0.354544826719E+01  0.626666167822E-02  0.496057350657E-01
  0.354544826719E+01  0.313952597647E-02  0.499013364214E-01
  0.354544826719E+01 -0.804061324838E-17  0.500000000000E-01
  0.354544826719E+01 -0.313952597647E-02  0.499013364214E-01
  0.354544826719E+01 -0.626666167822E-02  0.496057350657E-01
  0.354544826719E+01 -0.936906572929E-02  0.491143625364E-01
  0.354544826719E+01 -0.124344943582E-01  0.484291580564E-01
  0.354544826719E+01 -0.154508497187E-01  0.475528258148E-01
  0.354544826719E+01 -0.184062276342E-01  0.464888242944E-01
  0.354544826719E+01 -0.212889645783E-01  0.452413526233E-01
  0.354544826719E+01 -0.240876837051E-01  0.438153340022E-01
  0.354544826719E+01 -0.267913397489E-01  0.422163962751E-01
  0.354544826719E+01 -0.293892626146E-01  0.404508497187E-01
  0.354544826719E+01 -0.318711994874E-01  0.385256621388E-01
  0.354544826719E+01 -0.342273552964E-01  0.364484313711E-01
  0.354544826719E+01 -0.364484313711E-01  0.342273552964E-01
  0.354544826719E+01 -0.385256621388E-01  0.318711994874E-01
  0.354544826719E+01 -0.404508497187E-01  0.293892626146E-01
  0.354544826719E+01 -0.422163962751E-01  0.267913397489E-01
  0.354544826719E+01 -0.438153340022E-01  0.240876837051E-01
  0.354544826719E+01 -0.452413526233E-01  0.212889645783E-01
  0.354544826719E+01 -0.464888242944E-01  0.184062276342E-01
  0.354544826719E+01 -0.475528258148E-01  0.154508497187E-01
  0.354544826719E+01 -0.484291580564E-01  0.124344943582E-01
  0.354544826719E+01 -0.491143625364E-01  0.936906572929E-02
  0.354544826719E+01 -0.496057350657E-01  0.626666167822E-02
  0.354544826719E+01 -0.499013364214E-01  0.313952597647E-02
  0.354544826719E+01 -0.500000000000E-01  0.612323399574E-17
  0.348324742040E+01  0.666666666667E-01  0.000000000000E+00
  0.348324742040E+01  0.665351152286E-01  0.418603463529E-02
  0.348324742040E+01  0.661409800876E-01  0.835554890429E-02
  0.348324742040E+01  0.654858167152E-01  0.124920876390E-01
  0.348324742040E+01  0.645722107419E-01  0.165793258110E-01
  0.348324742040E+01  0.634037677530E-01  0.206011329583E-01
  0.348324742040E+01  0.619850990592E-01  0.245416368456E-01
[...]
CELL_DATA                5950
SCALARS C_p_ise float 1
LOOKUP_TABLE default
  0.173529694323E+00
  0.173529694268E+00
  0.173529694257E+00
  0.173529694260E+00
  0.173529694272E+00
  0.173529694269E+00
  0.173529694276E+00
  0.173529694279E+00
  0.173529694283E+00
  0.173529694262E+00
  0.173529694234E+00
  0.173529694240E+00
  0.173529694235E+00
  0.173529694241E+00
  0.173529694243E+00
  0.173529694267E+00
  0.173529694287E+00
  0.173529694281E+00
  0.173529694279E+00
  0.173529694272E+00
  0.173529694272E+00
  0.173529694268E+00
  0.173529694256E+00
  0.173529694259E+00
  0.173529694270E+00
  0.173529694269E+00
  0.173529694266E+00
  0.173529694255E+00
  0.173529694255E+00
  0.173529694267E+00
  0.173529694267E+00
  0.173529694276E+00
  0.173529694280E+00
  0.173529694285E+00
  0.173529694262E+00
  0.173529694234E+00
  0.173529694240E+00
  0.173529694235E+00
  0.173529694242E+00
  0.173529694243E+00
  0.173529694267E+00
  0.173529694285E+00
  0.173529694279E+00
  0.173529694279E+00
  0.173529694274E+00
  0.173529694278E+00
  0.173529694274E+00
  0.173529694257E+00
  0.173529694249E+00
  0.173529694345E+00
  0.173529693148E+00
  0.173529693721E+00
  0.173529693650E+00
  0.173529693602E+00
  0.173529693595E+00
  0.173529693608E+00
  0.173529693606E+00
  0.173529693589E+00
  0.173529693595E+00
  0.173529693578E+00
  0.173529693599E+00
  0.173529693671E+00
  0.173529693645E+00
  0.173529693544E+00
  0.173529693542E+00
  0.173529693528E+00
  0.173529693532E+00
  0.173529693532E+00
  0.173529693556E+00
  0.173529693689E+00
  0.173529693653E+00
  0.173529693627E+00
  0.173529693645E+00
  0.173529693682E+00
  0.173529693674E+00
  0.173529693667E+00
  0.173529693647E+00
  0.173529693565E+00
  0.173529693592E+00
  0.173529693670E+00
  0.173529693661E+00
  0.173529693562E+00
  0.173529693583E+00
  0.173529693586E+00
  0.173529693558E+00
  0.173529693497E+00
  0.173529693538E+00
  0.173529693666E+00
  0.173529693618E+00
  0.173529693495E+00
  0.173529693530E+00
  0.173529693636E+00
  0.173529693636E+00
  0.173529693648E+00
  0.173529693645E+00
  0.173529693671E+00
  0.173529693652E+00
  0.173529693588E+00
  0.173529693603E+00
  0.173529693617E+00
  0.173529693620E+00
  0.173529693631E+00
  0.173529693621E+00
  0.173529693601E+00
  0.173529693590E+00
  0.173529693589E+00
  0.173529693591E+00
  0.173529693596E+00
  0.173529693597E+00
  0.173529693567E+00
  0.173529693586E+00
  0.173529693644E+00
  0.173529693629E+00
  0.173529693559E+00
  0.173529693550E+00
  0.173529693510E+00
  0.173529693515E+00
  0.173529693515E+00
  0.173529693537E+00
  0.173529693672E+00
  0.173529693636E+00
  0.173529693613E+00
  0.173529693637E+00
  0.173529693690E+00
  0.173529693674E+00
  0.173529693639E+00
  0.173529693626E+00
  0.173529693568E+00
  0.173529693591E+00
  0.173529693655E+00
  0.173529693648E+00
  0.173529693555E+00
  0.173529693575E+00
  0.173529693579E+00
  0.173529693564E+00
  0.173529693537E+00
  0.173529693566E+00
  0.173529693653E+00
  0.173529693602E+00
  0.173529693465E+00
  0.173529693505E+00
  0.173529693611E+00
  0.173529693608E+00
  0.173529693611E+00
  0.173529693611E+00
  0.173529693661E+00
  0.173529693634E+00
  0.173529693577E+00
  0.173529693967E+00
  0.173529694847E+00
  0.173529693401E+00
  0.173529694671E+00
  0.173529694851E+00
  0.173529695150E+00
  0.173529695075E+00
  0.173529694812E+00
  0.173529694817E+00
  0.173529694837E+00
  0.173529694845E+00
  0.173529694885E+00
  0.173529694890E+00
  0.173529694843E+00
  0.173529694879E+00
  0.173529695070E+00
  0.173529695035E+00
  0.173529695040E+00
  0.173529695013E+00
  0.173529694876E+00
  0.173529694880E+00
  0.173529694785E+00
  0.173529694820E+00
  0.173529694953E+00
  0.173529694938E+00
  0.173529694816E+00
  0.173529694856E+00
  0.173529695036E+00
  0.173529694998E+00
  0.173529694921E+00
  0.173529694925E+00
  0.173529694945E+00
  0.173529694956E+00
  0.173529694928E+00
  0.173529694936E+00
  0.173529695037E+00
  0.173529695005E+00
  0.173529694979E+00
  0.173529694972E+00
  0.173529694834E+00
  0.173529694891E+00
  0.173529695202E+00
  0.173529695124E+00
  0.173529694766E+00
  0.173529694787E+00
  0.173529694714E+00
  0.173529694761E+00
  0.173529694989E+00
  0.173529694976E+00
  0.173529694965E+00
  0.173529694937E+00
  0.173529694829E+00
  0.173529694815E+00
  0.173529694705E+00
  0.173529694737E+00
  0.173529694930E+00
  0.173529694895E+00
  0.173529694804E+00
  0.173529694808E+00
  0.173529694821E+00
  0.173529694833E+00
  0.173529694880E+00
  0.173529694879E+00
  0.173529694830E+00
  0.173529694874E+00
  0.173529695069E+00
  0.173529695055E+00
  0.173529695151E+00
  0.173529695099E+00
  0.173529694877E+00
  0.173529694876E+00
  0.173529694762E+00
  0.173529694803E+00
  0.173529694960E+00
  0.173529694953E+00
  0.173529694833E+00
  0.173529694860E+00
  0.173529694984E+00
  0.173529694960E+00
  0.173529694959E+00
  0.173529694958E+00
  0.173529694933E+00
  0.173529694938E+00
  0.173529694894E+00
  0.173529694901E+00
  0.173529694990E+00
  0.173529694958E+00
  0.173529694864E+00
  0.173529694873E+00
  0.173529694819E+00
  0.173529694866E+00
  0.173529695210E+00
  0.173529695127E+00
  0.173529694739E+00
  0.173529694768E+00
  0.173529694752E+00
  0.173529694794E+00
  0.173529695005E+00
  0.173529694991E+00
  0.173529694977E+00
  0.173529695698E+00
  0.173529697451E+00
  0.173529691255E+00
  0.173529687069E+00
  0.173529687498E+00
  0.173529687465E+00
  0.173529687484E+00
  0.173529687728E+00
  0.173529687649E+00
  0.173529687422E+00
  0.173529687500E+00
  0.173529687954E+00
  0.173529687952E+00
  0.173529687839E+00
  0.173529687781E+00
  0.173529687187E+00
  0.173529687237E+00
  0.173529687569E+00
  0.173529687576E+00
  0.173529687805E+00
  0.173529687803E+00
  0.173529687955E+00
  0.173529687934E+00
  0.173529687681E+00
  0.173529687706E+00
  0.173529687799E+00
  0.173529687791E+00
  0.173529687623E+00
  0.173529687642E+00
  0.173529687796E+00
  0.173529687755E+00
  0.173529687545E+00
  0.173529687560E+00
  0.173529687559E+00
  0.173529687572E+00
  0.173529687647E+00
  0.173529687655E+00
  0.173529687789E+00
  0.173529687728E+00
  0.173529687386E+00
  0.173529687401E+00
  0.173529687305E+00
  0.173529687351E+00
  0.173529687783E+00
  0.173529687716E+00
  0.173529687600E+00
  0.173529687598E+00
  0.173529687365E+00
  0.173529687444E+00
  0.173529687770E+00
  0.173529687770E+00
  0.173529687983E+00
  0.173529687939E+00
  0.173529687883E+00
  0.173529687864E+00
  0.173529687660E+00
  0.173529687648E+00
  0.173529687540E+00
  0.173529687484E+00
  0.173529687190E+00
  0.173529687280E+00
  0.173529687808E+00
  0.173529687810E+00
  0.173529687759E+00
  0.173529687710E+00
  0.173529687129E+00
  0.173529687182E+00
  0.173529687370E+00
  0.173529687390E+00
  0.173529687759E+00
  0.173529687737E+00
  0.173529687897E+00
  0.173529687876E+00
  0.173529687602E+00
  0.173529687622E+00
  0.173529687594E+00
  0.173529687591E+00
  0.173529687552E+00
  0.173529687562E+00
  0.173529687626E+00
  0.173529687628E+00
  0.173529687652E+00
  0.173529687679E+00
  0.173529687871E+00
  0.173529687850E+00
  0.173529687721E+00
  0.173529687732E+00
  0.173529687913E+00
  0.173529687852E+00
  0.173529687495E+00
  0.173529687529E+00
  0.173529687511E+00
  0.173529687552E+00
  0.173529687939E+00
  0.173529687861E+00
  0.173529687650E+00
  0.173529687651E+00
  0.173529687383E+00
  0.173529687468E+00
  0.173529687863E+00
  0.173529688137E+00
  0.173529685026E+00
  0.173529693372E+00
  0.173529697682E+00
  0.173529697422E+00
  0.173529696605E+00
  0.173529696655E+00
  0.173529696974E+00
  0.173529696843E+00
  0.173529696060E+00
  0.173529696101E+00
  0.173529696069E+00
  0.173529696174E+00
  0.173529696554E+00
  0.173529696541E+00
  0.173529697087E+00
  0.173529697007E+00
  0.173529696600E+00
  0.173529696672E+00
  0.173529696830E+00
  0.173529696841E+00
  0.173529696662E+00
  0.173529696665E+00
  0.173529696676E+00
  0.173529696630E+00
  0.173529696307E+00
  0.173529696309E+00
  0.173529696289E+00
  0.173529696214E+00
  0.173529695582E+00
  0.173529695629E+00
  0.173529696233E+00
  0.173529696258E+00
  0.173529696610E+00
  0.173529696547E+00
  0.173529695866E+00
  0.173529695843E+00
  0.173529695473E+00
  0.173529695510E+00
  0.173529696225E+00
  0.173529696250E+00
  0.173529696782E+00
  0.173529696736E+00
  0.173529696033E+00
  0.173529696082E+00
  0.173529696572E+00
  0.173529696613E+00
  0.173529697142E+00
  0.173529697019E+00
  0.173529695497E+00
  0.173529695623E+00
  0.173529696329E+00
  0.173529696354E+00
  0.173529696698E+00
  0.173529696654E+00
  0.173529696498E+00
  0.173529696515E+00
  0.173529697039E+00
  0.173529696918E+00
  0.173529696469E+00
  0.173529696470E+00
  0.173529696043E+00
  0.173529696183E+00
  0.173529696748E+00
  0.173529696707E+00
  0.173529696842E+00
  0.173529696775E+00
  0.173529696450E+00
  0.173529696519E+00
  0.173529696722E+00
  0.173529696742E+00
  0.173529696646E+00
  0.173529696652E+00
  0.173529696688E+00
  0.173529696647E+00
  0.173529696449E+00
  0.173529696453E+00
  0.173529696555E+00
  0.173529696470E+00
  0.173529695675E+00
  0.173529695728E+00
  0.173529696113E+00
  0.173529696208E+00
  0.173529696786E+00
  0.173529696710E+00
  0.173529695969E+00
  0.173529695925E+00
  0.173529695592E+00
  0.173529695631E+00
  0.173529696291E+00
  0.173529696284E+00
  0.173529696382E+00
  0.173529696342E+00
  0.173529695634E+00
  0.173529695731E+00
  0.173529696812E+00
  0.173529696820E+00
  0.173529697152E+00
  0.173529697040E+00
  0.173529695607E+00
  0.173529696567E+00
  0.173529702231E+00
  0.173529693307E+00
  0.173529692730E+00
  0.173529692972E+00
  0.173529693226E+00
  0.173529693329E+00
  0.173529694903E+00
  0.173529694782E+00
  0.173529694511E+00
  0.173529694263E+00
  0.173529692030E+00
  0.173529692224E+00
  0.173529693250E+00
  0.173529693319E+00
  0.173529693757E+00
  0.173529693771E+00
  0.173529694132E+00
  0.173529694096E+00
  0.173529693405E+00
  0.173529693416E+00
  0.173529693211E+00
  0.173529693165E+00
  0.173529692852E+00
  0.173529692976E+00
  0.173529694837E+00
  0.173529694681E+00
  0.173529693338E+00
  0.173529693325E+00
  0.173529694031E+00
  0.173529693996E+00
  0.173529693853E+00
  0.173529693966E+00
  0.173529694208E+00
  0.173529694233E+00
  0.173529694768E+00
  0.173529694562E+00
  0.173529693370E+00
  0.173529693333E+00
  0.173529692962E+00
  0.173529693063E+00
  0.173529693014E+00
  0.173529693035E+00
  0.173529693117E+00
  0.173529693205E+00
  0.173529694494E+00
  0.173529694642E+00
  0.173529695223E+00
  0.173529695148E+00
  0.173529695035E+00
  0.173529694778E+00
  0.173529692435E+00
  0.173529692649E+00
  0.173529693872E+00
  0.173529693822E+00
  0.173529693329E+00
  0.173529693471E+00
  0.173529695039E+00
  0.173529694937E+00
  0.173529694503E+00
  0.173529694287E+00
  0.173529692445E+00
  0.173529692600E+00
  0.173529693289E+00
  0.173529693400E+00
  0.173529694389E+00
  0.173529694340E+00
  0.173529694368E+00
  0.173529694359E+00
  0.173529693902E+00
  0.173529693916E+00
  0.173529693613E+00
  0.173529693583E+00
  0.173529693301E+00
  0.173529693417E+00
  0.173529695099E+00
  0.173529694921E+00
  0.173529693166E+00
  0.173529693187E+00
  0.173529694226E+00
  0.173529694151E+00
  0.173529693712E+00
  0.173529693811E+00
  0.173529693376E+00
  0.173529693411E+00
  0.173529693926E+00
  0.173529693721E+00
  0.173529692859E+00
  0.173529692833E+00
  0.173529692538E+00
  0.173529692672E+00
  0.173529693413E+00
  0.173529693376E+00
  0.173529693301E+00
  0.173529693384E+00
  0.173529694102E+00
  0.173529694312E+00
  0.173529695202E+00
  0.173529695101E+00
  0.173529694823E+00
  0.173529695519E+00
  0.173529694367E+00
  0.173529696986E+00
  0.173529700983E+00
  0.173529701169E+00
  0.173529701120E+00
  0.173529701110E+00
  0.173529699337E+00
  0.173529699540E+00
  0.173529701881E+00
  0.173529701662E+00
  0.173529702374E+00
  0.173529702375E+00
  0.173529702493E+00
  0.173529702583E+00
  0.173529701642E+00
  0.173529701702E+00
  0.173529701780E+00
  0.173529701818E+00
  0.173529702355E+00
  0.173529702220E+00
  0.173529701146E+00
  0.173529701205E+00
  0.173529702807E+00
  0.173529702707E+00
  0.173529700165E+00
  0.173529700275E+00
  0.173529701527E+00
  0.173529701410E+00
  0.173529701646E+00
  0.173529701592E+00
  0.173529700515E+00
  0.173529700706E+00
  0.173529701877E+00
  0.173529701819E+00
  0.173529700453E+00
  0.173529700527E+00
  0.173529703539E+00
  0.173529703405E+00
  0.173529703556E+00
  0.173529703446E+00
  0.173529701146E+00
  0.173529701209E+00
  0.173529701823E+00
  0.173529701839E+00
  0.173529700806E+00
  0.173529701115E+00
  0.173529701682E+00
  0.173529701661E+00
  0.173529701672E+00
  0.173529701517E+00
  0.173529702968E+00
  0.173529702779E+00
  0.173529700310E+00
  0.173529700524E+00
  0.173529702511E+00
  0.173529702464E+00
  0.173529700583E+00
  0.173529700726E+00
  0.173529702072E+00
  0.173529701854E+00
  0.173529702352E+00
  0.173529702315E+00
  0.173529701990E+00
  0.173529702126E+00
  0.173529701628E+00
  0.173529701642E+00
  0.173529701289E+00
  0.173529701319E+00
  0.173529701784E+00
  0.173529701733E+00
  0.173529701425E+00
  0.173529701463E+00
  0.173529702703E+00
  0.173529702594E+00
  0.173529700015E+00
  0.173529700058E+00
  0.173529700932E+00
  0.173529700795E+00
  0.173529700813E+00
  0.173529700821E+00
  0.173529700670E+00
  0.173529700862E+00
  0.173529702592E+00
  0.173529702551E+00
  0.173529702064E+00
  0.173529702026E+00
  0.173529703583E+00
  0.173529703481E+00
  0.173529703498E+00
  0.173529703419E+00
  0.173529701002E+00
  0.173529701043E+00
  0.173529701176E+00
  0.173529701177E+00
  0.173529700199E+00
  0.173529700503E+00
  0.173529700895E+00
  0.173529700870E+00
  0.173529700792E+00
  0.173529701983E+00
  0.173529708746E+00
  0.173529689749E+00
  0.173529669791E+00
  0.173529670368E+00
  0.173529671613E+00
  0.173529671612E+00
  0.173529671818E+00
  0.173529671862E+00
  0.173529671525E+00
  0.173529671614E+00
  0.173529673528E+00
  0.173529673483E+00
  0.173529671985E+00
  0.173529672067E+00
  0.173529671823E+00
  0.173529671802E+00
  0.173529671672E+00
  0.173529671644E+00
  0.173529670562E+00
  0.173529670536E+00
  0.173529671559E+00
  0.173529671601E+00
  0.173529672599E+00
  0.173529672615E+00
  0.173529672499E+00
  0.173529672517E+00
  0.173529674056E+00
  0.173529674063E+00
  0.173529674476E+00
  0.173529674465E+00
  0.173529674831E+00
  0.173529674758E+00
  0.173529672048E+00
  0.173529672301E+00
  0.173529675602E+00
  0.173529675352E+00
  0.173529672077E+00
  0.173529672077E+00
  0.173529670612E+00
  0.173529670808E+00
  0.173529675211E+00
  0.173529675040E+00
  0.173529674179E+00
  0.173529674151E+00
  0.173529672795E+00
  0.173529672786E+00
  0.173529669209E+00
  0.173529669361E+00
  0.173529671301E+00
  0.173529671225E+00
  0.173529672390E+00
  0.173529672271E+00
  0.173529671654E+00
  0.173529671674E+00
  0.173529671631E+00
  0.173529671755E+00
  0.173529672027E+00
  0.173529671988E+00
  0.173529671415E+00
  0.173529671486E+00
  0.173529674254E+00
  0.173529674149E+00
  0.173529672560E+00
  0.173529672610E+00
  0.173529671703E+00
  0.173529671727E+00
  0.173529672448E+00
  0.173529672341E+00
  0.173529670694E+00
  0.173529670682E+00
  0.173529670727E+00
  0.173529670832E+00
  0.173529672205E+00
  0.173529672215E+00
  0.173529672560E+00
  0.173529672562E+00
  0.173529674925E+00
  0.173529674811E+00
  0.173529674147E+00
  0.173529674197E+00
  0.173529674816E+00
  0.173529674774E+00
  0.173529671438E+00
  0.173529671705E+00
  0.173529674340E+00
  0.173529674106E+00
  0.173529671734E+00
  0.173529671711E+00
  0.173529671110E+00
  0.173529671196E+00
  0.173529673638E+00
  0.173529673537E+00
  0.173529674195E+00
  0.173529674172E+00
  0.173529673650E+00
  0.173529673599E+00
  0.173529669396E+00
  0.173529669508E+00
  0.173529671128E+00
  0.173529671186E+00
  0.173529654294E+00
  0.173529695564E+00
  0.173529694102E+00
  0.173529693409E+00
  0.173529694453E+00
  0.173529694513E+00
  0.173529694135E+00
  0.173529694235E+00
  0.173529694960E+00
  0.173529695058E+00
  0.173529695594E+00
  0.173529695576E+00
  0.173529693862E+00
  0.173529693891E+00
  0.173529694679E+00
  0.173529694499E+00
  0.173529692068E+00
  0.173529692161E+00
  0.173529694376E+00
  0.173529694203E+00
  0.173529692930E+00
  0.173529692884E+00
  0.173529690221E+00
  0.173529690364E+00
  0.173529691409E+00
  0.173529691493E+00
  0.173529692758E+00
  0.173529692742E+00
  0.173529690603E+00
  0.173529690574E+00
  0.173529689810E+00
  0.173529689970E+00
  0.173529693513E+00
  0.173529693492E+00
  0.173529691910E+00
  0.173529692042E+00
  0.173529694794E+00
  0.173529694664E+00
  0.173529696169E+00
  0.173529696057E+00
  0.173529692498E+00
  0.173529692385E+00
  0.173529688390E+00
  0.173529688599E+00
  0.173529693590E+00
  0.173529693486E+00
  0.173529693416E+00
  0.173529693244E+00
  0.173529691793E+00
  0.173529691750E+00
  0.173529690126E+00
  0.173529690229E+00
  0.173529692677E+00
  0.173529692622E+00
  0.173529692043E+00
  0.173529692146E+00
  0.173529691846E+00
  0.173529691897E+00
  0.173529693110E+00
  0.173529693184E+00
  0.173529693900E+00
  0.173529693972E+00
  0.173529693846E+00
  0.173529693797E+00
  0.173529693920E+00
  0.173529693780E+00
  0.173529692018E+00
  0.173529692135E+00
  0.173529695116E+00
  0.173529694871E+00
  0.173529692770E+00
  0.173529692695E+00
  0.173529689579E+00
  0.173529689765E+00
  0.173529691193E+00
  0.173529691291E+00
  0.173529692532E+00
  0.173529692505E+00
  0.173529691308E+00
  0.173529691205E+00
  0.173529689339E+00
  0.173529689529E+00
  0.173529692774E+00
  0.173529692797E+00
  0.173529692432E+00
  0.173529692602E+00
  0.173529696481E+00
  0.173529696373E+00
  0.173529697608E+00
  0.173529697481E+00
  0.173529694558E+00
  0.173529694391E+00
  0.173529690496E+00
  0.173529690714E+00
  0.173529694076E+00
  0.173529694048E+00
  0.173529695037E+00
  0.173529694790E+00
  0.173529693444E+00
  0.173529693590E+00
  0.173529693250E+00
  0.173529692030E+00
  0.173529698274E+00
  0.173529697314E+00
  0.173529693866E+00
  0.173529693845E+00
  0.173529691128E+00
  0.173529691303E+00
  0.173529693137E+00
  0.173529693450E+00
  0.173529696732E+00
  0.173529696807E+00
  0.173529697970E+00
  0.173529697634E+00
  0.173529692620E+00
  0.173529692864E+00
  0.173529700066E+00
  0.173529699898E+00
  0.173529697641E+00
  0.173529697658E+00
  0.173529698791E+00
  0.173529698649E+00
  0.173529698243E+00
  0.173529698249E+00
  0.173529698616E+00
  0.173529698650E+00
  0.173529696531E+00
  0.173529696489E+00
  0.173529694584E+00
  0.173529694560E+00
  0.173529697062E+00
  0.173529697240E+00
  0.173529698447E+00
  0.173529698460E+00
  0.173529695141E+00
  0.173529695267E+00
  0.173529696925E+00
  0.173529696954E+00
  0.173529696913E+00
  0.173529696920E+00
  0.173529697504E+00
  0.173529697353E+00
  0.173529700603E+00
  0.173529700168E+00
  0.173529692396E+00
  0.173529692659E+00
  0.173529694041E+00
  0.173529694218E+00
  0.173529700926E+00
  0.173529700642E+00
  0.173529697680E+00
  0.173529697654E+00
  0.173529697012E+00
  0.173529696937E+00
  0.173529693827E+00
  0.173529693718E+00
  0.173529690335E+00
  0.173529690502E+00
  0.173529693047E+00
  0.173529693345E+00
  0.173529696254E+00
  0.173529696366E+00
  0.173529696337E+00
  0.173529696058E+00
  0.173529691817E+00
  0.173529691995E+00
  0.173529697898E+00
  0.173529697801E+00
  0.173529695733E+00
  0.173529695748E+00
  0.173529697361E+00
  0.173529697215E+00
  0.173529698223E+00
  0.173529698238E+00
  0.173529698473E+00
  0.173529698542E+00
  0.173529696387E+00
  0.173529696457E+00
  0.173529696896E+00
  0.173529696849E+00
  0.173529699244E+00
  0.173529699383E+00
  0.173529700515E+00
  0.173529700612E+00
  0.173529698390E+00
  0.173529698484E+00
  0.173529697459E+00
  0.173529697584E+00
  0.173529697671E+00
  0.173529697699E+00
  0.173529699266E+00
  0.173529699098E+00
  0.173529702357E+00
  0.173529701887E+00
  0.173529693160E+00
  0.173529693406E+00
  0.173529694861E+00
  0.173529695085E+00
  0.173529702927E+00