# vtk DataFile Version 3.0
MachLine results file. Generated by MachLine, USU AeroLab (c) 2022.
ASCII
DATASET POLYDATA
POINTS                 781 float
  0.567128181962E+01  0.000000000000E+00  0.000000000000E+00
  0.548223909230E+01  0.333333333333E-01  0.000000000000E+00
  0.548223909230E+01  0.330704900438E-01  0.417777445214E-02
  0.548223909230E+01  0.322861053710E-01  0.828966290550E-02
  0.548223909230E+01  0.309925495296E-01  0.122708184228E-01
  0.548223909230E+01  0.292102226681E-01  0.160584558034E-01
  0.548223909230E+01  0.269672331458E-01  0.195928417431E-01
  0.548223909230E+01  0.242989542474E-01  0.228182368643E-01
  0.548223909230E+01  0.212474663250E-01  0.256837747592E-01
  0.548223909230E+01  0.178608931660E-01  0.281442641834E-01
  0.548223909230E+01  0.141926430522E-01  0.301609017489E-01
  0.548223909230E+01  0.103005664792E-01  0.317018838765E-01
  0.548223909230E+01  0.624604381952E-02  0.327429083576E-01
  0.548223909230E+01  0.209301731764E-02  0.332675576143E-01
  0.548223909230E+01 -0.209301731764E-02  0.332675576143E-01
  0.548223909230E+01 -0.624604381952E-02  0.327429083576E-01
  0.548223909230E+01 -0.103005664792E-01  0.317018838765E-01
  0.548223909230E+01 -0.141926430522E-01  0.301609017489E-01
  0.548223909230E+01 -0.178608931660E-01  0.281442641834E-01
  0.548223909230E+01 -0.212474663250E-01  0.256837747592E-01
  0.548223909230E+01 -0.242989542474E-01  0.228182368643E-01
  0.548223909230E+01 -0.269672331458E-01  0.195928417431E-01
  0.548223909230E+01 -0.292102226681E-01  0.160584558034E-01
  0.548223909230E+01 -0.309925495296E-01  0.122708184228E-01
  0.548223909230E+01 -0.322861053710E-01  0.828966290550E-02
  0.548223909230E+01 -0.330704900438E-01  0.417777445214E-02
  0.548223909230E+01 -0.333333333333E-01  0.408215599716E-17
  0.529319636498E+01  0.666666666667E-01  0.000000000000E+00
  0.529319636498E+01  0.661409800876E-01  0.835554890429E-02
  0.529319636498E+01  0.645722107419E-01  0.165793258110E-01
  0.529319636498E+01  0.619850990592E-01  0.245416368456E-01
  0.529319636498E+01  0.584204453363E-01  0.321169116068E-01
  0.529319636498E+01  0.539344662917E-01  0.391856834862E-01
  0.529319636498E+01  0.485979084948E-01  0.456364737286E-01
  0.529319636498E+01  0.424949326499E-01  0.513675495184E-01
  0.529319636498E+01  0.357217863319E-01  0.562885283668E-01
  0.529319636498E+01  0.283852861043E-01  0.603218034977E-01
  0.529319636498E+01  0.206011329583E-01  0.634037677530E-01
  0.529319636498E+01  0.124920876390E-01  0.654858167152E-01
  0.529319636498E+01  0.418603463529E-02  0.665351152286E-01
  0.529319636498E+01 -0.418603463529E-02  0.665351152286E-01
  0.529319636498E+01 -0.124920876390E-01  0.654858167152E-01
  0.529319636498E+01 -0.206011329583E-01  0.634037677530E-01
  0.529319636498E+01 -0.283852861043E-01  0.603218034977E-01
  0.529319636498E+01 -0.357217863319E-01  0.562885283668E-01
  0.529319636498E+01 -0.424949326499E-01  0.513675495184E-01
  0.529319636498E+01 -0.485979084948E-01  0.456364737286E-01
  0.529319636498E+01 -0.539344662917E-01  0.391856834862E-01
  0.529319636498E+01 -0.584204453363E-01  0.321169116068E-01
  0.529319636498E+01 -0.619850990592E-01  0.245416368456E-01
  0.529319636498E+01 -0.645722107419E-01  0.165793258110E-01
  0.529319636498E+01 -0.661409800876E-01  0.835554890429E-02
  0.529319636498E+01 -0.666666666667E-01  0.816431199432E-17
  0.510415363766E+01  0.100000000000E+00  0.000000000000E+00
  0.510415363766E+01  0.992114701314E-01  0.125333233564E-01
  0.510415363766E+01  0.968583161129E-01  0.248689887165E-01
  0.510415363766E+01  0.929776485888E-01  0.368124552685E-01
  0.510415363766E+01  0.876306680044E-01  0.481753674102E-01
  0.510415363766E+01  0.809016994375E-01  0.587785252292E-01
  0.510415363766E+01  0.728968627421E-01  0.684547105929E-01
  0.510415363766E+01  0.637423989749E-01  0.770513242776E-01
  0.510415363766E+01  0.535826794979E-01  0.844327925502E-01
  0.510415363766E+01  0.425779291565E-01  0.904827052466E-01
  0.510415363766E+01  0.309016994375E-01  0.951056516295E-01
  0.510415363766E+01  0.187381314586E-01  0.982287250729E-01
  0.510415363766E+01  0.627905195293E-02  0.998026728428E-01
  0.510415363766E+01 -0.627905195293E-02  0.998026728428E-01
  0.510415363766E+01 -0.187381314586E-01  0.982287250729E-01
  0.510415363766E+01 -0.309016994375E-01  0.951056516295E-01
  0.510415363766E+01 -0.425779291565E-01  0.904827052466E-01
  0.510415363766E+01 -0.535826794979E-01  0.844327925502E-01
  0.510415363766E+01 -0.637423989749E-01  0.770513242776E-01
  0.510415363766E+01 -0.728968627421E-01  0.684547105929E-01
  0.510415363766E+01 -0.809016994375E-01  0.587785252292E-01
  0.510415363766E+01 -0.876306680044E-01  0.481753674102E-01
  0.510415363766E+01 -0.929776485888E-01  0.368124552685E-01
  0.510415363766E+01 -0.968583161129E-01  0.248689887165E-01
  0.510415363766E+01 -0.992114701314E-01  0.125333233564E-01
  0.510415363766E+01 -0.100000000000E+00  0.122464679915E-16
  0.491511091034E+01  0.133333333333E+00  0.000000000000E+00
  0.491511091034E+01  0.132281960175E+00  0.167110978086E-01
  0.491511091034E+01  0.129144421484E+00  0.331586516220E-01
  0.491511091034E+01  0.123970198118E+00  0.490832736913E-01
  0.491511091034E+01  0.116840890673E+00  0.642338232136E-01
  0.491511091034E+01  0.107868932583E+00  0.783713669723E-01
  0.491511091034E+01  0.971958169895E-01  0.912729474572E-01
  0.491511091034E+01  0.849898652998E-01  0.102735099037E+00
  0.491511091034E+01  0.714435726639E-01  0.112577056734E+00
  0.491511091034E+01  0.567705722087E-01  0.120643606995E+00
  0.491511091034E+01  0.412022659167E-01  0.126807535506E+00
  0.491511091034E+01  0.249841752781E-01  0.130971633430E+00
  0.491511091034E+01  0.837206927058E-02  0.133070230457E+00
  0.491511091034E+01 -0.837206927058E-02  0.133070230457E+00
  0.491511091034E+01 -0.249841752781E-01  0.130971633430E+00
  0.491511091034E+01 -0.412022659167E-01  0.126807535506E+00
  0.491511091034E+01 -0.567705722087E-01  0.120643606995E+00
  0.491511091034E+01 -0.714435726639E-01  0.112577056734E+00
  0.491511091034E+01 -0.849898652998E-01  0.102735099037E+00
  0.491511091034E+01 -0.971958169895E-01  0.912729474572E-01
  0.491511091034E+01 -0.107868932583E+00  0.783713669723E-01
  0.491511091034E+01 -0.116840890673E+00  0.642338232136E-01
  0.491511091034E+01 -0.123970198118E+00  0.490832736913E-01
  0.491511091034E+01 -0.129144421484E+00  0.331586516220E-01
  0.491511091034E+01 -0.132281960175E+00  0.167110978086E-01
  0.491511091034E+01 -0.133333333333E+00  0.163286239886E-16
  0.472606818301E+01  0.166666666667E+00  0.000000000000E+00
  0.472606818301E+01  0.165352450219E+00  0.208888722607E-01
  0.472606818301E+01  0.161430526855E+00  0.414483145275E-01
  0.472606818301E+01  0.154962747648E+00  0.613540921141E-01
  0.472606818301E+01  0.146051113341E+00  0.802922790170E-01
  0.472606818301E+01  0.134836165729E+00  0.979642087154E-01
  0.472606818301E+01  0.121494771237E+00  0.114091184321E+00
  0.472606818301E+01  0.106237331625E+00  0.128418873796E+00
  0.472606818301E+01  0.893044658298E-01  0.140721320917E+00
  0.472606818301E+01  0.709632152608E-01  0.150804508744E+00
  0.472606818301E+01  0.515028323958E-01  0.158509419383E+00
  0.472606818301E+01  0.312302190976E-01  0.163714541788E+00
  0.472606818301E+01  0.104650865882E-01  0.166337788071E+00
  0.472606818301E+01 -0.104650865882E-01  0.166337788071E+00
  0.472606818301E+01 -0.312302190976E-01  0.163714541788E+00
  0.472606818301E+01 -0.515028323958E-01  0.158509419383E+00
  0.472606818301E+01 -0.709632152608E-01  0.150804508744E+00
  0.472606818301E+01 -0.893044658298E-01  0.140721320917E+00
  0.472606818301E+01 -0.106237331625E+00  0.128418873796E+00
  0.472606818301E+01 -0.121494771237E+00  0.114091184321E+00
  0.472606818301E+01 -0.134836165729E+00  0.979642087154E-01
  0.472606818301E+01 -0.146051113341E+00  0.802922790170E-01
  0.472606818301E+01 -0.154962747648E+00  0.613540921141E-01
  0.472606818301E+01 -0.161430526855E+00  0.414483145275E-01
  0.472606818301E+01 -0.165352450219E+00  0.208888722607E-01
  0.472606818301E+01 -0.166666666667E+00  0.204107799858E-16
  0.453702545569E+01  0.200000000000E+00  0.000000000000E+00
  0.453702545569E+01  0.198422940263E+00  0.250666467129E-01
  0.453702545569E+01  0.193716632226E+00  0.497379774330E-01
  0.453702545569E+01  0.185955297178E+00  0.736249105369E-01
  0.453702545569E+01  0.175261336009E+00  0.963507348203E-01
  0.453702545569E+01  0.161803398875E+00  0.117557050458E+00
  0.453702545569E+01  0.145793725484E+00  0.136909421186E+00
  0.453702545569E+01  0.127484797950E+00  0.154102648555E+00
  0.453702545569E+01  0.107165358996E+00  0.168865585100E+00
  0.453702545569E+01  0.851558583130E-01  0.180965410493E+00
  0.453702545569E+01  0.618033988750E-01  0.190211303259E+00
  0.453702545569E+01  0.374762629171E-01  0.196457450146E+00
  0.453702545569E+01  0.125581039059E-01  0.199605345686E+00
  0.453702545569E+01 -0.125581039059E-01  0.199605345686E+00
  0.453702545569E+01 -0.374762629171E-01  0.196457450146E+00
  0.453702545569E+01 -0.618033988750E-01  0.190211303259E+00
  0.453702545569E+01 -0.851558583130E-01  0.180965410493E+00
  0.453702545569E+01 -0.107165358996E+00  0.168865585100E+00
  0.453702545569E+01 -0.127484797950E+00  0.154102648555E+00
  0.453702545569E+01 -0.145793725484E+00  0.136909421186E+00
  0.453702545569E+01 -0.161803398875E+00  0.117557050458E+00
  0.453702545569E+01 -0.175261336009E+00  0.963507348203E-01
  0.453702545569E+01 -0.185955297178E+00  0.736249105369E-01
  0.453702545569E+01 -0.193716632226E+00  0.497379774330E-01
  0.453702545569E+01 -0.198422940263E+00  0.250666467129E-01
  0.453702545569E+01 -0.200000000000E+00  0.244929359829E-16
  0.434798272837E+01  0.233333333333E+00  0.000000000000E+00
  0.434798272837E+01  0.231493430307E+00  0.292444211650E-01
  0.434798272837E+01  0.226002737597E+00  0.580276403385E-01
  0.434798272837E+01  0.216947846707E+00  0.858957289598E-01
[...]
CELL_DATA                1475
SCALARS C_p_ise float 1
LOOKUP_TABLE default
  0.946775876651E-01
  0.946775875675E-01
  0.946775875728E-01
  0.946775875824E-01
  0.946775875915E-01
  0.946775875973E-01
  0.946775875991E-01
  0.946775875895E-01
  0.946775875870E-01
  0.946775875932E-01
  0.946775875860E-01
  0.946775875807E-01
  0.946775875871E-01
  0.946775875822E-01
  0.946775875788E-01
  0.946775875869E-01
  0.946775875936E-01
  0.946775875956E-01
  0.946775876006E-01
  0.946775876063E-01
  0.946775875962E-01
  0.946775875788E-01
  0.946775875758E-01
  0.946775875749E-01
  0.946775874966E-01
  0.946775862002E-01
  0.946775864302E-01
  0.946775863128E-01
  0.946775862536E-01
  0.946775862546E-01
  0.946775862417E-01
  0.946775862454E-01
  0.946775862275E-01
  0.946775862386E-01
  0.946775862450E-01
  0.946775862549E-01
  0.946775862670E-01
  0.946775862918E-01
  0.946775863609E-01
  0.946775863328E-01
  0.946775862771E-01
  0.946775862669E-01
  0.946775862438E-01
  0.946775862549E-01
  0.946775862698E-01
  0.946775862651E-01
  0.946775862725E-01
  0.946775862589E-01
  0.946775862340E-01
  0.946775862367E-01
  0.946775862257E-01
  0.946775862231E-01
  0.946775862299E-01
  0.946775862178E-01
  0.946775861920E-01
  0.946775862121E-01
  0.946775862482E-01
  0.946775862484E-01
  0.946775862290E-01
  0.946775862316E-01
  0.946775862331E-01
  0.946775862150E-01
  0.946775861458E-01
  0.946775861694E-01
  0.946775862231E-01
  0.946775862275E-01
  0.946775862710E-01
  0.946775862814E-01
  0.946775863649E-01
  0.946775863501E-01
  0.946775863148E-01
  0.946775863052E-01
  0.946775862794E-01
  0.946775863766E-01
  0.946775869031E-01
  0.946775864440E-01
  0.946775869019E-01
  0.946775868300E-01
  0.946775866740E-01
  0.946775866768E-01
  0.946775867844E-01
  0.946775867690E-01
  0.946775866947E-01
  0.946775866811E-01
  0.946775865871E-01
  0.946775866216E-01
  0.946775867343E-01
  0.946775867303E-01
  0.946775865659E-01
  0.946775865723E-01
  0.946775866297E-01
  0.946775866206E-01
  0.946775867193E-01
  0.946775867154E-01
  0.946775866787E-01
  0.946775867066E-01
  0.946775868448E-01
  0.946775868359E-01
  0.946775868474E-01
  0.946775868297E-01
  0.946775867690E-01
  0.946775867650E-01
  0.946775867764E-01
  0.946775867358E-01
  0.946775865817E-01
  0.946775865891E-01
  0.946775865680E-01
  0.946775865916E-01
  0.946775866484E-01
  0.946775866600E-01
  0.946775867373E-01
  0.946775867445E-01
  0.946775868686E-01
  0.946775868203E-01
  0.946775865763E-01
  0.946775866164E-01
  0.946775867056E-01
  0.946775867310E-01
  0.946775867333E-01
  0.946775867473E-01
  0.946775867523E-01
  0.946775867311E-01
  0.946775867320E-01
  0.946775869002E-01
  0.946775872979E-01
  0.946775859937E-01
  0.946775862725E-01
  0.946775863520E-01
  0.946775867706E-01
  0.946775866791E-01
  0.946775862372E-01
  0.946775863119E-01
  0.946775867928E-01
  0.946775867741E-01
  0.946775868428E-01
  0.946775868345E-01
  0.946775866660E-01
  0.946775866483E-01
  0.946775863946E-01
  0.946775863820E-01
  0.946775864790E-01
  0.946775864636E-01
  0.946775863389E-01
  0.946775863694E-01
  0.946775864720E-01
  0.946775864436E-01
  0.946775861011E-01
  0.946775861470E-01
  0.946775863368E-01
  0.946775863256E-01
  0.946775863557E-01
  0.946775863491E-01
  0.946775864158E-01
  0.946775864451E-01
  0.946775869190E-01
  0.946775868462E-01
  0.946775865008E-01
  0.946775865168E-01
  0.946775864933E-01
  0.946775865073E-01
  0.946775864445E-01
  0.946775864592E-01
  0.946775864037E-01
  0.946775864209E-01
  0.946775867055E-01
  0.946775866721E-01
  0.946775864998E-01
  0.946775864573E-01
  0.946775858564E-01
  0.946775859562E-01
  0.946775865534E-01
  0.946775865466E-01
  0.946775866402E-01
  0.946775868720E-01
  0.946775873161E-01
  0.946775861310E-01
  0.946775841410E-01
  0.946775842615E-01
  0.946775842725E-01
  0.946775842648E-01
  0.946775844813E-01
  0.946775844005E-01
  0.946775835687E-01
  0.946775836247E-01
  0.946775836783E-01
  0.946775836921E-01
  0.946775838031E-01
  0.946775838381E-01
  0.946775845292E-01
  0.946775844880E-01
  0.946775845580E-01
  0.946775845069E-01
  0.946775840603E-01
  0.946775841129E-01
  0.946775844722E-01
  0.946775844747E-01
  0.946775846203E-01
  0.946775845595E-01
  0.946775840400E-01
  0.946775840609E-01
  0.946775841052E-01
  0.946775841246E-01
  0.946775843195E-01
  0.946775843230E-01
  0.946775840043E-01
  0.946775840245E-01
  0.946775842526E-01
  0.946775842260E-01
  0.946775842867E-01
  0.946775842453E-01
  0.946775837773E-01
  0.946775838200E-01
  0.946775841513E-01
  0.946775841746E-01
  0.946775843004E-01
  0.946775843182E-01
  0.946775844122E-01
  0.946775844041E-01
  0.946775849355E-01
  0.946775848488E-01
  0.946775839430E-01
  0.946775840106E-01
  0.946775839127E-01
  0.946775840302E-01
  0.946775828814E-01
  0.946775864082E-01
  0.946775895671E-01
  0.946775894334E-01
  0.946775890690E-01
  0.946775890954E-01
  0.946775894562E-01
  0.946775894027E-01
  0.946775894383E-01
  0.946775894114E-01
  0.946775895152E-01
  0.946775895764E-01
  0.946775900340E-01
  0.946775900569E-01
  0.946775897864E-01
  0.946775897500E-01
  0.946775889570E-01
  0.946775889664E-01
  0.946775895479E-01
  0.946775895091E-01
  0.946775890489E-01
  0.946775890658E-01
  0.946775887857E-01
  0.946775888622E-01
  0.946775901934E-01
  0.946775901513E-01
  0.946775900935E-01
  0.946775900645E-01
  0.946775894784E-01
  0.946775895297E-01
  0.946775898171E-01
  0.946775897958E-01
  0.946775897280E-01
  0.946775897549E-01
  0.946775900656E-01
  0.946775900187E-01
  0.946775898834E-01
  0.946775898988E-01
  0.946775901713E-01
  0.946775902047E-01
  0.946775899131E-01
  0.946775899115E-01
  0.946775895431E-01
  0.946775894974E-01
  0.946775889696E-01
  0.946775890041E-01
  0.946775896885E-01
  0.946775896578E-01
  0.946775896828E-01
  0.946775901321E-01
  0.946775939012E-01
  0.946775866908E-01
  0.946775836121E-01
  0.946775838598E-01
  0.946775850850E-01
  0.946775850298E-01
  0.946775844005E-01
  0.946775843744E-01
  0.946775843035E-01
  0.946775843875E-01
  0.946775857870E-01
  0.946775857024E-01
  0.946775836809E-01
  0.946775837048E-01
  0.946775831806E-01
  0.946775832679E-01
  0.946775851962E-01
  0.946775851336E-01
  0.946775851335E-01
  0.946775851711E-01
  0.946775854772E-01
  0.946775853952E-01
  0.946775846533E-01
  0.946775846953E-01
  0.946775845788E-01
  0.946775846507E-01
  0.946775845594E-01
  0.946775845764E-01
  0.946775852428E-01
  0.946775851542E-01
  0.946775840287E-01
  0.946775841220E-01
  0.946775852731E-01
  0.946775851533E-01
  0.946775833263E-01
  0.946775833945E-01
  0.946775845243E-01
  0.946775844957E-01
  0.946775840829E-01
  0.946775841013E-01
  0.946775835816E-01
  0.946775835514E-01
  0.946775835269E-01
  0.946775835294E-01
  0.946775845913E-01
  0.946775845259E-01
  0.946775838502E-01
  0.946775838815E-01
  0.946775838784E-01
  0.946775842340E-01
  0.946775829867E-01
  0.946775869573E-01
  0.946775855934E-01
  0.946775855484E-01
  0.946775847102E-01
  0.946775848065E-01
  0.946775856657E-01
  0.946775857004E-01
  0.946775873396E-01
  0.946775872102E-01
  0.946775840925E-01
  0.946775841949E-01
  0.946775853876E-01
  0.946775853597E-01
  0.946775869126E-01
  0.946775867549E-01
  0.946775836838E-01
  0.946775838283E-01
  0.946775847099E-01
  0.946775847329E-01
  0.946775845139E-01
  0.946775845634E-01
  0.946775861824E-01
  0.946775860628E-01
  0.946775844931E-01
  0.946775846624E-01
  0.946775862570E-01
  0.946775862208E-01
  0.946775855278E-01
  0.946775855617E-01
  0.946775866302E-01
  0.946775864831E-01
  0.946775841757E-01
  0.946775842239E-01
  0.946775854162E-01
  0.946775852955E-01
  0.946775845684E-01
  0.946775845386E-01
  0.946775832189E-01
  0.946775833685E-01
  0.946775858134E-01
  0.946775858389E-01
  0.946775872730E-01
  0.946775871242E-01
  0.946775848817E-01
  0.946775849722E-01
  0.946775860834E-01
  0.946775860546E-01
  0.946775859336E-01
  0.946775861099E-01
  0.946775834233E-01
  0.946775867634E-01
  0.946775946885E-01
  0.946775942983E-01
  0.946775899754E-01
  0.946775899759E-01
  0.946775892965E-01
  0.946775893027E-01
  0.946775878446E-01
  0.946775880789E-01
  0.946775924024E-01
  0.946775923382E-01
  0.946775930377E-01
  0.946775929039E-01
  0.946775897520E-01
  0.946775898693E-01
  0.946775927858E-01
  0.946775926445E-01
  0.946775912654E-01
  0.946775912962E-01
  0.946775904317E-01
  0.946775905043E-01
  0.946775911455E-01
  0.946775910805E-01
  0.946775901735E-01
  0.946775900615E-01
  0.946775870595E-01
  0.946775871863E-01
  0.946775881505E-01
  0.946775882653E-01
  0.946775904248E-01
  0.946775903247E-01
  0.946775899131E-01
  0.946775899022E-01
  0.946775915094E-01
  0.946775914728E-01
  0.946775915549E-01
  0.946775915250E-01
  0.946775923471E-01
  0.946775923473E-01
  0.946775913046E-01
  0.946775914045E-01
  0.946775898996E-01
  0.946775900481E-01
  0.946775934797E-01
  0.946775932786E-01
  0.946775908645E-01
  0.946775909374E-01
  0.946775914073E-01
  0.946775922800E-01
  0.946776042564E-01
  0.946775854669E-01
  0.946775797442E-01
  0.946775799625E-01
  0.946775826675E-01
  0.946775826249E-01
  0.946775866360E-01
  0.946775866007E-01
  0.946775865724E-01
  0.946775864863E-01
  0.946775820304E-01
  0.946775821385E-01
  0.946775805819E-01
  0.946775806135E-01
  0.946775829759E-01
  0.946775827629E-01
  0.946775800092E-01
  0.946775800425E-01
  0.946775801020E-01
  0.946775801077E-01
  0.946775811701E-01
  0.946775812363E-01
  0.946775820838E-01
  0.946775820350E-01
  0.946775816276E-01
  0.946775816209E-01
  0.946775846349E-01
  0.946775844225E-01
  0.946775813334E-01
  0.946775815667E-01
  0.946775827413E-01
  0.946775828742E-01
  0.946775848844E-01
  0.946775847302E-01
  0.946775824704E-01
  0.946775825851E-01
  0.946775836598E-01
  0.946775836687E-01
  0.946775843129E-01
  0.946775842005E-01
  0.946775811401E-01
  0.946775812010E-01
  0.946775816220E-01
  0.946775816366E-01
  0.946775807733E-01
  0.946775811097E-01
  0.946775874868E-01
  0.946775870986E-01
  0.946775810353E-01
  0.946775814909E-01
  0.946775730408E-01
  0.946775855833E-01
  0.946775829240E-01
  0.946775828212E-01
  0.946775824016E-01
  0.946775824696E-01
  0.946775818035E-01
  0.946775819854E-01
  0.946775821130E-01
  0.946775819823E-01
  0.946775810779E-01
  0.946775811355E-01
  0.946775849998E-01
  0.946775849823E-01
  0.946775856695E-01
  0.946775855586E-01
  0.946775850922E-01
  0.946775848875E-01
  0.946775829326E-01
  0.946775828839E-01
  0.946775816743E-01
  0.946775817791E-01
  0.946775814111E-01
  0.946775815888E-01
  0.946775854104E-01
  0.946775853088E-01
  0.946775837657E-01
  0.946775837690E-01
  0.946775849679E-01
  0.946775848964E-01
  0.946775819118E-01
  0.946775820954E-01
  0.946775818658E-01
  0.946775818507E-01
  0.946775825491E-01
  0.946775825430E-01
  0.946775825045E-01
  0.946775825520E-01
  0.946775821750E-01
  0.946775820383E-01
  0.946775808174E-01
  0.946775809896E-01
  0.946775867107E-01
  0.946775867150E-01
  0.946775860308E-01
  0.946775858735E-01
  0.946775764603E-01
  0.946775766675E-01
  0.946775821233E-01
  0.946775823339E-01
  0.946775838900E-01
  0.946775858506E-01
  0.946775950417E-01
  0.946775948195E-01
  0.946775949871E-01
  0.946775947195E-01
  0.946775874622E-01
  0.946775878915E-01
  0.946775943088E-01
  0.946775942340E-01
  0.946775953763E-01
  0.946775949626E-01
  0.946775851144E-01
  0.946775854645E-01
  0.946775896903E-01
  0.946775897685E-01
  0.946775933621E-01
  0.946775932740E-01
  0.946775964640E-01
  0.946775965184E-01
  0.946776010333E-01
  0.946776008559E-01
  0.946775956912E-01
  0.946775959245E-01
  0.946775976057E-01
  0.946775976163E-01
  0.946775960116E-01
  0.946775960671E-01
  0.946775989564E-01
  0.946775988624E-01
  0.946775970302E-01
  0.946775969854E-01
  0.946775949978E-01
  0.946775949757E-01
  0.946775950655E-01
  0.946775949758E-01
  0.946775922901E-01
  0.946775922711E-01
  0.946775907855E-01
  0.946775908636E-01
  0.946775962165E-01
  0.946775961353E-01
  0.946775916460E-01
  0.946775920244E-01
  0.946775943653E-01
  0.946775941859E-01
  0.946775944284E-01
  0.946775943071E-01
  0.946775970600E-01
  0.946775975931E-01
  0.946775990362E-01
  0.946775843845E-01
  0.946775856764E-01
  0.946775854774E-01
  0.946775760666E-01
  0.946775760587E-01
  0.946775823688E-01
  0.946775822403E-01
  0.946775761838E-01
  0.946775764107E-01
  0.946775769793E-01
  0.946775769804E-01
  0.946775861053E-01
  0.946775858456E-01
  0.946775813007E-01
  0.946775814559E-01
  0.946775787866E-01
  0.946775788826E-01
  0.946775795815E-01
  0.946775797473E-01
  0.946775790626E-01
  0.946775792000E-01
  0.946775821622E-01
  0.946775821818E-01
  0.946775824540E-01
  0.946775823875E-01
  0.946775786344E-01
  0.946775786040E-01
  0.946775781996E-01
  0.946775784309E-01
  0.946775834221E-01
  0.946775832095E-01
  0.946775810071E-01
  0.946775807482E-01
  0.946775769903E-01
  0.946775770874E-01
  0.946775816577E-01
  0.946775816615E-01
  0.946775851508E-01
  0.946775849447E-01
  0.946775794570E-01
  0.946775796870E-01
  0.946775816464E-01
  0.946775815726E-01
  0.946775751440E-01
  0.946775753739E-01
  0.946775830596E-01
  0.946775828350E-01
  0.946775799883E-01
  0.946775812240E-01
  0.946775957965E-01
  0.946775891576E-01
  0.946775708261E-01
  0.946775709059E-01
  0.946775770363E-01
  0.946775770038E-01
  0.946775865020E-01
  0.946775865706E-01
  0.946775850775E-01
  0.946775849293E-01
  0.946775813449E-01
  0.946775810985E-01
  0.946775738031E-01
  0.946775741449E-01
  0.946775805327E-01
  0.946775806590E-01
  0.946775847937E-01
  0.946775846393E-01
  0.946775807611E-01
  0.946775805847E-01
  0.946775705928E-01
  0.946775708697E-01
  0.946775753787E-01
  0.946775755719E-01
  0.946775770556E-01
  0.946775772663E-01
  0.946775844537E-01
  0.946775840720E-01
  0.946775786401E-01
  0.946775782757E-01
  0.946775626318E-01
  0.946775629561E-01
  0.946775720605E-01
  0.946775719129E-01
  0.946775772942E-01
  0.946775771954E-01
  0.946775759671E-01
  0.946775762899E-01
  0.946775799638E-01
  0.946775797625E-01
  0.946775761213E-01
  0.946775761829E-01
  0.946775775646E-01
  0.946775778625E-01
  0.946775857841E-01
  0.946775856812E-01
  0.946775836391E-01
  0.946775835264E-01
  0.946775782507E-01
  0.946775780991E-01
  0.946775437171E-01
  0.946775912956E-01
  0.946776005633E-01
  0.946776002886E-01
  0.946776096981E-01
  0.946776091970E-01
  0.946775890255E-01
  0.946775894200E-01
  0.946775886747E-01
  0.946775889070E-01
  0.946776015424E-01
  0.946776008948E-01
  0.946775931094E-01
  0.946775933233E-01
  0.946775974529E-01
  0.946775979012E-01
  0.946776003765E-01
  0.946775998809E-01
  0.946775855426E-01
  0.946775859525E-01
  0.946776071246E-01
  0.946776065875E-01
  0.946775937102E-01
  0.946775937521E-01
  0.946775845242E-01
  0.946775847194E-01
  0.946775826778E-01
  0.946775826713E-01
  0.946775858346E-01
  0.946775860519E-01
  0.946776087526E-01
  0.946776081906E-01
  0.946775992930E-01
  0.946775995975E-01
  0.946776029261E-01
  0.946776028950E-01
  0.946775990792E-01
  0.946775990821E-01
  0.946775911255E-01
  0.946775912150E-01
  0.946775956995E-01
  0.946775956900E-01
  0.946775975421E-01
  0.946775973802E-01
  0.946775825652E-01
  0.946775828867E-01
  0.946775866833E-01
  0.946775868483E-01
  0.946775970906E-01
  0.946775976262E-01
  0.946776232208E-01
  0.946775869551E-01
  0.946775797116E-01
  0.946775797098E-01
  0.946775782629E-01
  0.946775784621E-01
  0.946775901083E-01
  0.946775897933E-01
  0.946775893579E-01
  0.946775892627E-01
  0.946775799081E-01
  0.946775801159E-01
  0.946775931277E-01
  0.946775927069E-01
  0.946775813474E-01
  0.946775818967E-01
  0.946775806141E-01
  0.946775807367E-01
  0.946775972603E-01
  0.946775963351E-01
  0.946775702695E-01
  0.946775710416E-01
  0.946775890018E-01
  0.946775887568E-01
  0.946775936274E-01
  0.946775932705E-01
  0.946775860196E-01
  0.946775862404E-01
  0.946775954692E-01
  0.946775956329E-01
  0.946775905897E-01
  0.946775912025E-01
  0.946776033496E-01
  0.946776027259E-01
  0.946775834701E-01
  0.946775837778E-01
  0.946775907173E-01
  0.946775905907E-01
  0.946775906550E-01
  0.946775905189E-01
  0.946775920351E-01
  0.946775918821E-01
  0.946775826361E-01
  0.946775832075E-01
  0.946776039552E-01
  0.946776035229E-01
  0.946775959965E-01
  0.946775963419E-01
  0.946775978793E-01
  0.946775984981E-01
  0.946775901265E-01
  0.946775860482E-01
  0.946775948659E-01
  0.946775946372E-01
  0.946775948624E-01
  0.946775951561E-01
  0.946775998222E-01
  0.946775994771E-01
  0.946775860849E-01
  0.946775863046E-01
  0.946775971576E-01
  0.946775970302E-01
  0.946775959293E-01
  0.946775957011E-01
  0.946775882108E-01
  0.946775884869E-01
  0.946775915610E-01
  0.946775918154E-01
  0.946775975229E-01
  0.946775972653E-01
  0.946776017052E-01
  0.946776011482E-01
  0.946775850274E-01
  0.946775855053E-01
  0.946775902417E-01
  0.946775909859E-01
  0.946776221393E-01
  0.946776211864E-01
  0.946775901739E-01
  0.946775903199E-01
  0.946775799129E-01
  0.946775800011E-01
  0.946775680675E-01
  0.946775686086E-01
  0.946775941161E-01
  0.946775937802E-01
  0.946775930450E-01
  0.946775931909E-01
  0.946775947967E-01
  0.946775947370E-01
  0.946775971876E-01
  0.946775973762E-01
  0.946776070335E-01
  0.946776066494E-01
  0.946775849665E-01
  0.946775853423E-01
  0.946775899226E-01
  0.946775897704E-01
  0.946775813572E-01
  0.946775819387E-01
  0.946775790742E-01
  0.946775718129E-01
  0.946775622844E-01
  0.946775623059E-01
  0.946775617112E-01
  0.946775619721E-01
  0.946775605750E-01
  0.946775602373E-01
  0.946775555469E-01
  0.946775555215E-01
  0.946775611501E-01
  0.946775615159E-01
  0.946775672643E-01
  0.946775670028E-01
  0.946775670065E-01
  0.946775668515E-01
  0.946775597111E-01
  0.946775597284E-01
  0.946775481777E-01
  0.946775485511E-01
  0.946775645804E-01
  0.946775644892E-01
  0.946775760849E-01
  0.946775752718E-01
  0.946775471817E-01
  0.946775478584E-01
  0.946775404696E-01
  0.946775407625E-01
  0.946775513246E-01
  0.946775506766E-01
  0.946775557782E-01
  0.946775557510E-01
  0.946775627449E-01
  0.946775629622E-01
  0.946775642856E-01
  0.946775645003E-01
  0.946775567124E-01
  0.946775570013E-01
  0.946775627853E-01
  0.946775629136E-01
  0.946775677871E-01
  0.946775674460E-01
  0.946775463096E-01
  0.946775467748E-01
  0.946775662526E-01
  0.946775655398E-01
  0.946775504354E-01
  0.946775507743E-01
  0.946775631083E-01
  0.946775642724E-01
  0.946775935876E-01
  0.946775807369E-01
  0.946775956754E-01
  0.946775950433E-01
  0.946775809311E-01
  0.946775812497E-01
  0.946775840201E-01
  0.946775842044E-01
  0.946776049974E-01
  0.946776047724E-01
  0.946776023488E-01
  0.946776024726E-01
  0.946775875616E-01
  0.946775878000E-01
  0.946776002118E-01
  0.946776001827E-01
  0.946776048328E-01
  0.946776045200E-01
  0.946775998494E-01
  0.946775997740E-01
  0.946775953836E-01
  0.946775955712E-01
  0.946775889406E-01
  0.946775892135E-01
  0.946776171432E-01
  0.946776164677E-01
  0.946775961334E-01
  0.946775965374E-01
  0.946776084569E-01
  0.946776082024E-01
  0.946776115947E-01
  0.946776116670E-01
  0.946776099587E-01
  0.946776094477E-01
  0.946775751050E-01
  0.946775761142E-01
  0.946776041191E-01
  0.946776039263E-01
  0.946775943411E-01
  0.946775946803E-01
  0.946775963757E-01
  0.946775967443E-01
  0.946776178519E-01
  0.946776171785E-01
  0.946775973918E-01
  0.946775975606E-01
  0.946776095882E-01
  0.946776089091E-01
  0.946775872062E-01
  0.946775878104E-01
  0.946775540537E-01
  0.946775887495E-01
  0.946775805475E-01
  0.946775808080E-01
  0.946775998721E-01
  0.946775995438E-01
  0.946775891837E-01
  0.946775894512E-01
  0.946775897777E-01
  0.946775898339E-01
  0.946775788784E-01
  0.946775795238E-01
  0.946776024268E-01
  0.946776021709E-01
  0.946775986180E-01
  0.946775988291E-01
  0.946775951152E-01
  0.946775950763E-01
  0.946776008590E-01
  0.946776004467E-01
  0.946775922292E-01
  0.946775924113E-01
  0.946775968272E-01
  0.946775967691E-01