# vtk DataFile Version 3.0
MachLine results file. Generated by MachLine, USU AeroLab (c) 2022.
ASCII
DATASET POLYDATA
POINTS                 781 float
  0.114300523028E+02  0.000000000000E+00  0.000000000000E+00
  0.110490505593E+02  0.333333333333E-01  0.000000000000E+00
  0.110490505593E+02  0.330704900438E-01  0.417777445214E-02
  0.110490505593E+02  0.322861053710E-01  0.828966290550E-02
  0.110490505593E+02  0.309925495296E-01  0.122708184228E-01
  0.110490505593E+02  0.292102226681E-01  0.160584558034E-01
  0.110490505593E+02  0.269672331458E-01  0.195928417431E-01
  0.110490505593E+02  0.242989542474E-01  0.228182368643E-01
  0.110490505593E+02  0.212474663250E-01  0.256837747592E-01
  0.110490505593E+02  0.178608931660E-01  0.281442641834E-01
  0.110490505593E+02  0.141926430522E-01  0.301609017489E-01
  0.110490505593E+02  0.103005664792E-01  0.317018838765E-01
  0.110490505593E+02  0.624604381952E-02  0.327429083576E-01
  0.110490505593E+02  0.209301731764E-02  0.332675576143E-01
  0.110490505593E+02 -0.209301731764E-02  0.332675576143E-01
  0.110490505593E+02 -0.624604381952E-02  0.327429083576E-01
  0.110490505593E+02 -0.103005664792E-01  0.317018838765E-01
  0.110490505593E+02 -0.141926430522E-01  0.301609017489E-01
  0.110490505593E+02 -0.178608931660E-01  0.281442641834E-01
  0.110490505593E+02 -0.212474663250E-01  0.256837747592E-01
  0.110490505593E+02 -0.242989542474E-01  0.228182368643E-01
  0.110490505593E+02 -0.269672331458E-01  0.195928417431E-01
  0.110490505593E+02 -0.292102226681E-01  0.160584558034E-01
  0.110490505593E+02 -0.309925495296E-01  0.122708184228E-01
  0.110490505593E+02 -0.322861053710E-01  0.828966290550E-02
  0.110490505593E+02 -0.330704900438E-01  0.417777445214E-02
  0.110490505593E+02 -0.333333333333E-01  0.408215599716E-17
  0.106680488159E+02  0.666666666667E-01  0.000000000000E+00
  0.106680488159E+02  0.661409800876E-01  0.835554890429E-02
  0.106680488159E+02  0.645722107419E-01  0.165793258110E-01
  0.106680488159E+02  0.619850990592E-01  0.245416368456E-01
  0.106680488159E+02  0.584204453363E-01  0.321169116068E-01
  0.106680488159E+02  0.539344662917E-01  0.391856834862E-01
  0.106680488159E+02  0.485979084948E-01  0.456364737286E-01
  0.106680488159E+02  0.424949326499E-01  0.513675495184E-01
  0.106680488159E+02  0.357217863319E-01  0.562885283668E-01
  0.106680488159E+02  0.283852861043E-01  0.603218034977E-01
  0.106680488159E+02  0.206011329583E-01  0.634037677530E-01
  0.106680488159E+02  0.124920876390E-01  0.654858167152E-01
  0.106680488159E+02  0.418603463529E-02  0.665351152286E-01
  0.106680488159E+02 -0.418603463529E-02  0.665351152286E-01
  0.106680488159E+02 -0.124920876390E-01  0.654858167152E-01
  0.106680488159E+02 -0.206011329583E-01  0.634037677530E-01
  0.106680488159E+02 -0.283852861043E-01  0.603218034977E-01
  0.106680488159E+02 -0.357217863319E-01  0.562885283668E-01
  0.106680488159E+02 -0.424949326499E-01  0.513675495184E-01
  0.106680488159E+02 -0.485979084948E-01  0.456364737286E-01
  0.106680488159E+02 -0.539344662917E-01  0.391856834862E-01
  0.106680488159E+02 -0.584204453363E-01  0.321169116068E-01
  0.106680488159E+02 -0.619850990592E-01  0.245416368456E-01
  0.106680488159E+02 -0.645722107419E-01  0.165793258110E-01
  0.106680488159E+02 -0.661409800876E-01  0.835554890429E-02
  0.106680488159E+02 -0.666666666667E-01  0.816431199432E-17
  0.102870470725E+02  0.100000000000E+00  0.000000000000E+00
  0.102870470725E+02  0.992114701314E-01  0.125333233564E-01
  0.102870470725E+02  0.968583161129E-01  0.248689887165E-01
  0.102870470725E+02  0.929776485888E-01  0.368124552685E-01
  0.102870470725E+02  0.876306680044E-01  0.481753674102E-01
  0.102870470725E+02  0.809016994375E-01  0.587785252292E-01
  0.102870470725E+02  0.728968627421E-01  0.684547105929E-01
  0.102870470725E+02  0.637423989749E-01  0.770513242776E-01
  0.102870470725E+02  0.535826794979E-01  0.844327925502E-01
  0.102870470725E+02  0.425779291565E-01  0.904827052466E-01
  0.102870470725E+02  0.309016994375E-01  0.951056516295E-01
  0.102870470725E+02  0.187381314586E-01  0.982287250729E-01
  0.102870470725E+02  0.627905195293E-02  0.998026728428E-01
  0.102870470725E+02 -0.627905195293E-02  0.998026728428E-01
  0.102870470725E+02 -0.187381314586E-01  0.982287250729E-01
  0.102870470725E+02 -0.309016994375E-01  0.951056516295E-01
  0.102870470725E+02 -0.425779291565E-01  0.904827052466E-01
  0.102870470725E+02 -0.535826794979E-01  0.844327925502E-01
  0.102870470725E+02 -0.637423989749E-01  0.770513242776E-01
  0.102870470725E+02 -0.728968627421E-01  0.684547105929E-01
  0.102870470725E+02 -0.809016994375E-01  0.587785252292E-01
  0.102870470725E+02 -0.876306680044E-01  0.481753674102E-01
  0.102870470725E+02 -0.929776485888E-01  0.368124552685E-01
  0.102870470725E+02 -0.968583161129E-01  0.248689887165E-01
  0.102870470725E+02 -0.992114701314E-01  0.125333233564E-01
  0.102870470725E+02 -0.100000000000E+00  0.122464679915E-16
  0.990604532906E+01  0.133333333333E+00  0.000000000000E+00
  0.990604532906E+01  0.132281960175E+00  0.167110978086E-01
  0.990604532906E+01  0.129144421484E+00  0.331586516220E-01
  0.990604532906E+01  0.123970198118E+00  0.490832736913E-01
  0.990604532906E+01  0.116840890673E+00  0.642338232136E-01
  0.990604532906E+01  0.107868932583E+00  0.783713669723E-01
  0.990604532906E+01  0.971958169895E-01  0.912729474572E-01
  0.990604532906E+01  0.849898652998E-01  0.102735099037E+00
  0.990604532906E+01  0.714435726639E-01  0.112577056734E+00
  0.990604532906E+01  0.567705722087E-01  0.120643606995E+00
  0.990604532906E+01  0.412022659167E-01  0.126807535506E+00
  0.990604532906E+01  0.249841752781E-01  0.130971633430E+00
  0.990604532906E+01  0.837206927058E-02  0.133070230457E+00
  0.990604532906E+01 -0.837206927058E-02  0.133070230457E+00
  0.990604532906E+01 -0.249841752781E-01  0.130971633430E+00
  0.990604532906E+01 -0.412022659167E-01  0.126807535506E+00
  0.990604532906E+01 -0.567705722087E-01  0.120643606995E+00
  0.990604532906E+01 -0.714435726639E-01  0.112577056734E+00
  0.990604532906E+01 -0.849898652998E-01  0.102735099037E+00
  0.990604532906E+01 -0.971958169895E-01  0.912729474572E-01
  0.990604532906E+01 -0.107868932583E+00  0.783713669723E-01
  0.990604532906E+01 -0.116840890673E+00  0.642338232136E-01
  0.990604532906E+01 -0.123970198118E+00  0.490832736913E-01
  0.990604532906E+01 -0.129144421484E+00  0.331586516220E-01
  0.990604532906E+01 -0.132281960175E+00  0.167110978086E-01
  0.990604532906E+01 -0.133333333333E+00  0.163286239886E-16
  0.952504358563E+01  0.166666666667E+00  0.000000000000E+00
  0.952504358563E+01  0.165352450219E+00  0.208888722607E-01
  0.952504358563E+01  0.161430526855E+00  0.414483145275E-01
  0.952504358563E+01  0.154962747648E+00  0.613540921141E-01
  0.952504358563E+01  0.146051113341E+00  0.802922790170E-01
  0.952504358563E+01  0.134836165729E+00  0.979642087154E-01
  0.952504358563E+01  0.121494771237E+00  0.114091184321E+00
  0.952504358563E+01  0.106237331625E+00  0.128418873796E+00
  0.952504358563E+01  0.893044658298E-01  0.140721320917E+00
  0.952504358563E+01  0.709632152608E-01  0.150804508744E+00
  0.952504358563E+01  0.515028323958E-01  0.158509419383E+00
  0.952504358563E+01  0.312302190976E-01  0.163714541788E+00
  0.952504358563E+01  0.104650865882E-01  0.166337788071E+00
  0.952504358563E+01 -0.104650865882E-01  0.166337788071E+00
  0.952504358563E+01 -0.312302190976E-01  0.163714541788E+00
  0.952504358563E+01 -0.515028323958E-01  0.158509419383E+00
  0.952504358563E+01 -0.709632152608E-01  0.150804508744E+00
  0.952504358563E+01 -0.893044658298E-01  0.140721320917E+00
  0.952504358563E+01 -0.106237331625E+00  0.128418873796E+00
  0.952504358563E+01 -0.121494771237E+00  0.114091184321E+00
  0.952504358563E+01 -0.134836165729E+00  0.979642087154E-01
  0.952504358563E+01 -0.146051113341E+00  0.802922790170E-01
  0.952504358563E+01 -0.154962747648E+00  0.613540921141E-01
  0.952504358563E+01 -0.161430526855E+00  0.414483145275E-01
  0.952504358563E+01 -0.165352450219E+00  0.208888722607E-01
  0.952504358563E+01 -0.166666666667E+00  0.204107799858E-16
  0.914404184221E+01  0.200000000000E+00  0.000000000000E+00
  0.914404184221E+01  0.198422940263E+00  0.250666467129E-01
  0.914404184221E+01  0.193716632226E+00  0.497379774330E-01
  0.914404184221E+01  0.185955297178E+00  0.736249105369E-01
  0.914404184221E+01  0.175261336009E+00  0.963507348203E-01
  0.914404184221E+01  0.161803398875E+00  0.117557050458E+00
  0.914404184221E+01  0.145793725484E+00  0.136909421186E+00
  0.914404184221E+01  0.127484797950E+00  0.154102648555E+00
  0.914404184221E+01  0.107165358996E+00  0.168865585100E+00
  0.914404184221E+01  0.851558583130E-01  0.180965410493E+00
  0.914404184221E+01  0.618033988750E-01  0.190211303259E+00
  0.914404184221E+01  0.374762629171E-01  0.196457450146E+00
  0.914404184221E+01  0.125581039059E-01  0.199605345686E+00
  0.914404184221E+01 -0.125581039059E-01  0.199605345686E+00
  0.914404184221E+01 -0.374762629171E-01  0.196457450146E+00
  0.914404184221E+01 -0.618033988750E-01  0.190211303259E+00
  0.914404184221E+01 -0.851558583130E-01  0.180965410493E+00
  0.914404184221E+01 -0.107165358996E+00  0.168865585100E+00
  0.914404184221E+01 -0.127484797950E+00  0.154102648555E+00
  0.914404184221E+01 -0.145793725484E+00  0.136909421186E+00
  0.914404184221E+01 -0.161803398875E+00  0.117557050458E+00
  0.914404184221E+01 -0.175261336009E+00  0.963507348203E-01
  0.914404184221E+01 -0.185955297178E+00  0.736249105369E-01
  0.914404184221E+01 -0.193716632226E+00  0.497379774330E-01
  0.914404184221E+01 -0.198422940263E+00  0.250666467129E-01
  0.914404184221E+01 -0.200000000000E+00  0.244929359829E-16
  0.876304009878E+01  0.233333333333E+00  0.000000000000E+00
  0.876304009878E+01  0.231493430307E+00  0.292444211650E-01
  0.876304009878E+01  0.226002737597E+00  0.580276403385E-01
  0.876304009878E+01  0.216947846707E+00  0.858957289598E-01
[...]
CELL_DATA                1475
SCALARS C_p_ise float 1
LOOKUP_TABLE default
  0.316423352290E-01
  0.316423351954E-01
  0.316423351984E-01
  0.316423351991E-01
  0.316423351982E-01
  0.316423351983E-01
  0.316423351978E-01
  0.316423351996E-01
  0.316423351998E-01
  0.316423351971E-01
  0.316423351951E-01
  0.316423351935E-01
  0.316423351948E-01
  0.316423351943E-01
  0.316423351943E-01
  0.316423351979E-01
  0.316423352002E-01
  0.316423351983E-01
  0.316423351970E-01
  0.316423351957E-01
  0.316423351963E-01
  0.316423351982E-01
  0.316423351977E-01
  0.316423351964E-01
  0.316423351557E-01
  0.316423347641E-01
  0.316423348564E-01
  0.316423348195E-01
  0.316423348098E-01
  0.316423348147E-01
  0.316423348202E-01
  0.316423348202E-01
  0.316423348181E-01
  0.316423348185E-01
  0.316423348222E-01
  0.316423348172E-01
  0.316423348015E-01
  0.316423348053E-01
  0.316423348182E-01
  0.316423348172E-01
  0.316423348088E-01
  0.316423348108E-01
  0.316423348163E-01
  0.316423348156E-01
  0.316423348219E-01
  0.316423348233E-01
  0.316423348334E-01
  0.316423348255E-01
  0.316423348069E-01
  0.316423348091E-01
  0.316423348120E-01
  0.316423348134E-01
  0.316423348189E-01
  0.316423348181E-01
  0.316423348158E-01
  0.316423348126E-01
  0.316423347926E-01
  0.316423347992E-01
  0.316423348118E-01
  0.316423348127E-01
  0.316423348209E-01
  0.316423348185E-01
  0.316423348155E-01
  0.316423348153E-01
  0.316423348185E-01
  0.316423348173E-01
  0.316423348119E-01
  0.316423348163E-01
  0.316423348238E-01
  0.316423348216E-01
  0.316423348165E-01
  0.316423348162E-01
  0.316423348192E-01
  0.316423348388E-01
  0.316423350199E-01
  0.316423348341E-01
  0.316423348116E-01
  0.316423348132E-01
  0.316423348516E-01
  0.316423348455E-01
  0.316423348068E-01
  0.316423348092E-01
  0.316423348118E-01
  0.316423348081E-01
  0.316423347917E-01
  0.316423348040E-01
  0.316423348844E-01
  0.316423348750E-01
  0.316423348350E-01
  0.316423348360E-01
  0.316423348249E-01
  0.316423348331E-01
  0.316423348778E-01
  0.316423348692E-01
  0.316423348204E-01
  0.316423348236E-01
  0.316423348222E-01
  0.316423348302E-01
  0.316423348925E-01
  0.316423348808E-01
  0.316423348420E-01
  0.316423348406E-01
  0.316423348222E-01
  0.316423348297E-01
  0.316423348617E-01
  0.316423348486E-01
  0.316423348029E-01
  0.316423348018E-01
  0.316423347971E-01
  0.316423348082E-01
  0.316423348384E-01
  0.316423348367E-01
  0.316423348262E-01
  0.316423348278E-01
  0.316423348422E-01
  0.316423348422E-01
  0.316423348429E-01
  0.316423348428E-01
  0.316423348292E-01
  0.316423348307E-01
  0.316423348367E-01
  0.316423348366E-01
  0.316423348461E-01
  0.316423348660E-01
  0.316423348624E-01
  0.316423347925E-01
  0.316423348295E-01
  0.316423348192E-01
  0.316423347678E-01
  0.316423347719E-01
  0.316423347893E-01
  0.316423347904E-01
  0.316423348358E-01
  0.316423348310E-01
  0.316423348195E-01
  0.316423348092E-01
  0.316423346742E-01
  0.316423346958E-01
  0.316423347998E-01
  0.316423347911E-01
  0.316423347789E-01
  0.316423347779E-01
  0.316423347293E-01
  0.316423347411E-01
  0.316423348211E-01
  0.316423348097E-01
  0.316423347758E-01
  0.316423347791E-01
  0.316423347483E-01
  0.316423347532E-01
  0.316423347828E-01
  0.316423347780E-01
  0.316423348085E-01
  0.316423347970E-01
  0.316423346901E-01
  0.316423347080E-01
  0.316423348799E-01
  0.316423348635E-01
  0.316423348205E-01
  0.316423348295E-01
  0.316423348221E-01
  0.316423348204E-01
  0.316423347785E-01
  0.316423347740E-01
  0.316423347460E-01
  0.316423347501E-01
  0.316423347588E-01
  0.316423347642E-01
  0.316423348019E-01
  0.316423347945E-01
  0.316423347511E-01
  0.316423347607E-01
  0.316423348201E-01
  0.316423348495E-01
  0.316423349032E-01
  0.316423349286E-01
  0.316423349323E-01
  0.316423349471E-01
  0.316423351262E-01
  0.316423351131E-01
  0.316423350248E-01
  0.316423350167E-01
  0.316423349122E-01
  0.316423349287E-01
  0.316423350618E-01
  0.316423350532E-01
  0.316423350822E-01
  0.316423350747E-01
  0.316423349874E-01
  0.316423350008E-01
  0.316423350660E-01
  0.316423350598E-01
  0.316423350289E-01
  0.316423350284E-01
  0.316423349805E-01
  0.316423349792E-01
  0.316423349673E-01
  0.316423349638E-01
  0.316423349461E-01
  0.316423349517E-01
  0.316423349977E-01
  0.316423350000E-01
  0.316423350262E-01
  0.316423350247E-01
  0.316423350750E-01
  0.316423350685E-01
  0.316423349873E-01
  0.316423349918E-01
  0.316423349585E-01
  0.316423349609E-01
  0.316423349561E-01
  0.316423349619E-01
  0.316423350386E-01
  0.316423350317E-01
  0.316423350631E-01
  0.316423350644E-01
  0.316423350751E-01
  0.316423350690E-01
  0.316423349550E-01
  0.316423349628E-01
  0.316423350514E-01
  0.316423350510E-01
  0.316423350167E-01
  0.316423350716E-01
  0.316423352245E-01
  0.316423343540E-01
  0.316423344629E-01
  0.316423344487E-01
  0.316423341244E-01
  0.316423341430E-01
  0.316423342731E-01
  0.316423342761E-01
  0.316423345052E-01
  0.316423344932E-01
  0.316423343075E-01
  0.316423343181E-01
  0.316423343683E-01
  0.316423343715E-01
  0.316423344533E-01
  0.316423344431E-01
  0.316423342896E-01
  0.316423343015E-01
  0.316423344209E-01
  0.316423344076E-01
  0.316423343043E-01
  0.316423343039E-01
  0.316423343717E-01
  0.316423343830E-01
  0.316423345602E-01
  0.316423345507E-01
  0.316423344064E-01
  0.316423343981E-01
  0.316423342247E-01
  0.316423342414E-01
  0.316423344099E-01
  0.316423344014E-01
  0.316423343170E-01
  0.316423343109E-01
  0.316423342931E-01
  0.316423342875E-01
  0.316423342400E-01
  0.316423342543E-01
  0.316423343540E-01
  0.316423343499E-01
  0.316423342871E-01
  0.316423342931E-01
  0.316423343059E-01
  0.316423343071E-01
  0.316423343740E-01
  0.316423343650E-01
  0.316423343193E-01
  0.316423343258E-01
  0.316423342934E-01
  0.316423343571E-01
  0.316423344960E-01
  0.316423351387E-01
  0.316423351660E-01
  0.316423351846E-01
  0.316423354821E-01
  0.316423354662E-01
  0.316423353998E-01
  0.316423353891E-01
  0.316423350570E-01
  0.316423350876E-01
  0.316423353692E-01
  0.316423353545E-01
  0.316423352431E-01
  0.316423352405E-01
  0.316423351065E-01
  0.316423351229E-01
  0.316423353729E-01
  0.316423353606E-01
  0.316423352271E-01
  0.316423352451E-01
  0.316423355098E-01
  0.316423354923E-01
  0.316423353920E-01
  0.316423353919E-01
  0.316423351643E-01
  0.316423351802E-01
  0.316423353008E-01
  0.316423353007E-01
  0.316423355776E-01
  0.316423355499E-01
  0.316423351766E-01
  0.316423352062E-01
  0.316423355028E-01
  0.316423354807E-01
  0.316423353729E-01
  0.316423353703E-01
  0.316423354301E-01
  0.316423354207E-01
  0.316423351675E-01
  0.316423351915E-01
  0.316423354383E-01
  0.316423354243E-01
  0.316423352394E-01
  0.316423352456E-01
  0.316423352951E-01
  0.316423353001E-01
  0.316423354034E-01
  0.316423353903E-01
  0.316423351899E-01
  0.316423352578E-01
  0.316423353502E-01
  0.316423348990E-01
  0.316423350552E-01
  0.316423350435E-01
  0.316423345565E-01
  0.316423345740E-01
  0.316423347328E-01
  0.316423347405E-01
  0.316423350939E-01
  0.316423350666E-01
  0.316423345829E-01
  0.316423346148E-01
  0.316423349897E-01
  0.316423349786E-01
  0.316423349792E-01
  0.316423349811E-01
  0.316423349183E-01
  0.316423349300E-01
  0.316423350019E-01
  0.316423349818E-01
  0.316423345649E-01
  0.316423345780E-01
  0.316423347316E-01
  0.316423347319E-01
  0.316423348535E-01
  0.316423348548E-01
  0.316423348973E-01
  0.316423349034E-01
  0.316423348574E-01
  0.316423348554E-01
  0.316423349212E-01
  0.316423349019E-01
  0.316423345975E-01
  0.316423346126E-01
  0.316423348286E-01
  0.316423348173E-01
  0.316423348113E-01
  0.316423348199E-01
  0.316423350216E-01
  0.316423350193E-01
  0.316423349173E-01
  0.316423349176E-01
  0.316423348463E-01
  0.316423348328E-01
  0.316423347506E-01
  0.316423347580E-01
  0.316423347354E-01
  0.316423347462E-01
  0.316423349852E-01
  0.316423350545E-01
  0.316423353067E-01
  0.316423344042E-01
  0.316423340377E-01
  0.316423340598E-01
  0.316423344583E-01
  0.316423344355E-01
  0.316423343007E-01
  0.316423343106E-01
  0.316423341688E-01
  0.316423341827E-01
  0.316423344834E-01
  0.316423344669E-01
  0.316423341930E-01
  0.316423342074E-01
  0.316423342161E-01
  0.316423342161E-01
  0.316423341838E-01
  0.316423341739E-01
  0.316423338756E-01
  0.316423338895E-01
  0.316423343880E-01
  0.316423343631E-01
  0.316423341906E-01
  0.316423341821E-01
  0.316423338585E-01
  0.316423338639E-01
  0.316423337963E-01
  0.316423338159E-01
  0.316423339984E-01
  0.316423340169E-01
  0.316423344187E-01
  0.316423343850E-01
  0.316423340662E-01
  0.316423340636E-01
  0.316423341067E-01
  0.316423341138E-01
  0.316423341830E-01
  0.316423341841E-01
  0.316423340625E-01
  0.316423340736E-01
  0.316423340741E-01
  0.316423340775E-01
  0.316423342470E-01
  0.316423342257E-01
  0.316423341756E-01
  0.316423341718E-01
  0.316423340744E-01
  0.316423340958E-01
  0.316423343014E-01
  0.316423343953E-01
  0.316423345429E-01
  0.316423350276E-01
  0.316423349154E-01
  0.316423349007E-01
  0.316423346126E-01
  0.316423346333E-01
  0.316423350162E-01
  0.316423350165E-01
  0.316423349842E-01
  0.316423349843E-01
  0.316423348805E-01
  0.316423348797E-01
  0.316423348419E-01
  0.316423348279E-01
  0.316423345953E-01
  0.316423345957E-01
  0.316423345921E-01
  0.316423345790E-01
  0.316423345573E-01
  0.316423345486E-01
  0.316423344500E-01
  0.316423344807E-01
  0.316423349794E-01
  0.316423349720E-01
  0.316423351862E-01
  0.316423351610E-01
  0.316423349418E-01
  0.316423349522E-01
  0.316423348523E-01
  0.316423348740E-01
  0.316423347308E-01
  0.316423347476E-01
  0.316423352597E-01
  0.316423352363E-01
  0.316423351980E-01
  0.316423351788E-01
  0.316423346304E-01
  0.316423346653E-01
  0.316423352313E-01
  0.316423352124E-01
  0.316423347769E-01
  0.316423347801E-01
  0.316423347758E-01
  0.316423347813E-01
  0.316423350993E-01
  0.316423351049E-01
  0.316423353420E-01
  0.316423353279E-01
  0.316423347623E-01
  0.316423348791E-01
  0.316423350844E-01
  0.316423350179E-01
  0.316423352200E-01
  0.316423352141E-01
  0.316423355219E-01
  0.316423355088E-01
  0.316423351169E-01
  0.316423351335E-01
  0.316423350516E-01
  0.316423350571E-01
  0.316423352061E-01
  0.316423352299E-01
  0.316423358609E-01
  0.316423358348E-01
  0.316423356200E-01
  0.316423355874E-01
  0.316423351517E-01
  0.316423351675E-01
  0.316423357778E-01
  0.316423357608E-01
  0.316423356107E-01
  0.316423356287E-01
  0.316423354712E-01
  0.316423354917E-01
  0.316423355272E-01
  0.316423355060E-01
  0.316423353527E-01
  0.316423353647E-01
  0.316423356401E-01
  0.316423356257E-01
  0.316423349785E-01
  0.316423349995E-01
  0.316423352462E-01
  0.316423352405E-01
  0.316423350467E-01
  0.316423350515E-01
  0.316423355969E-01
  0.316423355696E-01
  0.316423348701E-01
  0.316423349048E-01
  0.316423354059E-01
  0.316423354102E-01
  0.316423359133E-01
  0.316423359101E-01
  0.316423357314E-01
  0.316423357087E-01
  0.316423347603E-01
  0.316423347810E-01
  0.316423352505E-01
  0.316423353357E-01
  0.316423352961E-01
  0.316423351932E-01
  0.316423348845E-01
  0.316423348937E-01
  0.316423350181E-01
  0.316423350326E-01
  0.316423353301E-01
  0.316423353332E-01
  0.316423354532E-01
  0.316423354592E-01
  0.316423355578E-01
  0.316423354974E-01
  0.316423333958E-01
  0.316423334511E-01
  0.316423346341E-01
  0.316423346230E-01
  0.316423353538E-01
  0.316423353310E-01
  0.316423349168E-01
  0.316423349436E-01
  0.316423352819E-01
  0.316423352760E-01
  0.316423348901E-01
  0.316423349123E-01
  0.316423351239E-01
  0.316423350955E-01
  0.316423348919E-01
  0.316423349019E-01
  0.316423350253E-01
  0.316423350294E-01
  0.316423351518E-01
  0.316423351359E-01
  0.316423349930E-01
  0.316423350216E-01
  0.316423355411E-01
  0.316423355328E-01
  0.316423354432E-01
  0.316423354238E-01
  0.316423350076E-01
  0.316423350195E-01
  0.316423352618E-01
  0.316423352603E-01
  0.316423345791E-01
  0.316423345975E-01
  0.316423345443E-01
  0.316423345607E-01
  0.316423356575E-01
  0.316423355948E-01
  0.316423347132E-01
  0.316423348357E-01
  0.316423351809E-01
  0.316423341439E-01
  0.316423345750E-01
  0.316423345233E-01
  0.316423333380E-01
  0.316423333541E-01
  0.316423332579E-01
  0.316423332985E-01
  0.316423339128E-01
  0.316423339129E-01
  0.316423336383E-01
  0.316423336393E-01
  0.316423350684E-01
  0.316423349912E-01
  0.316423339614E-01
  0.316423340005E-01
  0.316423339659E-01
  0.316423339987E-01
  0.316423345969E-01
  0.316423345919E-01
  0.316423342469E-01
  0.316423342481E-01
  0.316423340580E-01
  0.316423340479E-01
  0.316423336579E-01
  0.316423336589E-01
  0.316423341627E-01
  0.316423341207E-01
  0.316423330401E-01
  0.316423331029E-01
  0.316423344359E-01
  0.316423344088E-01
  0.316423339975E-01
  0.316423340177E-01
  0.316423339604E-01
  0.316423339781E-01
  0.316423340644E-01
  0.316423340258E-01
  0.316423336443E-01
  0.316423336246E-01
  0.316423332862E-01
  0.316423333302E-01
  0.316423342020E-01
  0.316423342000E-01
  0.316423344306E-01
  0.316423344130E-01
  0.316423336200E-01
  0.316423336440E-01
  0.316423346224E-01
  0.316423347254E-01
  0.316423351936E-01
  0.316423348300E-01
  0.316423347608E-01
  0.316423347356E-01
  0.316423349837E-01
  0.316423349740E-01
  0.316423355582E-01
  0.316423355659E-01
  0.316423347786E-01
  0.316423347903E-01
  0.316423344417E-01
  0.316423344312E-01
  0.316423344202E-01
  0.316423344163E-01
  0.316423348532E-01
  0.316423348550E-01
  0.316423349627E-01
  0.316423349692E-01
  0.316423342953E-01
  0.316423343163E-01
  0.316423343750E-01
  0.316423343731E-01
  0.316423346639E-01
  0.316423346586E-01
  0.316423349959E-01
  0.316423349914E-01
  0.316423352637E-01
  0.316423352519E-01
  0.316423355238E-01
  0.316423355056E-01
  0.316423344891E-01
  0.316423345137E-01
  0.316423344715E-01
  0.316423344745E-01
  0.316423344557E-01
  0.316423344897E-01
  0.316423349922E-01
  0.316423349993E-01
  0.316423361404E-01
  0.316423360560E-01
  0.316423347234E-01
  0.316423347507E-01
  0.316423346673E-01
  0.316423347079E-01
  0.316423349152E-01
  0.316423349366E-01
  0.316423357418E-01
  0.316423357005E-01
  0.316423347918E-01
  0.316423349365E-01
  0.316423350087E-01
  0.316423349025E-01
  0.316423344508E-01
  0.316423344700E-01
  0.316423358312E-01
  0.316423357671E-01
  0.316423339250E-01
  0.316423339744E-01
  0.316423345577E-01
  0.316423345571E-01
  0.316423350414E-01
  0.316423350102E-01
  0.316423347803E-01
  0.316423347779E-01
  0.316423348366E-01
  0.316423348596E-01
  0.316423350029E-01
  0.316423350064E-01
  0.316423348014E-01
  0.316423348114E-01
  0.316423352164E-01
  0.316423351879E-01
  0.316423343533E-01
  0.316423343420E-01
  0.316423338525E-01
  0.316423338608E-01
  0.316423338718E-01
  0.316423338852E-01
  0.316423343227E-01
  0.316423343482E-01
  0.316423353231E-01
  0.316423352770E-01
  0.316423343187E-01
  0.316423343484E-01
  0.316423351684E-01
  0.316423351509E-01
  0.316423336792E-01
  0.316423337227E-01
  0.316423342372E-01
  0.316423342359E-01
  0.316423354168E-01
  0.316423353565E-01
  0.316423342473E-01
  0.316423342580E-01
  0.316423334841E-01
  0.316423335090E-01
  0.316423333853E-01
  0.316423334087E-01
  0.316423344193E-01
  0.316423345705E-01
  0.316423357341E-01
  0.316423349261E-01
  0.316423348859E-01
  0.316423348897E-01
  0.316423348981E-01
  0.316423349283E-01
  0.316423363926E-01
  0.316423363402E-01
  0.316423351525E-01
  0.316423351653E-01
  0.316423349592E-01
  0.316423349714E-01
  0.316423358013E-01
  0.316423358146E-01
  0.316423365410E-01
  0.316423365097E-01
  0.316423347641E-01
  0.316423347753E-01
  0.316423348678E-01
  0.316423348454E-01
  0.316423340585E-01
  0.316423341066E-01
  0.316423360476E-01
  0.316423360414E-01
  0.316423370940E-01
  0.316423370739E-01
  0.316423367162E-01
  0.316423367030E-01
  0.316423358692E-01
  0.316423358733E-01
  0.316423347396E-01
  0.316423347716E-01
  0.316423361479E-01
  0.316423361152E-01
  0.316423352066E-01
  0.316423352323E-01
  0.316423356929E-01
  0.316423356969E-01
  0.316423360455E-01
  0.316423360214E-01
  0.316423347686E-01
  0.316423347774E-01
  0.316423356565E-01
  0.316423356667E-01
  0.316423368348E-01
  0.316423368137E-01
  0.316423362157E-01
  0.316423362490E-01
  0.316423366908E-01
  0.316423368304E-01
  0.316423353916E-01
  0.316423355755E-01
  0.316423359143E-01
  0.316423358792E-01
  0.316423346361E-01
  0.316423346354E-01
  0.316423336078E-01
  0.316423336401E-01
  0.316423348759E-01
  0.316423348586E-01
  0.316423351277E-01
  0.316423351185E-01
  0.316423346315E-01
  0.316423346285E-01
  0.316423332120E-01
  0.316423332631E-01
  0.316423352106E-01
  0.316423351517E-01
  0.316423346946E-01
  0.316423347042E-01
  0.316423356622E-01
  0.316423356236E-01
  0.316423336002E-01
  0.316423336157E-01
  0.316423322653E-01
  0.316423323398E-01
  0.316423343395E-01
  0.316423343340E-01
  0.316423349677E-01
  0.316423349247E-01
  0.316423342589E-01
  0.316423342569E-01
  0.316423343416E-01
  0.316423343512E-01
  0.316423342801E-01
  0.316423342852E-01
  0.316423345744E-01
  0.316423345362E-01
  0.316423326532E-01
  0.316423327040E-01
  0.316423348028E-01
  0.316423347971E-01
  0.316423356539E-01
  0.316423356334E-01
  0.316423336845E-01
  0.316423336959E-01
  0.316423335252E-01
  0.316423335365E-01
  0.316423334446E-01
  0.316423335855E-01
  0.316423331579E-01
  0.316423328920E-01
  0.316423343280E-01
  0.316423342910E-01
  0.316423338660E-01
  0.316423338968E-01
  0.316423363171E-01
  0.316423362662E-01
  0.316423344468E-01
  0.316423344835E-01
  0.316423350619E-01
  0.316423350346E-01
  0.316423341156E-01
  0.316423341142E-01
  0.316423346857E-01
  0.316423347068E-01
  0.316423351585E-01
  0.316423351346E-01
  0.316423342911E-01
  0.316423343033E-01
  0.316423348786E-01
  0.316423348609E-01
  0.316423345752E-01
  0.316423345410E-01
  0.316423349477E-01
  0.316423349631E-01
  0.316423343286E-01
  0.316423343828E-01
  0.316423343495E-01
  0.316423343482E-01
  0.316423351387E-01
  0.316423350860E-01
  0.316423340177E-01
  0.316423340662E-01
  0.316423353373E-01
  0.316423353852E-01
  0.316423369563E-01
  0.316423369380E-01
  0.316423373263E-01
  0.316423372749E-01
  0.316423356940E-01
  0.316423357220E-01
  0.316423346732E-01
  0.316423346981E-01
  0.316423353788E-01
  0.316423353248E-01
  0.316423351038E-01
  0.316423351354E-01
  0.316423360291E-01
  0.316423362451E-01
  0.316423389700E-01
  0.316423359124E-01
  0.316423351850E-01
  0.316423352298E-01
  0.316423367394E-01
  0.316423366661E-01
  0.316423332664E-01
  0.316423333512E-01
  0.316423358162E-01
  0.316423357930E-01
  0.316423355039E-01
  0.316423355182E-01
  0.316423364462E-01
  0.316423363963E-01
  0.316423355724E-01
  0.316423356121E-01
  0.316423356944E-01
  0.316423356998E-01
  0.316423363047E-01
  0.316423362443E-01
  0.316423344530E-01
  0.316423345099E-01
  0.316423366628E-01
  0.316423366100E-01
  0.316423362237E-01
  0.316423362046E-01
  0.316423344984E-01
  0.316423345114E-01
  0.316423336612E-01
  0.316423337045E-01
  0.316423353871E-01
  0.316423354317E-01
  0.316423382004E-01
  0.316423381123E-01
  0.316423341887E-01
  0.316423342686E-01
  0.316423341098E-01
  0.316423341296E-01
  0.316423338814E-01
  0.316423338420E-01
  0.316423338777E-01
  0.316423339031E-01
  0.316423354795E-01
  0.316423354848E-01
  0.316423358637E-01
  0.316423358536E-01
  0.316423367598E-01
  0.316423366877E-01
  0.316423330792E-01
  0.316423333335E-01
  0.316423338060E-01
  0.316423344341E-01
  0.316423336549E-01
  0.316423336421E-01
  0.316423321629E-01
  0.316423322222E-01
  0.316423358025E-01
  0.316423357698E-01
  0.316423347688E-01
  0.316423347927E-01
  0.316423340276E-01
  0.316423339913E-01
  0.316423323211E-01
  0.316423323361E-01
  0.316423338884E-01
  0.316423338757E-01
  0.316423327036E-01
  0.316423327168E-01
  0.316423329394E-01
  0.316423328790E-01
  0.316423322370E-01
  0.316423322781E-01
  0.316423335498E-01
  0.316423335381E-01