# vtk DataFile Version 3.0
MachLine results file. Generated by MachLine, USU AeroLab (c) 2022.
ASCII
DATASET POLYDATA
POINTS                3061 float
  0.114300523028E+02  0.000000000000E+00  0.000000000000E+00
  0.112395514310E+02  0.166666666667E-01  0.000000000000E+00
  0.112395514310E+02  0.166337788071E-01  0.104650865882E-02
  0.112395514310E+02  0.165352450219E-01  0.208888722607E-02
  0.112395514310E+02  0.163714541788E-01  0.312302190976E-02
  0.112395514310E+02  0.161430526855E-01  0.414483145275E-02
  0.112395514310E+02  0.158509419383E-01  0.515028323958E-02
  0.112395514310E+02  0.154962747648E-01  0.613540921141E-02
  0.112395514310E+02  0.150804508744E-01  0.709632152608E-02
  0.112395514310E+02  0.146051113341E-01  0.802922790170E-02
  0.112395514310E+02  0.140721320917E-01  0.893044658298E-02
  0.112395514310E+02  0.134836165729E-01  0.979642087154E-02
  0.112395514310E+02  0.128418873796E-01  0.106237331625E-01
  0.112395514310E+02  0.121494771237E-01  0.114091184321E-01
  0.112395514310E+02  0.114091184321E-01  0.121494771237E-01
  0.112395514310E+02  0.106237331625E-01  0.128418873796E-01
  0.112395514310E+02  0.979642087154E-02  0.134836165729E-01
  0.112395514310E+02  0.893044658298E-02  0.140721320917E-01
  0.112395514310E+02  0.802922790170E-02  0.146051113341E-01
  0.112395514310E+02  0.709632152608E-02  0.150804508744E-01
  0.112395514310E+02  0.613540921141E-02  0.154962747648E-01
  0.112395514310E+02  0.515028323958E-02  0.158509419383E-01
  0.112395514310E+02  0.414483145275E-02  0.161430526855E-01
  0.112395514310E+02  0.312302190976E-02  0.163714541788E-01
  0.112395514310E+02  0.208888722607E-02  0.165352450219E-01
  0.112395514310E+02  0.104650865882E-02  0.166337788071E-01
  0.112395514310E+02 -0.268020441613E-17  0.166666666667E-01
  0.112395514310E+02 -0.104650865882E-02  0.166337788071E-01
  0.112395514310E+02 -0.208888722607E-02  0.165352450219E-01
  0.112395514310E+02 -0.312302190976E-02  0.163714541788E-01
  0.112395514310E+02 -0.414483145275E-02  0.161430526855E-01
  0.112395514310E+02 -0.515028323958E-02  0.158509419383E-01
  0.112395514310E+02 -0.613540921141E-02  0.154962747648E-01
  0.112395514310E+02 -0.709632152608E-02  0.150804508744E-01
  0.112395514310E+02 -0.802922790170E-02  0.146051113341E-01
  0.112395514310E+02 -0.893044658298E-02  0.140721320917E-01
  0.112395514310E+02 -0.979642087154E-02  0.134836165729E-01
  0.112395514310E+02 -0.106237331625E-01  0.128418873796E-01
  0.112395514310E+02 -0.114091184321E-01  0.121494771237E-01
  0.112395514310E+02 -0.121494771237E-01  0.114091184321E-01
  0.112395514310E+02 -0.128418873796E-01  0.106237331625E-01
  0.112395514310E+02 -0.134836165729E-01  0.979642087154E-02
  0.112395514310E+02 -0.140721320917E-01  0.893044658298E-02
  0.112395514310E+02 -0.146051113341E-01  0.802922790170E-02
  0.112395514310E+02 -0.150804508744E-01  0.709632152608E-02
  0.112395514310E+02 -0.154962747648E-01  0.613540921141E-02
  0.112395514310E+02 -0.158509419383E-01  0.515028323958E-02
  0.112395514310E+02 -0.161430526855E-01  0.414483145275E-02
  0.112395514310E+02 -0.163714541788E-01  0.312302190976E-02
  0.112395514310E+02 -0.165352450219E-01  0.208888722607E-02
  0.112395514310E+02 -0.166337788071E-01  0.104650865882E-02
  0.112395514310E+02 -0.166666666667E-01  0.204107799858E-17
  0.110490505593E+02  0.333333333333E-01  0.000000000000E+00
  0.110490505593E+02  0.332675576143E-01  0.209301731764E-02
  0.110490505593E+02  0.330704900438E-01  0.417777445214E-02
  0.110490505593E+02  0.327429083576E-01  0.624604381952E-02
  0.110490505593E+02  0.322861053710E-01  0.828966290550E-02
  0.110490505593E+02  0.317018838765E-01  0.103005664792E-01
  0.110490505593E+02  0.309925495296E-01  0.122708184228E-01
  0.110490505593E+02  0.301609017489E-01  0.141926430522E-01
  0.110490505593E+02  0.292102226681E-01  0.160584558034E-01
  0.110490505593E+02  0.281442641834E-01  0.178608931660E-01
  0.110490505593E+02  0.269672331458E-01  0.195928417431E-01
  0.110490505593E+02  0.256837747592E-01  0.212474663250E-01
  0.110490505593E+02  0.242989542474E-01  0.228182368643E-01
  0.110490505593E+02  0.228182368643E-01  0.242989542474E-01
  0.110490505593E+02  0.212474663250E-01  0.256837747592E-01
  0.110490505593E+02  0.195928417431E-01  0.269672331458E-01
  0.110490505593E+02  0.178608931660E-01  0.281442641834E-01
  0.110490505593E+02  0.160584558034E-01  0.292102226681E-01
  0.110490505593E+02  0.141926430522E-01  0.301609017489E-01
  0.110490505593E+02  0.122708184228E-01  0.309925495296E-01
  0.110490505593E+02  0.103005664792E-01  0.317018838765E-01
  0.110490505593E+02  0.828966290550E-02  0.322861053710E-01
  0.110490505593E+02  0.624604381952E-02  0.327429083576E-01
  0.110490505593E+02  0.417777445214E-02  0.330704900438E-01
  0.110490505593E+02  0.209301731764E-02  0.332675576143E-01
  0.110490505593E+02 -0.536040883226E-17  0.333333333333E-01
  0.110490505593E+02 -0.209301731764E-02  0.332675576143E-01
  0.110490505593E+02 -0.417777445214E-02  0.330704900438E-01
  0.110490505593E+02 -0.624604381952E-02  0.327429083576E-01
  0.110490505593E+02 -0.828966290550E-02  0.322861053710E-01
  0.110490505593E+02 -0.103005664792E-01  0.317018838765E-01
  0.110490505593E+02 -0.122708184228E-01  0.309925495296E-01
  0.110490505593E+02 -0.141926430522E-01  0.301609017489E-01
  0.110490505593E+02 -0.160584558034E-01  0.292102226681E-01
  0.110490505593E+02 -0.178608931660E-01  0.281442641834E-01
  0.110490505593E+02 -0.195928417431E-01  0.269672331458E-01
  0.110490505593E+02 -0.212474663250E-01  0.256837747592E-01
  0.110490505593E+02 -0.228182368643E-01  0.242989542474E-01
  0.110490505593E+02 -0.242989542474E-01  0.228182368643E-01
  0.110490505593E+02 -0.256837747592E-01  0.212474663250E-01
  0.110490505593E+02 -0.269672331458E-01  0.195928417431E-01
  0.110490505593E+02 -0.281442641834E-01  0.178608931660E-01
  0.110490505593E+02 -0.292102226681E-01  0.160584558034E-01
  0.110490505593E+02 -0.301609017489E-01  0.141926430522E-01
  0.110490505593E+02 -0.309925495296E-01  0.122708184228E-01
  0.110490505593E+02 -0.317018838765E-01  0.103005664792E-01
  0.110490505593E+02 -0.322861053710E-01  0.828966290550E-02
  0.110490505593E+02 -0.327429083576E-01  0.624604381952E-02
  0.110490505593E+02 -0.330704900438E-01  0.417777445214E-02
  0.110490505593E+02 -0.332675576143E-01  0.209301731764E-02
  0.110490505593E+02 -0.333333333333E-01  0.408215599716E-17
  0.108585496876E+02  0.500000000000E-01  0.000000000000E+00
  0.108585496876E+02  0.499013364214E-01  0.313952597647E-02
  0.108585496876E+02  0.496057350657E-01  0.626666167822E-02
  0.108585496876E+02  0.491143625364E-01  0.936906572929E-02
  0.108585496876E+02  0.484291580564E-01  0.124344943582E-01
  0.108585496876E+02  0.475528258148E-01  0.154508497187E-01
  0.108585496876E+02  0.464888242944E-01  0.184062276342E-01
  0.108585496876E+02  0.452413526233E-01  0.212889645783E-01
  0.108585496876E+02  0.438153340022E-01  0.240876837051E-01
  0.108585496876E+02  0.422163962751E-01  0.267913397489E-01
  0.108585496876E+02  0.404508497187E-01  0.293892626146E-01
  0.108585496876E+02  0.385256621388E-01  0.318711994874E-01
  0.108585496876E+02  0.364484313711E-01  0.342273552964E-01
  0.108585496876E+02  0.342273552964E-01  0.364484313711E-01
  0.108585496876E+02  0.318711994874E-01  0.385256621388E-01
  0.108585496876E+02  0.293892626146E-01  0.404508497187E-01
  0.108585496876E+02  0.267913397489E-01  0.422163962751E-01
  0.108585496876E+02  0.240876837051E-01  0.438153340022E-01
  0.108585496876E+02  0.212889645783E-01  0.452413526233E-01
  0.108585496876E+02  0.184062276342E-01  0.464888242944E-01
  0.108585496876E+02  0.154508497187E-01  0.475528258148E-01
  0.108585496876E+02  0.124344943582E-01  0.484291580564E-01
  0.108585496876E+02  0.936906572929E-02  0.491143625364E-01
  0.108585496876E+02  0.626666167822E-02  0.496057350657E-01
  0.108585496876E+02  0.313952597647E-02  0.499013364214E-01
  0.108585496876E+02 -0.804061324838E-17  0.500000000000E-01
  0.108585496876E+02 -0.313952597647E-02  0.499013364214E-01
  0.108585496876E+02 -0.626666167822E-02  0.496057350657E-01
  0.108585496876E+02 -0.936906572929E-02  0.491143625364E-01
  0.108585496876E+02 -0.124344943582E-01  0.484291580564E-01
  0.108585496876E+02 -0.154508497187E-01  0.475528258148E-01
  0.108585496876E+02 -0.184062276342E-01  0.464888242944E-01
  0.108585496876E+02 -0.212889645783E-01  0.452413526233E-01
  0.108585496876E+02 -0.240876837051E-01  0.438153340022E-01
  0.108585496876E+02 -0.267913397489E-01  0.422163962751E-01
  0.108585496876E+02 -0.293892626146E-01  0.404508497187E-01
  0.108585496876E+02 -0.318711994874E-01  0.385256621388E-01
  0.108585496876E+02 -0.342273552964E-01  0.364484313711E-01
  0.108585496876E+02 -0.364484313711E-01  0.342273552964E-01
  0.108585496876E+02 -0.385256621388E-01  0.318711994874E-01
  0.108585496876E+02 -0.404508497187E-01  0.293892626146E-01
  0.108585496876E+02 -0.422163962751E-01  0.267913397489E-01
  0.108585496876E+02 -0.438153340022E-01  0.240876837051E-01
  0.108585496876E+02 -0.452413526233E-01  0.212889645783E-01
  0.108585496876E+02 -0.464888242944E-01  0.184062276342E-01
  0.108585496876E+02 -0.475528258148E-01  0.154508497187E-01
  0.108585496876E+02 -0.484291580564E-01  0.124344943582E-01
  0.108585496876E+02 -0.491143625364E-01  0.936906572929E-02
  0.108585496876E+02 -0.496057350657E-01  0.626666167822E-02
  0.108585496876E+02 -0.499013364214E-01  0.313952597647E-02
  0.108585496876E+02 -0.500000000000E-01  0.612323399574E-17
  0.106680488159E+02  0.666666666667E-01  0.000000000000E+00
  0.106680488159E+02  0.665351152286E-01  0.418603463529E-02
  0.106680488159E+02  0.661409800876E-01  0.835554890429E-02
  0.106680488159E+02  0.654858167152E-01  0.124920876390E-01
  0.106680488159E+02  0.645722107419E-01  0.165793258110E-01
  0.106680488159E+02  0.634037677530E-01  0.206011329583E-01
  0.106680488159E+02  0.619850990592E-01  0.245416368456E-01
[...]
CELL_DATA                5950
SCALARS C_p_ise float 1
LOOKUP_TABLE default
  0.317145188865E-01
  0.317145188679E-01
  0.317145188680E-01
  0.317145188690E-01
  0.317145188693E-01
  0.317145188682E-01
  0.317145188691E-01
  0.317145188694E-01
  0.317145188666E-01
  0.317145188675E-01
  0.317145188699E-01
  0.317145188717E-01
  0.317145188732E-01
  0.317145188707E-01
  0.317145188673E-01
  0.317145188666E-01
  0.317145188669E-01
  0.317145188682E-01
  0.317145188683E-01
  0.317145188690E-01
  0.317145188702E-01
  0.317145188692E-01
  0.317145188678E-01
  0.317145188681E-01
  0.317145188686E-01
  0.317145188679E-01
  0.317145188677E-01
  0.317145188683E-01
  0.317145188690E-01
  0.317145188682E-01
  0.317145188671E-01
  0.317145188693E-01
  0.317145188698E-01
  0.317145188671E-01
  0.317145188679E-01
  0.317145188701E-01
  0.317145188719E-01
  0.317145188731E-01
  0.317145188706E-01
  0.317145188672E-01
  0.317145188662E-01
  0.317145188668E-01
  0.317145188679E-01
  0.317145188683E-01
  0.317145188693E-01
  0.317145188702E-01
  0.317145188694E-01
  0.317145188676E-01
  0.317145188677E-01
  0.317145188564E-01
  0.317145186830E-01
  0.317145187272E-01
  0.317145187087E-01
  0.317145187088E-01
  0.317145187086E-01
  0.317145187075E-01
  0.317145187078E-01
  0.317145187058E-01
  0.317145187079E-01
  0.317145187130E-01
  0.317145187126E-01
  0.317145187148E-01
  0.317145187137E-01
  0.317145187076E-01
  0.317145187074E-01
  0.317145187058E-01
  0.317145187060E-01
  0.317145187152E-01
  0.317145187146E-01
  0.317145187099E-01
  0.317145187123E-01
  0.317145187120E-01
  0.317145187124E-01
  0.317145187080E-01
  0.317145187086E-01
  0.317145187058E-01
  0.317145187051E-01
  0.317145187104E-01
  0.317145187074E-01
  0.317145187085E-01
  0.317145187095E-01
  0.317145187147E-01
  0.317145187127E-01
  0.317145187055E-01
  0.317145187075E-01
  0.317145187096E-01
  0.317145187112E-01
  0.317145187158E-01
  0.317145187124E-01
  0.317145186996E-01
  0.317145187020E-01
  0.317145187057E-01
  0.317145187070E-01
  0.317145187138E-01
  0.317145187125E-01
  0.317145187128E-01
  0.317145187127E-01
  0.317145187117E-01
  0.317145187127E-01
  0.317145187138E-01
  0.317145187111E-01
  0.317145187050E-01
  0.317145187066E-01
  0.317145187122E-01
  0.317145187110E-01
  0.317145187059E-01
  0.317145187055E-01
  0.317145187022E-01
  0.317145187045E-01
  0.317145187141E-01
  0.317145187129E-01
  0.317145187126E-01
  0.317145187124E-01
  0.317145187052E-01
  0.317145187062E-01
  0.317145187076E-01
  0.317145187075E-01
  0.317145187156E-01
  0.317145187147E-01
  0.317145187096E-01
  0.317145187118E-01
  0.317145187116E-01
  0.317145187114E-01
  0.317145187059E-01
  0.317145187065E-01
  0.317145187044E-01
  0.317145187054E-01
  0.317145187159E-01
  0.317145187114E-01
  0.317145187081E-01
  0.317145187095E-01
  0.317145187165E-01
  0.317145187134E-01
  0.317145187024E-01
  0.317145187043E-01
  0.317145187066E-01
  0.317145187091E-01
  0.317145187155E-01
  0.317145187116E-01
  0.317145186970E-01
  0.317145187006E-01
  0.317145187085E-01
  0.317145187090E-01
  0.317145187127E-01
  0.317145187113E-01
  0.317145187124E-01
  0.317145187121E-01
  0.317145187106E-01
  0.317145187311E-01
  0.317145188265E-01
  0.317145187676E-01
  0.317145187800E-01
  0.317145187767E-01
  0.317145187795E-01
  0.317145187772E-01
  0.317145187666E-01
  0.317145187684E-01
  0.317145187777E-01
  0.317145187802E-01
  0.317145187855E-01
  0.317145187841E-01
  0.317145187707E-01
  0.317145187733E-01
  0.317145187883E-01
  0.317145187897E-01
  0.317145188080E-01
  0.317145188020E-01
  0.317145187738E-01
  0.317145187769E-01
  0.317145187802E-01
  0.317145187815E-01
  0.317145187839E-01
  0.317145187849E-01
  0.317145187884E-01
  0.317145187866E-01
  0.317145187820E-01
  0.317145187805E-01
  0.317145187807E-01
  0.317145187811E-01
  0.317145187888E-01
  0.317145187875E-01
  0.317145187748E-01
  0.317145187781E-01
  0.317145187966E-01
  0.317145187913E-01
  0.317145187669E-01
  0.317145187684E-01
  0.317145187649E-01
  0.317145187683E-01
  0.317145187952E-01
  0.317145187910E-01
  0.317145187794E-01
  0.317145187797E-01
  0.317145187687E-01
  0.317145187725E-01
  0.317145187869E-01
  0.317145187846E-01
  0.317145187733E-01
  0.317145187744E-01
  0.317145187767E-01
  0.317145187742E-01
  0.317145187735E-01
  0.317145187725E-01
  0.317145187695E-01
  0.317145187713E-01
  0.317145187769E-01
  0.317145187751E-01
  0.317145187766E-01
  0.317145187797E-01
  0.317145187891E-01
  0.317145187884E-01
  0.317145187751E-01
  0.317145187759E-01
  0.317145187813E-01
  0.317145187827E-01
  0.317145187966E-01
  0.317145187936E-01
  0.317145187769E-01
  0.317145187792E-01
  0.317145187815E-01
  0.317145187816E-01
  0.317145187798E-01
  0.317145187826E-01
  0.317145187972E-01
  0.317145187942E-01
  0.317145187853E-01
  0.317145187826E-01
  0.317145187678E-01
  0.317145187693E-01
  0.317145187819E-01
  0.317145187798E-01
  0.317145187679E-01
  0.317145187726E-01
  0.317145187999E-01
  0.317145187940E-01
  0.317145187733E-01
  0.317145187743E-01
  0.317145187627E-01
  0.317145187676E-01
  0.317145188007E-01
  0.317145187961E-01
  0.317145187797E-01
  0.317145187809E-01
  0.317145187715E-01
  0.317145187742E-01
  0.317145187880E-01
  0.317145187855E-01
  0.317145187730E-01
  0.317145188071E-01
  0.317145188778E-01
  0.317145187073E-01
  0.317145187279E-01
  0.317145187240E-01
  0.317145187016E-01
  0.317145187056E-01
  0.317145187457E-01
  0.317145187418E-01
  0.317145187167E-01
  0.317145187180E-01
  0.317145186969E-01
  0.317145186980E-01
  0.317145187078E-01
  0.317145187094E-01
  0.317145187212E-01
  0.317145187255E-01
  0.317145187245E-01
  0.317145187230E-01
  0.317145187289E-01
  0.317145187249E-01
  0.317145187150E-01
  0.317145187178E-01
  0.317145187232E-01
  0.317145187236E-01
  0.317145187156E-01
  0.317145187162E-01
  0.317145187283E-01
  0.317145187278E-01
  0.317145187414E-01
  0.317145187386E-01
  0.317145187160E-01
  0.317145187196E-01
  0.317145187428E-01
  0.317145187352E-01
  0.317145186759E-01
  0.317145186823E-01
  0.317145187381E-01
  0.317145187326E-01
  0.317145187177E-01
  0.317145187176E-01
  0.317145186979E-01
  0.317145187041E-01
  0.317145187392E-01
  0.317145187357E-01
  0.317145187260E-01
  0.317145187272E-01
  0.317145187239E-01
  0.317145187233E-01
  0.317145187148E-01
  0.317145187142E-01
  0.317145187181E-01
  0.317145187191E-01
  0.317145187395E-01
  0.317145187319E-01
  0.317145186865E-01
  0.317145186945E-01
  0.317145187421E-01
  0.317145187367E-01
  0.317145187040E-01
  0.317145187062E-01
  0.317145186971E-01
  0.317145186981E-01
  0.317145186969E-01
  0.317145186986E-01
  0.317145187235E-01
  0.317145187264E-01
  0.317145187297E-01
  0.317145187277E-01
  0.317145187149E-01
  0.317145187155E-01
  0.317145187273E-01
  0.317145187276E-01
  0.317145187253E-01
  0.317145187259E-01
  0.317145187141E-01
  0.317145187137E-01
  0.317145187115E-01
  0.317145187142E-01
  0.317145187648E-01
  0.317145187588E-01
  0.317145187271E-01
  0.317145187272E-01
  0.317145187251E-01
  0.317145187209E-01
  0.317145186752E-01
  0.317145186827E-01
  0.317145187382E-01
  0.317145187325E-01
  0.317145187145E-01
  0.317145187167E-01
  0.317145187142E-01
  0.317145187166E-01
  0.317145187188E-01
  0.317145187200E-01
  0.317145187427E-01
  0.317145187374E-01
  0.317145186948E-01
  0.317145186986E-01
  0.317145187230E-01
  0.317145187688E-01
  0.317145188680E-01
  0.317145185100E-01
  0.317145184695E-01
  0.317145184761E-01
  0.317145185443E-01
  0.317145185385E-01
  0.317145184793E-01
  0.317145184851E-01
  0.317145185211E-01
  0.317145185202E-01
  0.317145185326E-01
  0.317145185243E-01
  0.317145184666E-01
  0.317145184717E-01
  0.317145184901E-01
  0.317145184940E-01
  0.317145184751E-01
  0.317145184761E-01
  0.317145184999E-01
  0.317145184994E-01
  0.317145185232E-01
  0.317145185219E-01
  0.317145184977E-01
  0.317145184960E-01
  0.317145184702E-01
  0.317145184733E-01
  0.317145185060E-01
  0.317145184984E-01
  0.317145184199E-01
  0.317145184249E-01
  0.317145184787E-01
  0.317145184800E-01
  0.317145184886E-01
  0.317145184955E-01
  0.317145185968E-01
  0.317145185852E-01
  0.317145184996E-01
  0.317145185030E-01
  0.317145185109E-01
  0.317145185071E-01
  0.317145184925E-01
  0.317145184912E-01
  0.317145184487E-01
  0.317145184530E-01
  0.317145184780E-01
  0.317145184791E-01
  0.317145184910E-01
  0.317145184911E-01
  0.317145185023E-01
  0.317145184988E-01
  0.317145184840E-01
  0.317145184837E-01
  0.317145184683E-01
  0.317145184727E-01
  0.317145185544E-01
  0.317145185489E-01
  0.317145184854E-01
  0.317145184905E-01
  0.317145185238E-01
  0.317145185192E-01
  0.317145185016E-01
  0.317145185000E-01
  0.317145184887E-01
  0.317145184896E-01
  0.317145184844E-01
  0.317145184890E-01
  0.317145184723E-01
  0.317145184747E-01
  0.317145185097E-01
  0.317145185085E-01
  0.317145185089E-01
  0.317145185104E-01
  0.317145185057E-01
  0.317145185023E-01
  0.317145184688E-01
  0.317145184730E-01
  0.317145185291E-01
  0.317145185235E-01
  0.317145184509E-01
  0.317145184551E-01
  0.317145184817E-01
  0.317145184842E-01
  0.317145185462E-01
  0.317145185428E-01
  0.317145185526E-01
  0.317145185457E-01
  0.317145184748E-01
  0.317145184793E-01
  0.317145184995E-01
  0.317145184954E-01
  0.317145184624E-01
  0.317145184653E-01
  0.317145184735E-01
  0.317145184776E-01
  0.317145185012E-01
  0.317145185028E-01
  0.317145185360E-01
  0.317145185265E-01
  0.317145184625E-01
  0.317145185152E-01
  0.317145185454E-01
  0.317145190781E-01
  0.317145191307E-01
  0.317145191282E-01
  0.317145190787E-01
  0.317145190874E-01
  0.317145191638E-01
  0.317145191568E-01
  0.317145190876E-01
  0.317145190900E-01
  0.317145190818E-01
  0.317145190823E-01
  0.317145191649E-01
  0.317145191594E-01
  0.317145191139E-01
  0.317145191161E-01
  0.317145190756E-01
  0.317145190780E-01
  0.317145191161E-01
  0.317145191133E-01
  0.317145190583E-01
  0.317145190620E-01
  0.317145190883E-01
  0.317145190921E-01
  0.317145191829E-01
  0.317145191756E-01
  0.317145190920E-01
  0.317145190929E-01
  0.317145191454E-01
  0.317145191395E-01
  0.317145191147E-01
  0.317145191158E-01
  0.317145190472E-01
  0.317145190491E-01
  0.317145189839E-01
  0.317145189939E-01
  0.317145191075E-01
  0.317145191009E-01
  0.317145190958E-01
  0.317145190991E-01
  0.317145191681E-01
  0.317145191661E-01
  0.317145191765E-01
  0.317145191727E-01
  0.317145191356E-01
  0.317145191379E-01
  0.317145191196E-01
  0.317145191174E-01
  0.317145190770E-01
  0.317145190780E-01
  0.317145191135E-01
  0.317145191190E-01
  0.317145192005E-01
  0.317145191917E-01
  0.317145190657E-01
  0.317145190727E-01
  0.317145191106E-01
  0.317145191098E-01
  0.317145191207E-01
  0.317145191197E-01
  0.317145191176E-01
  0.317145191165E-01
  0.317145191432E-01
  0.317145191425E-01
  0.317145191377E-01
  0.317145191385E-01
  0.317145191030E-01
  0.317145190995E-01
  0.317145190555E-01
  0.317145190590E-01
  0.317145190686E-01
  0.317145190671E-01
  0.317145190338E-01
  0.317145190409E-01
  0.317145191612E-01
  0.317145191577E-01
  0.317145191149E-01
  0.317145191107E-01
  0.317145190570E-01
  0.317145190579E-01
  0.317145191112E-01
  0.317145191123E-01
  0.317145190636E-01
  0.317145190656E-01
  0.317145190492E-01
  0.317145190539E-01
  0.317145191691E-01
  0.317145191607E-01
  0.317145191064E-01
  0.317145191100E-01
  0.317145191689E-01
  0.317145191657E-01
  0.317145191386E-01
  0.317145191394E-01
  0.317145190936E-01
  0.317145191005E-01
  0.317145191299E-01
  0.317145191226E-01
  0.317145191055E-01
  0.317145191647E-01
  0.317145193148E-01
  0.317145183299E-01
  0.317145181559E-01
  0.317145181577E-01
  0.317145181513E-01
  0.317145181501E-01
  0.317145180789E-01
  0.317145180900E-01
  0.317145182345E-01
  0.317145182225E-01
  0.317145181179E-01
  0.317145181236E-01
  0.317145182017E-01
  0.317145182016E-01
  0.317145181747E-01
  0.317145181825E-01
  0.317145183087E-01
  0.317145182976E-01
  0.317145181696E-01
  0.317145181710E-01
  0.317145181805E-01
  0.317145181805E-01
  0.317145181981E-01
  0.317145182021E-01
  0.317145181739E-01
  0.317145181803E-01
  0.317145182526E-01
  0.317145182436E-01
  0.317145182152E-01
  0.317145182061E-01
  0.317145181030E-01
  0.317145181066E-01
  0.317145181679E-01
  0.317145181717E-01
  0.317145182763E-01
  0.317145182719E-01
  0.317145181622E-01
  0.317145181639E-01
  0.317145181373E-01
  0.317145181368E-01
  0.317145180926E-01
  0.317145180999E-01
  0.317145181399E-01
  0.317145181372E-01
  0.317145181390E-01
  0.317145181375E-01
  0.317145181330E-01
  0.317145181368E-01
  0.317145182367E-01
  0.317145182307E-01
  0.317145181882E-01
  0.317145181912E-01
  0.317145181160E-01
  0.317145181204E-01
  0.317145181950E-01
  0.317145181853E-01
  0.317145181167E-01
  0.317145181277E-01
  0.317145182380E-01
  0.317145182282E-01
  0.317145181012E-01
  0.317145181093E-01
  0.317145182298E-01
  0.317145182259E-01
  0.317145181543E-01
  0.317145181599E-01
  0.317145182280E-01
  0.317145182171E-01
  0.317145181624E-01
  0.317145181622E-01
  0.317145181657E-01
  0.317145181670E-01
  0.317145181925E-01
  0.317145181929E-01
  0.317145181452E-01
  0.317145181567E-01
  0.317145182099E-01
  0.317145182014E-01
  0.317145181971E-01
  0.317145181878E-01
  0.317145181174E-01
  0.317145181208E-01
  0.317145180882E-01
  0.317145180959E-01
  0.317145182289E-01
  0.317145182274E-01
  0.317145181668E-01
  0.317145181697E-01
  0.317145181800E-01
  0.317145181748E-01
  0.317145181243E-01
  0.317145181300E-01
  0.317145181759E-01
  0.317145181715E-01
  0.317145181352E-01
  0.317145181390E-01
  0.317145181526E-01
  0.317145181541E-01
  0.317145182339E-01
  0.317145182838E-01
  0.317145181833E-01
  0.317145189180E-01
  0.317145192234E-01
  0.317145192200E-01
  0.317145193414E-01
  0.317145193327E-01
  0.317145192287E-01
  0.317145192279E-01
  0.317145191328E-01
  0.317145191476E-01
  0.317145193813E-01
  0.317145193713E-01
  0.317145192559E-01
  0.317145192682E-01
  0.317145193619E-01
  0.317145193595E-01
  0.317145192363E-01
  0.317145192375E-01
  0.317145192774E-01
  0.317145192724E-01
  0.317145193235E-01
  0.317145193218E-01
  0.317145192847E-01
  0.317145192871E-01
  0.317145192432E-01
  0.317145192441E-01
  0.317145191927E-01
  0.317145192037E-01
  0.317145194201E-01
  0.317145194162E-01
  0.317145195269E-01
  0.317145195175E-01
  0.317145194431E-01
  0.317145194402E-01
  0.317145192691E-01
  0.317145192726E-01
  0.317145192695E-01
  0.317145192738E-01
  0.317145194385E-01
  0.317145194344E-01
  0.317145194115E-01
  0.317145194120E-01
  0.317145193603E-01
  0.317145193520E-01
  0.317145192210E-01
  0.317145192272E-01
  0.317145193405E-01
  0.317145193386E-01
  0.317145192586E-01
  0.317145192666E-01
  0.317145193613E-01
  0.317145193484E-01
  0.317145191601E-01
  0.317145191669E-01
  0.317145192905E-01
  0.317145192839E-01
  0.317145192449E-01
  0.317145192473E-01
  0.317145191964E-01
  0.317145192070E-01
  0.317145193860E-01
  0.317145193786E-01
  0.317145192944E-01
  0.317145193043E-01
  0.317145193702E-01
  0.317145193663E-01
  0.317145193067E-01
  0.317145193093E-01
  0.317145194348E-01
  0.317145194218E-01
  0.317145192922E-01
  0.317145192990E-01
  0.317145193782E-01
  0.317145193758E-01
  0.317145193058E-01
  0.317145193070E-01
  0.317145192073E-01
  0.317145192172E-01
  0.317145194307E-01
  0.317145194255E-01
  0.317145194922E-01
  0.317145194901E-01
  0.317145194889E-01
  0.317145194826E-01
  0.317145193089E-01
  0.317145193089E-01
  0.317145191782E-01
  0.317145191871E-01
  0.317145193472E-01
  0.317145193405E-01
  0.317145193070E-01
  0.317145193117E-01
  0.317145193548E-01
  0.317145193481E-01
  0.317145192613E-01
  0.317145192653E-01
  0.317145193103E-01
  0.317145193048E-01
  0.317145191851E-01
  0.317145192871E-01
  0.317145199757E-01
  0.317145185786E-01
  0.317145182696E-01
  0.317145182810E-01
  0.317145181873E-01
  0.317145181869E-01
  0.317145181895E-01
  0.317145182015E-01
  0.317145185360E-01
  0.317145185342E-01
  0.317145183609E-01
  0.317145183667E-01
  0.317145183704E-01
  0.317145183616E-01
  0.317145181361E-01
  0.317145181412E-01
  0.317145181649E-01
  0.317145181595E-01
  0.317145181865E-01
  0.317145181841E-01
  0.317145181837E-01
  0.317145181844E-01
  0.317145181675E-01
  0.317145181702E-01
  0.317145182144E-01
  0.317145182163E-01
  0.317145182831E-01
  0.317145182783E-01
  0.317145180657E-01
  0.317145180758E-01
  0.317145180688E-01
  0.317145180690E-01
  0.317145181064E-01
  0.317145181096E-01
  0.317145182991E-01
  0.317145182924E-01
  0.317145183136E-01
  0.317145183148E-01
  0.317145182658E-01
  0.317145182655E-01
  0.317145181441E-01
  0.317145181376E-01
  0.317145180436E-01
  0.317145180650E-01
  0.317145186274E-01
  0.317145185995E-01
  0.317145181677E-01
  0.317145181842E-01
  0.317145183682E-01
  0.317145183630E-01
  0.317145182291E-01
  0.317145182355E-01
  0.317145184554E-01
  0.317145184387E-01
  0.317145182517E-01
  0.317145182535E-01
  0.317145182568E-01
  0.317145182605E-01
  0.317145183268E-01
  0.317145183313E-01
  0.317145182855E-01
  0.317145182841E-01
  0.317145181822E-01
  0.317145181858E-01
  0.317145181756E-01
  0.317145181729E-01
  0.317145181192E-01
  0.317145181097E-01
  0.317145179707E-01
  0.317145179838E-01
  0.317145182857E-01
  0.317145182778E-01
  0.317145181737E-01
  0.317145181773E-01
  0.317145181878E-01
  0.317145181902E-01
  0.317145182895E-01
  0.317145182787E-01
  0.317145180407E-01
  0.317145180513E-01
  0.317145180793E-01
  0.317145180817E-01
  0.317145180826E-01
  0.317145180902E-01
  0.317145183281E-01
  0.317145183194E-01
  0.317145183678E-01
  0.317145183655E-01
  0.317145183245E-01
  0.317145183239E-01
  0.317145182453E-01
  0.317145182375E-01
  0.317145180629E-01
  0.317145180832E-01
  0.317145184927E-01
  0.317145184687E-01
  0.317145180920E-01
  0.317145181069E-01
  0.317145184021E-01
  0.317145184613E-01
  0.317145178686E-01
  0.317145189259E-01
  0.317145188550E-01
  0.317145188425E-01
  0.317145187336E-01
  0.317145187334E-01
  0.317145188414E-01
  0.317145188395E-01
  0.317145185737E-01
  0.317145185950E-01
  0.317145186607E-01
  0.317145186588E-01
  0.317145187056E-01
  0.317145187009E-01
  0.317145187743E-01
  0.317145187664E-01
  0.317145187686E-01
  0.317145187643E-01
  0.317145187590E-01
  0.317145187647E-01
  0.317145188893E-01
  0.317145188780E-01
  0.317145186519E-01
  0.317145186633E-01
  0.317145188487E-01
  0.317145188468E-01
  0.317145187268E-01
  0.317145187241E-01
  0.317145186896E-01
  0.317145186797E-01
  0.317145185357E-01
  0.317145185439E-01
  0.317145187036E-01
  0.317145187005E-01
  0.317145185378E-01
  0.317145185541E-01
  0.317145187794E-01
  0.317145187735E-01
  0.317145186149E-01
  0.317145186298E-01
  0.317145189725E-01
  0.317145189582E-01
  0.317145189467E-01
  0.317145189396E-01
  0.317145185055E-01
  0.317145185234E-01
  0.317145187650E-01
  0.317145187515E-01
  0.317145186653E-01
  0.317145186620E-01
  0.317145184917E-01
  0.317145184939E-01
  0.317145185647E-01
  0.317145185655E-01
  0.317145186536E-01
  0.317145186484E-01
  0.317145187227E-01
  0.317145187201E-01
  0.317145185989E-01
  0.317145186128E-01
  0.317145187170E-01
  0.317145187169E-01
  0.317145187927E-01
  0.317145187819E-01
  0.317145186221E-01
  0.317145186280E-01
  0.317145188008E-01
  0.317145187877E-01
  0.317145187773E-01
  0.317145187808E-01
  0.317145187544E-01
  0.317145187614E-01
  0.317145187080E-01
  0.317145187113E-01
  0.317145188224E-01
  0.317145188159E-01
  0.317145186353E-01
  0.317145186333E-01
  0.317145186884E-01
  0.317145186802E-01
  0.317145185873E-01
  0.317145185996E-01
  0.317145187570E-01
  0.317145187530E-01
  0.317145185306E-01
  0.317145185412E-01
  0.317145186424E-01
  0.317145186478E-01
  0.317145187389E-01
  0.317145187496E-01
  0.317145190106E-01
  0.317145189958E-01
  0.317145189511E-01
  0.317145189454E-01
  0.317145186461E-01
  0.317145186557E-01
  0.317145188351E-01
  0.317145188246E-01
  0.317145187614E-01