# vtk DataFile Version 3.0
MachLine results file. Generated by MachLine, USU AeroLab (c) 2022.
ASCII
DATASET POLYDATA
POINTS                3061 float
  0.567128181962E+01  0.000000000000E+00  0.000000000000E+00
  0.557676045596E+01  0.166666666667E-01  0.000000000000E+00
  0.557676045596E+01  0.166337788071E-01  0.104650865882E-02
  0.557676045596E+01  0.165352450219E-01  0.208888722607E-02
  0.557676045596E+01  0.163714541788E-01  0.312302190976E-02
  0.557676045596E+01  0.161430526855E-01  0.414483145275E-02
  0.557676045596E+01  0.158509419383E-01  0.515028323958E-02
  0.557676045596E+01  0.154962747648E-01  0.613540921141E-02
  0.557676045596E+01  0.150804508744E-01  0.709632152608E-02
  0.557676045596E+01  0.146051113341E-01  0.802922790170E-02
  0.557676045596E+01  0.140721320917E-01  0.893044658298E-02
  0.557676045596E+01  0.134836165729E-01  0.979642087154E-02
  0.557676045596E+01  0.128418873796E-01  0.106237331625E-01
  0.557676045596E+01  0.121494771237E-01  0.114091184321E-01
  0.557676045596E+01  0.114091184321E-01  0.121494771237E-01
  0.557676045596E+01  0.106237331625E-01  0.128418873796E-01
  0.557676045596E+01  0.979642087154E-02  0.134836165729E-01
  0.557676045596E+01  0.893044658298E-02  0.140721320917E-01
  0.557676045596E+01  0.802922790170E-02  0.146051113341E-01
  0.557676045596E+01  0.709632152608E-02  0.150804508744E-01
  0.557676045596E+01  0.613540921141E-02  0.154962747648E-01
  0.557676045596E+01  0.515028323958E-02  0.158509419383E-01
  0.557676045596E+01  0.414483145275E-02  0.161430526855E-01
  0.557676045596E+01  0.312302190976E-02  0.163714541788E-01
  0.557676045596E+01  0.208888722607E-02  0.165352450219E-01
  0.557676045596E+01  0.104650865882E-02  0.166337788071E-01
  0.557676045596E+01 -0.268020441613E-17  0.166666666667E-01
  0.557676045596E+01 -0.104650865882E-02  0.166337788071E-01
  0.557676045596E+01 -0.208888722607E-02  0.165352450219E-01
  0.557676045596E+01 -0.312302190976E-02  0.163714541788E-01
  0.557676045596E+01 -0.414483145275E-02  0.161430526855E-01
  0.557676045596E+01 -0.515028323958E-02  0.158509419383E-01
  0.557676045596E+01 -0.613540921141E-02  0.154962747648E-01
  0.557676045596E+01 -0.709632152608E-02  0.150804508744E-01
  0.557676045596E+01 -0.802922790170E-02  0.146051113341E-01
  0.557676045596E+01 -0.893044658298E-02  0.140721320917E-01
  0.557676045596E+01 -0.979642087154E-02  0.134836165729E-01
  0.557676045596E+01 -0.106237331625E-01  0.128418873796E-01
  0.557676045596E+01 -0.114091184321E-01  0.121494771237E-01
  0.557676045596E+01 -0.121494771237E-01  0.114091184321E-01
  0.557676045596E+01 -0.128418873796E-01  0.106237331625E-01
  0.557676045596E+01 -0.134836165729E-01  0.979642087154E-02
  0.557676045596E+01 -0.140721320917E-01  0.893044658298E-02
  0.557676045596E+01 -0.146051113341E-01  0.802922790170E-02
  0.557676045596E+01 -0.150804508744E-01  0.709632152608E-02
  0.557676045596E+01 -0.154962747648E-01  0.613540921141E-02
  0.557676045596E+01 -0.158509419383E-01  0.515028323958E-02
  0.557676045596E+01 -0.161430526855E-01  0.414483145275E-02
  0.557676045596E+01 -0.163714541788E-01  0.312302190976E-02
  0.557676045596E+01 -0.165352450219E-01  0.208888722607E-02
  0.557676045596E+01 -0.166337788071E-01  0.104650865882E-02
  0.557676045596E+01 -0.166666666667E-01  0.204107799858E-17
  0.548223909230E+01  0.333333333333E-01  0.000000000000E+00
  0.548223909230E+01  0.332675576143E-01  0.209301731764E-02
  0.548223909230E+01  0.330704900438E-01  0.417777445214E-02
  0.548223909230E+01  0.327429083576E-01  0.624604381952E-02
  0.548223909230E+01  0.322861053710E-01  0.828966290550E-02
  0.548223909230E+01  0.317018838765E-01  0.103005664792E-01
  0.548223909230E+01  0.309925495296E-01  0.122708184228E-01
  0.548223909230E+01  0.301609017489E-01  0.141926430522E-01
  0.548223909230E+01  0.292102226681E-01  0.160584558034E-01
  0.548223909230E+01  0.281442641834E-01  0.178608931660E-01
  0.548223909230E+01  0.269672331458E-01  0.195928417431E-01
  0.548223909230E+01  0.256837747592E-01  0.212474663250E-01
  0.548223909230E+01  0.242989542474E-01  0.228182368643E-01
  0.548223909230E+01  0.228182368643E-01  0.242989542474E-01
  0.548223909230E+01  0.212474663250E-01  0.256837747592E-01
  0.548223909230E+01  0.195928417431E-01  0.269672331458E-01
  0.548223909230E+01  0.178608931660E-01  0.281442641834E-01
  0.548223909230E+01  0.160584558034E-01  0.292102226681E-01
  0.548223909230E+01  0.141926430522E-01  0.301609017489E-01
  0.548223909230E+01  0.122708184228E-01  0.309925495296E-01
  0.548223909230E+01  0.103005664792E-01  0.317018838765E-01
  0.548223909230E+01  0.828966290550E-02  0.322861053710E-01
  0.548223909230E+01  0.624604381952E-02  0.327429083576E-01
  0.548223909230E+01  0.417777445214E-02  0.330704900438E-01
  0.548223909230E+01  0.209301731764E-02  0.332675576143E-01
  0.548223909230E+01 -0.536040883226E-17  0.333333333333E-01
  0.548223909230E+01 -0.209301731764E-02  0.332675576143E-01
  0.548223909230E+01 -0.417777445214E-02  0.330704900438E-01
  0.548223909230E+01 -0.624604381952E-02  0.327429083576E-01
  0.548223909230E+01 -0.828966290550E-02  0.322861053710E-01
  0.548223909230E+01 -0.103005664792E-01  0.317018838765E-01
  0.548223909230E+01 -0.122708184228E-01  0.309925495296E-01
  0.548223909230E+01 -0.141926430522E-01  0.301609017489E-01
  0.548223909230E+01 -0.160584558034E-01  0.292102226681E-01
  0.548223909230E+01 -0.178608931660E-01  0.281442641834E-01
  0.548223909230E+01 -0.195928417431E-01  0.269672331458E-01
  0.548223909230E+01 -0.212474663250E-01  0.256837747592E-01
  0.548223909230E+01 -0.228182368643E-01  0.242989542474E-01
  0.548223909230E+01 -0.242989542474E-01  0.228182368643E-01
  0.548223909230E+01 -0.256837747592E-01  0.212474663250E-01
  0.548223909230E+01 -0.269672331458E-01  0.195928417431E-01
  0.548223909230E+01 -0.281442641834E-01  0.178608931660E-01
  0.548223909230E+01 -0.292102226681E-01  0.160584558034E-01
  0.548223909230E+01 -0.301609017489E-01  0.141926430522E-01
  0.548223909230E+01 -0.309925495296E-01  0.122708184228E-01
  0.548223909230E+01 -0.317018838765E-01  0.103005664792E-01
  0.548223909230E+01 -0.322861053710E-01  0.828966290550E-02
  0.548223909230E+01 -0.327429083576E-01  0.624604381952E-02
  0.548223909230E+01 -0.330704900438E-01  0.417777445214E-02
  0.548223909230E+01 -0.332675576143E-01  0.209301731764E-02
  0.548223909230E+01 -0.333333333333E-01  0.408215599716E-17
  0.538771772864E+01  0.500000000000E-01  0.000000000000E+00
  0.538771772864E+01  0.499013364214E-01  0.313952597647E-02
  0.538771772864E+01  0.496057350657E-01  0.626666167822E-02
  0.538771772864E+01  0.491143625364E-01  0.936906572929E-02
  0.538771772864E+01  0.484291580564E-01  0.124344943582E-01
  0.538771772864E+01  0.475528258148E-01  0.154508497187E-01
  0.538771772864E+01  0.464888242944E-01  0.184062276342E-01
  0.538771772864E+01  0.452413526233E-01  0.212889645783E-01
  0.538771772864E+01  0.438153340022E-01  0.240876837051E-01
  0.538771772864E+01  0.422163962751E-01  0.267913397489E-01
  0.538771772864E+01  0.404508497187E-01  0.293892626146E-01
  0.538771772864E+01  0.385256621388E-01  0.318711994874E-01
  0.538771772864E+01  0.364484313711E-01  0.342273552964E-01
  0.538771772864E+01  0.342273552964E-01  0.364484313711E-01
  0.538771772864E+01  0.318711994874E-01  0.385256621388E-01
  0.538771772864E+01  0.293892626146E-01  0.404508497187E-01
  0.538771772864E+01  0.267913397489E-01  0.422163962751E-01
  0.538771772864E+01  0.240876837051E-01  0.438153340022E-01
  0.538771772864E+01  0.212889645783E-01  0.452413526233E-01
  0.538771772864E+01  0.184062276342E-01  0.464888242944E-01
  0.538771772864E+01  0.154508497187E-01  0.475528258148E-01
  0.538771772864E+01  0.124344943582E-01  0.484291580564E-01
  0.538771772864E+01  0.936906572929E-02  0.491143625364E-01
  0.538771772864E+01  0.626666167822E-02  0.496057350657E-01
  0.538771772864E+01  0.313952597647E-02  0.499013364214E-01
  0.538771772864E+01 -0.804061324838E-17  0.500000000000E-01
  0.538771772864E+01 -0.313952597647E-02  0.499013364214E-01
  0.538771772864E+01 -0.626666167822E-02  0.496057350657E-01
  0.538771772864E+01 -0.936906572929E-02  0.491143625364E-01
  0.538771772864E+01 -0.124344943582E-01  0.484291580564E-01
  0.538771772864E+01 -0.154508497187E-01  0.475528258148E-01
  0.538771772864E+01 -0.184062276342E-01  0.464888242944E-01
  0.538771772864E+01 -0.212889645783E-01  0.452413526233E-01
  0.538771772864E+01 -0.240876837051E-01  0.438153340022E-01
  0.538771772864E+01 -0.267913397489E-01  0.422163962751E-01
  0.538771772864E+01 -0.293892626146E-01  0.404508497187E-01
  0.538771772864E+01 -0.318711994874E-01  0.385256621388E-01
  0.538771772864E+01 -0.342273552964E-01  0.364484313711E-01
  0.538771772864E+01 -0.364484313711E-01  0.342273552964E-01
  0.538771772864E+01 -0.385256621388E-01  0.318711994874E-01
  0.538771772864E+01 -0.404508497187E-01  0.293892626146E-01
  0.538771772864E+01 -0.422163962751E-01  0.267913397489E-01
  0.538771772864E+01 -0.438153340022E-01  0.240876837051E-01
  0.538771772864E+01 -0.452413526233E-01  0.212889645783E-01
  0.538771772864E+01 -0.464888242944E-01  0.184062276342E-01
  0.538771772864E+01 -0.475528258148E-01  0.154508497187E-01
  0.538771772864E+01 -0.484291580564E-01  0.124344943582E-01
  0.538771772864E+01 -0.491143625364E-01  0.936906572929E-02
  0.538771772864E+01 -0.496057350657E-01  0.626666167822E-02
  0.538771772864E+01 -0.499013364214E-01  0.313952597647E-02
  0.538771772864E+01 -0.500000000000E-01  0.612323399574E-17
  0.529319636498E+01  0.666666666667E-01  0.000000000000E+00
  0.529319636498E+01  0.665351152286E-01  0.418603463529E-02
  0.529319636498E+01  0.661409800876E-01  0.835554890429E-02
  0.529319636498E+01  0.654858167152E-01  0.124920876390E-01
  0.529319636498E+01  0.645722107419E-01  0.165793258110E-01
  0.529319636498E+01  0.634037677530E-01  0.206011329583E-01
  0.529319636498E+01  0.619850990592E-01  0.245416368456E-01
[...]
CELL_DATA                5950
SCALARS C_p_ise float 1
LOOKUP_TABLE default
  0.835402780107E-01
  0.835402779705E-01
  0.835402779696E-01
  0.835402779698E-01
  0.835402779774E-01
  0.835402779701E-01
  0.835402779655E-01
  0.835402779731E-01
  0.835402779722E-01
  0.835402779729E-01
  0.835402779802E-01
  0.835402779738E-01
  0.835402779650E-01
  0.835402779736E-01
  0.835402779783E-01
  0.835402779680E-01
  0.835402779700E-01
  0.835402779698E-01
  0.835402779701E-01
  0.835402779772E-01
  0.835402779740E-01
  0.835402779690E-01
  0.835402779661E-01
  0.835402779680E-01
  0.835402779668E-01
  0.835402779659E-01
  0.835402779693E-01
  0.835402779697E-01
  0.835402779695E-01
  0.835402779755E-01
  0.835402779716E-01
  0.835402779667E-01
  0.835402779724E-01
  0.835402779694E-01
  0.835402779707E-01
  0.835402779819E-01
  0.835402779743E-01
  0.835402779651E-01
  0.835402779734E-01
  0.835402779779E-01
  0.835402779729E-01
  0.835402779742E-01
  0.835402779676E-01
  0.835402779686E-01
  0.835402779774E-01
  0.835402779743E-01
  0.835402779699E-01
  0.835402779673E-01
  0.835402779712E-01
  0.835402779639E-01
  0.835402771520E-01
  0.835402772721E-01
  0.835402772335E-01
  0.835402772381E-01
  0.835402772415E-01
  0.835402772544E-01
  0.835402772482E-01
  0.835402772290E-01
  0.835402772338E-01
  0.835402772256E-01
  0.835402772294E-01
  0.835402772625E-01
  0.835402772526E-01
  0.835402772366E-01
  0.835402772322E-01
  0.835402771965E-01
  0.835402772128E-01
  0.835402772646E-01
  0.835402772602E-01
  0.835402772448E-01
  0.835402772487E-01
  0.835402772385E-01
  0.835402772303E-01
  0.835402772250E-01
  0.835402772324E-01
  0.835402772812E-01
  0.835402772768E-01
  0.835402772381E-01
  0.835402772447E-01
  0.835402772503E-01
  0.835402772404E-01
  0.835402772419E-01
  0.835402772324E-01
  0.835402771980E-01
  0.835402772078E-01
  0.835402772379E-01
  0.835402772368E-01
  0.835402772327E-01
  0.835402772333E-01
  0.835402772136E-01
  0.835402772135E-01
  0.835402772228E-01
  0.835402772286E-01
  0.835402772611E-01
  0.835402772498E-01
  0.835402772246E-01
  0.835402772315E-01
  0.835402772466E-01
  0.835402772438E-01
  0.835402772389E-01
  0.835402772369E-01
  0.835402772338E-01
  0.835402772419E-01
  0.835402772560E-01
  0.835402772545E-01
  0.835402772489E-01
  0.835402772422E-01
  0.835402772227E-01
  0.835402772259E-01
  0.835402772174E-01
  0.835402772204E-01
  0.835402772410E-01
  0.835402772289E-01
  0.835402772074E-01
  0.835402772094E-01
  0.835402771981E-01
  0.835402772138E-01
  0.835402772697E-01
  0.835402772615E-01
  0.835402772330E-01
  0.835402772416E-01
  0.835402772339E-01
  0.835402772336E-01
  0.835402772553E-01
  0.835402772539E-01
  0.835402772774E-01
  0.835402772763E-01
  0.835402772480E-01
  0.835402772503E-01
  0.835402772436E-01
  0.835402772366E-01
  0.835402772306E-01
  0.835402772257E-01
  0.835402772073E-01
  0.835402772111E-01
  0.835402772421E-01
  0.835402772368E-01
  0.835402772178E-01
  0.835402772201E-01
  0.835402772007E-01
  0.835402772018E-01
  0.835402772141E-01
  0.835402772193E-01
  0.835402772485E-01
  0.835402772424E-01
  0.835402772318E-01
  0.835402772316E-01
  0.835402772192E-01
  0.835402773046E-01
  0.835402775831E-01
  0.835402773607E-01
  0.835402774675E-01
  0.835402774634E-01
  0.835402774360E-01
  0.835402774451E-01
  0.835402774658E-01
  0.835402774695E-01
  0.835402774972E-01
  0.835402775022E-01
  0.835402775353E-01
  0.835402775263E-01
  0.835402774760E-01
  0.835402774674E-01
  0.835402774187E-01
  0.835402774241E-01
  0.835402774995E-01
  0.835402774875E-01
  0.835402774052E-01
  0.835402774242E-01
  0.835402774551E-01
  0.835402774608E-01
  0.835402774955E-01
  0.835402774862E-01
  0.835402774974E-01
  0.835402774961E-01
  0.835402774613E-01
  0.835402774689E-01
  0.835402774477E-01
  0.835402774628E-01
  0.835402775698E-01
  0.835402775525E-01
  0.835402775057E-01
  0.835402774997E-01
  0.835402775143E-01
  0.835402775131E-01
  0.835402775152E-01
  0.835402775194E-01
  0.835402774954E-01
  0.835402774975E-01
  0.835402775123E-01
  0.835402774956E-01
  0.835402774451E-01
  0.835402774449E-01
  0.835402773992E-01
  0.835402774176E-01
  0.835402775120E-01
  0.835402775021E-01
  0.835402774597E-01
  0.835402774590E-01
  0.835402774447E-01
  0.835402774428E-01
  0.835402774516E-01
  0.835402774562E-01
  0.835402774436E-01
  0.835402774510E-01
  0.835402774722E-01
  0.835402774701E-01
  0.835402775022E-01
  0.835402775038E-01
  0.835402775282E-01
  0.835402775271E-01
  0.835402775204E-01
  0.835402775054E-01
  0.835402774568E-01
  0.835402774593E-01
  0.835402774975E-01
  0.835402774973E-01
  0.835402774367E-01
  0.835402774509E-01
  0.835402774695E-01
  0.835402774752E-01
  0.835402775082E-01
  0.835402775030E-01
  0.835402774911E-01
  0.835402774848E-01
  0.835402774242E-01
  0.835402774355E-01
  0.835402774587E-01
  0.835402774650E-01
  0.835402775324E-01
  0.835402775203E-01
  0.835402775058E-01
  0.835402775007E-01
  0.835402775097E-01
  0.835402775073E-01
  0.835402775076E-01
  0.835402775086E-01
  0.835402774882E-01
  0.835402774987E-01
  0.835402775715E-01
  0.835402775495E-01
  0.835402774668E-01
  0.835402774684E-01
  0.835402774294E-01
  0.835402774502E-01
  0.835402775365E-01
  0.835402775298E-01
  0.835402775152E-01
  0.835402776390E-01
  0.835402778513E-01
  0.835402764074E-01
  0.835402758881E-01
  0.835402758848E-01
  0.835402757405E-01
  0.835402757492E-01
  0.835402757854E-01
  0.835402757797E-01
  0.835402756853E-01
  0.835402757003E-01
  0.835402757313E-01
  0.835402757380E-01
  0.835402758020E-01
  0.835402757885E-01
  0.835402758246E-01
  0.835402758260E-01
  0.835402758662E-01
  0.835402758722E-01
  0.835402758922E-01
  0.835402758837E-01
  0.835402758064E-01
  0.835402758282E-01
  0.835402758977E-01
  0.835402758945E-01
  0.835402758883E-01
  0.835402758778E-01
  0.835402757973E-01
  0.835402758023E-01
  0.835402758321E-01
  0.835402758353E-01
  0.835402757823E-01
  0.835402757864E-01
  0.835402757865E-01
  0.835402757728E-01
  0.835402757848E-01
  0.835402757805E-01
  0.835402757389E-01
  0.835402757320E-01
  0.835402756515E-01
  0.835402756597E-01
  0.835402757355E-01
  0.835402757284E-01
  0.835402757751E-01
  0.835402757591E-01
  0.835402757194E-01
  0.835402757305E-01
  0.835402757432E-01
  0.835402757557E-01
  0.835402757803E-01
  0.835402757972E-01
  0.835402759794E-01
  0.835402759695E-01
  0.835402759327E-01
  0.835402759191E-01
  0.835402757802E-01
  0.835402757840E-01
  0.835402757767E-01
  0.835402757647E-01
  0.835402756659E-01
  0.835402756764E-01
  0.835402756940E-01
  0.835402757090E-01
  0.835402757876E-01
  0.835402757798E-01
  0.835402758395E-01
  0.835402758384E-01
  0.835402758809E-01
  0.835402758891E-01
  0.835402758946E-01
  0.835402758836E-01
  0.835402757925E-01
  0.835402758137E-01
  0.835402758966E-01
  0.835402759005E-01
  0.835402759184E-01
  0.835402759060E-01
  0.835402758793E-01
  0.835402758651E-01
  0.835402757715E-01
  0.835402757952E-01
  0.835402758845E-01
  0.835402758707E-01
  0.835402757644E-01
  0.835402757635E-01
  0.835402758129E-01
  0.835402758091E-01
  0.835402757861E-01
  0.835402757675E-01
  0.835402756295E-01
  0.835402756432E-01
  0.835402756937E-01
  0.835402756979E-01
  0.835402757791E-01
  0.835402757570E-01
  0.835402757071E-01
  0.835402757217E-01
  0.835402757321E-01
  0.835402757396E-01
  0.835402757179E-01
  0.835402758429E-01
  0.835402758717E-01
  0.835402772202E-01
  0.835402771095E-01
  0.835402770548E-01
  0.835402772598E-01
  0.835402772212E-01
  0.835402769807E-01
  0.835402769731E-01
  0.835402769087E-01
  0.835402769234E-01
  0.835402770430E-01
  0.835402770659E-01
  0.835402771712E-01
  0.835402771621E-01
  0.835402771195E-01
  0.835402771058E-01
  0.835402769241E-01
  0.835402769512E-01
  0.835402770896E-01
  0.835402771055E-01
  0.835402772995E-01
  0.835402772683E-01
  0.835402768906E-01
  0.835402769050E-01
  0.835402769734E-01
  0.835402769769E-01
  0.835402771118E-01
  0.835402771150E-01
  0.835402772022E-01
  0.835402771991E-01
  0.835402771036E-01
  0.835402771014E-01
  0.835402771131E-01
  0.835402770939E-01
  0.835402770435E-01
  0.835402770342E-01
  0.835402769736E-01
  0.835402769706E-01
  0.835402770597E-01
  0.835402770696E-01
  0.835402771885E-01
  0.835402771508E-01
  0.835402767783E-01
  0.835402768126E-01
  0.835402772056E-01
  0.835402772145E-01
  0.835402772462E-01
  0.835402772284E-01
  0.835402769402E-01
  0.835402769565E-01
  0.835402769194E-01
  0.835402769511E-01
  0.835402770920E-01
  0.835402770849E-01
  0.835402771897E-01
  0.835402771787E-01
  0.835402772235E-01
  0.835402771788E-01
  0.835402768932E-01
  0.835402769176E-01
  0.835402771697E-01
  0.835402771943E-01
  0.835402772586E-01
  0.835402772400E-01
  0.835402770417E-01
  0.835402770373E-01
  0.835402769309E-01
  0.835402769550E-01
  0.835402770435E-01
  0.835402770568E-01
  0.835402772678E-01
  0.835402772485E-01
  0.835402770009E-01
  0.835402770022E-01
  0.835402768729E-01
  0.835402768780E-01
  0.835402770126E-01
  0.835402770129E-01
  0.835402771780E-01
  0.835402771730E-01
  0.835402770342E-01
  0.835402770429E-01
  0.835402771312E-01
  0.835402771076E-01
  0.835402770392E-01
  0.835402770464E-01
  0.835402770821E-01
  0.835402770590E-01
  0.835402770489E-01
  0.835402770561E-01
  0.835402771759E-01
  0.835402771566E-01
  0.835402768805E-01
  0.835402769152E-01
  0.835402773225E-01
  0.835402773180E-01
  0.835402772112E-01
  0.835402771987E-01
  0.835402770055E-01
  0.835402771689E-01
  0.835402775420E-01
  0.835402773856E-01
  0.835402769611E-01
  0.835402768671E-01
  0.835402765700E-01
  0.835402766183E-01
  0.835402773234E-01
  0.835402772864E-01
  0.835402772577E-01
  0.835402772060E-01
  0.835402765529E-01
  0.835402766080E-01
  0.835402768163E-01
  0.835402768129E-01
  0.835402767462E-01
  0.835402767559E-01
  0.835402770645E-01
  0.835402770692E-01
  0.835402770459E-01
  0.835402770424E-01
  0.835402766599E-01
  0.835402766862E-01
  0.835402770813E-01
  0.835402770556E-01
  0.835402770773E-01
  0.835402770440E-01
  0.835402765556E-01
  0.835402765814E-01
  0.835402766650E-01
  0.835402766772E-01
  0.835402767389E-01
  0.835402767557E-01
  0.835402770814E-01
  0.835402770602E-01
  0.835402770252E-01
  0.835402770104E-01
  0.835402770106E-01
  0.835402769825E-01
  0.835402767789E-01
  0.835402768000E-01
  0.835402768145E-01
  0.835402768419E-01
  0.835402774125E-01
  0.835402773527E-01
  0.835402767724E-01
  0.835402768634E-01
  0.835402772855E-01
  0.835402772482E-01
  0.835402769938E-01
  0.835402769586E-01
  0.835402767451E-01
  0.835402767952E-01
  0.835402770420E-01
  0.835402770081E-01
  0.835402765411E-01
  0.835402765987E-01
  0.835402772257E-01
  0.835402772019E-01
  0.835402773781E-01
  0.835402773055E-01
  0.835402765873E-01
  0.835402766441E-01
  0.835402766905E-01
  0.835402766912E-01
  0.835402768253E-01
  0.835402768267E-01
  0.835402771331E-01
  0.835402771432E-01
  0.835402771195E-01
  0.835402771018E-01
  0.835402766526E-01
  0.835402766915E-01
  0.835402770738E-01
  0.835402770615E-01
  0.835402772140E-01
  0.835402771529E-01
  0.835402765833E-01
  0.835402766113E-01
  0.835402767515E-01
  0.835402767628E-01
  0.835402767408E-01
  0.835402767611E-01
  0.835402770580E-01
  0.835402770598E-01
  0.835402772327E-01
  0.835402771921E-01
  0.835402767501E-01
  0.835402767343E-01
  0.835402767712E-01
  0.835402767707E-01
  0.835402766979E-01
  0.835402767394E-01
  0.835402772621E-01
  0.835402772199E-01
  0.835402767108E-01
  0.835402767996E-01
  0.835402773272E-01
  0.835402772660E-01
  0.835402768604E-01
  0.835402769686E-01
  0.835402765986E-01
  0.835402784644E-01
  0.835402819596E-01
  0.835402818629E-01
  0.835402823298E-01
  0.835402823136E-01
  0.835402818254E-01
  0.835402819107E-01
  0.835402826664E-01
  0.835402825904E-01
  0.835402823088E-01
  0.835402823094E-01
  0.835402823731E-01
  0.835402824171E-01
  0.835402827878E-01
  0.835402827785E-01
  0.835402826101E-01
  0.835402825877E-01
  0.835402818694E-01
  0.835402818664E-01
  0.835402818993E-01
  0.835402819040E-01
  0.835402820753E-01
  0.835402820918E-01
  0.835402821735E-01
  0.835402821841E-01
  0.835402827296E-01
  0.835402826657E-01
  0.835402820764E-01
  0.835402820778E-01
  0.835402818384E-01
  0.835402819113E-01
  0.835402825682E-01
  0.835402825413E-01
  0.835402820820E-01
  0.835402820741E-01
  0.835402822054E-01
  0.835402821789E-01
  0.835402822006E-01
  0.835402821484E-01
  0.835402814369E-01
  0.835402815039E-01
  0.835402820012E-01
  0.835402820162E-01
  0.835402823137E-01
  0.835402823420E-01
  0.835402822129E-01
  0.835402822052E-01
  0.835402820918E-01
  0.835402820688E-01
  0.835402825271E-01
  0.835402824863E-01
  0.835402815564E-01
  0.835402816271E-01
  0.835402826950E-01
  0.835402826292E-01
  0.835402815766E-01
  0.835402816880E-01
  0.835402827043E-01
  0.835402826163E-01
  0.835402822073E-01
  0.835402822100E-01
  0.835402823545E-01
  0.835402824101E-01
  0.835402830686E-01
  0.835402830236E-01
  0.835402822618E-01
  0.835402822623E-01
  0.835402817757E-01
  0.835402817526E-01
  0.835402817118E-01
  0.835402817396E-01
  0.835402821267E-01
  0.835402821311E-01
  0.835402818960E-01
  0.835402819124E-01
  0.835402827399E-01
  0.835402826740E-01
  0.835402821255E-01
  0.835402821309E-01
  0.835402818888E-01
  0.835402819550E-01
  0.835402825777E-01
  0.835402825361E-01
  0.835402816208E-01
  0.835402816506E-01
  0.835402823615E-01
  0.835402823062E-01
  0.835402823150E-01
  0.835402822631E-01
  0.835402815516E-01
  0.835402815996E-01
  0.835402817692E-01
  0.835402817962E-01
  0.835402820791E-01
  0.835402821202E-01
  0.835402821024E-01
  0.835402820931E-01
  0.835402821457E-01
  0.835402824962E-01
  0.835402861254E-01
  0.835402757417E-01
  0.835402734659E-01
  0.835402736661E-01
  0.835402740867E-01
  0.835402740713E-01
  0.835402735454E-01
  0.835402736059E-01
  0.835402737985E-01
  0.835402738192E-01
  0.835402743981E-01
  0.835402743644E-01
  0.835402741749E-01
  0.835402741628E-01
  0.835402732477E-01
  0.835402733114E-01
  0.835402739790E-01
  0.835402739800E-01
  0.835402745263E-01
  0.835402744808E-01
  0.835402746723E-01
  0.835402745875E-01
  0.835402732067E-01
  0.835402732939E-01
  0.835402741560E-01
  0.835402741884E-01
  0.835402744205E-01
  0.835402744330E-01
  0.835402749514E-01
  0.835402749057E-01
  0.835402748791E-01
  0.835402748840E-01
  0.835402741388E-01
  0.835402742173E-01
  0.835402750400E-01
  0.835402749570E-01
  0.835402743611E-01
  0.835402743371E-01
  0.835402742233E-01
  0.835402742752E-01
  0.835402758115E-01
  0.835402757558E-01
  0.835402747357E-01
  0.835402747428E-01
  0.835402740509E-01
  0.835402740762E-01
  0.835402736872E-01
  0.835402737121E-01
  0.835402743492E-01
  0.835402742543E-01
  0.835402733071E-01
  0.835402733583E-01
  0.835402742104E-01
  0.835402742013E-01
  0.835402740788E-01
  0.835402740691E-01
  0.835402736786E-01
  0.835402737174E-01
  0.835402738418E-01
  0.835402738895E-01
  0.835402747533E-01
  0.835402746819E-01
  0.835402740423E-01
  0.835402740426E-01
  0.835402730452E-01
  0.835402731226E-01
  0.835402741985E-01
  0.835402741518E-01
  0.835402743229E-01
  0.835402743050E-01
  0.835402749440E-01
  0.835402748501E-01
  0.835402730715E-01
  0.835402731930E-01
  0.835402745036E-01
  0.835402745028E-01
  0.835402745153E-01
  0.835402745346E-01
  0.835402748580E-01
  0.835402748302E-01
  0.835402749653E-01
  0.835402749435E-01
  0.835402739044E-01
  0.835402739939E-01
  0.835402752415E-01
  0.835402751192E-01
  0.835402738937E-01
  0.835402738978E-01
  0.835402739693E-01
  0.835402740233E-01
  0.835402756006E-01
  0.835402755394E-01
  0.835402747230E-01
  0.835402747255E-01
  0.835402741613E-01
  0.835402741880E-01
  0.835402736451E-01
  0.835402736822E-01
  0.835402743989E-01
  0.835402746797E-01
  0.835402735736E-01
  0.835402775287E-01
  0.835402783180E-01
  0.835402783095E-01
  0.835402773399E-01
  0.835402774393E-01
  0.835402789151E-01
  0.835402788775E-01
  0.835402778064E-01
  0.835402778501E-01
  0.835402780228E-01
  0.835402780242E-01
  0.835402779645E-01
  0.835402779478E-01
  0.835402780847E-01
  0.835402780382E-01
  0.835402772027E-01
  0.835402772531E-01
  0.835402773359E-01
  0.835402772798E-01
  0.835402764798E-01
  0.835402764893E-01
  0.835402778761E-01
  0.835402777873E-01
  0.835402763596E-01
  0.835402765213E-01
  0.835402777409E-01
  0.835402777187E-01
  0.835402768655E-01
  0.835402768255E-01
  0.835402763366E-01
  0.835402764270E-01
  0.835402779109E-01
  0.835402779176E-01
  0.835402775418E-01
  0.835402775749E-01
  0.835402786168E-01
  0.835402785446E-01
  0.835402784009E-01
  0.835402784048E-01
  0.835402777182E-01
  0.835402776799E-01
  0.835402762351E-01
  0.835402762999E-01
  0.835402784373E-01
  0.835402783738E-01
  0.835402776482E-01
  0.835402776498E-01
  0.835402776960E-01
  0.835402776849E-01
  0.835402783871E-01
  0.835402783464E-01
  0.835402778565E-01
  0.835402778519E-01
  0.835402769622E-01
  0.835402770462E-01
  0.835402787786E-01
  0.835402787421E-01
  0.835402779062E-01
  0.835402779596E-01
  0.835402779149E-01
  0.835402779534E-01
  0.835402788438E-01
  0.835402787623E-01
  0.835402780962E-01
  0.835402780730E-01
  0.835402774942E-01
  0.835402775539E-01
  0.835402781416E-01
  0.835402780618E-01
  0.835402768140E-01
  0.835402768389E-01
  0.835402781332E-01
  0.835402780597E-01
  0.835402767598E-01
  0.835402768720E-01
  0.835402773074E-01
  0.835402772907E-01
  0.835402766646E-01
  0.835402766405E-01
  0.835402763376E-01
  0.835402763965E-01
  0.835402776137E-01
  0.835402776415E-01
  0.835402777693E-01
  0.835402777686E-01
  0.835402784215E-01
  0.835402783756E-01
  0.835402789128E-01
  0.835402789217E-01
  0.835402780736E-01
  0.835402780364E-01
  0.835402766564E-01
  0.835402767135E-01
  0.835402785672E-01
  0.835402785164E-01
  0.835402778386E-01
  0.835402778253E-01
  0.835402775840E-01
  0.835402779931E-01
  0.835402793614E-01
  0.835402785515E-01
  0.835402739360E-01
  0.835402740047E-01
  0.835402745905E-01
  0.835402744633E-01
  0.835402712405E-01
  0.835402713616E-01
  0.835402727257E-01
  0.835402727569E-01
  0.835402737160E-01
  0.835402737260E-01
  0.835402736967E-01
  0.835402736819E-01
  0.835402737845E-01
  0.835402737624E-01
  0.835402740714E-01
  0.835402740427E-01
  0.835402734723E-01
  0.835402734178E-01
  0.835402733568E-01
  0.835402733371E-01
  0.835402736766E-01
  0.835402736934E-01
  0.835402741504E-01
  0.835402741375E-01
  0.835402724171E-01
  0.835402724707E-01
  0.835402725482E-01
  0.835402725485E-01
  0.835402742669E-01
  0.835402742771E-01
  0.835402732992E-01
  0.835402733575E-01
  0.835402726781E-01
  0.835402727351E-01
  0.835402736084E-01
  0.835402735999E-01
  0.835402736461E-01
  0.835402736625E-01
  0.835402740588E-01
  0.835402740147E-01
  0.835402746718E-01
  0.835402745344E-01
  0.835402723066E-01
  0.835402723882E-01
  0.835402727578E-01
  0.835402728373E-01
  0.835402751268E-01
  0.835402750366E-01
  0.835402734829E-01
  0.835402735086E-01
  0.835402739860E-01
  0.835402739440E-01
  0.835402737795E-01
  0.835402737149E-01
  0.835402718846E-01
  0.835402719947E-01
  0.835402728427E-01
  0.835402728845E-01
  0.835402736001E-01
  0.835402736181E-01
  0.835402732763E-01
  0.835402732752E-01
  0.835402738089E-01
  0.835402737457E-01
  0.835402737301E-01
  0.835402736995E-01
  0.835402726330E-01
  0.835402726156E-01
  0.835402731453E-01
  0.835402731132E-01
  0.835402734238E-01
  0.835402734248E-01
  0.835402733936E-01
  0.835402733974E-01
  0.835402727926E-01
  0.835402728081E-01
  0.835402729331E-01
  0.835402729547E-01
  0.835402745229E-01
  0.835402745659E-01
  0.835402746023E-01
  0.835402746014E-01
  0.835402726951E-01
  0.835402727877E-01
  0.835402744190E-01
  0.835402743592E-01
  0.835402733669E-01
  0.835402734528E-01
  0.835402743147E-01
  0.835402742594E-01
  0.835402748637E-01
  0.835402747160E-01
  0.835402723664E-01
  0.835402724448E-01
  0.835402728281E-01
  0.835402729051E-01
  0.835402753769E-01