# vtk DataFile Version 3.0
MachLine results file. Generated by MachLine, USU AeroLab (c) 2022.
ASCII
DATASET POLYDATA
POINTS                3061 float
  0.373205080757E+01  0.000000000000E+00  0.000000000000E+00
  0.366984996078E+01  0.166666666667E-01  0.000000000000E+00
  0.366984996078E+01  0.166337788071E-01  0.104650865882E-02
  0.366984996078E+01  0.165352450219E-01  0.208888722607E-02
  0.366984996078E+01  0.163714541788E-01  0.312302190976E-02
  0.366984996078E+01  0.161430526855E-01  0.414483145275E-02
  0.366984996078E+01  0.158509419383E-01  0.515028323958E-02
  0.366984996078E+01  0.154962747648E-01  0.613540921141E-02
  0.366984996078E+01  0.150804508744E-01  0.709632152608E-02
  0.366984996078E+01  0.146051113341E-01  0.802922790170E-02
  0.366984996078E+01  0.140721320917E-01  0.893044658298E-02
  0.366984996078E+01  0.134836165729E-01  0.979642087154E-02
  0.366984996078E+01  0.128418873796E-01  0.106237331625E-01
  0.366984996078E+01  0.121494771237E-01  0.114091184321E-01
  0.366984996078E+01  0.114091184321E-01  0.121494771237E-01
  0.366984996078E+01  0.106237331625E-01  0.128418873796E-01
  0.366984996078E+01  0.979642087154E-02  0.134836165729E-01
  0.366984996078E+01  0.893044658298E-02  0.140721320917E-01
  0.366984996078E+01  0.802922790170E-02  0.146051113341E-01
  0.366984996078E+01  0.709632152608E-02  0.150804508744E-01
  0.366984996078E+01  0.613540921141E-02  0.154962747648E-01
  0.366984996078E+01  0.515028323958E-02  0.158509419383E-01
  0.366984996078E+01  0.414483145275E-02  0.161430526855E-01
  0.366984996078E+01  0.312302190976E-02  0.163714541788E-01
  0.366984996078E+01  0.208888722607E-02  0.165352450219E-01
  0.366984996078E+01  0.104650865882E-02  0.166337788071E-01
  0.366984996078E+01 -0.268020441613E-17  0.166666666667E-01
  0.366984996078E+01 -0.104650865882E-02  0.166337788071E-01
  0.366984996078E+01 -0.208888722607E-02  0.165352450219E-01
  0.366984996078E+01 -0.312302190976E-02  0.163714541788E-01
  0.366984996078E+01 -0.414483145275E-02  0.161430526855E-01
  0.366984996078E+01 -0.515028323958E-02  0.158509419383E-01
  0.366984996078E+01 -0.613540921141E-02  0.154962747648E-01
  0.366984996078E+01 -0.709632152608E-02  0.150804508744E-01
  0.366984996078E+01 -0.802922790170E-02  0.146051113341E-01
  0.366984996078E+01 -0.893044658298E-02  0.140721320917E-01
  0.366984996078E+01 -0.979642087154E-02  0.134836165729E-01
  0.366984996078E+01 -0.106237331625E-01  0.128418873796E-01
  0.366984996078E+01 -0.114091184321E-01  0.121494771237E-01
  0.366984996078E+01 -0.121494771237E-01  0.114091184321E-01
  0.366984996078E+01 -0.128418873796E-01  0.106237331625E-01
  0.366984996078E+01 -0.134836165729E-01  0.979642087154E-02
  0.366984996078E+01 -0.140721320917E-01  0.893044658298E-02
  0.366984996078E+01 -0.146051113341E-01  0.802922790170E-02
  0.366984996078E+01 -0.150804508744E-01  0.709632152608E-02
  0.366984996078E+01 -0.154962747648E-01  0.613540921141E-02
  0.366984996078E+01 -0.158509419383E-01  0.515028323958E-02
  0.366984996078E+01 -0.161430526855E-01  0.414483145275E-02
  0.366984996078E+01 -0.163714541788E-01  0.312302190976E-02
  0.366984996078E+01 -0.165352450219E-01  0.208888722607E-02
  0.366984996078E+01 -0.166337788071E-01  0.104650865882E-02
  0.366984996078E+01 -0.166666666667E-01  0.204107799858E-17
  0.360764911398E+01  0.333333333333E-01  0.000000000000E+00
  0.360764911398E+01  0.332675576143E-01  0.209301731764E-02
  0.360764911398E+01  0.330704900438E-01  0.417777445214E-02
  0.360764911398E+01  0.327429083576E-01  0.624604381952E-02
  0.360764911398E+01  0.322861053710E-01  0.828966290550E-02
  0.360764911398E+01  0.317018838765E-01  0.103005664792E-01
  0.360764911398E+01  0.309925495296E-01  0.122708184228E-01
  0.360764911398E+01  0.301609017489E-01  0.141926430522E-01
  0.360764911398E+01  0.292102226681E-01  0.160584558034E-01
  0.360764911398E+01  0.281442641834E-01  0.178608931660E-01
  0.360764911398E+01  0.269672331458E-01  0.195928417431E-01
  0.360764911398E+01  0.256837747592E-01  0.212474663250E-01
  0.360764911398E+01  0.242989542474E-01  0.228182368643E-01
  0.360764911398E+01  0.228182368643E-01  0.242989542474E-01
  0.360764911398E+01  0.212474663250E-01  0.256837747592E-01
  0.360764911398E+01  0.195928417431E-01  0.269672331458E-01
  0.360764911398E+01  0.178608931660E-01  0.281442641834E-01
  0.360764911398E+01  0.160584558034E-01  0.292102226681E-01
  0.360764911398E+01  0.141926430522E-01  0.301609017489E-01
  0.360764911398E+01  0.122708184228E-01  0.309925495296E-01
  0.360764911398E+01  0.103005664792E-01  0.317018838765E-01
  0.360764911398E+01  0.828966290550E-02  0.322861053710E-01
  0.360764911398E+01  0.624604381952E-02  0.327429083576E-01
  0.360764911398E+01  0.417777445214E-02  0.330704900438E-01
  0.360764911398E+01  0.209301731764E-02  0.332675576143E-01
  0.360764911398E+01 -0.536040883226E-17  0.333333333333E-01
  0.360764911398E+01 -0.209301731764E-02  0.332675576143E-01
  0.360764911398E+01 -0.417777445214E-02  0.330704900438E-01
  0.360764911398E+01 -0.624604381952E-02  0.327429083576E-01
  0.360764911398E+01 -0.828966290550E-02  0.322861053710E-01
  0.360764911398E+01 -0.103005664792E-01  0.317018838765E-01
  0.360764911398E+01 -0.122708184228E-01  0.309925495296E-01
  0.360764911398E+01 -0.141926430522E-01  0.301609017489E-01
  0.360764911398E+01 -0.160584558034E-01  0.292102226681E-01
  0.360764911398E+01 -0.178608931660E-01  0.281442641834E-01
  0.360764911398E+01 -0.195928417431E-01  0.269672331458E-01
  0.360764911398E+01 -0.212474663250E-01  0.256837747592E-01
  0.360764911398E+01 -0.228182368643E-01  0.242989542474E-01
  0.360764911398E+01 -0.242989542474E-01  0.228182368643E-01
  0.360764911398E+01 -0.256837747592E-01  0.212474663250E-01
  0.360764911398E+01 -0.269672331458E-01  0.195928417431E-01
  0.360764911398E+01 -0.281442641834E-01  0.178608931660E-01
  0.360764911398E+01 -0.292102226681E-01  0.160584558034E-01
  0.360764911398E+01 -0.301609017489E-01  0.141926430522E-01
  0.360764911398E+01 -0.309925495296E-01  0.122708184228E-01
  0.360764911398E+01 -0.317018838765E-01  0.103005664792E-01
  0.360764911398E+01 -0.322861053710E-01  0.828966290550E-02
  0.360764911398E+01 -0.327429083576E-01  0.624604381952E-02
  0.360764911398E+01 -0.330704900438E-01  0.417777445214E-02
  0.360764911398E+01 -0.332675576143E-01  0.209301731764E-02
  0.360764911398E+01 -0.333333333333E-01  0.408215599716E-17
  0.354544826719E+01  0.500000000000E-01  0.000000000000E+00
  0.354544826719E+01  0.499013364214E-01  0.313952597647E-02
  0.354544826719E+01  0.496057350657E-01  0.626666167822E-02
  0.354544826719E+01  0.491143625364E-01  0.936906572929E-02
  0.354544826719E+01  0.484291580564E-01  0.124344943582E-01
  0.354544826719E+01  0.475528258148E-01  0.154508497187E-01
  0.354544826719E+01  0.464888242944E-01  0.184062276342E-01
  0.354544826719E+01  0.452413526233E-01  0.212889645783E-01
  0.354544826719E+01  0.438153340022E-01  0.240876837051E-01
  0.354544826719E+01  0.422163962751E-01  0.267913397489E-01
  0.354544826719E+01  0.404508497187E-01  0.293892626146E-01
  0.354544826719E+01  0.385256621388E-01  0.318711994874E-01
  0.354544826719E+01  0.364484313711E-01  0.342273552964E-01
  0.354544826719E+01  0.342273552964E-01  0.364484313711E-01
  0.354544826719E+01  0.318711994874E-01  0.385256621388E-01
  0.354544826719E+01  0.293892626146E-01  0.404508497187E-01
  0.354544826719E+01  0.267913397489E-01  0.422163962751E-01
  0.354544826719E+01  0.240876837051E-01  0.438153340022E-01
  0.354544826719E+01  0.212889645783E-01  0.452413526233E-01
  0.354544826719E+01  0.184062276342E-01  0.464888242944E-01
  0.354544826719E+01  0.154508497187E-01  0.475528258148E-01
  0.354544826719E+01  0.124344943582E-01  0.484291580564E-01
  0.354544826719E+01  0.936906572929E-02  0.491143625364E-01
  0.354544826719E+01  0.626666167822E-02  0.496057350657E-01
  0.354544826719E+01  0.313952597647E-02  0.499013364214E-01
  0.354544826719E+01 -0.804061324838E-17  0.500000000000E-01
  0.354544826719E+01 -0.313952597647E-02  0.499013364214E-01
  0.354544826719E+01 -0.626666167822E-02  0.496057350657E-01
  0.354544826719E+01 -0.936906572929E-02  0.491143625364E-01
  0.354544826719E+01 -0.124344943582E-01  0.484291580564E-01
  0.354544826719E+01 -0.154508497187E-01  0.475528258148E-01
  0.354544826719E+01 -0.184062276342E-01  0.464888242944E-01
  0.354544826719E+01 -0.212889645783E-01  0.452413526233E-01
  0.354544826719E+01 -0.240876837051E-01  0.438153340022E-01
  0.354544826719E+01 -0.267913397489E-01  0.422163962751E-01
  0.354544826719E+01 -0.293892626146E-01  0.404508497187E-01
  0.354544826719E+01 -0.318711994874E-01  0.385256621388E-01
  0.354544826719E+01 -0.342273552964E-01  0.364484313711E-01
  0.354544826719E+01 -0.364484313711E-01  0.342273552964E-01
  0.354544826719E+01 -0.385256621388E-01  0.318711994874E-01
  0.354544826719E+01 -0.404508497187E-01  0.293892626146E-01
  0.354544826719E+01 -0.422163962751E-01  0.267913397489E-01
  0.354544826719E+01 -0.438153340022E-01  0.240876837051E-01
  0.354544826719E+01 -0.452413526233E-01  0.212889645783E-01
  0.354544826719E+01 -0.464888242944E-01  0.184062276342E-01
  0.354544826719E+01 -0.475528258148E-01  0.154508497187E-01
  0.354544826719E+01 -0.484291580564E-01  0.124344943582E-01
  0.354544826719E+01 -0.491143625364E-01  0.936906572929E-02
  0.354544826719E+01 -0.496057350657E-01  0.626666167822E-02
  0.354544826719E+01 -0.499013364214E-01  0.313952597647E-02
  0.354544826719E+01 -0.500000000000E-01  0.612323399574E-17
  0.348324742040E+01  0.666666666667E-01  0.000000000000E+00
  0.348324742040E+01  0.665351152286E-01  0.418603463529E-02
  0.348324742040E+01  0.661409800876E-01  0.835554890429E-02
  0.348324742040E+01  0.654858167152E-01  0.124920876390E-01
  0.348324742040E+01  0.645722107419E-01  0.165793258110E-01
  0.348324742040E+01  0.634037677530E-01  0.206011329583E-01
  0.348324742040E+01  0.619850990592E-01  0.245416368456E-01
[...]
CELL_DATA                5950
SCALARS C_p_ise float 1
LOOKUP_TABLE default
 -0.616727706477E-01
 -0.616727705311E-01
 -0.616727705288E-01
 -0.616727705304E-01
 -0.616727705369E-01
 -0.616727705484E-01
 -0.616727705504E-01
 -0.616727705461E-01
 -0.616727705410E-01
 -0.616727705411E-01
 -0.616727705241E-01
 -0.616727705123E-01
 -0.616727705307E-01
 -0.616727705247E-01
 -0.616727705256E-01
 -0.616727705362E-01
 -0.616727705358E-01
 -0.616727705454E-01
 -0.616727705523E-01
 -0.616727705437E-01
 -0.616727705346E-01
 -0.616727705338E-01
 -0.616727705285E-01
 -0.616727705291E-01
 -0.616727705315E-01
 -0.616727705308E-01
 -0.616727705312E-01
 -0.616727705301E-01
 -0.616727705316E-01
 -0.616727705373E-01
 -0.616727705488E-01
 -0.616727705539E-01
 -0.616727705511E-01
 -0.616727705434E-01
 -0.616727705402E-01
 -0.616727705258E-01
 -0.616727705153E-01
 -0.616727705319E-01
 -0.616727705270E-01
 -0.616727705285E-01
 -0.616727705396E-01
 -0.616727705375E-01
 -0.616727705458E-01
 -0.616727705555E-01
 -0.616727705473E-01
 -0.616727705383E-01
 -0.616727705369E-01
 -0.616727705307E-01
 -0.616727705271E-01
 -0.616727704419E-01
 -0.616727682006E-01
 -0.616727690942E-01
 -0.616727689864E-01
 -0.616727690129E-01
 -0.616727690202E-01
 -0.616727690487E-01
 -0.616727690314E-01
 -0.616727689748E-01
 -0.616727689756E-01
 -0.616727689584E-01
 -0.616727689736E-01
 -0.616727689835E-01
 -0.616727689843E-01
 -0.616727689810E-01
 -0.616727689823E-01
 -0.616727689989E-01
 -0.616727689866E-01
 -0.616727689642E-01
 -0.616727689597E-01
 -0.616727689450E-01
 -0.616727689658E-01
 -0.616727690788E-01
 -0.616727690787E-01
 -0.616727691137E-01
 -0.616727690947E-01
 -0.616727689813E-01
 -0.616727689925E-01
 -0.616727690450E-01
 -0.616727690151E-01
 -0.616727689229E-01
 -0.616727689463E-01
 -0.616727689850E-01
 -0.616727689970E-01
 -0.616727690345E-01
 -0.616727690282E-01
 -0.616727689811E-01
 -0.616727689964E-01
 -0.616727690215E-01
 -0.616727690043E-01
 -0.616727689784E-01
 -0.616727689692E-01
 -0.616727689695E-01
 -0.616727689873E-01
 -0.616727690433E-01
 -0.616727690377E-01
 -0.616727690365E-01
 -0.616727690294E-01
 -0.616727690065E-01
 -0.616727690135E-01
 -0.616727690275E-01
 -0.616727690177E-01
 -0.616727689900E-01
 -0.616727689987E-01
 -0.616727690237E-01
 -0.616727690233E-01
 -0.616727690257E-01
 -0.616727690204E-01
 -0.616727689999E-01
 -0.616727689928E-01
 -0.616727689541E-01
 -0.616727689672E-01
 -0.616727689707E-01
 -0.616727689798E-01
 -0.616727689923E-01
 -0.616727689805E-01
 -0.616727689534E-01
 -0.616727689499E-01
 -0.616727689614E-01
 -0.616727689660E-01
 -0.616727689887E-01
 -0.616727690063E-01
 -0.616727691021E-01
 -0.616727690949E-01
 -0.616727691047E-01
 -0.616727690900E-01
 -0.616727689949E-01
 -0.616727690007E-01
 -0.616727690338E-01
 -0.616727690175E-01
 -0.616727689640E-01
 -0.616727689692E-01
 -0.616727689519E-01
 -0.616727689723E-01
 -0.616727690402E-01
 -0.616727690246E-01
 -0.616727689532E-01
 -0.616727689700E-01
 -0.616727689913E-01
 -0.616727689730E-01
 -0.616727689422E-01
 -0.616727689334E-01
 -0.616727689349E-01
 -0.616727689569E-01
 -0.616727690273E-01
 -0.616727690192E-01
 -0.616727690134E-01
 -0.616727690145E-01
 -0.616727690282E-01
 -0.616727693196E-01
 -0.616727704490E-01
 -0.616727687851E-01
 -0.616727710372E-01
 -0.616727712256E-01
 -0.616727712166E-01
 -0.616727712382E-01
 -0.616727712653E-01
 -0.616727712318E-01
 -0.616727711031E-01
 -0.616727710870E-01
 -0.616727710970E-01
 -0.616727710935E-01
 -0.616727710329E-01
 -0.616727710733E-01
 -0.616727712541E-01
 -0.616727712763E-01
 -0.616727713855E-01
 -0.616727713274E-01
 -0.616727710723E-01
 -0.616727710577E-01
 -0.616727710475E-01
 -0.616727710952E-01
 -0.616727712555E-01
 -0.616727712301E-01
 -0.616727709169E-01
 -0.616727709606E-01
 -0.616727712176E-01
 -0.616727711818E-01
 -0.616727711342E-01
 -0.616727711325E-01
 -0.616727711839E-01
 -0.616727711768E-01
 -0.616727711763E-01
 -0.616727711991E-01
 -0.616727711866E-01
 -0.616727712029E-01
 -0.616727712525E-01
 -0.616727712336E-01
 -0.616727711416E-01
 -0.616727711433E-01
 -0.616727711962E-01
 -0.616727711685E-01
 -0.616727711157E-01
 -0.616727711000E-01
 -0.616727709310E-01
 -0.616727709847E-01
 -0.616727711880E-01
 -0.616727711987E-01
 -0.616727712899E-01
 -0.616727712336E-01
 -0.616727709551E-01
 -0.616727709649E-01
 -0.616727710394E-01
 -0.616727710620E-01
 -0.616727711775E-01
 -0.616727711969E-01
 -0.616727712537E-01
 -0.616727712158E-01
 -0.616727710485E-01
 -0.616727710583E-01
 -0.616727711779E-01
 -0.616727711468E-01
 -0.616727709940E-01
 -0.616727710352E-01
 -0.616727711894E-01
 -0.616727712127E-01
 -0.616727713667E-01
 -0.616727713104E-01
 -0.616727710930E-01
 -0.616727710821E-01
 -0.616727709880E-01
 -0.616727710329E-01
 -0.616727711324E-01
 -0.616727711291E-01
 -0.616727709909E-01
 -0.616727710087E-01
 -0.616727711568E-01
 -0.616727711240E-01
 -0.616727710879E-01
 -0.616727710995E-01
 -0.616727711814E-01
 -0.616727711712E-01
 -0.616727711821E-01
 -0.616727711938E-01
 -0.616727711768E-01
 -0.616727711892E-01
 -0.616727712151E-01
 -0.616727711944E-01
 -0.616727711267E-01
 -0.616727711283E-01
 -0.616727711931E-01
 -0.616727711587E-01
 -0.616727710781E-01
 -0.616727710703E-01
 -0.616727709181E-01
 -0.616727709652E-01
 -0.616727711240E-01
 -0.616727711379E-01
 -0.616727712116E-01
 -0.616727719652E-01
 -0.616727742541E-01
 -0.616727666865E-01
 -0.616727607942E-01
 -0.616727613991E-01
 -0.616727611623E-01
 -0.616727611642E-01
 -0.616727610388E-01
 -0.616727610316E-01
 -0.616727611799E-01
 -0.616727611970E-01
 -0.616727616071E-01
 -0.616727615907E-01
 -0.616727614811E-01
 -0.616727614190E-01
 -0.616727607870E-01
 -0.616727608445E-01
 -0.616727608416E-01
 -0.616727608988E-01
 -0.616727615527E-01
 -0.616727614892E-01
 -0.616727615005E-01
 -0.616727614991E-01
 -0.616727611688E-01
 -0.616727611704E-01
 -0.616727611333E-01
 -0.616727611382E-01
 -0.616727613023E-01
 -0.616727612908E-01
 -0.616727611037E-01
 -0.616727611342E-01
 -0.616727614290E-01
 -0.616727614009E-01
 -0.616727611827E-01
 -0.616727611940E-01
 -0.616727611165E-01
 -0.616727611475E-01
 -0.616727612672E-01
 -0.616727611943E-01
 -0.616727607433E-01
 -0.616727607581E-01
 -0.616727609783E-01
 -0.616727609831E-01
 -0.616727611413E-01
 -0.616727611098E-01
 -0.616727610763E-01
 -0.616727610807E-01
 -0.616727609702E-01
 -0.616727610077E-01
 -0.616727609109E-01
 -0.616727609777E-01
 -0.616727617117E-01
 -0.616727616424E-01
 -0.616727614787E-01
 -0.616727614426E-01
 -0.616727609277E-01
 -0.616727609694E-01
 -0.616727609650E-01
 -0.616727609383E-01
 -0.616727609394E-01
 -0.616727609644E-01
 -0.616727613025E-01
 -0.616727613127E-01
 -0.616727614300E-01
 -0.616727613500E-01
 -0.616727607156E-01
 -0.616727607981E-01
 -0.616727609998E-01
 -0.616727610409E-01
 -0.616727615077E-01
 -0.616727614457E-01
 -0.616727613896E-01
 -0.616727614012E-01
 -0.616727612996E-01
 -0.616727612773E-01
 -0.616727610024E-01
 -0.616727610498E-01
 -0.616727614482E-01
 -0.616727614005E-01
 -0.616727610913E-01
 -0.616727611163E-01
 -0.616727612637E-01
 -0.616727612426E-01
 -0.616727610529E-01
 -0.616727610261E-01
 -0.616727607449E-01
 -0.616727608199E-01
 -0.616727612824E-01
 -0.616727611934E-01
 -0.616727606763E-01
 -0.616727607101E-01
 -0.616727610302E-01
 -0.616727610251E-01
 -0.616727611443E-01
 -0.616727611184E-01
 -0.616727611067E-01
 -0.616727611321E-01
 -0.616727611915E-01
 -0.616727612169E-01
 -0.616727610757E-01
 -0.616727611896E-01
 -0.616727566076E-01
 -0.616727687644E-01
 -0.616727739759E-01
 -0.616727737276E-01
 -0.616727736241E-01
 -0.616727735944E-01
 -0.616727736125E-01
 -0.616727735573E-01
 -0.616727732835E-01
 -0.616727733224E-01
 -0.616727733326E-01
 -0.616727733916E-01
 -0.616727735448E-01
 -0.616727735168E-01
 -0.616727739603E-01
 -0.616727738746E-01
 -0.616727733965E-01
 -0.616727734633E-01
 -0.616727735520E-01
 -0.616727735821E-01
 -0.616727735846E-01
 -0.616727735721E-01
 -0.616727734584E-01
 -0.616727734182E-01
 -0.616727734660E-01
 -0.616727734463E-01
 -0.616727732755E-01
 -0.616727733045E-01
 -0.616727734546E-01
 -0.616727734080E-01
 -0.616727729552E-01
 -0.616727730423E-01
 -0.616727736990E-01
 -0.616727736189E-01
 -0.616727730764E-01
 -0.616727730516E-01
 -0.616727726512E-01
 -0.616727726613E-01
 -0.616727732565E-01
 -0.616727732367E-01
 -0.616727735101E-01
 -0.616727735016E-01
 -0.616727730963E-01
 -0.616727731114E-01
 -0.616727733226E-01
 -0.616727733516E-01
 -0.616727736197E-01
 -0.616727735807E-01
 -0.616727730353E-01
 -0.616727730704E-01
 -0.616727729095E-01
 -0.616727730376E-01
 -0.616727738706E-01
 -0.616727738006E-01
 -0.616727737047E-01
 -0.616727736585E-01
 -0.616727735270E-01
 -0.616727734692E-01
 -0.616727731918E-01
 -0.616727732263E-01
 -0.616727733140E-01
 -0.616727733649E-01
 -0.616727732982E-01
 -0.616727732823E-01
 -0.616727737042E-01
 -0.616727736275E-01
 -0.616727730078E-01
 -0.616727731148E-01
 -0.616727734455E-01
 -0.616727734710E-01
 -0.616727736584E-01
 -0.616727736202E-01
 -0.616727732447E-01
 -0.616727732285E-01
 -0.616727734139E-01
 -0.616727733896E-01
 -0.616727731005E-01
 -0.616727731458E-01
 -0.616727734679E-01
 -0.616727734064E-01
 -0.616727730251E-01
 -0.616727731014E-01
 -0.616727737866E-01
 -0.616727737353E-01
 -0.616727737581E-01
 -0.616727737165E-01
 -0.616727730294E-01
 -0.616727730706E-01
 -0.616727736485E-01
 -0.616727736283E-01
 -0.616727738106E-01
 -0.616727737916E-01
 -0.616727732530E-01
 -0.616727732760E-01
 -0.616727735591E-01
 -0.616727735786E-01
 -0.616727735433E-01
 -0.616727735261E-01
 -0.616727730668E-01
 -0.616727737891E-01
 -0.616727794471E-01
 -0.616727686025E-01
 -0.616727692628E-01
 -0.616727694708E-01
 -0.616727681206E-01
 -0.616727682967E-01
 -0.616727706928E-01
 -0.616727706093E-01
 -0.616727702747E-01
 -0.616727700043E-01
 -0.616727669313E-01
 -0.616727671839E-01
 -0.616727692985E-01
 -0.616727692474E-01
 -0.616727688107E-01
 -0.616727688980E-01
 -0.616727702565E-01
 -0.616727702394E-01
 -0.616727699029E-01
 -0.616727699245E-01
 -0.616727697215E-01
 -0.616727696760E-01
 -0.616727693102E-01
 -0.616727693716E-01
 -0.616727706275E-01
 -0.616727704540E-01
 -0.616727686971E-01
 -0.616727687730E-01
 -0.616727695052E-01
 -0.616727694693E-01
 -0.616727694026E-01
 -0.616727693924E-01
 -0.616727688757E-01
 -0.616727690202E-01
 -0.616727706898E-01
 -0.616727704519E-01
 -0.616727687687E-01
 -0.616727687512E-01
 -0.616727689392E-01
 -0.616727690014E-01
 -0.616727691707E-01
 -0.616727691699E-01
 -0.616727689222E-01
 -0.616727689120E-01
 -0.616727691339E-01
 -0.616727693754E-01
 -0.616727714554E-01
 -0.616727712928E-01
 -0.616727695999E-01
 -0.616727694706E-01
 -0.616727683296E-01
 -0.616727685525E-01
 -0.616727697921E-01
 -0.616727696863E-01
 -0.616727682750E-01
 -0.616727684296E-01
 -0.616727707614E-01
 -0.616727706798E-01
 -0.616727705784E-01
 -0.616727703033E-01
 -0.616727672322E-01
 -0.616727674522E-01
 -0.616727692033E-01
 -0.616727691245E-01
 -0.616727685196E-01
 -0.616727686117E-01
 -0.616727699511E-01
 -0.616727699357E-01
 -0.616727693496E-01
 -0.616727693736E-01
 -0.616727689518E-01
 -0.616727689533E-01
 -0.616727691609E-01
 -0.616727692171E-01
 -0.616727704723E-01
 -0.616727703113E-01
 -0.616727685730E-01
 -0.616727686926E-01
 -0.616727698707E-01
 -0.616727698563E-01
 -0.616727699807E-01
 -0.616727700108E-01
 -0.616727699678E-01
 -0.616727700448E-01
 -0.616727706182E-01
 -0.616727704621E-01
 -0.616727691726E-01
 -0.616727691320E-01
 -0.616727690750E-01
 -0.616727690884E-01
 -0.616727687466E-01
 -0.616727687517E-01
 -0.616727687948E-01
 -0.616727687766E-01
 -0.616727689864E-01
 -0.616727692459E-01
 -0.616727715413E-01
 -0.616727713601E-01
 -0.616727695938E-01
 -0.616727701709E-01
 -0.616727691339E-01
 -0.616727719854E-01
 -0.616727776266E-01
 -0.616727780375E-01
 -0.616727798961E-01
 -0.616727797769E-01
 -0.616727775255E-01
 -0.616727777299E-01
 -0.616727786506E-01
 -0.616727784745E-01
 -0.616727800949E-01
 -0.616727799978E-01
 -0.616727790903E-01
 -0.616727792687E-01
 -0.616727797633E-01
 -0.616727797855E-01
 -0.616727794553E-01
 -0.616727795350E-01
 -0.616727791728E-01
 -0.616727791576E-01
 -0.616727790772E-01
 -0.616727790874E-01
 -0.616727800454E-01
 -0.616727799678E-01
 -0.616727785992E-01
 -0.616727786790E-01
 -0.616727804960E-01
 -0.616727802363E-01
 -0.616727779403E-01
 -0.616727779881E-01
 -0.616727782056E-01
 -0.616727783622E-01
 -0.616727806137E-01
 -0.616727803570E-01
 -0.616727757514E-01
 -0.616727760756E-01
 -0.616727814244E-01
 -0.616727810938E-01
 -0.616727790121E-01
 -0.616727789250E-01
 -0.616727767520E-01
 -0.616727768604E-01
 -0.616727780746E-01
 -0.616727780922E-01
 -0.616727787473E-01
 -0.616727789537E-01
 -0.616727782252E-01
 -0.616727783287E-01
 -0.616727793390E-01
 -0.616727790717E-01
 -0.616727792788E-01
 -0.616727792260E-01
 -0.616727769903E-01
 -0.616727771956E-01
 -0.616727797760E-01
 -0.616727796353E-01
 -0.616727774557E-01
 -0.616727776405E-01
 -0.616727783563E-01
 -0.616727781938E-01
 -0.616727797777E-01
 -0.616727797205E-01
 -0.616727797516E-01
 -0.616727798546E-01
 -0.616727801562E-01
 -0.616727801487E-01
 -0.616727795692E-01
 -0.616727796398E-01
 -0.616727791596E-01
 -0.616727791032E-01
 -0.616727787508E-01
 -0.616727787734E-01
 -0.616727795414E-01
 -0.616727795491E-01
 -0.616727786779E-01
 -0.616727787847E-01
 -0.616727807924E-01
 -0.616727805233E-01
 -0.616727775147E-01
 -0.616727776402E-01
 -0.616727780617E-01
 -0.616727782457E-01
 -0.616727801050E-01
 -0.616727798843E-01
 -0.616727760658E-01
 -0.616727762944E-01
 -0.616727806330E-01
 -0.616727803451E-01
 -0.616727786542E-01
 -0.616727785648E-01
 -0.616727772872E-01
 -0.616727773514E-01
 -0.616727785184E-01
 -0.616727785394E-01
 -0.616727789986E-01
 -0.616727792054E-01
 -0.616727782630E-01
 -0.616727783495E-01
 -0.616727791250E-01
 -0.616727801326E-01
 -0.616727878173E-01
 -0.616727645670E-01
 -0.616727333179E-01
 -0.616727343796E-01
 -0.616727376297E-01
 -0.616727374884E-01
 -0.616727350169E-01
 -0.616727350824E-01
 -0.616727355761E-01
 -0.616727357607E-01
 -0.616727401200E-01
 -0.616727399592E-01
 -0.616727371230E-01
 -0.616727371162E-01
 -0.616727353535E-01
 -0.616727355386E-01
 -0.616727373989E-01
 -0.616727373295E-01
 -0.616727355227E-01
 -0.616727354778E-01
 -0.616727354670E-01
 -0.616727354671E-01
 -0.616727354026E-01
 -0.616727355322E-01
 -0.616727375383E-01
 -0.616727376853E-01
 -0.616727402676E-01
 -0.616727401983E-01
 -0.616727409639E-01
 -0.616727407732E-01
 -0.616727398420E-01
 -0.616727398124E-01
 -0.616727367770E-01
 -0.616727370756E-01
 -0.616727427931E-01
 -0.616727423164E-01
 -0.616727355687E-01
 -0.616727357475E-01
 -0.616727372306E-01
 -0.616727372420E-01
 -0.616727411533E-01
 -0.616727409894E-01
 -0.616727394239E-01
 -0.616727394212E-01
 -0.616727377062E-01
 -0.616727377353E-01
 -0.616727343429E-01
 -0.616727344862E-01
 -0.616727359195E-01
 -0.616727357457E-01
 -0.616727359834E-01
 -0.616727358374E-01
 -0.616727341997E-01
 -0.616727343758E-01
 -0.616727365161E-01
 -0.616727365043E-01
 -0.616727354640E-01
 -0.616727354842E-01
 -0.616727355087E-01
 -0.616727356683E-01
 -0.616727396833E-01
 -0.616727395466E-01
 -0.616727365176E-01
 -0.616727365493E-01
 -0.616727354148E-01
 -0.616727355938E-01
 -0.616727380313E-01
 -0.616727379775E-01
 -0.616727368295E-01
 -0.616727367748E-01
 -0.616727373705E-01
 -0.616727373167E-01
 -0.616727365714E-01
 -0.616727367581E-01
 -0.616727385601E-01
 -0.616727386662E-01
 -0.616727396560E-01
 -0.616727396042E-01
 -0.616727405544E-01
 -0.616727403087E-01
 -0.616727382099E-01
 -0.616727382253E-01
 -0.616727352178E-01
 -0.616727355414E-01
 -0.616727415449E-01
 -0.616727411251E-01
 -0.616727357581E-01
 -0.616727359183E-01
 -0.616727376471E-01
 -0.616727376559E-01
 -0.616727411123E-01
 -0.616727409328E-01
 -0.616727387624E-01
 -0.616727387897E-01
 -0.616727375284E-01
 -0.616727376016E-01
 -0.616727350908E-01
 -0.616727352132E-01
 -0.616727368362E-01
 -0.616727359776E-01
 -0.616727070921E-01
 -0.616727684897E-01
 -0.616727677401E-01
 -0.616727665845E-01
 -0.616727643073E-01
 -0.616727647164E-01
 -0.616727703976E-01
 -0.616727701911E-01
 -0.616727683820E-01
 -0.616727683823E-01
 -0.616727646765E-01
 -0.616727650065E-01
 -0.616727684174E-01
 -0.616727680876E-01
 -0.616727658404E-01
 -0.616727657773E-01
 -0.616727635904E-01
 -0.616727638568E-01
 -0.616727674183E-01
 -0.616727670321E-01
 -0.616727632356E-01
 -0.616727631858E-01
 -0.616727623634E-01
 -0.616727623661E-01
 -0.616727602411E-01
 -0.616727606605E-01
 -0.616727630309E-01
 -0.616727631288E-01
 -0.616727630336E-01
 -0.616727628543E-01
 -0.616727622221E-01
 -0.616727623741E-01
 -0.616727665031E-01
 -0.616727665323E-01
 -0.616727654316E-01
 -0.616727656404E-01
 -0.616727708530E-01
 -0.616727705521E-01
 -0.616727700098E-01
 -0.616727699691E-01
 -0.616727673729E-01
 -0.616727671663E-01
 -0.616727619997E-01
 -0.616727621912E-01
 -0.616727672809E-01
 -0.616727671873E-01
 -0.616727670285E-01
 -0.616727668626E-01
 -0.616727654425E-01
 -0.616727653954E-01
 -0.616727659229E-01
 -0.616727658111E-01
 -0.616727661233E-01
 -0.616727661358E-01
 -0.616727652112E-01
 -0.616727654792E-01
 -0.616727678173E-01
 -0.616727677330E-01
 -0.616727671511E-01
 -0.616727671686E-01
 -0.616727647125E-01
 -0.616727650354E-01
 -0.616727683048E-01
 -0.616727680666E-01
 -0.616727669405E-01
 -0.616727668741E-01
 -0.616727640216E-01
 -0.616727643956E-01
 -0.616727688655E-01
 -0.616727684986E-01
 -0.616727644512E-01
 -0.616727643819E-01
 -0.616727634561E-01
 -0.616727633832E-01
 -0.616727597744E-01
 -0.616727601690E-01
 -0.616727630437E-01
 -0.616727630113E-01
 -0.616727622067E-01
 -0.616727620059E-01
 -0.616727617330E-01
 -0.616727618918E-01
 -0.616727666953E-01
 -0.616727666919E-01
 -0.616727645819E-01
 -0.616727648174E-01
 -0.616727691926E-01
 -0.616727689340E-01
 -0.616727678609E-01
 -0.616727679066E-01
 -0.616727665449E-01
 -0.616727664098E-01
 -0.616727632403E-01
 -0.616727634370E-01
 -0.616727687910E-01
 -0.616727687476E-01
 -0.616727681773E-01
 -0.616727679345E-01
 -0.616727645643E-01
 -0.616727639499E-01
 -0.616727662608E-01
 -0.616727675322E-01
 -0.616727803720E-01
 -0.616727789675E-01
 -0.616727750788E-01
 -0.616727749836E-01
 -0.616727679380E-01
 -0.616727683187E-01
 -0.616727731336E-01
 -0.616727733093E-01
 -0.616727786761E-01
 -0.616727786373E-01
 -0.616727757911E-01
 -0.616727755962E-01
 -0.616727743462E-01
 -0.616727741224E-01
 -0.616727735507E-01
 -0.616727736856E-01
 -0.616727736300E-01
 -0.616727736407E-01
 -0.616727772420E-01
 -0.616727769972E-01
 -0.616727775414E-01
 -0.616727775463E-01
 -0.616727785515E-01
 -0.616727785580E-01
 -0.616727731051E-01
 -0.616727733367E-01
 -0.616727732095E-01
 -0.616727731814E-01
 -0.616727761160E-01
 -0.616727762341E-01
 -0.616727762897E-01
 -0.616727763933E-01
 -0.616727731510E-01
 -0.616727733143E-01
 -0.616727736813E-01
 -0.616727738258E-01
 -0.616727764922E-01
 -0.616727765690E-01
 -0.616727794079E-01
 -0.616727790728E-01
 -0.616727795138E-01
 -0.616727790245E-01
 -0.616727718497E-01
 -0.616727720668E-01
 -0.616727722729E-01
 -0.616727725415E-01
 -0.616727809822E-01
 -0.616727806439E-01
 -0.616727766969E-01
 -0.616727766939E-01
 -0.616727781720E-01
 -0.616727780192E-01
 -0.616727745310E-01
 -0.616727744245E-01
 -0.616727683349E-01
 -0.616727686439E-01
 -0.616727735123E-01
 -0.616727737048E-01
 -0.616727776930E-01
 -0.616727778376E-01
 -0.616727772147E-01
 -0.616727770613E-01
 -0.616727750189E-01
 -0.616727749627E-01
 -0.616727763848E-01
 -0.616727763995E-01
 -0.616727727603E-01
 -0.616727727989E-01
 -0.616727755486E-01
 -0.616727752634E-01
 -0.616727756899E-01
 -0.616727756620E-01
 -0.616727775953E-01
 -0.616727775423E-01
 -0.616727730893E-01
 -0.616727733158E-01
 -0.616727750017E-01
 -0.616727749147E-01
 -0.616727779309E-01
 -0.616727780274E-01
 -0.616727771411E-01
 -0.616727772205E-01
 -0.616727733855E-01
 -0.616727735186E-01
 -0.616727739304E-01
 -0.616727740812E-01
 -0.616727769998E-01
 -0.616727771423E-01
 -0.616727801795E-01
 -0.616727800077E-01
 -0.616727808129E-01
 -0.616727803565E-01
 -0.616727714745E-01
 -0.616727717586E-01
 -0.616727719885E-01
 -0.616727723018E-01
 -0.616727835147E-01