# vtk DataFile Version 3.0
MachLine results file. Generated by MachLine, USU AeroLab (c) 2022.
ASCII
DATASET POLYDATA
POINTS                 781 float
  0.373205080757E+01  0.000000000000E+00  0.000000000000E+00
  0.360764911398E+01  0.333333333333E-01  0.000000000000E+00
  0.360764911398E+01  0.330704900438E-01  0.417777445214E-02
  0.360764911398E+01  0.322861053710E-01  0.828966290550E-02
  0.360764911398E+01  0.309925495296E-01  0.122708184228E-01
  0.360764911398E+01  0.292102226681E-01  0.160584558034E-01
  0.360764911398E+01  0.269672331458E-01  0.195928417431E-01
  0.360764911398E+01  0.242989542474E-01  0.228182368643E-01
  0.360764911398E+01  0.212474663250E-01  0.256837747592E-01
  0.360764911398E+01  0.178608931660E-01  0.281442641834E-01
  0.360764911398E+01  0.141926430522E-01  0.301609017489E-01
  0.360764911398E+01  0.103005664792E-01  0.317018838765E-01
  0.360764911398E+01  0.624604381952E-02  0.327429083576E-01
  0.360764911398E+01  0.209301731764E-02  0.332675576143E-01
  0.360764911398E+01 -0.209301731764E-02  0.332675576143E-01
  0.360764911398E+01 -0.624604381952E-02  0.327429083576E-01
  0.360764911398E+01 -0.103005664792E-01  0.317018838765E-01
  0.360764911398E+01 -0.141926430522E-01  0.301609017489E-01
  0.360764911398E+01 -0.178608931660E-01  0.281442641834E-01
  0.360764911398E+01 -0.212474663250E-01  0.256837747592E-01
  0.360764911398E+01 -0.242989542474E-01  0.228182368643E-01
  0.360764911398E+01 -0.269672331458E-01  0.195928417431E-01
  0.360764911398E+01 -0.292102226681E-01  0.160584558034E-01
  0.360764911398E+01 -0.309925495296E-01  0.122708184228E-01
  0.360764911398E+01 -0.322861053710E-01  0.828966290550E-02
  0.360764911398E+01 -0.330704900438E-01  0.417777445214E-02
  0.360764911398E+01 -0.333333333333E-01  0.408215599716E-17
  0.348324742040E+01  0.666666666667E-01  0.000000000000E+00
  0.348324742040E+01  0.661409800876E-01  0.835554890429E-02
  0.348324742040E+01  0.645722107419E-01  0.165793258110E-01
  0.348324742040E+01  0.619850990592E-01  0.245416368456E-01
  0.348324742040E+01  0.584204453363E-01  0.321169116068E-01
  0.348324742040E+01  0.539344662917E-01  0.391856834862E-01
  0.348324742040E+01  0.485979084948E-01  0.456364737286E-01
  0.348324742040E+01  0.424949326499E-01  0.513675495184E-01
  0.348324742040E+01  0.357217863319E-01  0.562885283668E-01
  0.348324742040E+01  0.283852861043E-01  0.603218034977E-01
  0.348324742040E+01  0.206011329583E-01  0.634037677530E-01
  0.348324742040E+01  0.124920876390E-01  0.654858167152E-01
  0.348324742040E+01  0.418603463529E-02  0.665351152286E-01
  0.348324742040E+01 -0.418603463529E-02  0.665351152286E-01
  0.348324742040E+01 -0.124920876390E-01  0.654858167152E-01
  0.348324742040E+01 -0.206011329583E-01  0.634037677530E-01
  0.348324742040E+01 -0.283852861043E-01  0.603218034977E-01
  0.348324742040E+01 -0.357217863319E-01  0.562885283668E-01
  0.348324742040E+01 -0.424949326499E-01  0.513675495184E-01
  0.348324742040E+01 -0.485979084948E-01  0.456364737286E-01
  0.348324742040E+01 -0.539344662917E-01  0.391856834862E-01
  0.348324742040E+01 -0.584204453363E-01  0.321169116068E-01
  0.348324742040E+01 -0.619850990592E-01  0.245416368456E-01
  0.348324742040E+01 -0.645722107419E-01  0.165793258110E-01
  0.348324742040E+01 -0.661409800876E-01  0.835554890429E-02
  0.348324742040E+01 -0.666666666667E-01  0.816431199432E-17
  0.335884572681E+01  0.100000000000E+00  0.000000000000E+00
  0.335884572681E+01  0.992114701314E-01  0.125333233564E-01
  0.335884572681E+01  0.968583161129E-01  0.248689887165E-01
  0.335884572681E+01  0.929776485888E-01  0.368124552685E-01
  0.335884572681E+01  0.876306680044E-01  0.481753674102E-01
  0.335884572681E+01  0.809016994375E-01  0.587785252292E-01
  0.335884572681E+01  0.728968627421E-01  0.684547105929E-01
  0.335884572681E+01  0.637423989749E-01  0.770513242776E-01
  0.335884572681E+01  0.535826794979E-01  0.844327925502E-01
  0.335884572681E+01  0.425779291565E-01  0.904827052466E-01
  0.335884572681E+01  0.309016994375E-01  0.951056516295E-01
  0.335884572681E+01  0.187381314586E-01  0.982287250729E-01
  0.335884572681E+01  0.627905195293E-02  0.998026728428E-01
  0.335884572681E+01 -0.627905195293E-02  0.998026728428E-01
  0.335884572681E+01 -0.187381314586E-01  0.982287250729E-01
  0.335884572681E+01 -0.309016994375E-01  0.951056516295E-01
  0.335884572681E+01 -0.425779291565E-01  0.904827052466E-01
  0.335884572681E+01 -0.535826794979E-01  0.844327925502E-01
  0.335884572681E+01 -0.637423989749E-01  0.770513242776E-01
  0.335884572681E+01 -0.728968627421E-01  0.684547105929E-01
  0.335884572681E+01 -0.809016994375E-01  0.587785252292E-01
  0.335884572681E+01 -0.876306680044E-01  0.481753674102E-01
  0.335884572681E+01 -0.929776485888E-01  0.368124552685E-01
  0.335884572681E+01 -0.968583161129E-01  0.248689887165E-01
  0.335884572681E+01 -0.992114701314E-01  0.125333233564E-01
  0.335884572681E+01 -0.100000000000E+00  0.122464679915E-16
  0.323444403323E+01  0.133333333333E+00  0.000000000000E+00
  0.323444403323E+01  0.132281960175E+00  0.167110978086E-01
  0.323444403323E+01  0.129144421484E+00  0.331586516220E-01
  0.323444403323E+01  0.123970198118E+00  0.490832736913E-01
  0.323444403323E+01  0.116840890673E+00  0.642338232136E-01
  0.323444403323E+01  0.107868932583E+00  0.783713669723E-01
  0.323444403323E+01  0.971958169895E-01  0.912729474572E-01
  0.323444403323E+01  0.849898652998E-01  0.102735099037E+00
  0.323444403323E+01  0.714435726639E-01  0.112577056734E+00
  0.323444403323E+01  0.567705722087E-01  0.120643606995E+00
  0.323444403323E+01  0.412022659167E-01  0.126807535506E+00
  0.323444403323E+01  0.249841752781E-01  0.130971633430E+00
  0.323444403323E+01  0.837206927058E-02  0.133070230457E+00
  0.323444403323E+01 -0.837206927058E-02  0.133070230457E+00
  0.323444403323E+01 -0.249841752781E-01  0.130971633430E+00
  0.323444403323E+01 -0.412022659167E-01  0.126807535506E+00
  0.323444403323E+01 -0.567705722087E-01  0.120643606995E+00
  0.323444403323E+01 -0.714435726639E-01  0.112577056734E+00
  0.323444403323E+01 -0.849898652998E-01  0.102735099037E+00
  0.323444403323E+01 -0.971958169895E-01  0.912729474572E-01
  0.323444403323E+01 -0.107868932583E+00  0.783713669723E-01
  0.323444403323E+01 -0.116840890673E+00  0.642338232136E-01
  0.323444403323E+01 -0.123970198118E+00  0.490832736913E-01
  0.323444403323E+01 -0.129144421484E+00  0.331586516220E-01
  0.323444403323E+01 -0.132281960175E+00  0.167110978086E-01
  0.323444403323E+01 -0.133333333333E+00  0.163286239886E-16
  0.311004233964E+01  0.166666666667E+00  0.000000000000E+00
  0.311004233964E+01  0.165352450219E+00  0.208888722607E-01
  0.311004233964E+01  0.161430526855E+00  0.414483145275E-01
  0.311004233964E+01  0.154962747648E+00  0.613540921141E-01
  0.311004233964E+01  0.146051113341E+00  0.802922790170E-01
  0.311004233964E+01  0.134836165729E+00  0.979642087154E-01
  0.311004233964E+01  0.121494771237E+00  0.114091184321E+00
  0.311004233964E+01  0.106237331625E+00  0.128418873796E+00
  0.311004233964E+01  0.893044658298E-01  0.140721320917E+00
  0.311004233964E+01  0.709632152608E-01  0.150804508744E+00
  0.311004233964E+01  0.515028323958E-01  0.158509419383E+00
  0.311004233964E+01  0.312302190976E-01  0.163714541788E+00
  0.311004233964E+01  0.104650865882E-01  0.166337788071E+00
  0.311004233964E+01 -0.104650865882E-01  0.166337788071E+00
  0.311004233964E+01 -0.312302190976E-01  0.163714541788E+00
  0.311004233964E+01 -0.515028323958E-01  0.158509419383E+00
  0.311004233964E+01 -0.709632152608E-01  0.150804508744E+00
  0.311004233964E+01 -0.893044658298E-01  0.140721320917E+00
  0.311004233964E+01 -0.106237331625E+00  0.128418873796E+00
  0.311004233964E+01 -0.121494771237E+00  0.114091184321E+00
  0.311004233964E+01 -0.134836165729E+00  0.979642087154E-01
  0.311004233964E+01 -0.146051113341E+00  0.802922790170E-01
  0.311004233964E+01 -0.154962747648E+00  0.613540921141E-01
  0.311004233964E+01 -0.161430526855E+00  0.414483145275E-01
  0.311004233964E+01 -0.165352450219E+00  0.208888722607E-01
  0.311004233964E+01 -0.166666666667E+00  0.204107799858E-16
  0.298564064606E+01  0.200000000000E+00  0.000000000000E+00
  0.298564064606E+01  0.198422940263E+00  0.250666467129E-01
  0.298564064606E+01  0.193716632226E+00  0.497379774330E-01
  0.298564064606E+01  0.185955297178E+00  0.736249105369E-01
  0.298564064606E+01  0.175261336009E+00  0.963507348203E-01
  0.298564064606E+01  0.161803398875E+00  0.117557050458E+00
  0.298564064606E+01  0.145793725484E+00  0.136909421186E+00
  0.298564064606E+01  0.127484797950E+00  0.154102648555E+00
  0.298564064606E+01  0.107165358996E+00  0.168865585100E+00
  0.298564064606E+01  0.851558583130E-01  0.180965410493E+00
  0.298564064606E+01  0.618033988750E-01  0.190211303259E+00
  0.298564064606E+01  0.374762629171E-01  0.196457450146E+00
  0.298564064606E+01  0.125581039059E-01  0.199605345686E+00
  0.298564064606E+01 -0.125581039059E-01  0.199605345686E+00
  0.298564064606E+01 -0.374762629171E-01  0.196457450146E+00
  0.298564064606E+01 -0.618033988750E-01  0.190211303259E+00
  0.298564064606E+01 -0.851558583130E-01  0.180965410493E+00
  0.298564064606E+01 -0.107165358996E+00  0.168865585100E+00
  0.298564064606E+01 -0.127484797950E+00  0.154102648555E+00
  0.298564064606E+01 -0.145793725484E+00  0.136909421186E+00
  0.298564064606E+01 -0.161803398875E+00  0.117557050458E+00
  0.298564064606E+01 -0.175261336009E+00  0.963507348203E-01
  0.298564064606E+01 -0.185955297178E+00  0.736249105369E-01
  0.298564064606E+01 -0.193716632226E+00  0.497379774330E-01
  0.298564064606E+01 -0.198422940263E+00  0.250666467129E-01
  0.298564064606E+01 -0.200000000000E+00  0.244929359829E-16
  0.286123895247E+01  0.233333333333E+00  0.000000000000E+00
  0.286123895247E+01  0.231493430307E+00  0.292444211650E-01
  0.286123895247E+01  0.226002737597E+00  0.580276403385E-01
  0.286123895247E+01  0.216947846707E+00  0.858957289598E-01
[...]
CELL_DATA                1475
SCALARS C_p_ise float 1
LOOKUP_TABLE default
 -0.137672751709E+00
 -0.137672751424E+00
 -0.137672751434E+00
 -0.137672751439E+00
 -0.137672751441E+00
 -0.137672751452E+00
 -0.137672751456E+00
 -0.137672751456E+00
 -0.137672751458E+00
 -0.137672751449E+00
 -0.137672751429E+00
 -0.137672751423E+00
 -0.137672751436E+00
 -0.137672751424E+00
 -0.137672751425E+00
 -0.137672751442E+00
 -0.137672751453E+00
 -0.137672751460E+00
 -0.137672751465E+00
 -0.137672751467E+00
 -0.137672751461E+00
 -0.137672751455E+00
 -0.137672751456E+00
 -0.137672751448E+00
 -0.137672751044E+00
 -0.137672746776E+00
 -0.137672747246E+00
 -0.137672746955E+00
 -0.137672746936E+00
 -0.137672746941E+00
 -0.137672746925E+00
 -0.137672746931E+00
 -0.137672746935E+00
 -0.137672746927E+00
 -0.137672746894E+00
 -0.137672746908E+00
 -0.137672746917E+00
 -0.137672746937E+00
 -0.137672746984E+00
 -0.137672746975E+00
 -0.137672746947E+00
 -0.137672746942E+00
 -0.137672746920E+00
 -0.137672746933E+00
 -0.137672746996E+00
 -0.137672746946E+00
 -0.137672746859E+00
 -0.137672746864E+00
 -0.137672746896E+00
 -0.137672746907E+00
 -0.137672746901E+00
 -0.137672746898E+00
 -0.137672746923E+00
 -0.137672746901E+00
 -0.137672746831E+00
 -0.137672746858E+00
 -0.137672746893E+00
 -0.137672746899E+00
 -0.137672746881E+00
 -0.137672746902E+00
 -0.137672746944E+00
 -0.137672746943E+00
 -0.137672746926E+00
 -0.137672746906E+00
 -0.137672746839E+00
 -0.137672746834E+00
 -0.137672746839E+00
 -0.137672746862E+00
 -0.137672746949E+00
 -0.137672746929E+00
 -0.137672746866E+00
 -0.137672746867E+00
 -0.137672746892E+00
 -0.137672746846E+00
 -0.137672747918E+00
 -0.137672748144E+00
 -0.137672749355E+00
 -0.137672749148E+00
 -0.137672748788E+00
 -0.137672748809E+00
 -0.137672748926E+00
 -0.137672748919E+00
 -0.137672748880E+00
 -0.137672748861E+00
 -0.137672748796E+00
 -0.137672748813E+00
 -0.137672748883E+00
 -0.137672748873E+00
 -0.137672748704E+00
 -0.137672748714E+00
 -0.137672748734E+00
 -0.137672748719E+00
 -0.137672748716E+00
 -0.137672748717E+00
 -0.137672748697E+00
 -0.137672748748E+00
 -0.137672749147E+00
 -0.137672749087E+00
 -0.137672748909E+00
 -0.137672748977E+00
 -0.137672749215E+00
 -0.137672749171E+00
 -0.137672748976E+00
 -0.137672748958E+00
 -0.137672748939E+00
 -0.137672748898E+00
 -0.137672748669E+00
 -0.137672748701E+00
 -0.137672748777E+00
 -0.137672748797E+00
 -0.137672748819E+00
 -0.137672748837E+00
 -0.137672748860E+00
 -0.137672748839E+00
 -0.137672748863E+00
 -0.137672748878E+00
 -0.137672749093E+00
 -0.137672749069E+00
 -0.137672748826E+00
 -0.137672748852E+00
 -0.137672748934E+00
 -0.137672748930E+00
 -0.137672749016E+00
 -0.137672749191E+00
 -0.137672750259E+00
 -0.137672747430E+00
 -0.137672750428E+00
 -0.137672750557E+00
 -0.137672751212E+00
 -0.137672751110E+00
 -0.137672750751E+00
 -0.137672750818E+00
 -0.137672751173E+00
 -0.137672751126E+00
 -0.137672750996E+00
 -0.137672751046E+00
 -0.137672751362E+00
 -0.137672751323E+00
 -0.137672751023E+00
 -0.137672751005E+00
 -0.137672751036E+00
 -0.137672750957E+00
 -0.137672750478E+00
 -0.137672750525E+00
 -0.137672750855E+00
 -0.137672750918E+00
 -0.137672751031E+00
 -0.137672751095E+00
 -0.137672751405E+00
 -0.137672751310E+00
 -0.137672750413E+00
 -0.137672750466E+00
 -0.137672750811E+00
 -0.137672750798E+00
 -0.137672751107E+00
 -0.137672751041E+00
 -0.137672750888E+00
 -0.137672750835E+00
 -0.137672750554E+00
 -0.137672750648E+00
 -0.137672751067E+00
 -0.137672751101E+00
 -0.137672751184E+00
 -0.137672751117E+00
 -0.137672750761E+00
 -0.137672750773E+00
 -0.137672750720E+00
 -0.137672750712E+00
 -0.137672750522E+00
 -0.137672750521E+00
 -0.137672750676E+00
 -0.137672750725E+00
 -0.137672750976E+00
 -0.137672751651E+00
 -0.137672755034E+00
 -0.137672745548E+00
 -0.137672740803E+00
 -0.137672741538E+00
 -0.137672743141E+00
 -0.137672742954E+00
 -0.137672741343E+00
 -0.137672741192E+00
 -0.137672739697E+00
 -0.137672739859E+00
 -0.137672741277E+00
 -0.137672741191E+00
 -0.137672740145E+00
 -0.137672740240E+00
 -0.137672741053E+00
 -0.137672741011E+00
 -0.137672741199E+00
 -0.137672741293E+00
 -0.137672742822E+00
 -0.137672742583E+00
 -0.137672740611E+00
 -0.137672740703E+00
 -0.137672740526E+00
 -0.137672740570E+00
 -0.137672740236E+00
 -0.137672740182E+00
 -0.137672740156E+00
 -0.137672740198E+00
 -0.137672741260E+00
 -0.137672741243E+00
 -0.137672740772E+00
 -0.137672740703E+00
 -0.137672740296E+00
 -0.137672740337E+00
 -0.137672741381E+00
 -0.137672741336E+00
 -0.137672740435E+00
 -0.137672740535E+00
 -0.137672740579E+00
 -0.137672740616E+00
 -0.137672741433E+00
 -0.137672741419E+00
 -0.137672741625E+00
 -0.137672741572E+00
 -0.137672741233E+00
 -0.137672741160E+00
 -0.137672740744E+00
 -0.137672741005E+00
 -0.137672742720E+00
 -0.137672742821E+00
 -0.137672737321E+00
 -0.137672750302E+00
 -0.137672755751E+00
 -0.137672755605E+00
 -0.137672751701E+00
 -0.137672752002E+00
 -0.137672755410E+00
 -0.137672755172E+00
 -0.137672756186E+00
 -0.137672756018E+00
 -0.137672754214E+00
 -0.137672754458E+00
 -0.137672756369E+00
 -0.137672756322E+00
 -0.137672756006E+00
 -0.137672755935E+00
 -0.137672754621E+00
 -0.137672754728E+00
 -0.137672754643E+00
 -0.137672754688E+00
 -0.137672755943E+00
 -0.137672755801E+00
 -0.137672755655E+00
 -0.137672755862E+00
 -0.137672757866E+00
 -0.137672757709E+00
 -0.137672756982E+00
 -0.137672756803E+00
 -0.137672754394E+00
 -0.137672754535E+00
 -0.137672754968E+00
 -0.137672755003E+00
 -0.137672756712E+00
 -0.137672756656E+00
 -0.137672756089E+00
 -0.137672756086E+00
 -0.137672755264E+00
 -0.137672755344E+00
 -0.137672756229E+00
 -0.137672756273E+00
 -0.137672756336E+00
 -0.137672756371E+00
 -0.137672755896E+00
 -0.137672755745E+00
 -0.137672754418E+00
 -0.137672754516E+00
 -0.137672756811E+00
 -0.137672756664E+00
 -0.137672752684E+00
 -0.137672753592E+00
 -0.137672760370E+00
 -0.137672744870E+00
 -0.137672733194E+00
 -0.137672733727E+00
 -0.137672736126E+00
 -0.137672735981E+00
 -0.137672734790E+00
 -0.137672734781E+00
 -0.137672733706E+00
 -0.137672733733E+00
 -0.137672735050E+00
 -0.137672734946E+00
 -0.137672732503E+00
 -0.137672732666E+00
 -0.137672733192E+00
 -0.137672733215E+00
 -0.137672734806E+00
 -0.137672734709E+00
 -0.137672733583E+00
 -0.137672733754E+00
 -0.137672735492E+00
 -0.137672735279E+00
 -0.137672732858E+00
 -0.137672733054E+00
 -0.137672733111E+00
 -0.137672733218E+00
 -0.137672734277E+00
 -0.137672734117E+00
 -0.137672735223E+00
 -0.137672735015E+00
 -0.137672733313E+00
 -0.137672733494E+00
 -0.137672734884E+00
 -0.137672734852E+00
 -0.137672733151E+00
 -0.137672733122E+00
 -0.137672733491E+00
 -0.137672733467E+00
 -0.137672733101E+00
 -0.137672733137E+00
 -0.137672731931E+00
 -0.137672731984E+00
 -0.137672732202E+00
 -0.137672732289E+00
 -0.137672735961E+00
 -0.137672735680E+00
 -0.137672732347E+00
 -0.137672732563E+00
 -0.137672734570E+00
 -0.137672734309E+00
 -0.137672723823E+00
 -0.137672747874E+00
 -0.137672753533E+00
 -0.137672753138E+00
 -0.137672752690E+00
 -0.137672752643E+00
 -0.137672751362E+00
 -0.137672751436E+00
 -0.137672754070E+00
 -0.137672753842E+00
 -0.137672751295E+00
 -0.137672751395E+00
 -0.137672752978E+00
 -0.137672752964E+00
 -0.137672753092E+00
 -0.137672753098E+00
 -0.137672752199E+00
 -0.137672752234E+00
 -0.137672752414E+00
 -0.137672752432E+00
 -0.137672751434E+00
 -0.137672751514E+00
 -0.137672753914E+00
 -0.137672753756E+00
 -0.137672751227E+00
 -0.137672751428E+00
 -0.137672752782E+00
 -0.137672752685E+00
 -0.137672752404E+00
 -0.137672752444E+00
 -0.137672754903E+00
 -0.137672754738E+00
 -0.137672751493E+00
 -0.137672751614E+00
 -0.137672752327E+00
 -0.137672752264E+00
 -0.137672753692E+00
 -0.137672753596E+00
 -0.137672752102E+00
 -0.137672752153E+00
 -0.137672752831E+00
 -0.137672752830E+00
 -0.137672753360E+00
 -0.137672753417E+00
 -0.137672752685E+00
 -0.137672752726E+00
 -0.137672753302E+00
 -0.137672753383E+00
 -0.137672755199E+00
 -0.137672755433E+00
 -0.137672760538E+00
 -0.137672749486E+00
 -0.137672745625E+00
 -0.137672745764E+00
 -0.137672748404E+00
 -0.137672748361E+00
 -0.137672748926E+00
 -0.137672748806E+00
 -0.137672746968E+00
 -0.137672747146E+00
 -0.137672751011E+00
 -0.137672750756E+00
 -0.137672747579E+00
 -0.137672747636E+00
 -0.137672747013E+00
 -0.137672747054E+00
 -0.137672747531E+00
 -0.137672747515E+00
 -0.137672747620E+00
 -0.137672747648E+00
 -0.137672747667E+00
 -0.137672747663E+00
 -0.137672747361E+00
 -0.137672747315E+00
 -0.137672746493E+00
 -0.137672746607E+00
 -0.137672747981E+00
 -0.137672747995E+00
 -0.137672748358E+00
 -0.137672748289E+00
 -0.137672746749E+00
 -0.137672746766E+00
 -0.137672747094E+00
 -0.137672747087E+00
 -0.137672748522E+00
 -0.137672748425E+00
 -0.137672747061E+00
 -0.137672747110E+00
 -0.137672747914E+00
 -0.137672747914E+00
 -0.137672748767E+00
 -0.137672748783E+00
 -0.137672748357E+00
 -0.137672748356E+00
 -0.137672746827E+00
 -0.137672747012E+00
 -0.137672750267E+00
 -0.137672750106E+00
 -0.137672745338E+00
 -0.137672745595E+00
 -0.137672743940E+00
 -0.137672747130E+00
 -0.137672751027E+00
 -0.137672750792E+00
 -0.137672748029E+00
 -0.137672748200E+00
 -0.137672749310E+00
 -0.137672749250E+00
 -0.137672749748E+00
 -0.137672749714E+00
 -0.137672747798E+00
 -0.137672747987E+00
 -0.137672752129E+00
 -0.137672751787E+00
 -0.137672747842E+00
 -0.137672747940E+00
 -0.137672749740E+00
 -0.137672749729E+00
 -0.137672749343E+00
 -0.137672749343E+00
 -0.137672748633E+00
 -0.137672748630E+00
 -0.137672748658E+00
 -0.137672748725E+00
 -0.137672751222E+00
 -0.137672751085E+00
 -0.137672747233E+00
 -0.137672747494E+00
 -0.137672750642E+00
 -0.137672750487E+00
 -0.137672748454E+00
 -0.137672748500E+00
 -0.137672750737E+00
 -0.137672750661E+00
 -0.137672749035E+00
 -0.137672749009E+00
 -0.137672748721E+00
 -0.137672748764E+00
 -0.137672750199E+00
 -0.137672750328E+00
 -0.137672751814E+00
 -0.137672751692E+00
 -0.137672748064E+00
 -0.137672748178E+00
 -0.137672750786E+00
 -0.137672750718E+00
 -0.137672747645E+00
 -0.137672747835E+00
 -0.137672750860E+00
 -0.137672751121E+00
 -0.137672756517E+00
 -0.137672749575E+00
 -0.137672749669E+00
 -0.137672749690E+00
 -0.137672750751E+00
 -0.137672750752E+00
 -0.137672750220E+00
 -0.137672750249E+00
 -0.137672750892E+00
 -0.137672750791E+00
 -0.137672748840E+00
 -0.137672748897E+00
 -0.137672748261E+00
 -0.137672748321E+00
 -0.137672752130E+00
 -0.137672751829E+00
 -0.137672747814E+00
 -0.137672747943E+00
 -0.137672748882E+00
 -0.137672748894E+00
 -0.137672749573E+00
 -0.137672749565E+00
 -0.137672750204E+00
 -0.137672750193E+00
 -0.137672748523E+00
 -0.137672748600E+00
 -0.137672750352E+00
 -0.137672750196E+00
 -0.137672745695E+00
 -0.137672745877E+00
 -0.137672749467E+00
 -0.137672749327E+00
 -0.137672747723E+00
 -0.137672747775E+00
 -0.137672748003E+00
 -0.137672748059E+00
 -0.137672751562E+00
 -0.137672751601E+00
 -0.137672751835E+00
 -0.137672751770E+00
 -0.137672746150E+00
 -0.137672746317E+00
 -0.137672750751E+00
 -0.137672750681E+00
 -0.137672750817E+00
 -0.137672750760E+00
 -0.137672748122E+00
 -0.137672748238E+00
 -0.137672750107E+00
 -0.137672750451E+00
 -0.137672748846E+00
 -0.137672745505E+00
 -0.137672747693E+00
 -0.137672747755E+00
 -0.137672748586E+00
 -0.137672748627E+00
 -0.137672748403E+00
 -0.137672748308E+00
 -0.137672746015E+00
 -0.137672746037E+00
 -0.137672748128E+00
 -0.137672748028E+00
 -0.137672746525E+00
 -0.137672746643E+00
 -0.137672748746E+00
 -0.137672748613E+00
 -0.137672748221E+00
 -0.137672748099E+00
 -0.137672746694E+00
 -0.137672746803E+00
 -0.137672748035E+00
 -0.137672748019E+00
 -0.137672747097E+00
 -0.137672747122E+00
 -0.137672747251E+00
 -0.137672747280E+00
 -0.137672748014E+00
 -0.137672747960E+00
 -0.137672748410E+00
 -0.137672748307E+00
 -0.137672746693E+00
 -0.137672746769E+00
 -0.137672747779E+00
 -0.137672747809E+00
 -0.137672749025E+00
 -0.137672749088E+00
 -0.137672749072E+00
 -0.137672749151E+00
 -0.137672746282E+00
 -0.137672746305E+00
 -0.137672748020E+00
 -0.137672747952E+00
 -0.137672748707E+00
 -0.137672748732E+00
 -0.137672746086E+00
 -0.137672746225E+00
 -0.137672750613E+00
 -0.137672750390E+00
 -0.137672745477E+00
 -0.137672746253E+00
 -0.137672754138E+00
 -0.137672745197E+00
 -0.137672744567E+00
 -0.137672744617E+00
 -0.137672741939E+00
 -0.137672742173E+00
 -0.137672746117E+00
 -0.137672745999E+00
 -0.137672745689E+00
 -0.137672745654E+00
 -0.137672746762E+00
 -0.137672746656E+00
 -0.137672744229E+00
 -0.137672744355E+00
 -0.137672746063E+00
 -0.137672746102E+00
 -0.137672748129E+00
 -0.137672747854E+00
 -0.137672744496E+00
 -0.137672744452E+00
 -0.137672742140E+00
 -0.137672742299E+00
 -0.137672745314E+00
 -0.137672745231E+00
 -0.137672743522E+00
 -0.137672743593E+00
 -0.137672744481E+00
 -0.137672744419E+00
 -0.137672743413E+00
 -0.137672743382E+00
 -0.137672744703E+00
 -0.137672744598E+00
 -0.137672741869E+00
 -0.137672742136E+00
 -0.137672746994E+00
 -0.137672747138E+00
 -0.137672747755E+00
 -0.137672747602E+00
 -0.137672741806E+00
 -0.137672741970E+00
 -0.137672748725E+00
 -0.137672748557E+00
 -0.137672744187E+00
 -0.137672744395E+00
 -0.137672748120E+00
 -0.137672747974E+00
 -0.137672743699E+00
 -0.137672743743E+00
 -0.137672745598E+00
 -0.137672745970E+00
 -0.137672741230E+00
 -0.137672751135E+00
 -0.137672745660E+00
 -0.137672745818E+00
 -0.137672749415E+00
 -0.137672749326E+00
 -0.137672743442E+00
 -0.137672743558E+00
 -0.137672745607E+00
 -0.137672745514E+00
 -0.137672744275E+00
 -0.137672744410E+00
 -0.137672749750E+00
 -0.137672749587E+00
 -0.137672744448E+00
 -0.137672744677E+00
 -0.137672748018E+00
 -0.137672747851E+00
 -0.137672748525E+00
 -0.137672748361E+00
 -0.137672748744E+00
 -0.137672748693E+00
 -0.137672745559E+00
 -0.137672745542E+00
 -0.137672744040E+00
 -0.137672743993E+00
 -0.137672742659E+00
 -0.137672742862E+00
 -0.137672749057E+00
 -0.137672748868E+00
 -0.137672745675E+00
 -0.137672745759E+00
 -0.137672749378E+00
 -0.137672749506E+00
 -0.137672748684E+00
 -0.137672748800E+00
 -0.137672742843E+00
 -0.137672742923E+00
 -0.137672748509E+00
 -0.137672748393E+00
 -0.137672747037E+00
 -0.137672747104E+00
 -0.137672746142E+00
 -0.137672746067E+00
 -0.137672743166E+00
 -0.137672743234E+00
 -0.137672744982E+00
 -0.137672744926E+00
 -0.137672746917E+00
 -0.137672747307E+00
 -0.137672745792E+00
 -0.137672748510E+00
 -0.137672749066E+00
 -0.137672748891E+00
 -0.137672745094E+00
 -0.137672745194E+00
 -0.137672746907E+00
 -0.137672746853E+00
 -0.137672748299E+00
 -0.137672748181E+00
 -0.137672745181E+00
 -0.137672745300E+00
 -0.137672746103E+00
 -0.137672746164E+00
 -0.137672747011E+00
 -0.137672746908E+00
 -0.137672742816E+00
 -0.137672743058E+00
 -0.137672751303E+00
 -0.137672751026E+00
 -0.137672747096E+00
 -0.137672746984E+00
 -0.137672744749E+00
 -0.137672744749E+00
 -0.137672748655E+00
 -0.137672748467E+00
 -0.137672745994E+00
 -0.137672746114E+00
 -0.137672745118E+00
 -0.137672745317E+00
 -0.137672749904E+00
 -0.137672749846E+00
 -0.137672749207E+00
 -0.137672749254E+00
 -0.137672742956E+00
 -0.137672743079E+00
 -0.137672744214E+00
 -0.137672744150E+00
 -0.137672746373E+00
 -0.137672746431E+00
 -0.137672745418E+00
 -0.137672745511E+00
 -0.137672747781E+00
 -0.137672747660E+00
 -0.137672747423E+00
 -0.137672747431E+00
 -0.137672748748E+00
 -0.137672748705E+00
 -0.137672747143E+00
 -0.137672747720E+00
 -0.137672751011E+00
 -0.137672745326E+00
 -0.137672749167E+00
 -0.137672748999E+00
 -0.137672748630E+00
 -0.137672748666E+00
 -0.137672750655E+00
 -0.137672750533E+00
 -0.137672746564E+00
 -0.137672746649E+00
 -0.137672751475E+00
 -0.137672751433E+00
 -0.137672749725E+00
 -0.137672749868E+00
 -0.137672751388E+00
 -0.137672751262E+00
 -0.137672749624E+00
 -0.137672749578E+00
 -0.137672745095E+00
 -0.137672745202E+00
 -0.137672748190E+00
 -0.137672748045E+00
 -0.137672751373E+00
 -0.137672751169E+00
 -0.137672747219E+00
 -0.137672747238E+00
 -0.137672749490E+00
 -0.137672749421E+00
 -0.137672746241E+00
 -0.137672746603E+00
 -0.137672752717E+00
 -0.137672752726E+00
 -0.137672749773E+00
 -0.137672749771E+00
 -0.137672749023E+00
 -0.137672748963E+00
 -0.137672749956E+00
 -0.137672750004E+00
 -0.137672752230E+00
 -0.137672752218E+00
 -0.137672747814E+00
 -0.137672747989E+00
 -0.137672751565E+00
 -0.137672751446E+00
 -0.137672748999E+00
 -0.137672748970E+00
 -0.137672748131E+00
 -0.137672748224E+00
 -0.137672751110E+00
 -0.137672751545E+00
 -0.137672748784E+00
 -0.137672750486E+00
 -0.137672749048E+00
 -0.137672748788E+00
 -0.137672741696E+00
 -0.137672741847E+00
 -0.137672746141E+00
 -0.137672746217E+00
 -0.137672750564E+00
 -0.137672750472E+00
 -0.137672748766E+00
 -0.137672748781E+00
 -0.137672745511E+00
 -0.137672745615E+00
 -0.137672746225E+00
 -0.137672746240E+00
 -0.137672749308E+00
 -0.137672749022E+00
 -0.137672742805E+00
 -0.137672742990E+00
 -0.137672750373E+00
 -0.137672750133E+00
 -0.137672743702E+00
 -0.137672743723E+00
 -0.137672747591E+00
 -0.137672747350E+00
 -0.137672742969E+00
 -0.137672743149E+00
 -0.137672748976E+00
 -0.137672749108E+00
 -0.137672744886E+00
 -0.137672745148E+00
 -0.137672747100E+00
 -0.137672746961E+00
 -0.137672745588E+00
 -0.137672745594E+00
 -0.137672748609E+00
 -0.137672748558E+00
 -0.137672744280E+00
 -0.137672744503E+00
 -0.137672749820E+00
 -0.137672749709E+00
 -0.137672744948E+00
 -0.137672745058E+00
 -0.137672748919E+00
 -0.137672748628E+00
 -0.137672742648E+00
 -0.137672742714E+00
 -0.137672742593E+00
 -0.137672743614E+00
 -0.137672759854E+00
 -0.137672739646E+00
 -0.137672747515E+00
 -0.137672747406E+00
 -0.137672754184E+00
 -0.137672753799E+00
 -0.137672742447E+00
 -0.137672742790E+00
 -0.137672747640E+00
 -0.137672747670E+00
 -0.137672747427E+00
 -0.137672747339E+00
 -0.137672745545E+00
 -0.137672745605E+00
 -0.137672747628E+00
 -0.137672747576E+00
 -0.137672744544E+00
 -0.137672744479E+00
 -0.137672749014E+00
 -0.137672748776E+00
 -0.137672740541E+00
 -0.137672740748E+00
 -0.137672748573E+00
 -0.137672748520E+00
 -0.137672752710E+00
 -0.137672752597E+00
 -0.137672752948E+00
 -0.137672752915E+00
 -0.137672750085E+00
 -0.137672750253E+00
 -0.137672745400E+00
 -0.137672745354E+00
 -0.137672739020E+00
 -0.137672739137E+00
 -0.137672746008E+00
 -0.137672746138E+00
 -0.137672751884E+00
 -0.137672751709E+00
 -0.137672744125E+00
 -0.137672744223E+00
 -0.137672744277E+00
 -0.137672744470E+00
 -0.137672749499E+00
 -0.137672749325E+00
 -0.137672744303E+00
 -0.137672744420E+00
 -0.137672754549E+00
 -0.137672754271E+00
 -0.137672748704E+00
 -0.137672749103E+00
 -0.137672727491E+00
 -0.137672749557E+00
 -0.137672745031E+00
 -0.137672745192E+00
 -0.137672746901E+00
 -0.137672746855E+00
 -0.137672752310E+00
 -0.137672752222E+00
 -0.137672748270E+00
 -0.137672748357E+00
 -0.137672745303E+00
 -0.137672745326E+00
 -0.137672749606E+00
 -0.137672749518E+00
 -0.137672745750E+00
 -0.137672745679E+00
 -0.137672742752E+00
 -0.137672742810E+00
 -0.137672750485E+00
 -0.137672750318E+00
 -0.137672748221E+00
 -0.137672748205E+00
 -0.137672748589E+00
 -0.137672748724E+00
 -0.137672747528E+00
 -0.137672747746E+00
 -0.137672755584E+00
 -0.137672755363E+00
 -0.137672748030E+00
 -0.137672748045E+00
 -0.137672745261E+00
 -0.137672745074E+00
 -0.137672745038E+00
 -0.137672745272E+00
 -0.137672756258E+00
 -0.137672756174E+00
 -0.137672741044E+00
 -0.137672741279E+00
 -0.137672750477E+00
 -0.137672750245E+00
 -0.137672746238E+00
 -0.137672746288E+00
 -0.137672741030E+00
 -0.137672741175E+00
 -0.137672747653E+00
 -0.137672747607E+00
 -0.137672746878E+00
 -0.137672746936E+00
 -0.137672748522E+00
 -0.137672749090E+00
 -0.137672761230E+00
 -0.137672751545E+00
 -0.137672745927E+00
 -0.137672746124E+00
 -0.137672752230E+00
 -0.137672752207E+00
 -0.137672751219E+00
 -0.137672751086E+00
 -0.137672743675E+00
 -0.137672743671E+00
 -0.137672744260E+00
 -0.137672744332E+00
 -0.137672749565E+00
 -0.137672749506E+00
 -0.137672746301E+00
 -0.137672746373E+00
 -0.137672756044E+00
 -0.137672755799E+00
 -0.137672747161E+00
 -0.137672747218E+00
 -0.137672747769E+00
 -0.137672747732E+00
 -0.137672749184E+00
 -0.137672749467E+00