# vtk DataFile Version 3.0
MachLine results file. Generated by MachLine, USU AeroLab (c) 2022.
ASCII
DATASET POLYDATA
POINTS                3061 float
  0.114300523028E+02  0.000000000000E+00  0.000000000000E+00
  0.112395514310E+02  0.166666666667E-01  0.000000000000E+00
  0.112395514310E+02  0.166337788071E-01  0.104650865882E-02
  0.112395514310E+02  0.165352450219E-01  0.208888722607E-02
  0.112395514310E+02  0.163714541788E-01  0.312302190976E-02
  0.112395514310E+02  0.161430526855E-01  0.414483145275E-02
  0.112395514310E+02  0.158509419383E-01  0.515028323958E-02
  0.112395514310E+02  0.154962747648E-01  0.613540921141E-02
  0.112395514310E+02  0.150804508744E-01  0.709632152608E-02
  0.112395514310E+02  0.146051113341E-01  0.802922790170E-02
  0.112395514310E+02  0.140721320917E-01  0.893044658298E-02
  0.112395514310E+02  0.134836165729E-01  0.979642087154E-02
  0.112395514310E+02  0.128418873796E-01  0.106237331625E-01
  0.112395514310E+02  0.121494771237E-01  0.114091184321E-01
  0.112395514310E+02  0.114091184321E-01  0.121494771237E-01
  0.112395514310E+02  0.106237331625E-01  0.128418873796E-01
  0.112395514310E+02  0.979642087154E-02  0.134836165729E-01
  0.112395514310E+02  0.893044658298E-02  0.140721320917E-01
  0.112395514310E+02  0.802922790170E-02  0.146051113341E-01
  0.112395514310E+02  0.709632152608E-02  0.150804508744E-01
  0.112395514310E+02  0.613540921141E-02  0.154962747648E-01
  0.112395514310E+02  0.515028323958E-02  0.158509419383E-01
  0.112395514310E+02  0.414483145275E-02  0.161430526855E-01
  0.112395514310E+02  0.312302190976E-02  0.163714541788E-01
  0.112395514310E+02  0.208888722607E-02  0.165352450219E-01
  0.112395514310E+02  0.104650865882E-02  0.166337788071E-01
  0.112395514310E+02 -0.268020441613E-17  0.166666666667E-01
  0.112395514310E+02 -0.104650865882E-02  0.166337788071E-01
  0.112395514310E+02 -0.208888722607E-02  0.165352450219E-01
  0.112395514310E+02 -0.312302190976E-02  0.163714541788E-01
  0.112395514310E+02 -0.414483145275E-02  0.161430526855E-01
  0.112395514310E+02 -0.515028323958E-02  0.158509419383E-01
  0.112395514310E+02 -0.613540921141E-02  0.154962747648E-01
  0.112395514310E+02 -0.709632152608E-02  0.150804508744E-01
  0.112395514310E+02 -0.802922790170E-02  0.146051113341E-01
  0.112395514310E+02 -0.893044658298E-02  0.140721320917E-01
  0.112395514310E+02 -0.979642087154E-02  0.134836165729E-01
  0.112395514310E+02 -0.106237331625E-01  0.128418873796E-01
  0.112395514310E+02 -0.114091184321E-01  0.121494771237E-01
  0.112395514310E+02 -0.121494771237E-01  0.114091184321E-01
  0.112395514310E+02 -0.128418873796E-01  0.106237331625E-01
  0.112395514310E+02 -0.134836165729E-01  0.979642087154E-02
  0.112395514310E+02 -0.140721320917E-01  0.893044658298E-02
  0.112395514310E+02 -0.146051113341E-01  0.802922790170E-02
  0.112395514310E+02 -0.150804508744E-01  0.709632152608E-02
  0.112395514310E+02 -0.154962747648E-01  0.613540921141E-02
  0.112395514310E+02 -0.158509419383E-01  0.515028323958E-02
  0.112395514310E+02 -0.161430526855E-01  0.414483145275E-02
  0.112395514310E+02 -0.163714541788E-01  0.312302190976E-02
  0.112395514310E+02 -0.165352450219E-01  0.208888722607E-02
  0.112395514310E+02 -0.166337788071E-01  0.104650865882E-02
  0.112395514310E+02 -0.166666666667E-01  0.204107799858E-17
  0.110490505593E+02  0.333333333333E-01  0.000000000000E+00
  0.110490505593E+02  0.332675576143E-01  0.209301731764E-02
  0.110490505593E+02  0.330704900438E-01  0.417777445214E-02
  0.110490505593E+02  0.327429083576E-01  0.624604381952E-02
  0.110490505593E+02  0.322861053710E-01  0.828966290550E-02
  0.110490505593E+02  0.317018838765E-01  0.103005664792E-01
  0.110490505593E+02  0.309925495296E-01  0.122708184228E-01
  0.110490505593E+02  0.301609017489E-01  0.141926430522E-01
  0.110490505593E+02  0.292102226681E-01  0.160584558034E-01
  0.110490505593E+02  0.281442641834E-01  0.178608931660E-01
  0.110490505593E+02  0.269672331458E-01  0.195928417431E-01
  0.110490505593E+02  0.256837747592E-01  0.212474663250E-01
  0.110490505593E+02  0.242989542474E-01  0.228182368643E-01
  0.110490505593E+02  0.228182368643E-01  0.242989542474E-01
  0.110490505593E+02  0.212474663250E-01  0.256837747592E-01
  0.110490505593E+02  0.195928417431E-01  0.269672331458E-01
  0.110490505593E+02  0.178608931660E-01  0.281442641834E-01
  0.110490505593E+02  0.160584558034E-01  0.292102226681E-01
  0.110490505593E+02  0.141926430522E-01  0.301609017489E-01
  0.110490505593E+02  0.122708184228E-01  0.309925495296E-01
  0.110490505593E+02  0.103005664792E-01  0.317018838765E-01
  0.110490505593E+02  0.828966290550E-02  0.322861053710E-01
  0.110490505593E+02  0.624604381952E-02  0.327429083576E-01
  0.110490505593E+02  0.417777445214E-02  0.330704900438E-01
  0.110490505593E+02  0.209301731764E-02  0.332675576143E-01
  0.110490505593E+02 -0.536040883226E-17  0.333333333333E-01
  0.110490505593E+02 -0.209301731764E-02  0.332675576143E-01
  0.110490505593E+02 -0.417777445214E-02  0.330704900438E-01
  0.110490505593E+02 -0.624604381952E-02  0.327429083576E-01
  0.110490505593E+02 -0.828966290550E-02  0.322861053710E-01
  0.110490505593E+02 -0.103005664792E-01  0.317018838765E-01
  0.110490505593E+02 -0.122708184228E-01  0.309925495296E-01
  0.110490505593E+02 -0.141926430522E-01  0.301609017489E-01
  0.110490505593E+02 -0.160584558034E-01  0.292102226681E-01
  0.110490505593E+02 -0.178608931660E-01  0.281442641834E-01
  0.110490505593E+02 -0.195928417431E-01  0.269672331458E-01
  0.110490505593E+02 -0.212474663250E-01  0.256837747592E-01
  0.110490505593E+02 -0.228182368643E-01  0.242989542474E-01
  0.110490505593E+02 -0.242989542474E-01  0.228182368643E-01
  0.110490505593E+02 -0.256837747592E-01  0.212474663250E-01
  0.110490505593E+02 -0.269672331458E-01  0.195928417431E-01
  0.110490505593E+02 -0.281442641834E-01  0.178608931660E-01
  0.110490505593E+02 -0.292102226681E-01  0.160584558034E-01
  0.110490505593E+02 -0.301609017489E-01  0.141926430522E-01
  0.110490505593E+02 -0.309925495296E-01  0.122708184228E-01
  0.110490505593E+02 -0.317018838765E-01  0.103005664792E-01
  0.110490505593E+02 -0.322861053710E-01  0.828966290550E-02
  0.110490505593E+02 -0.327429083576E-01  0.624604381952E-02
  0.110490505593E+02 -0.330704900438E-01  0.417777445214E-02
  0.110490505593E+02 -0.332675576143E-01  0.209301731764E-02
  0.110490505593E+02 -0.333333333333E-01  0.408215599716E-17
  0.108585496876E+02  0.500000000000E-01  0.000000000000E+00
  0.108585496876E+02  0.499013364214E-01  0.313952597647E-02
  0.108585496876E+02  0.496057350657E-01  0.626666167822E-02
  0.108585496876E+02  0.491143625364E-01  0.936906572929E-02
  0.108585496876E+02  0.484291580564E-01  0.124344943582E-01
  0.108585496876E+02  0.475528258148E-01  0.154508497187E-01
  0.108585496876E+02  0.464888242944E-01  0.184062276342E-01
  0.108585496876E+02  0.452413526233E-01  0.212889645783E-01
  0.108585496876E+02  0.438153340022E-01  0.240876837051E-01
  0.108585496876E+02  0.422163962751E-01  0.267913397489E-01
  0.108585496876E+02  0.404508497187E-01  0.293892626146E-01
  0.108585496876E+02  0.385256621388E-01  0.318711994874E-01
  0.108585496876E+02  0.364484313711E-01  0.342273552964E-01
  0.108585496876E+02  0.342273552964E-01  0.364484313711E-01
  0.108585496876E+02  0.318711994874E-01  0.385256621388E-01
  0.108585496876E+02  0.293892626146E-01  0.404508497187E-01
  0.108585496876E+02  0.267913397489E-01  0.422163962751E-01
  0.108585496876E+02  0.240876837051E-01  0.438153340022E-01
  0.108585496876E+02  0.212889645783E-01  0.452413526233E-01
  0.108585496876E+02  0.184062276342E-01  0.464888242944E-01
  0.108585496876E+02  0.154508497187E-01  0.475528258148E-01
  0.108585496876E+02  0.124344943582E-01  0.484291580564E-01
  0.108585496876E+02  0.936906572929E-02  0.491143625364E-01
  0.108585496876E+02  0.626666167822E-02  0.496057350657E-01
  0.108585496876E+02  0.313952597647E-02  0.499013364214E-01
  0.108585496876E+02 -0.804061324838E-17  0.500000000000E-01
  0.108585496876E+02 -0.313952597647E-02  0.499013364214E-01
  0.108585496876E+02 -0.626666167822E-02  0.496057350657E-01
  0.108585496876E+02 -0.936906572929E-02  0.491143625364E-01
  0.108585496876E+02 -0.124344943582E-01  0.484291580564E-01
  0.108585496876E+02 -0.154508497187E-01  0.475528258148E-01
  0.108585496876E+02 -0.184062276342E-01  0.464888242944E-01
  0.108585496876E+02 -0.212889645783E-01  0.452413526233E-01
  0.108585496876E+02 -0.240876837051E-01  0.438153340022E-01
  0.108585496876E+02 -0.267913397489E-01  0.422163962751E-01
  0.108585496876E+02 -0.293892626146E-01  0.404508497187E-01
  0.108585496876E+02 -0.318711994874E-01  0.385256621388E-01
  0.108585496876E+02 -0.342273552964E-01  0.364484313711E-01
  0.108585496876E+02 -0.364484313711E-01  0.342273552964E-01
  0.108585496876E+02 -0.385256621388E-01  0.318711994874E-01
  0.108585496876E+02 -0.404508497187E-01  0.293892626146E-01
  0.108585496876E+02 -0.422163962751E-01  0.267913397489E-01
  0.108585496876E+02 -0.438153340022E-01  0.240876837051E-01
  0.108585496876E+02 -0.452413526233E-01  0.212889645783E-01
  0.108585496876E+02 -0.464888242944E-01  0.184062276342E-01
  0.108585496876E+02 -0.475528258148E-01  0.154508497187E-01
  0.108585496876E+02 -0.484291580564E-01  0.124344943582E-01
  0.108585496876E+02 -0.491143625364E-01  0.936906572929E-02
  0.108585496876E+02 -0.496057350657E-01  0.626666167822E-02
  0.108585496876E+02 -0.499013364214E-01  0.313952597647E-02
  0.108585496876E+02 -0.500000000000E-01  0.612323399574E-17
  0.106680488159E+02  0.666666666667E-01  0.000000000000E+00
  0.106680488159E+02  0.665351152286E-01  0.418603463529E-02
  0.106680488159E+02  0.661409800876E-01  0.835554890429E-02
  0.106680488159E+02  0.654858167152E-01  0.124920876390E-01
  0.106680488159E+02  0.645722107419E-01  0.165793258110E-01
  0.106680488159E+02  0.634037677530E-01  0.206011329583E-01
  0.106680488159E+02  0.619850990592E-01  0.245416368456E-01
[...]
CELL_DATA                5950
SCALARS C_p_ise float 1
LOOKUP_TABLE default
  0.278046159675E-01
  0.278046159471E-01
  0.278046159465E-01
  0.278046159468E-01
  0.278046159488E-01
  0.278046159493E-01
  0.278046159490E-01
  0.278046159495E-01
  0.278046159479E-01
  0.278046159470E-01
  0.278046159470E-01
  0.278046159471E-01
  0.278046159477E-01
  0.278046159497E-01
  0.278046159498E-01
  0.278046159469E-01
  0.278046159482E-01
  0.278046159504E-01
  0.278046159492E-01
  0.278046159486E-01
  0.278046159481E-01
  0.278046159478E-01
  0.278046159479E-01
  0.278046159479E-01
  0.278046159471E-01
  0.278046159474E-01
  0.278046159479E-01
  0.278046159465E-01
  0.278046159467E-01
  0.278046159490E-01
  0.278046159487E-01
  0.278046159485E-01
  0.278046159499E-01
  0.278046159483E-01
  0.278046159469E-01
  0.278046159471E-01
  0.278046159475E-01
  0.278046159477E-01
  0.278046159497E-01
  0.278046159501E-01
  0.278046159472E-01
  0.278046159484E-01
  0.278046159504E-01
  0.278046159501E-01
  0.278046159498E-01
  0.278046159487E-01
  0.278046159479E-01
  0.278046159477E-01
  0.278046159479E-01
  0.278046159294E-01
  0.278046157127E-01
  0.278046157608E-01
  0.278046157406E-01
  0.278046157412E-01
  0.278046157391E-01
  0.278046157346E-01
  0.278046157355E-01
  0.278046157372E-01
  0.278046157366E-01
  0.278046157288E-01
  0.278046157321E-01
  0.278046157406E-01
  0.278046157388E-01
  0.278046157343E-01
  0.278046157337E-01
  0.278046157305E-01
  0.278046157332E-01
  0.278046157462E-01
  0.278046157435E-01
  0.278046157383E-01
  0.278046157392E-01
  0.278046157417E-01
  0.278046157402E-01
  0.278046157353E-01
  0.278046157377E-01
  0.278046157429E-01
  0.278046157424E-01
  0.278046157350E-01
  0.278046157368E-01
  0.278046157416E-01
  0.278046157407E-01
  0.278046157470E-01
  0.278046157432E-01
  0.278046157276E-01
  0.278046157312E-01
  0.278046157356E-01
  0.278046157365E-01
  0.278046157427E-01
  0.278046157402E-01
  0.278046157345E-01
  0.278046157344E-01
  0.278046157354E-01
  0.278046157357E-01
  0.278046157377E-01
  0.278046157373E-01
  0.278046157359E-01
  0.278046157368E-01
  0.278046157396E-01
  0.278046157387E-01
  0.278046157384E-01
  0.278046157374E-01
  0.278046157338E-01
  0.278046157361E-01
  0.278046157414E-01
  0.278046157390E-01
  0.278046157362E-01
  0.278046157358E-01
  0.278046157341E-01
  0.278046157348E-01
  0.278046157301E-01
  0.278046157328E-01
  0.278046157420E-01
  0.278046157395E-01
  0.278046157328E-01
  0.278046157326E-01
  0.278046157277E-01
  0.278046157313E-01
  0.278046157469E-01
  0.278046157439E-01
  0.278046157388E-01
  0.278046157389E-01
  0.278046157383E-01
  0.278046157379E-01
  0.278046157357E-01
  0.278046157378E-01
  0.278046157435E-01
  0.278046157431E-01
  0.278046157357E-01
  0.278046157379E-01
  0.278046157434E-01
  0.278046157413E-01
  0.278046157437E-01
  0.278046157406E-01
  0.278046157277E-01
  0.278046157308E-01
  0.278046157339E-01
  0.278046157354E-01
  0.278046157409E-01
  0.278046157394E-01
  0.278046157356E-01
  0.278046157357E-01
  0.278046157394E-01
  0.278046157380E-01
  0.278046157366E-01
  0.278046157363E-01
  0.278046157362E-01
  0.278046157365E-01
  0.278046157369E-01
  0.278046157529E-01
  0.278046158565E-01
  0.278046158240E-01
  0.278046158376E-01
  0.278046158333E-01
  0.278046158325E-01
  0.278046158330E-01
  0.278046158455E-01
  0.278046158437E-01
  0.278046158381E-01
  0.278046158396E-01
  0.278046158472E-01
  0.278046158443E-01
  0.278046158263E-01
  0.278046158294E-01
  0.278046158397E-01
  0.278046158397E-01
  0.278046158499E-01
  0.278046158466E-01
  0.278046158217E-01
  0.278046158263E-01
  0.278046158414E-01
  0.278046158358E-01
  0.278046158120E-01
  0.278046158149E-01
  0.278046158325E-01
  0.278046158326E-01
  0.278046158295E-01
  0.278046158304E-01
  0.278046158285E-01
  0.278046158282E-01
  0.278046158298E-01
  0.278046158337E-01
  0.278046158495E-01
  0.278046158476E-01
  0.278046158470E-01
  0.278046158448E-01
  0.278046158415E-01
  0.278046158401E-01
  0.278046158214E-01
  0.278046158233E-01
  0.278046158349E-01
  0.278046158330E-01
  0.278046158335E-01
  0.278046158325E-01
  0.278046158241E-01
  0.278046158280E-01
  0.278046158464E-01
  0.278046158444E-01
  0.278046158318E-01
  0.278046158349E-01
  0.278046158502E-01
  0.278046158467E-01
  0.278046158348E-01
  0.278046158347E-01
  0.278046158289E-01
  0.278046158325E-01
  0.278046158535E-01
  0.278046158505E-01
  0.278046158420E-01
  0.278046158432E-01
  0.278046158479E-01
  0.278046158455E-01
  0.278046158278E-01
  0.278046158305E-01
  0.278046158410E-01
  0.278046158404E-01
  0.278046158497E-01
  0.278046158462E-01
  0.278046158187E-01
  0.278046158220E-01
  0.278046158276E-01
  0.278046158264E-01
  0.278046158288E-01
  0.278046158278E-01
  0.278046158257E-01
  0.278046158262E-01
  0.278046158216E-01
  0.278046158238E-01
  0.278046158278E-01
  0.278046158276E-01
  0.278046158275E-01
  0.278046158301E-01
  0.278046158444E-01
  0.278046158429E-01
  0.278046158471E-01
  0.278046158463E-01
  0.278046158487E-01
  0.278046158466E-01
  0.278046158235E-01
  0.278046158255E-01
  0.278046158344E-01
  0.278046158316E-01
  0.278046158238E-01
  0.278046158243E-01
  0.278046158276E-01
  0.278046158299E-01
  0.278046158449E-01
  0.278046158428E-01
  0.278046158308E-01
  0.278046158583E-01
  0.278046159153E-01
  0.278046157296E-01
  0.278046157595E-01
  0.278046157561E-01
  0.278046157438E-01
  0.278046157471E-01
  0.278046157677E-01
  0.278046157650E-01
  0.278046157410E-01
  0.278046157423E-01
  0.278046157495E-01
  0.278046157498E-01
  0.278046157615E-01
  0.278046157598E-01
  0.278046157513E-01
  0.278046157540E-01
  0.278046157587E-01
  0.278046157599E-01
  0.278046157769E-01
  0.278046157743E-01
  0.278046157584E-01
  0.278046157583E-01
  0.278046157758E-01
  0.278046157700E-01
  0.278046157420E-01
  0.278046157464E-01
  0.278046157517E-01
  0.278046157536E-01
  0.278046157649E-01
  0.278046157625E-01
  0.278046157511E-01
  0.278046157504E-01
  0.278046157159E-01
  0.278046157212E-01
  0.278046157489E-01
  0.278046157478E-01
  0.278046157571E-01
  0.278046157545E-01
  0.278046157502E-01
  0.278046157483E-01
  0.278046157487E-01
  0.278046157517E-01
  0.278046157701E-01
  0.278046157673E-01
  0.278046157538E-01
  0.278046157556E-01
  0.278046157528E-01
  0.278046157552E-01
  0.278046157600E-01
  0.278046157599E-01
  0.278046157549E-01
  0.278046157591E-01
  0.278046157912E-01
  0.278046157803E-01
  0.278046157208E-01
  0.278046157278E-01
  0.278046157596E-01
  0.278046157568E-01
  0.278046157293E-01
  0.278046157296E-01
  0.278046157360E-01
  0.278046157366E-01
  0.278046157510E-01
  0.278046157488E-01
  0.278046157396E-01
  0.278046157436E-01
  0.278046157614E-01
  0.278046157599E-01
  0.278046157613E-01
  0.278046157565E-01
  0.278046157392E-01
  0.278046157420E-01
  0.278046157617E-01
  0.278046157601E-01
  0.278046157529E-01
  0.278046157540E-01
  0.278046157614E-01
  0.278046157588E-01
  0.278046157312E-01
  0.278046157337E-01
  0.278046157468E-01
  0.278046157498E-01
  0.278046157531E-01
  0.278046157535E-01
  0.278046157461E-01
  0.278046157465E-01
  0.278046157487E-01
  0.278046157470E-01
  0.278046157457E-01
  0.278046157455E-01
  0.278046157614E-01
  0.278046157625E-01
  0.278046157766E-01
  0.278046157712E-01
  0.278046157403E-01
  0.278046157445E-01
  0.278046157535E-01
  0.278046157553E-01
  0.278046157615E-01
  0.278046158011E-01
  0.278046159030E-01
  0.278046155559E-01
  0.278046155259E-01
  0.278046155310E-01
  0.278046155688E-01
  0.278046155627E-01
  0.278046154929E-01
  0.278046155012E-01
  0.278046155734E-01
  0.278046155671E-01
  0.278046155285E-01
  0.278046155285E-01
  0.278046155167E-01
  0.278046155188E-01
  0.278046155381E-01
  0.278046155363E-01
  0.278046155073E-01
  0.278046155107E-01
  0.278046155241E-01
  0.278046155247E-01
  0.278046155313E-01
  0.278046155298E-01
  0.278046155374E-01
  0.278046155331E-01
  0.278046155245E-01
  0.278046155234E-01
  0.278046155106E-01
  0.278046155141E-01
  0.278046155221E-01
  0.278046155226E-01
  0.278046155343E-01
  0.278046155337E-01
  0.278046155490E-01
  0.278046155492E-01
  0.278046155476E-01
  0.278046155456E-01
  0.278046155018E-01
  0.278046155050E-01
  0.278046155452E-01
  0.278046155405E-01
  0.278046155207E-01
  0.278046155224E-01
  0.278046155099E-01
  0.278046155096E-01
  0.278046155084E-01
  0.278046155091E-01
  0.278046155165E-01
  0.278046155154E-01
  0.278046154877E-01
  0.278046154891E-01
  0.278046154965E-01
  0.278046155008E-01
  0.278046155088E-01
  0.278046155110E-01
  0.278046155878E-01
  0.278046155759E-01
  0.278046154824E-01
  0.278046154908E-01
  0.278046155502E-01
  0.278046155464E-01
  0.278046155454E-01
  0.278046155442E-01
  0.278046155193E-01
  0.278046155212E-01
  0.278046155398E-01
  0.278046155381E-01
  0.278046154988E-01
  0.278046155042E-01
  0.278046155425E-01
  0.278046155406E-01
  0.278046155652E-01
  0.278046155609E-01
  0.278046155185E-01
  0.278046155229E-01
  0.278046155510E-01
  0.278046155489E-01
  0.278046155302E-01
  0.278046155333E-01
  0.278046155751E-01
  0.278046155708E-01
  0.278046155457E-01
  0.278046155478E-01
  0.278046155227E-01
  0.278046155268E-01
  0.278046155562E-01
  0.278046155504E-01
  0.278046155046E-01
  0.278046155075E-01
  0.278046155463E-01
  0.278046155425E-01
  0.278046155124E-01
  0.278046155154E-01
  0.278046155126E-01
  0.278046155105E-01
  0.278046155224E-01
  0.278046155221E-01
  0.278046155215E-01
  0.278046155202E-01
  0.278046154813E-01
  0.278046155356E-01
  0.278046156589E-01
  0.278046160510E-01
  0.278046161181E-01
  0.278046161144E-01
  0.278046160551E-01
  0.278046160617E-01
  0.278046161560E-01
  0.278046161532E-01
  0.278046161167E-01
  0.278046161179E-01
  0.278046161118E-01
  0.278046161088E-01
  0.278046161225E-01
  0.278046161241E-01
  0.278046161330E-01
  0.278046161294E-01
  0.278046160848E-01
  0.278046160879E-01
  0.278046161204E-01
  0.278046161223E-01
  0.278046161197E-01
  0.278046161147E-01
  0.278046160689E-01
  0.278046160688E-01
  0.278046161063E-01
  0.278046161048E-01
  0.278046161103E-01
  0.278046161118E-01
  0.278046161050E-01
  0.278046161055E-01
  0.278046160956E-01
  0.278046161005E-01
  0.278046161466E-01
  0.278046161510E-01
  0.278046161790E-01
  0.278046161709E-01
  0.278046161050E-01
  0.278046160983E-01
  0.278046160436E-01
  0.278046160484E-01
  0.278046161029E-01
  0.278046161024E-01
  0.278046161026E-01
  0.278046161072E-01
  0.278046161769E-01
  0.278046161756E-01
  0.278046161550E-01
  0.278046161542E-01
  0.278046161482E-01
  0.278046161466E-01
  0.278046161483E-01
  0.278046161483E-01
  0.278046160916E-01
  0.278046160897E-01
  0.278046160355E-01
  0.278046160434E-01
  0.278046161675E-01
  0.278046161646E-01
  0.278046161539E-01
  0.278046161521E-01
  0.278046161011E-01
  0.278046161038E-01
  0.278046161491E-01
  0.278046161456E-01
  0.278046161166E-01
  0.278046161155E-01
  0.278046160994E-01
  0.278046161038E-01
  0.278046161422E-01
  0.278046161447E-01
  0.278046161449E-01
  0.278046161377E-01
  0.278046160759E-01
  0.278046160789E-01
  0.278046161158E-01
  0.278046161117E-01
  0.278046160547E-01
  0.278046160587E-01
  0.278046160916E-01
  0.278046160941E-01
  0.278046161179E-01
  0.278046161199E-01
  0.278046161492E-01
  0.278046161518E-01
  0.278046161661E-01
  0.278046161596E-01
  0.278046161150E-01
  0.278046161097E-01
  0.278046160768E-01
  0.278046160790E-01
  0.278046160978E-01
  0.278046160975E-01
  0.278046160984E-01
  0.278046161002E-01
  0.278046161459E-01
  0.278046161471E-01
  0.278046161487E-01
  0.278046161476E-01
  0.278046161501E-01
  0.278046162063E-01
  0.278046162751E-01
  0.278046154975E-01
  0.278046151377E-01
  0.278046151476E-01
  0.278046152436E-01
  0.278046152391E-01
  0.278046151640E-01
  0.278046151767E-01
  0.278046152666E-01
  0.278046152589E-01
  0.278046151874E-01
  0.278046151880E-01
  0.278046152419E-01
  0.278046152380E-01
  0.278046151496E-01
  0.278046151575E-01
  0.278046152977E-01
  0.278046152823E-01
  0.278046150940E-01
  0.278046151095E-01
  0.278046152484E-01
  0.278046152485E-01
  0.278046153186E-01
  0.278046153111E-01
  0.278046152691E-01
  0.278046152673E-01
  0.278046152190E-01
  0.278046152169E-01
  0.278046151640E-01
  0.278046151690E-01
  0.278046152351E-01
  0.278046152381E-01
  0.278046152248E-01
  0.278046152252E-01
  0.278046151184E-01
  0.278046151238E-01
  0.278046152665E-01
  0.278046152555E-01
  0.278046152770E-01
  0.278046152693E-01
  0.278046151724E-01
  0.278046151788E-01
  0.278046152038E-01
  0.278046152027E-01
  0.278046151278E-01
  0.278046151389E-01
  0.278046152178E-01
  0.278046152148E-01
  0.278046152114E-01
  0.278046152056E-01
  0.278046151574E-01
  0.278046151582E-01
  0.278046151667E-01
  0.278046151647E-01
  0.278046152298E-01
  0.278046152284E-01
  0.278046151718E-01
  0.278046151837E-01
  0.278046152301E-01
  0.278046152216E-01
  0.278046151476E-01
  0.278046151520E-01
  0.278046152332E-01
  0.278046152298E-01
  0.278046151781E-01
  0.278046151861E-01
  0.278046153383E-01
  0.278046153280E-01
  0.278046151547E-01
  0.278046151638E-01
  0.278046152050E-01
  0.278046152069E-01
  0.278046153256E-01
  0.278046153160E-01
  0.278046152241E-01
  0.278046152224E-01
  0.278046152104E-01
  0.278046152064E-01
  0.278046151694E-01
  0.278046151775E-01
  0.278046152114E-01
  0.278046152132E-01
  0.278046151832E-01
  0.278046151828E-01
  0.278046151082E-01
  0.278046151138E-01
  0.278046152550E-01
  0.278046152485E-01
  0.278046152844E-01
  0.278046152730E-01
  0.278046151345E-01
  0.278046151432E-01
  0.278046152375E-01
  0.278046152360E-01
  0.278046151919E-01
  0.278046151993E-01
  0.278046152269E-01
  0.278046152268E-01
  0.278046152392E-01
  0.278046152811E-01
  0.278046150918E-01
  0.278046160998E-01
  0.278046167497E-01
  0.278046167298E-01
  0.278046166986E-01
  0.278046167059E-01
  0.278046167734E-01
  0.278046167713E-01
  0.278046166347E-01
  0.278046166372E-01
  0.278046166868E-01
  0.278046166831E-01
  0.278046167013E-01
  0.278046167003E-01
  0.278046166823E-01
  0.278046166816E-01
  0.278046166535E-01
  0.278046166670E-01
  0.278046169409E-01
  0.278046169258E-01
  0.278046166838E-01
  0.278046166886E-01
  0.278046165984E-01
  0.278046165963E-01
  0.278046165956E-01
  0.278046166013E-01
  0.278046167624E-01
  0.278046167603E-01
  0.278046168158E-01
  0.278046168131E-01
  0.278046167579E-01
  0.278046167621E-01
  0.278046167049E-01
  0.278046167117E-01
  0.278046168230E-01
  0.278046168106E-01
  0.278046166653E-01
  0.278046166701E-01
  0.278046167432E-01
  0.278046167421E-01
  0.278046168158E-01
  0.278046168093E-01
  0.278046167273E-01
  0.278046167344E-01
  0.278046168280E-01
  0.278046168261E-01
  0.278046167164E-01
  0.278046167252E-01
  0.278046168113E-01
  0.278046167987E-01
  0.278046166995E-01
  0.278046166929E-01
  0.278046166383E-01
  0.278046166446E-01
  0.278046167592E-01
  0.278046167551E-01
  0.278046166399E-01
  0.278046166508E-01
  0.278046167003E-01
  0.278046166991E-01
  0.278046167528E-01
  0.278046167450E-01
  0.278046166487E-01
  0.278046166571E-01
  0.278046167382E-01
  0.278046167368E-01
  0.278046166557E-01
  0.278046166682E-01
  0.278046168344E-01
  0.278046168201E-01
  0.278046166681E-01
  0.278046166739E-01
  0.278046166842E-01
  0.278046166784E-01
  0.278046166003E-01
  0.278046166127E-01
  0.278046169297E-01
  0.278046169164E-01
  0.278046167905E-01
  0.278046167925E-01
  0.278046167424E-01
  0.278046167472E-01
  0.278046167516E-01
  0.278046167544E-01
  0.278046168379E-01
  0.278046168279E-01
  0.278046166801E-01
  0.278046166853E-01
  0.278046166989E-01
  0.278046167008E-01
  0.278046168608E-01
  0.278046168504E-01
  0.278046167228E-01
  0.278046167332E-01
  0.278046168035E-01
  0.278046168010E-01
  0.278046167023E-01
  0.278046167054E-01
  0.278046167211E-01
  0.278046168210E-01
  0.278046176770E-01
  0.278046152876E-01
  0.278046146975E-01
  0.278046147154E-01
  0.278046146210E-01
  0.278046146278E-01
  0.278046146544E-01
  0.278046146538E-01
  0.278046146043E-01
  0.278046146090E-01
  0.278046148003E-01
  0.278046147991E-01
  0.278046147868E-01
  0.278046147897E-01
  0.278046148358E-01
  0.278046148246E-01
  0.278046146680E-01
  0.278046146728E-01
  0.278046145552E-01
  0.278046145620E-01
  0.278046146248E-01
  0.278046146174E-01
  0.278046146830E-01
  0.278046146801E-01
  0.278046147672E-01
  0.278046147689E-01
  0.278046147029E-01
  0.278046147123E-01
  0.278046147251E-01
  0.278046147159E-01
  0.278046145445E-01
  0.278046145500E-01
  0.278046146331E-01
  0.278046146384E-01
  0.278046146776E-01
  0.278046146820E-01
  0.278046148434E-01
  0.278046148385E-01
  0.278046148387E-01
  0.278046148324E-01
  0.278046146609E-01
  0.278046146673E-01
  0.278046148032E-01
  0.278046147986E-01
  0.278046146937E-01
  0.278046146935E-01
  0.278046146171E-01
  0.278046146202E-01
  0.278046146473E-01
  0.278046146428E-01
  0.278046146856E-01
  0.278046146832E-01
  0.278046148655E-01
  0.278046148513E-01
  0.278046145651E-01
  0.278046145833E-01
  0.278046148303E-01
  0.278046148210E-01
  0.278046146081E-01
  0.278046146226E-01
  0.278046148329E-01
  0.278046148307E-01
  0.278046148642E-01
  0.278046148662E-01
  0.278046148689E-01
  0.278046148618E-01
  0.278046146736E-01
  0.278046146753E-01
  0.278046145826E-01
  0.278046145894E-01
  0.278046147599E-01
  0.278046147508E-01
  0.278046146707E-01
  0.278046146695E-01
  0.278046147342E-01
  0.278046147300E-01
  0.278046145374E-01
  0.278046145529E-01
  0.278046146847E-01
  0.278046146694E-01
  0.278046145205E-01
  0.278046145258E-01
  0.278046145910E-01
  0.278046145961E-01
  0.278046146301E-01
  0.278046146313E-01
  0.278046147268E-01
  0.278046147229E-01
  0.278046147349E-01
  0.278046147335E-01
  0.278046146601E-01
  0.278046146652E-01
  0.278046147491E-01
  0.278046147466E-01
  0.278046146717E-01
  0.278046146714E-01
  0.278046146288E-01
  0.278046146261E-01
  0.278046146376E-01
  0.278046147097E-01
  0.278046142194E-01
  0.278046158735E-01
  0.278046156572E-01
  0.278046156441E-01
  0.278046157154E-01
  0.278046157026E-01
  0.278046154344E-01
  0.278046154500E-01
  0.278046157271E-01
  0.278046157202E-01
  0.278046155563E-01
  0.278046155702E-01
  0.278046156431E-01
  0.278046156399E-01
  0.278046155371E-01
  0.278046155351E-01
  0.278046156581E-01
  0.278046156569E-01
  0.278046157184E-01
  0.278046157104E-01
  0.278046155606E-01
  0.278046155627E-01
  0.278046156754E-01
  0.278046156786E-01
  0.278046157215E-01
  0.278046157201E-01
  0.278046155633E-01
  0.278046155637E-01
  0.278046154670E-01
  0.278046154762E-01
  0.278046158101E-01
  0.278046157935E-01
  0.278046155663E-01
  0.278046155824E-01
  0.278046156965E-01
  0.278046156926E-01
  0.278046154899E-01
  0.278046154955E-01
  0.278046155146E-01
  0.278046155192E-01
  0.278046157274E-01
  0.278046157141E-01
  0.278046155315E-01
  0.278046155425E-01
  0.278046156866E-01
  0.278046156805E-01
  0.278046156850E-01
  0.278046156962E-01
  0.278046159348E-01
  0.278046159290E-01
  0.278046158731E-01
  0.278046158693E-01
  0.278046157950E-01
  0.278046157912E-01
  0.278046157852E-01
  0.278046157712E-01
  0.278046154815E-01
  0.278046154970E-01
  0.278046156946E-01
  0.278046156868E-01
  0.278046155040E-01
  0.278046155181E-01
  0.278046155919E-01
  0.278046155856E-01
  0.278046153886E-01
  0.278046153920E-01
  0.278046155874E-01
  0.278046155818E-01
  0.278046156535E-01
  0.278046156420E-01
  0.278046153992E-01
  0.278046154085E-01
  0.278046155692E-01
  0.278046155704E-01
  0.278046157049E-01
  0.278046157012E-01
  0.278046156375E-01
  0.278046156344E-01
  0.278046154956E-01
  0.278046155059E-01
  0.278046158437E-01
  0.278046158299E-01
  0.278046156349E-01
  0.278046156494E-01
  0.278046157562E-01
  0.278046157585E-01
  0.278046157429E-01
  0.278046157365E-01
  0.278046155813E-01
  0.278046155895E-01
  0.278046157573E-01
  0.278046157454E-01
  0.278046155037E-01
  0.278046155110E-01
  0.278046156046E-01
  0.278046156072E-01
  0.278046157463E-01
  0.278046157514E-01
  0.278046159479E-01