# vtk DataFile Version 3.0
TriPan results file. Generated by TriPan, USU AeroLab (c) 2021.
ASCII
DATASET POLYDATA
POINTS                 144 float
  0.000000000000E+00  0.000000000000E+00  0.000000000000E+00
  0.113538098335E+01  0.000000000000E+00 -0.658124566078E+00
  0.113538098335E+01  0.000000000000E+00  0.658124566078E+00
  0.192375373840E+01  0.192375373840E+01  0.000000000000E+00
  0.305913543701E+01  0.192375373840E+01 -0.658124983311E+00
  0.305913543701E+01  0.192375373840E+01  0.658124983311E+00
  0.423028087616E+01  0.000000000000E+00 -0.108747220039E+01
  0.423028087616E+01  0.000000000000E+00  0.108747220039E+01
  0.547033166885E+01  0.547033166885E+01  0.000000000000E+00
  0.615403699875E+01  0.192375373840E+01 -0.108747279644E+01
  0.615403699875E+01  0.192375373840E+01  0.108747279644E+01
  0.660571479797E+01  0.547033166885E+01 -0.658125698566E+00
  0.660571479797E+01  0.547033166885E+01  0.658125698566E+00
  0.939508819580E+01  0.000000000000E+00 -0.980745851994E+00
  0.939508819580E+01  0.000000000000E+00  0.980745851994E+00
  0.970061969757E+01  0.547033166885E+01 -0.108747410774E+01
  0.970061969757E+01  0.547033166885E+01  0.108747410774E+01
  0.113188476562E+02  0.192375373840E+01 -0.980746448040E+00
  0.113188476562E+02  0.192375373840E+01  0.980746448040E+00
  0.113820018768E+02  0.113820018768E+02  0.000000000000E+00
  0.125173873901E+02  0.113820018768E+02 -0.658127009869E+00
  0.125173873901E+02  0.113820018768E+02  0.658127009869E+00
  0.145402030945E+02  0.000000000000E+00 -0.479613035917E+00
  0.145402030945E+02  0.000000000000E+00  0.479613035917E+00
  0.148654365540E+02  0.547033166885E+01 -0.980747580528E+00
  0.148654365540E+02  0.547033166885E+01  0.980747580528E+00
  0.156122989655E+02  0.113820018768E+02 -0.108747613430E+01
  0.156122989655E+02  0.113820018768E+02  0.108747613430E+01
  0.164639663696E+02  0.192375373840E+01 -0.479613333941E+00
  0.164639663696E+02  0.192375373840E+01  0.479613333941E+00
  0.176505107880E+02  0.000000000000E+00 -0.144198849797E+00
  0.176505107880E+02  0.000000000000E+00  0.144198849797E+00
  0.190000000000E+02  0.000000000000E+00  0.000000000000E+00
  0.195742740631E+02  0.192375373840E+01 -0.144198939204E+00
  0.195742740631E+02  0.192375373840E+01  0.144198939204E+00
  0.197561950684E+02  0.197561950684E+02  0.000000000000E+00
  0.200105609894E+02  0.547033166885E+01 -0.479613870382E+00
  0.200105609894E+02  0.547033166885E+01  0.479613870382E+00
  0.207771244049E+02  0.113820018768E+02 -0.980749428272E+00
  0.207771244049E+02  0.113820018768E+02  0.980749428272E+00
  0.208915824890E+02  0.197561950684E+02 -0.658128738403E+00
  0.208915824890E+02  0.197561950684E+02  0.658128738403E+00
  0.209237651825E+02  0.192375373840E+01  0.000000000000E+00
  0.231208724976E+02  0.547033166885E+01 -0.144199103117E+00
  0.231208724976E+02  0.547033166885E+01  0.144199103117E+00
  0.239865016937E+02  0.197561950684E+02 -0.108747911453E+01
  0.239865016937E+02  0.197561950684E+02  0.108747911453E+01
  0.244703655243E+02  0.547033166885E+01  0.000000000000E+00
  0.259222583771E+02  0.113820018768E+02 -0.479614794254E+00
  0.259222583771E+02  0.113820018768E+02  0.479614794254E+00
  0.290325775146E+02  0.113820018768E+02 -0.144199386239E+00
  0.290325775146E+02  0.113820018768E+02  0.144199386239E+00
  0.291513423920E+02  0.197561950684E+02 -0.980752110481E+00
  0.291513423920E+02  0.197561950684E+02  0.980752110481E+00
  0.292438049316E+02  0.292438049316E+02  0.000000000000E+00
  0.303791980743E+02  0.292438049316E+02 -0.658130764961E+00
  0.303791980743E+02  0.292438049316E+02  0.658130764961E+00
  0.303820724487E+02  0.113820018768E+02  0.000000000000E+00
  0.334741249084E+02  0.292438049316E+02 -0.108748245239E+01
  0.334741249084E+02  0.292438049316E+02  0.108748245239E+01
  0.342964897156E+02  0.197561950684E+02 -0.479616105556E+00
  0.342964897156E+02  0.197561950684E+02  0.479616105556E+00
  0.374068183899E+02  0.197561950684E+02 -0.144199773669E+00
  0.374068183899E+02  0.197561950684E+02  0.144199773669E+00
  0.376179962158E+02  0.376179962158E+02  0.000000000000E+00
  0.386389808655E+02  0.292438049316E+02 -0.980755090714E+00
  0.386389808655E+02  0.292438049316E+02  0.980755090714E+00
  0.387533912659E+02  0.376179962158E+02 -0.658132553101E+00
  0.387533912659E+02  0.376179962158E+02  0.658132553101E+00
  0.387563171387E+02  0.197561950684E+02  0.000000000000E+00
  0.418483314514E+02  0.376179962158E+02 -0.108748543262E+01
  0.418483314514E+02  0.376179962158E+02  0.108748543262E+01
  0.435296669006E+02  0.435296669006E+02  0.000000000000E+00
  0.437841453552E+02  0.292438049316E+02 -0.479617565870E+00
  0.437841453552E+02  0.292438049316E+02  0.479617565870E+00
  0.446650657654E+02  0.435296669006E+02 -0.658133804798E+00
  0.446650657654E+02  0.435296669006E+02  0.658133804798E+00
  0.468944816589E+02  0.292438049316E+02 -0.144200220704E+00
  0.468944816589E+02  0.292438049316E+02  0.144200220704E+00
  0.470131988525E+02  0.376179962158E+02 -0.980757772923E+00
  0.470131988525E+02  0.376179962158E+02  0.980757772923E+00
  0.470762481689E+02  0.470762481689E+02  0.000000000000E+00
  0.477600097656E+02  0.435296669006E+02 -0.108748745918E+01
  0.477600097656E+02  0.435296669006E+02  0.108748745918E+01
  0.482116432190E+02  0.470762481689E+02 -0.658134579659E+00
  0.482116432190E+02  0.470762481689E+02  0.658134579659E+00
  0.482439842224E+02  0.292438049316E+02  0.000000000000E+00
  0.490000000000E+02  0.490000000000E+02  0.000000000000E+00
  0.501353988647E+02  0.490000000000E+02 -0.658134996891E+00
  0.501353988647E+02  0.490000000000E+02  0.658134996891E+00
  0.506007728577E+02  0.494653701782E+02 -0.465371757746E+00
  0.506007728577E+02  0.494653701782E+02  0.465371757746E+00
  0.507935333252E+02  0.496581344604E+02 -0.771266485397E-15
  0.513065910339E+02  0.470762481689E+02 -0.108748877048E+01
  0.513065910339E+02  0.470762481689E+02  0.108748877048E+01
  0.521583786011E+02  0.376179962158E+02 -0.479618877172E+00
  0.521583786011E+02  0.376179962158E+02  0.479618877172E+00
  0.529248886108E+02  0.435296669006E+02 -0.980759620667E+00
  0.529248886108E+02  0.435296669006E+02  0.980759620667E+00
  0.532303466797E+02  0.490000000000E+02 -0.108748936653E+01
  0.532303466797E+02  0.490000000000E+02  0.108748936653E+01
  0.539993209839E+02  0.497689704895E+02 -0.768971264362E+00
  0.539993209839E+02  0.497689704895E+02  0.768971264362E+00
  0.543178405762E+02  0.500874900818E+02 -0.157378642191E-15
  0.552687225342E+02  0.376179962158E+02 -0.144200608134E+00
  0.552687225342E+02  0.376179962158E+02  0.144200608134E+00
  0.564714775085E+02  0.470762481689E+02 -0.980760753155E+00
  0.564714775085E+02  0.470762481689E+02  0.980760753155E+00
  0.566182289124E+02  0.376179962158E+02  0.000000000000E+00
  0.580700759888E+02  0.435296669006E+02 -0.479619771242E+00
  0.580700759888E+02  0.435296669006E+02  0.479619771242E+00
  0.583952369690E+02  0.490000000000E+02 -0.980761349201E+00
  0.583952369690E+02  0.490000000000E+02  0.980761349201E+00
  0.590887413025E+02  0.496935043335E+02 -0.693503141403E+00
  0.590887413025E+02  0.496935043335E+02  0.693503141403E+00
  0.593759994507E+02  0.499807624817E+02  0.000000000000E+00
  0.611804275513E+02  0.435296669006E+02 -0.144200876355E+00
  0.611804275513E+02  0.435296669006E+02  0.144200876355E+00
  0.616166725159E+02  0.470762481689E+02 -0.479620337486E+00
  0.616166725159E+02  0.470762481689E+02  0.479620337486E+00
  0.625299339294E+02  0.435296669006E+02  0.000000000000E+00
  0.635404319763E+02  0.490000000000E+02 -0.479620635509E+00
  0.635404319763E+02  0.490000000000E+02  0.479620635509E+00
  0.638795776367E+02  0.493391418457E+02 -0.339143037796E+00
  0.638795776367E+02  0.493391418457E+02  0.339143037796E+00
  0.640200576782E+02  0.494796218872E+02  0.296956834055E-15
  0.647270278931E+02  0.470762481689E+02 -0.144201040268E+00
  0.647270278931E+02  0.470762481689E+02  0.144201040268E+00
  0.660765380859E+02  0.470762481689E+02  0.000000000000E+00
  0.666507873535E+02  0.490000000000E+02 -0.144201144576E+00
  0.666507873535E+02  0.490000000000E+02  0.144201144576E+00
  0.667527542114E+02  0.491019668579E+02 -0.101965606213E+00
  0.667527542114E+02  0.491019668579E+02  0.101965606213E+00
  0.667949905396E+02  0.491441993713E+02 -0.260488604752E-16
  0.680002975464E+02  0.490000000000E+02  0.000000000000E+00
  0.190000000000E+02  0.000000000000E+00  0.000000000000E+00
  0.209237651825E+02  0.192375373840E+01  0.000000000000E+00
  0.244703655243E+02  0.547033166885E+01  0.000000000000E+00
  0.303820724487E+02  0.113820018768E+02  0.000000000000E+00
  0.387563171387E+02  0.197561950684E+02  0.000000000000E+00
  0.482439842224E+02  0.292438049316E+02  0.000000000000E+00
  0.566182289124E+02  0.376179962158E+02  0.000000000000E+00
  0.625299339294E+02  0.435296669006E+02  0.000000000000E+00
  0.660765380859E+02  0.470762481689E+02  0.000000000000E+00
POLYGONS                 256                1024
3                 135                  33                 136
3                  32                  30                  33
3                  30                  28                  33
3                  30                  22                  28
3                  22                  17                  28
3                  22                  13                  17
3                  13                   6                  17
3                  17                   6                   9
3                   6                   1                   9
3                   9                   1                   4
3                   1                   0                   4
3                   4                   0                   3
3                   0                   5                   3
3                   0                   2                   5
3                   2                  10                   5
3                   2                   7                  10
[...]
CELL_DATA                 256
SCALARS sigma float 1
LOOKUP_TABLE default
  0.763041865654E-01
  0.763041032653E-01
  0.753306731084E-01
  0.753307385083E-01
  0.856579754645E-01
  0.856579616232E-01
  0.161848302644E+00
  0.161848315977E+00
  0.312679206242E+00
  0.312679192377E+00
  0.581707895865E+00
  0.581707896417E+00
  0.299839640117E+00
  0.299839638978E+00
 -0.449737160777E-01
 -0.449736992759E-01
 -0.202467200587E+00
 -0.202467213449E+00
 -0.275403875304E+00
 -0.275403861130E+00
 -0.284974251309E+00
 -0.284974315733E+00
 -0.284075389213E+00
 -0.284075310058E+00
  0.763042154594E-01
  0.763041863396E-01
  0.753306847438E-01
  0.753306724920E-01
  0.856579682404E-01
  0.856579756057E-01
  0.161848315818E+00
  0.161848306054E+00
  0.312679193125E+00
  0.312679229431E+00
  0.581707889938E+00
  0.581707860583E+00
  0.299839584669E+00
  0.299839636777E+00
 -0.449736739824E-01
 -0.449737161853E-01
 -0.202467209896E+00
 -0.202467200387E+00
 -0.275403861584E+00
 -0.275403868806E+00
 -0.284974313401E+00
 -0.284974301682E+00
 -0.284075309217E+00
 -0.284075281900E+00
  0.763041574787E-01
  0.763042154447E-01
  0.753307424426E-01
  0.753306848834E-01
  0.856579692499E-01
  0.856579682925E-01
  0.161848306131E+00
  0.161848305852E+00
  0.312679228782E+00
  0.312679170227E+00
  0.581707858171E+00
  0.581707838351E+00
  0.299839550270E+00
  0.299839583426E+00
 -0.449737406592E-01
 -0.449736738891E-01
 -0.202467210267E+00
 -0.202467209993E+00
 -0.275403868973E+00
 -0.275403868054E+00
 -0.284974302210E+00
 -0.284974247926E+00
 -0.284075281845E+00
 -0.284075335891E+00
  0.763041723128E-01
  0.763041575500E-01
  0.753307758356E-01
  0.753307427208E-01
  0.856579557130E-01
  0.856579692122E-01
  0.161848305828E+00
  0.161848309148E+00
  0.312679171564E+00
  0.312679225646E+00
  0.581707853354E+00
  0.581708034272E+00
  0.299839853424E+00
  0.299839558003E+00
 -0.449736796991E-01
 -0.449737408516E-01
 -0.202467206984E+00
 -0.202467210238E+00
 -0.275403867933E+00
 -0.275403880777E+00
 -0.284974248978E+00
 -0.284974217943E+00
 -0.284075336157E+00
 -0.284075322429E+00
  0.763041435505E-01
  0.763041723807E-01
  0.753307153697E-01
  0.753307757251E-01
  0.856579847901E-01
  0.856579556511E-01
  0.161848309158E+00
  0.161848301036E+00
  0.312679224885E+00
  0.312679295786E+00
  0.581708006846E+00
  0.581707628490E+00
  0.299839225545E+00
  0.299839839287E+00
 -0.449735996063E-01
 -0.449736795896E-01
 -0.202467214962E+00
 -0.202467206996E+00
 -0.275403880578E+00
 -0.275403852926E+00
 -0.284974217525E+00
 -0.284974273991E+00
 -0.284075322682E+00
 -0.284075349469E+00
  0.763041580373E-01
  0.763041432747E-01
  0.753306830082E-01
  0.753307150298E-01
  0.856580068159E-01
  0.856579847326E-01
  0.161848301018E+00
  0.161848289203E+00
  0.312679294666E+00
  0.312679109982E+00
  0.581707644926E+00
  0.581707843138E+00
  0.299839557676E+00
  0.299839234017E+00
 -0.449738082760E-01
 -0.449735994451E-01
 -0.202467226520E+00
 -0.202467214940E+00
 -0.275403852741E+00
 -0.275403831730E+00
 -0.284974272705E+00
 -0.284974302716E+00
 -0.284075348443E+00
 -0.284075334716E+00
  0.763039621134E-01
  0.763041581611E-01
  0.753307456523E-01
  0.753306833776E-01
  0.856579667189E-01
  0.856580069619E-01
  0.161848289251E+00
  0.161848300331E+00
  0.312679109223E+00
  0.312679177442E+00
  0.581707810406E+00
  0.581707541381E+00
  0.299839090760E+00
  0.299839540804E+00
 -0.449737303780E-01
 -0.449738081669E-01
 -0.202467215740E+00
 -0.202467226580E+00
 -0.275403832199E+00
 -0.275403870846E+00
 -0.284974304114E+00
 -0.284974245382E+00
 -0.284075335176E+00
 -0.284075517966E+00
  0.763041400126E-01
  0.763039621108E-01
  0.753307488860E-01
  0.753307460336E-01
  0.856580008656E-01
  0.856579672294E-01
  0.161848300351E+00
  0.161848296277E+00
  0.312679187781E+00
  0.312679189756E+00
  0.581707711176E+00
  0.581708480478E+00
  0.299840543852E+00
  0.299839178280E+00
 -0.449737295691E-01
 -0.449737318651E-01
 -0.202467219731E+00
 -0.202467215764E+00
 -0.275403872488E+00
 -0.275403839503E+00
 -0.284974246824E+00
 -0.284974244096E+00
 -0.284075517956E+00
 -0.284075351065E+00
  0.763040657613E-01
  0.763041416994E-01
  0.753306885048E-01
  0.753307492320E-01
  0.856579438025E-01
  0.856579999043E-01
  0.161848296204E+00
  0.161848311442E+00
  0.312679175849E+00
  0.312679222883E+00
  0.581708292421E+00
  0.581707916306E+00
  0.299839670891E+00
  0.299840446918E+00
 -0.449736705734E-01
 -0.449737275688E-01
 -0.202467204938E+00
 -0.202467219639E+00
 -0.275403836412E+00
 -0.275403893863E+00
 -0.284974245405E+00
 -0.284974305226E+00
 -0.284075357345E+00
 -0.284075429505E+00
  0.733830540713E-01
  0.724753216046E-01
  0.724746976584E-01
  0.820757051062E-01
  0.820758841071E-01
  0.150641548696E+00
  0.150641615089E+00
  0.276817800759E+00
  0.276817898820E+00
  0.493429300663E+00
  0.254336712587E+00
 -0.398152281112E-01
 -0.398156054802E-01
 -0.188447693804E+00
 -0.188447893218E+00
 -0.263887003025E+00
 -0.263887073028E+00
 -0.274170155903E+00
 -0.274169993736E+00
 -0.273200679357E+00
 -0.298743911146E-01
 -0.308789438453E-01
 -0.308714068790E-01
 -0.203261867147E-01
 -0.203280987645E-01
  0.518711547128E-01
  0.518711976122E-01
  0.173731374930E+00
  0.173731378569E+00
  0.372461043777E+00
  0.285339334465E+00
  0.499489205679E-01
  0.499493699028E-01
 -0.900798360900E-01
 -0.900792560202E-01
 -0.171618965217E+00
 -0.171619241389E+00
 -0.183441100882E+00
 -0.183438840124E+00
 -0.182313631073E+00
SCALARS C_p_inc float 1
LOOKUP_TABLE default
 -0.931834039192E+00
 -0.174616437885E+01
 -0.394723612740E+00
 -0.308714606483E+00
 -0.175689440918E+00
 -0.143750356715E+00
 -0.112120505080E-01
 -0.590101579929E-01
  0.234892613936E+00
  0.151799979907E+00
  0.595747997663E+00
  0.599306605364E+00
 -0.504529763664E+00
  0.190563066703E-01
 -0.575764315937E+00
 -0.416883878249E+00
 -0.331252058216E+00
 -0.372938237090E+00
 -0.141579625706E+00
 -0.413727550105E-01
  0.205933066053E+00
  0.353830900186E+00
  0.655160025155E+00
  0.537352741724E+00
 -0.729291291255E+00
 -0.899826225464E+00
 -0.327052099571E+00
 -0.412736317197E+00
 -0.201624534582E+00
 -0.179297697690E+00
 -0.563060844933E-01
 -0.100294363164E+00
  0.146370911563E+00
  0.119855870488E+00
  0.518764342833E+00
  0.513656991271E+00
 -0.706203201262E+00
 -0.481077649957E+00
 -0.656178218824E+00
 -0.577944523808E+00
 -0.296669339729E+00
 -0.351339860673E+00
 -0.377662012829E-01
  0.406797713091E-01
  0.331096238137E+00
  0.312458126450E+00
  0.532672046496E+00
  0.504678935467E+00
 -0.672213661247E+00
 -0.724406860771E+00
 -0.294481723242E+00
 -0.328856367483E+00
 -0.192023943616E+00
 -0.206334714663E+00
 -0.991639769918E-01
 -0.113605578463E+00
  0.117614400288E+00
  0.104676803134E+00
  0.507390889841E+00
  0.506447466308E+00
 -0.761038919840E+00
 -0.703533206322E+00
 -0.662468768988E+00
 -0.665343652321E+00
 -0.266088954975E+00
 -0.310019269656E+00
  0.411303703941E-01
  0.546533113892E-01
  0.307721789081E+00
  0.297533262081E+00
  0.504267091412E+00
  0.496887530527E+00
 -0.650537847304E+00
 -0.670722130788E+00
 -0.283294901517E+00
 -0.294676329941E+00
 -0.185808304443E+00
 -0.193154778926E+00
 -0.114394586448E+00
 -0.113552913146E+00
  0.104914205570E+00
  0.101628337905E+00
  0.510649503924E+00
  0.510919911718E+00
 -0.747760370563E+00
 -0.762419299502E+00
 -0.651918995621E+00
 -0.668653874308E+00
 -0.258766500405E+00
 -0.269724024484E+00
  0.545120228324E-01
  0.553725942480E-01
  0.296916514907E+00
  0.293834221063E+00
  0.497189089701E+00
  0.494477488866E+00
 -0.627402627098E+00
 -0.649142055238E+00
 -0.275751706697E+00
 -0.282996807400E+00
 -0.183642956215E+00
 -0.185825285127E+00
 -0.113856378042E+00
 -0.114671872167E+00
  0.101808825170E+00
  0.990914165412E-01
  0.512647310272E+00
  0.512836934809E+00
 -0.733110309647E+00
 -0.748513695178E+00
 -0.644261426565E+00
 -0.653604453531E+00
 -0.255073380640E+00
 -0.259347137076E+00
  0.553545633531E-01
  0.559744067247E-01
  0.293960423412E+00
  0.291623181754E+00
  0.495013674857E+00
  0.491719017426E+00
 -0.561353352060E+00
 -0.625046798781E+00
 -0.256547513487E+00
 -0.274473778566E+00
 -0.182033612991E+00
 -0.182871600896E+00
 -0.114158195754E+00
 -0.121324965680E+00
  0.988457397453E-01
  0.911889651817E-01
  0.511390143781E+00
  0.511724795607E+00
 -0.713180016167E+00
 -0.733280458789E+00
 -0.632242444625E+00
 -0.645009654820E+00
 -0.247294238094E+00
 -0.255714789394E+00
  0.560173822173E-01
  0.597417555183E-01
  0.292620147748E+00
  0.288280176251E+00
  0.493950397660E+00
  0.484316863563E+00
 -0.410582518495E+00
 -0.558050404005E+00
 -0.202372234278E+00
 -0.253348982261E+00
 -0.167826635067E+00
 -0.179474829976E+00
 -0.119231475548E+00
 -0.138002580991E+00
  0.899652135764E-01
  0.682514626702E-01
  0.505034810641E+00
  0.506260258427E+00
 -0.674786804108E+00
 -0.713090210907E+00
 -0.606559234621E+00
 -0.633711772223E+00
 -0.223601997074E+00
 -0.249908773825E+00
  0.599039634746E-01
  0.770066270604E-01
  0.292916978116E+00
  0.283831735297E+00
  0.495285903975E+00
  0.466201564273E+00
 -0.231218678928E+00
 -0.406907743504E+00
 -0.118488301320E+00
 -0.197672748757E+00
 -0.131500201492E+00
 -0.163775998247E+00
 -0.134308913748E+00
 -0.138430891793E+00
  0.627553882415E-01
  0.131351801212E-01
  0.483089224258E+00
  0.488361473647E+00
 -0.609387057950E+00
 -0.674255070342E+00
 -0.552929322740E+00
 -0.611317461861E+00
 -0.159513948885E+00
 -0.236227011440E+00
  0.767368735971E-01
  0.101444347430E+00
  0.295251731159E+00
  0.274568745036E+00
  0.495497147615E+00
  0.407663148397E+00
 -0.312556922790E+03
 -0.326859288045E+00
 -0.690456394928E+00
 -0.114644148097E+00
 -0.908160455138E-01
 -0.131876524581E+00
 -0.138897792247E+00
 -0.113878554592E+00
 -0.104742841771E-01
 -0.226107466921E-01
  0.364975729971E+00
  0.401412756254E+00
 -0.486747495130E+00
 -0.606644787670E+00
 -0.368872656809E+00
 -0.590831708852E+00
 -0.906634605248E-01
 -0.212175131680E+00
  0.879515726759E-01
  0.106318720551E+00
  0.279192787569E+00
 -0.329084960391E+00
  0.168397926963E+00
 -0.318755426454E+03
 -0.697382419100E+03
 -0.585051981859E+01
 -0.674967904985E+00
 -0.106154222070E+00
 -0.136642119704E+00
 -0.158061907189E+00
 -0.171679026395E+00
 -0.142556650876E+00
 -0.178621266004E+00
 -0.494910478880E-02
 -0.487349826174E+00
 -0.311987507198E+00
 -0.468430870968E+00
 -0.143001756702E+00
 -0.258770053366E+00
 -0.588806053636E-02
 -0.595351936506E-01
 -0.793681826742E+00
 -0.336319212857E+01
 -0.679040338155E+03
 -0.467597002522E+03
 -0.821262359733E+01
 -0.979692086232E+00
 -0.210326908197E+00
 -0.219581248149E+00
 -0.273699496027E+00
 -0.283463905009E+00
 -0.306939316066E+00
 -0.348784366884E+00
 -0.240071182846E+00
 -0.406376415314E+00
 -0.399211792295E+00
 -0.404813849607E+00
 -0.270930594070E+00
 -0.316355298628E+00
 -0.170416918355E+00
 -0.236222582061E+00
 -0.124077395830E+01
 -0.388606010286E+01
 -0.449561431129E+03
SCALARS inclination float 1
LOOKUP_TABLE default
  0.100000000000E+01
  0.100000000000E+01
  0.100000000000E+01
  0.100000000000E+01
  0.100000000000E+01
  0.100000000000E+01
  0.100000000000E+01
  0.100000000000E+01
  0.100000000000E+01
  0.100000000000E+01
  0.100000000000E+01
  0.100000000000E+01
  0.100000000000E+01
  0.100000000000E+01
  0.100000000000E+01
  0.100000000000E+01
  0.100000000000E+01
  0.100000000000E+01
  0.100000000000E+01
  0.100000000000E+01
  0.100000000000E+01
  0.100000000000E+01
  0.100000000000E+01
  0.100000000000E+01
  0.100000000000E+01
  0.100000000000E+01
  0.100000000000E+01
  0.100000000000E+01
  0.100000000000E+01
  0.100000000000E+01
  0.100000000000E+01
  0.100000000000E+01
  0.100000000000E+01
  0.100000000000E+01
  0.100000000000E+01
  0.100000000000E+01
  0.100000000000E+01
  0.100000000000E+01
  0.100000000000E+01
  0.100000000000E+01
  0.100000000000E+01
  0.100000000000E+01
  0.100000000000E+01
  0.100000000000E+01
  0.100000000000E+01
  0.100000000000E+01
  0.100000000000E+01
  0.100000000000E+01
  0.100000000000E+01
  0.100000000000E+01
  0.100000000000E+01
  0.100000000000E+01
  0.100000000000E+01
  0.100000000000E+01
  0.100000000000E+01
  0.100000000000E+01
  0.100000000000E+01
  0.100000000000E+01
  0.100000000000E+01
  0.100000000000E+01
  0.100000000000E+01
  0.100000000000E+01
  0.100000000000E+01
  0.100000000000E+01
  0.100000000000E+01
  0.100000000000E+01
  0.100000000000E+01
  0.100000000000E+01
  0.100000000000E+01
  0.100000000000E+01
  0.100000000000E+01
  0.100000000000E+01
  0.100000000000E+01
  0.100000000000E+01
  0.100000000000E+01
  0.100000000000E+01
  0.100000000000E+01
  0.100000000000E+01
  0.100000000000E+01
  0.100000000000E+01
  0.100000000000E+01
  0.100000000000E+01
  0.100000000000E+01
  0.100000000000E+01
  0.100000000000E+01
  0.100000000000E+01
  0.100000000000E+01
  0.100000000000E+01
  0.100000000000E+01
  0.100000000000E+01
  0.100000000000E+01
  0.100000000000E+01
  0.100000000000E+01
  0.100000000000E+01
  0.100000000000E+01
  0.100000000000E+01
  0.100000000000E+01
  0.100000000000E+01
  0.100000000000E+01
  0.100000000000E+01
  0.100000000000E+01
  0.100000000000E+01
  0.100000000000E+01
  0.100000000000E+01
  0.100000000000E+01
  0.100000000000E+01
  0.100000000000E+01
  0.100000000000E+01
  0.100000000000E+01
  0.100000000000E+01
  0.100000000000E+01
  0.100000000000E+01
  0.100000000000E+01
  0.100000000000E+01
  0.100000000000E+01
  0.100000000000E+01
  0.100000000000E+01
  0.100000000000E+01
  0.100000000000E+01
  0.100000000000E+01
  0.100000000000E+01
  0.100000000000E+01
  0.100000000000E+01
  0.100000000000E+01
  0.100000000000E+01
  0.100000000000E+01
  0.100000000000E+01
  0.100000000000E+01
  0.100000000000E+01
  0.100000000000E+01
  0.100000000000E+01
  0.100000000000E+01
  0.100000000000E+01
  0.100000000000E+01
  0.100000000000E+01
  0.100000000000E+01
  0.100000000000E+01
  0.100000000000E+01
  0.100000000000E+01
  0.100000000000E+01
  0.100000000000E+01
  0.100000000000E+01
  0.100000000000E+01
  0.100000000000E+01
  0.100000000000E+01
  0.100000000000E+01
  0.100000000000E+01
  0.100000000000E+01
  0.100000000000E+01
  0.100000000000E+01
  0.100000000000E+01
  0.100000000000E+01
  0.100000000000E+01
  0.100000000000E+01
  0.100000000000E+01
  0.100000000000E+01
  0.100000000000E+01
  0.100000000000E+01
  0.100000000000E+01
  0.100000000000E+01
  0.100000000000E+01
  0.100000000000E+01
  0.100000000000E+01
  0.100000000000E+01
  0.100000000000E+01
  0.100000000000E+01
  0.100000000000E+01
  0.100000000000E+01
  0.100000000000E+01
  0.100000000000E+01
  0.100000000000E+01
  0.100000000000E+01
  0.100000000000E+01
  0.100000000000E+01
  0.100000000000E+01
  0.100000000000E+01
  0.100000000000E+01
  0.100000000000E+01
  0.100000000000E+01
  0.100000000000E+01
  0.100000000000E+01
  0.100000000000E+01
  0.100000000000E+01
  0.100000000000E+01
  0.100000000000E+01
  0.100000000000E+01
  0.100000000000E+01
  0.100000000000E+01
  0.100000000000E+01
  0.100000000000E+01
  0.100000000000E+01
  0.100000000000E+01
  0.100000000000E+01
  0.100000000000E+01
  0.100000000000E+01
  0.100000000000E+01
  0.100000000000E+01
  0.100000000000E+01
  0.100000000000E+01
  0.100000000000E+01
  0.100000000000E+01
  0.100000000000E+01
  0.100000000000E+01
  0.100000000000E+01
  0.100000000000E+01
  0.100000000000E+01
  0.100000000000E+01
  0.100000000000E+01
  0.100000000000E+01
  0.100000000000E+01
  0.100000000000E+01
  0.100000000000E+01
  0.100000000000E+01
  0.100000000000E+01
  0.100000000000E+01
  0.100000000000E+01
  0.100000000000E+01
  0.100000000000E+01
  0.100000000000E+01
  0.100000000000E+01
  0.100000000000E+01
  0.100000000000E+01
  0.100000000000E+01
  0.100000000000E+01
  0.100000000000E+01
  0.100000000000E+01
  0.100000000000E+01
  0.100000000000E+01
  0.100000000000E+01
  0.100000000000E+01
  0.100000000000E+01
  0.100000000000E+01
  0.100000000000E+01
  0.100000000000E+01
  0.100000000000E+01
  0.100000000000E+01
  0.100000000000E+01
  0.100000000000E+01
  0.100000000000E+01
  0.100000000000E+01
  0.100000000000E+01
  0.100000000000E+01
  0.100000000000E+01
  0.100000000000E+01
  0.100000000000E+01
  0.100000000000E+01
  0.100000000000E+01
  0.100000000000E+01
  0.100000000000E+01
  0.100000000000E+01
  0.100000000000E+01
  0.100000000000E+01
  0.100000000000E+01
  0.100000000000E+01
  0.100000000000E+01
  0.100000000000E+01
VECTORS v float
  0.216336463511E+03 -0.604224740054E+02  0.295729230543E+02
  0.257848029383E+03 -0.723356256050E+02  0.352816155127E+02
  0.191239249747E+03 -0.572651641972E+01  0.212407163865E+02
  0.185036787183E+03 -0.959597613246E+01  0.209891164838E+02
  0.175902257089E+03 -0.461401346055E+00  0.171777709714E+02
  0.173396611197E+03 -0.461532220867E+01  0.173383175062E+02
  0.163802733260E+03  0.497857990885E+01  0.328196413300E+01
  0.167480619033E+03 -0.859331406734E+01  0.363841853315E+01
  0.140353219908E+03  0.185341123139E+02 -0.168996592399E+02
  0.148572549839E+03 -0.385605177033E+01 -0.211460311358E+02
  0.813295195761E+02  0.633870058249E+02 -0.104003936551E+02
  0.827195342532E+02  0.602860529895E+02 -0.130035868117E+02
  0.165822198058E+03 -0.228166108153E+02  0.109344648671E+03
  0.143926739520E+03  0.260294811818E+02  0.683392474983E+02
  0.199885644619E+03 -0.299294368162E+02  0.318816561231E+02
  0.191861323140E+03 -0.807049306706E+01  0.277360340692E+02
  0.187980617637E+03 -0.418977293056E+01 -0.397103643773E+01
  0.190474403591E+03 -0.133921793072E+02 -0.421273443288E+01
  0.173331317021E+03  0.375096206527E+01 -0.165170790027E+02
  0.165173760380E+03 -0.977283687374E+01 -0.170397555498E+02
  0.144099819164E+03  0.113012083918E+02 -0.143209348086E+02
  0.130274944322E+03  0.267644742017E+01 -0.137601716576E+02
  0.538914960859E+02  0.790602735506E+02  0.268943997705E+01
  0.861519376317E+02  0.697628263204E+02 -0.175120279633E+01
  0.207245160481E+03 -0.474778799258E+02  0.272182786466E+02
  0.216402049347E+03 -0.530797975831E+02  0.287953314141E+02
  0.185157747953E+03 -0.218353158537E+02  0.223220650472E+02
  0.191046506558E+03 -0.224929631236E+02  0.230280297379E+02
  0.177526037411E+03 -0.897243108830E+01  0.181649051973E+02
  0.175814905913E+03 -0.975643988566E+01  0.180746028880E+02
  0.167483678610E+03 -0.142519147626E+01  0.349035636214E+01
  0.170685295878E+03 -0.929615543479E+01  0.371916659994E+01
  0.148881527219E+03  0.125076341692E+02 -0.189188052263E+02
  0.151421428793E+03  0.762666883395E+01 -0.199482881956E+02
  0.859433666669E+02  0.731047598923E+02 -0.744190716921E+01
  0.834391169172E+02  0.771109993630E+02 -0.366809817691E+01
  0.178774773741E+03 -0.182246574612E+02  0.114190870863E+03
  0.170361855299E+03 -0.476587262786E+01  0.101512939071E+03
  0.203564795669E+03 -0.379688126751E+02  0.335073473161E+02
  0.199867987004E+03 -0.308646019680E+02  0.320089389000E+02
  0.184883278855E+03 -0.158798603037E+02 -0.414860503933E+01
  0.187972386408E+03 -0.234742264588E+02 -0.436937050186E+01
  0.165258457451E+03 -0.760223493842E+00 -0.161701732539E+02
  0.158820061990E+03 -0.371017633726E+01 -0.158304029384E+02
  0.130526779680E+03  0.245832384473E+02 -0.114248948637E+02
  0.132429507598E+03  0.243707445732E+02 -0.116529980979E+02
  0.861618255226E+02  0.706386936768E+02 -0.165866660277E+01
  0.938197360463E+02  0.659482612605E+02 -0.297814178664E+01
  0.204409237327E+03 -0.440570144402E+02  0.265497257959E+02
  0.207234503001E+03 -0.462186157173E+02  0.270825813164E+02
  0.182838113181E+03 -0.218220824867E+02  0.220704777705E+02
  0.185145567932E+03 -0.228948421044E+02  0.224350107587E+02
  0.176423868692E+03 -0.141731033702E+02  0.185641012279E+02
  0.177475972900E+03 -0.142997963023E+02  0.186789159963E+02
  0.170686058328E+03 -0.750986615384E+01  0.368226932866E+01
  0.171710359819E+03 -0.943016514047E+01  0.374311775351E+01
  0.151481326433E+03  0.107988912737E+02 -0.195165234621E+02
  0.152676852834E+03  0.894676983181E+01 -0.199393063035E+02
  0.836548502155E+02  0.779688039786E+02 -0.329592011471E+01
  0.829663125523E+02  0.788936966419E+02 -0.236069467162E+01