# vtk DataFile Version 3.0
TriPan results file. Generated by TriPan, USU AeroLab (c) 2021.
ASCII
DATASET POLYDATA
POINTS                  20 float
     20.924055099500      1.923753738400      0.000000000000
     99.020374164224      1.923753738400     14.474297188124
     19.000301361100      0.000000000000      0.000000000000
     98.956486712810      0.000000000000     14.819003029455
     24.470632553100      5.470331668850      0.000000000000
     99.138155245156      5.470331668850     13.838807343149
     30.382303237900     11.382001876800      0.000000000000
     99.334480567942     11.382001876800     12.779530692300
     38.756496429400     19.756195068400      0.000000000000
     99.612585738047     19.756195068400     11.279009470733
     48.244106292700     29.243804931600      0.000000000000
     99.927667238388     29.243804931600      9.578981824335
     56.618297576900     37.617996215800      0.000000000000
    100.205772345152     37.617996215800      8.078460944525
     62.529968261700     43.529666900600      0.000000000000
    100.402097667938     43.529666900600      7.019184293676
     66.076545715300     47.076248168900      0.000000000000
    100.519878748870     47.076248168900      6.383694448701
     68.000297546400     49.000000000000      0.000000000000
    100.583766136943     49.000000000000      6.038988949128
POLYGONS                  18                  72
3                   0                   1                   3
3                   0                   3                   2
3                   4                   5                   1
3                   4                   1                   0
3                   6                   7                   5
3                   6                   5                   4
3                   8                   9                   7
3                   8                   7                   6
3                  10                  11                   9
3                  10                   9                   8
3                  12                  13                  11
3                  12                  11                  10
3                  14                  15                  13
3                  14                  13                  12
3                  16                  17                  15
3                  16                  15                  14
3                  18                  19                  17
3                  18                  17                  16
POINT_DATA                  20
SCALARS mu float 1
LOOKUP_TABLE default
     -5.777265675340
     -5.777265675340
     -5.978216393739
     -5.978216393739
     -5.749001859303
     -5.749001859303
     -5.830727942527
     -5.830727942527
     -5.846222945701
     -5.846222945701
     -5.607352669167
     -5.607352669167
     -4.897462116249
     -4.897462116249
     -3.647093909513
     -3.647093909513
     -1.978111556626
     -1.978111556626
      0.000000000000
      0.000000000000
