# vtk DataFile Version 3.0
TriPan results file. Generated by TriPan, USU AeroLab (c) 2021.
ASCII
DATASET POLYDATA
POINTS                  20 float
  0.209237651825E+02  0.192375373840E+01  0.000000000000E+00
  0.983324394942E+04  0.192375373840E+01  0.181860605151E+04
  0.190000000000E+02  0.000000000000E+00  0.000000000000E+00
  0.983318006159E+04  0.000000000000E+00  0.181895075940E+04
  0.244703655243E+02  0.547033166885E+01  0.000000000000E+00
  0.983336173126E+04  0.547033166885E+01  0.181797055756E+04
  0.303820724487E+02  0.113820018768E+02  0.000000000000E+00
  0.983355805779E+04  0.113820018768E+02  0.181691127442E+04
  0.387563171387E+02  0.197561950684E+02  0.000000000000E+00
  0.983383616467E+04  0.197561950684E+02  0.181541074397E+04
  0.482439842224E+02  0.292438049316E+02  0.000000000000E+00
  0.983415124807E+04  0.292438049316E+02  0.181371070607E+04
  0.566182289124E+02  0.376179962158E+02  0.000000000000E+00
  0.983442935495E+04  0.376179962158E+02  0.181221017562E+04
  0.625299339294E+02  0.435296669006E+02  0.000000000000E+00
  0.983462568141E+04  0.435296669006E+02  0.181115089282E+04
  0.660765380859E+02  0.470762481689E+02  0.000000000000E+00
  0.983474346338E+04  0.470762481689E+02  0.181051539819E+04
  0.680002975464E+02  0.490000000000E+02  0.000000000000E+00
  0.983480735102E+04  0.490000000000E+02  0.181017069132E+04
POLYGONS                  18                  72
3                   0                   1                   3
3                   0                   3                   2
3                   4                   5                   1
3                   4                   1                   0
3                   6                   7                   5
3                   6                   5                   4
3                   8                   9                   7
3                   8                   7                   6
3                  10                  11                   9
3                  10                   9                   8
3                  12                  13                  11
3                  12                  11                  10
3                  14                  15                  13
3                  14                  13                  12
3                  16                  17                  15
3                  16                  15                  14
3                  18                  19                  17
3                  18                  17                  16
CELL_DATA                  18
NORMALS normals float
  0.179282832401E+00 -0.179283898925E+00 -0.967323601280E+00
  0.179282832401E+00 -0.179283898926E+00 -0.967323601280E+00
  0.179282830267E+00 -0.179283963182E+00 -0.967323589766E+00
  0.179282830267E+00 -0.179283963182E+00 -0.967323589766E+00
  0.179282830891E+00 -0.179283944388E+00 -0.967323593133E+00
  0.179282830891E+00 -0.179283944388E+00 -0.967323593133E+00
  0.179282831244E+00 -0.179283933771E+00 -0.967323595036E+00
  0.179282831244E+00 -0.179283933771E+00 -0.967323595036E+00
  0.179282831927E+00 -0.179283913195E+00 -0.967323598723E+00
  0.179282831927E+00 -0.179283913195E+00 -0.967323598723E+00
  0.179282829931E+00 -0.179283973294E+00 -0.967323587954E+00
  0.179282829931E+00 -0.179283973294E+00 -0.967323587954E+00
  0.179282833215E+00 -0.179283874405E+00 -0.967323605673E+00
  0.179282833215E+00 -0.179283874405E+00 -0.967323605673E+00
  0.179282829492E+00 -0.179283986511E+00 -0.967323585586E+00
  0.179282829492E+00 -0.179283986511E+00 -0.967323585586E+00
  0.179282843828E+00 -0.179283554845E+00 -0.967323662934E+00
  0.179282843828E+00 -0.179283554845E+00 -0.967323662934E+00
POINT_DATA                  20
SCALARS mu float 1
LOOKUP_TABLE default
 -0.528641784664E+01
 -0.528641784664E+01
 -0.519891698114E+01
 -0.519891698114E+01
 -0.546471140024E+01
 -0.546471140024E+01
 -0.568572267491E+01
 -0.568572267491E+01
 -0.581913988907E+01
 -0.581913988907E+01
 -0.566360193002E+01
 -0.566360193002E+01
 -0.500328271458E+01
 -0.500328271458E+01
 -0.375414437068E+01
 -0.375414437068E+01
 -0.204377114515E+01
 -0.204377114515E+01
  0.000000000000E+00
  0.000000000000E+00
