# vtk DataFile Version 3.0
TriPan results file. Generated by TriPan, USU AeroLab (c) 2021.
ASCII
DATASET POLYDATA
POINTS                 482 float
  0.130247308752E-04  0.000000000000E+00  0.000000000000E+00
  0.473471998374E+00  0.000000000000E+00 -0.436280480279E+00
  0.473471998374E+00  0.000000000000E+00  0.436280480279E+00
  0.757906115597E+00  0.757886492666E+00  0.970884839498E-21
  0.123136895910E+01  0.757889807076E+00 -0.436282030868E+00
  0.123136895910E+01  0.757889807076E+00  0.436282030868E+00
  0.157642335882E+01  0.000000000000E+00 -0.760501285105E+00
  0.157642335882E+01  0.000000000000E+00  0.760501285105E+00
  0.178898577720E+01  0.178896136254E+01  0.402655090288E-21
  0.226244758528E+01  0.178896571238E+01 -0.436279675842E+00
  0.226244758528E+01  0.178896571238E+01  0.436279675842E+00
  0.233432052349E+01  0.757892272727E+00 -0.760501900766E+00
  0.233432052349E+01  0.757892272727E+00  0.760501900766E+00
  0.317281291859E+01  0.317278244121E+01 -0.502643732574E-21
  0.336539878957E+01  0.178896889576E+01 -0.760499161643E+00
  0.336539878957E+01  0.178896889576E+01  0.760499161643E+00
  0.342464590410E+01  0.000000000000E+00 -0.102346395851E+01
  0.342464590410E+01  0.000000000000E+00  0.102346395851E+01
  0.364627391137E+01  0.317278808318E+01 -0.436276653421E+00
  0.364627391137E+01  0.317278808318E+01  0.436276653421E+00
  0.418254366712E+01  0.757894007404E+00 -0.102346449441E+01
  0.418254366712E+01  0.757894007404E+00  0.102346449441E+01
  0.474922443846E+01  0.317279218218E+01 -0.760495703661E+00
  0.474922443846E+01  0.317279218218E+01  0.760495703661E+00
  0.499663525975E+01  0.499659746731E+01  0.623286393957E-21
  0.521362228604E+01  0.178897099285E+01 -0.102346181793E+01
  0.521362228604E+01  0.178897099285E+01  0.102346181793E+01
  0.547009495982E+01  0.499660464040E+01 -0.436273007752E+00
  0.547009495982E+01  0.499660464040E+01  0.436273007752E+00
  0.611307615049E+01  0.000000000000E+00 -0.114005132092E+01
  0.611307615049E+01  0.000000000000E+00  0.114005132092E+01
  0.657304508535E+01  0.499660985621E+01 -0.760491503240E+00
  0.657304508535E+01  0.499660985621E+01  0.760491503240E+00
  0.659744842488E+01  0.317279474301E+01 -0.102345839923E+01
  0.659744842488E+01  0.317279474301E+01  0.102345839923E+01
  0.687097446281E+01  0.757896382042E+00 -0.114005132102E+01
  0.687097446281E+01  0.757896382042E+00  0.114005132102E+01
  0.734364762990E+01  0.734360155376E+01  0.227971256176E-20
  0.781710611506E+01  0.734361041860E+01 -0.436268825882E+00
  0.781710611506E+01  0.734361041860E+01  0.436268825882E+00
  0.790205327048E+01  0.178897365557E+01 -0.114004877659E+01
  0.790205327048E+01  0.178897365557E+01  0.114004877659E+01
  0.842126898126E+01  0.499661298439E+01 -0.102345420801E+01
  0.842126898126E+01  0.499661298439E+01  0.102345420801E+01
  0.892005543328E+01  0.734361691857E+01 -0.760486638111E+00
  0.892005543328E+01  0.734361691857E+01  0.760486638111E+00
  0.928587999311E+01  0.317279777561E+01 -0.114004537243E+01
  0.928587999311E+01  0.317279777561E+01  0.114004537243E+01
  0.939508651117E+01  0.000000000000E+00 -0.980721943788E+00
  0.939508651117E+01  0.000000000000E+00  0.980721943788E+00
  0.101529844880E+02  0.757898342664E+00 -0.980717159871E+00
  0.101529844880E+02  0.757898342664E+00  0.980717159871E+00
  0.102728649761E+02  0.102728103017E+02  0.360684024404E-20
  0.107463222437E+02  0.102728208609E+02 -0.436264448741E+00
  0.107463222437E+02  0.102728208609E+02  0.436264448741E+00
  0.107682810595E+02  0.734362070066E+01 -0.102344938071E+01
  0.107682810595E+02  0.734362070066E+01  0.102344938071E+01
  0.111097029560E+02  0.499661647156E+01 -0.114004119345E+01
  0.111097029560E+02  0.499661647156E+01  0.114004119345E+01
  0.111840645989E+02  0.178897574353E+01 -0.980715540156E+00
  0.111840645989E+02  0.178897574353E+01  0.980715540156E+00
  0.118492721062E+02  0.102728287239E+02 -0.760481600830E+00
  0.118492721062E+02  0.102728287239E+02  0.760481600830E+00
  0.125678925784E+02  0.317280003715E+01 -0.980713411564E+00
  0.125678925784E+02  0.317280003715E+01  0.980713411564E+00
  0.126670289110E+02  0.000000000000E+00 -0.678028198026E+00
  0.126670289110E+02  0.000000000000E+00  0.678028198026E+00
  0.134249282109E+02  0.757898665790E+00 -0.678029104408E+00
  0.134249282109E+02  0.757898665790E+00  0.678029104408E+00
  0.134567154615E+02  0.734362471414E+01 -0.114003661032E+01
  0.134567154615E+02  0.734362471414E+01  0.114003661032E+01
  0.136974979908E+02  0.102728332013E+02 -0.102344441904E+01
  0.136974979908E+02  0.102728332013E+02  0.102344441904E+01
  0.137921531606E+02  0.137920906138E+02 -0.412617430891E-20
  0.142656089637E+02  0.137921026376E+02 -0.436260406143E+00
  0.142656089637E+02  0.137921026376E+02  0.436260406143E+00
  0.143917162623E+02  0.499661896565E+01 -0.980710472824E+00
  0.143917162623E+02  0.499661896565E+01  0.980710472824E+00
  0.144560092949E+02  0.178897604722E+01 -0.678028179987E+00
  0.144560092949E+02  0.178897604722E+01  0.678028179987E+00
  0.153437545560E+02  0.000000000000E+00 -0.393011337881E+00
  0.153437545560E+02  0.000000000000E+00  0.393011337881E+00
  0.153685584878E+02  0.137921117926E+02 -0.760477029805E+00
  0.153685584878E+02  0.137921117926E+02  0.760477029805E+00
  0.158398391737E+02  0.317280034896E+01 -0.678026550975E+00
  0.158398391737E+02  0.317280034896E+01  0.678026550975E+00
  0.161016539381E+02  0.757898326130E+00 -0.393012384982E+00
  0.161016539381E+02  0.757898326130E+00  0.393012384982E+00
  0.163859346921E+02  0.102728377765E+02 -0.114003176519E+01
  0.163859346921E+02  0.102728377765E+02  0.114003176519E+01
  0.167387322842E+02  0.734362750662E+01 -0.980706810415E+00
  0.167387322842E+02  0.734362750662E+01  0.980706810415E+00
  0.171327359313E+02  0.178897575201E+01 -0.393011040775E+00
  0.171327359313E+02  0.178897575201E+01  0.393011040775E+00
  0.172004302801E+02  0.000000000000E+00 -0.192492534141E+00
  0.172004302801E+02  0.000000000000E+00  0.192492534141E+00
  0.172167865738E+02  0.137921169296E+02 -0.102343998227E+01
  0.172167865738E+02  0.137921169296E+02  0.102343998227E+01
  0.176636647076E+02  0.499661933474E+01 -0.678023871616E+00
  0.176636647076E+02  0.499661933474E+01  0.678023871616E+00
  0.178320406685E+02  0.178319722405E+02 -0.338561949531E-20
  0.179583305519E+02  0.757897814089E+00 -0.192492887904E+00
  0.179583305519E+02  0.757897814089E+00  0.192492887904E+00
  0.183054964506E+02  0.178319852389E+02 -0.436257353844E+00
  0.183054964506E+02  0.178319852389E+02  0.436257353844E+00
  0.183450401686E+02  0.000000000000E+00 -0.698557350169E-01
  0.183450401686E+02  0.000000000000E+00  0.698557350169E-01
  0.185165666873E+02  0.317280013019E+01 -0.393008719136E+00
  0.185165666873E+02  0.317280013019E+01  0.393008719136E+00
  0.189894143765E+02  0.178897531578E+01 -0.192490754164E+00
  0.189894143765E+02  0.178897531578E+01  0.192490754164E+00
  0.189999910876E+02 -0.706716658043E-07 -0.662507155337E-06
  0.191029403208E+02  0.757897496463E+00 -0.698549383524E-01
  0.191029403208E+02  0.757897496463E+00  0.698549383524E-01
  0.194084449479E+02  0.178319954208E+02 -0.760473692460E+00
  0.194084449479E+02  0.178319954208E+02  0.760473692460E+00
  0.196679540248E+02  0.102728409201E+02 -0.980702505042E+00
  0.196679540248E+02  0.102728409201E+02  0.980702505042E+00
  0.197578924863E+02  0.757904055872E+00 -0.817590622806E-06
  0.199052256017E+02  0.137921220393E+02 -0.114002743811E+01
  0.199052256017E+02  0.137921220393E+02  0.114002743811E+01
  0.200106815730E+02  0.734362798583E+01 -0.678020158371E+00
  0.200106815730E+02  0.734362798583E+01  0.678020158371E+00
  0.201340240748E+02  0.178897506881E+01 -0.698520928202E-01
  0.201340240748E+02  0.178897506881E+01  0.698520928202E-01
  0.203403940275E+02  0.499661921715E+01 -0.393005166852E+00
  0.203403940275E+02  0.499661921715E+01  0.393005166852E+00
  0.203732450409E+02  0.317279978560E+01 -0.192487498987E+00
  0.203732450409E+02  0.317279978560E+01  0.192487498987E+00
  0.207889742179E+02  0.178898365075E+01 -0.106324914648E-05
  0.212566753703E+02  0.178320010825E+02 -0.102343680753E+01
  0.212566753703E+02  0.178320010825E+02  0.102343680753E+01
  0.215178546867E+02  0.317279959111E+01 -0.698482663852E-01
  0.215178546867E+02  0.317279959111E+01  0.698482663852E-01
  0.221728041694E+02  0.317281074083E+01 -0.137756025205E-05
  0.221970742095E+02  0.499661895150E+01 -0.192483120200E+00
  0.221970742095E+02  0.499661895150E+01  0.192483120200E+00
  0.222339661801E+02  0.222338949955E+02 -0.352200781662E-20
  0.226874146054E+02  0.734362797048E+01 -0.393000569122E+00
  0.226874146054E+02  0.734362797048E+01  0.393000569122E+00
  0.227074235883E+02  0.222339082751E+02 -0.436255960272E+00
  0.227074235883E+02  0.222339082751E+02  0.436255960272E+00
  0.229399069889E+02  0.102728415388E+02 -0.678015729259E+00
  0.229399069889E+02  0.102728415388E+02  0.678015729259E+00
  0.231872483860E+02  0.137921255459E+02 -0.980698278886E+00
  0.231872483860E+02  0.137921255459E+02  0.980698278886E+00
  0.233416838233E+02  0.499661878904E+01 -0.698435004566E-01
  0.233416838233E+02  0.499661878904E+01  0.698435004566E-01
  0.238103734204E+02  0.222339190297E+02 -0.760472335773E+00
  0.238103734204E+02  0.222339190297E+02  0.760472335773E+00
  0.239451177867E+02  0.178320066182E+02 -0.114002437110E+01
  0.239451177867E+02  0.178320066182E+02  0.114002437110E+01
  0.239966302105E+02  0.499663303420E+01 -0.175828639385E-05
  0.245440947328E+02  0.734362775945E+01 -0.192477880815E+00
  0.245440947328E+02  0.734362775945E+01  0.192477880815E+00
  0.256166418408E+02  0.102728416112E+02 -0.392995421349E+00
  0.256166418408E+02  0.102728416112E+02  0.392995421349E+00
  0.256586054572E+02  0.222339249841E+02 -0.102343585009E+01
  0.256586054572E+02  0.222339249841E+02  0.102343585009E+01
  0.256887062361E+02  0.734362761471E+01 -0.698379650477E-01
  0.256887062361E+02  0.734362761471E+01  0.698379650477E-01
[...]
POINT_DATA                 482
SCALARS phi float 1
LOOKUP_TABLE default
  0.000000000000E+00
  0.166533453694E-14
  0.199840144433E-14
  0.222044604925E-15
  0.266453525910E-14
  0.555111512313E-15
 -0.111022302463E-15
 -0.444089209850E-15
  0.166533453694E-14
 -0.166533453694E-14
  0.210942374679E-14
  0.555111512313E-15
  0.122124532709E-14
  0.111022302463E-14
 -0.999200722163E-15
 -0.222044604925E-15
  0.999200722163E-15
 -0.111022302463E-15
 -0.122124532709E-14
  0.222044604925E-15
  0.333066907388E-15
 -0.555111512313E-16
 -0.666133814775E-15
 -0.111022302463E-15
  0.111022302463E-14
 -0.188737914186E-14
  0.499600361081E-15
  0.122124532709E-14
 -0.111022302463E-14
  0.555111512313E-15
  0.666133814775E-15
 -0.888178419700E-15
  0.155431223448E-14
 -0.333066907388E-15
  0.222044604925E-15
 -0.111022302463E-14
 -0.249800180541E-15
  0.000000000000E+00
 -0.199840144433E-14
  0.555111512313E-15
 -0.444089209850E-15
 -0.111022302463E-15
 -0.155431223448E-14
 -0.111022302463E-15
  0.777156117238E-15
 -0.666133814775E-15
  0.610622663544E-15
  0.000000000000E+00
  0.388578058619E-15
  0.492878307612E-15
  0.777156117238E-15
 -0.145716771982E-15
  0.444089209850E-15
  0.321964677141E-14
  0.888178419700E-15
 -0.222044604925E-15
 -0.166533453694E-15
 -0.555111512313E-16
  0.222044604925E-15
  0.194289029309E-15
  0.874300631892E-15
 -0.122124532709E-14
  0.610622663544E-15
  0.111022302463E-15
  0.527355936697E-15
 -0.101958372301E-14
  0.222044604925E-15
  0.319189119580E-15
  0.166533453694E-15
 -0.183186799063E-14
 -0.581132364452E-15
  0.111022302463E-15
  0.277555756156E-15
 -0.666133814775E-15
 -0.555111512313E-15
  0.222044604925E-15
 -0.222044604925E-15
 -0.804911692853E-15
 -0.277555756156E-16
 -0.832667268469E-15
 -0.555111512313E-15
 -0.122124532709E-14
 -0.333066907388E-15
  0.166533453694E-15
 -0.111022302463E-15
 -0.555111512313E-16
 -0.721644966006E-15
 -0.388578058619E-15
 -0.166533453694E-15
 -0.832667268469E-16
 -0.957567358739E-15
  0.222044604925E-15
 -0.610622663544E-15
  0.222044604925E-15
 -0.333066907388E-15
 -0.277555756156E-15
  0.333066907388E-15
 -0.471844785466E-15
  0.527355936697E-15
 -0.555111512313E-16
  0.444089209850E-15
 -0.222044604925E-15
 -0.333066907388E-15
  0.888178419700E-15
 -0.177635683940E-14
  0.277555756156E-15
 -0.499600361081E-15
 -0.388578058619E-15
  0.555111512313E-15
  0.166533453694E-15
  0.444089209850E-15
 -0.499600361081E-15
  0.222044604925E-15
  0.000000000000E+00
  0.222044604925E-15
  0.166533453694E-15
 -0.235922392733E-15
  0.555111512313E-15
 -0.333066907388E-15
 -0.166533453694E-15
  0.485722573274E-15
 -0.166533453694E-15
 -0.888178419700E-15
  0.166533453694E-15
 -0.388578058619E-15
  0.277555756156E-15
 -0.555111512313E-16
 -0.111022302463E-15
 -0.555111512313E-15
 -0.555111512313E-16
  0.255351295664E-14
  0.721644966006E-15
 -0.721644966006E-15
  0.222044604925E-15
  0.277555756156E-15
  0.333066907388E-15
  0.444089209850E-15
  0.666133814775E-15
 -0.166533453694E-15
  0.111022302463E-15
 -0.177635683940E-14
 -0.666133814775E-15
  0.138777878078E-15
 -0.127675647832E-14
  0.324393290008E-15
 -0.777156117238E-15
 -0.388578058619E-15
  0.666133814775E-15
 -0.177635683940E-14
 -0.666133814775E-15
 -0.943689570931E-15
 -0.374700270811E-15
 -0.166533453694E-15
 -0.499600361081E-15
  0.832667268469E-15
 -0.555111512313E-16
 -0.111022302463E-15
  0.999200722163E-15
  0.277555756156E-16
  0.222044604925E-15
 -0.610622663544E-15
 -0.222044604925E-15
  0.499600361081E-15
  0.721644966006E-15
  0.333066907388E-15
 -0.215105711021E-15
 -0.166533453694E-15
 -0.111022302463E-14
 -0.222044604925E-15
 -0.111022302463E-15
 -0.444089209850E-15
 -0.122124532709E-14
  0.444089209850E-15
 -0.160982338571E-14
 -0.194289029309E-15
 -0.444089209850E-15
  0.555111512313E-16
  0.105471187339E-14
 -0.832667268469E-15
  0.111022302463E-15
  0.111022302463E-15
  0.832667268469E-16
  0.416333634234E-15
 -0.127675647832E-14
  0.832667268469E-15
 -0.166533453694E-15
 -0.777156117238E-15
  0.440619762898E-15
  0.277555756156E-15
 -0.444089209850E-15
 -0.222044604925E-15
 -0.555111512313E-16
 -0.943689570931E-15
  0.222044604925E-15
  0.166533453694E-15
  0.499600361081E-15
 -0.638378239159E-15
  0.222044604925E-15
 -0.666133814775E-15
  0.111022302463E-14
 -0.610622663544E-15
 -0.249800180541E-15
  0.555111512313E-16
  0.116573417586E-14
 -0.166533453694E-15
 -0.666133814775E-15
  0.444089209850E-15
 -0.999200722163E-15
 -0.111022302463E-15
  0.603683769640E-15
 -0.333066907388E-15
 -0.388578058619E-15
  0.000000000000E+00
  0.111022302463E-15
 -0.166533453694E-15
 -0.555111512313E-16
 -0.527355936697E-15
 -0.249800180541E-15
  0.277555756156E-15
  0.000000000000E+00
 -0.777156117238E-15
  0.638378239159E-15
 -0.333066907388E-15
 -0.444089209850E-15
  0.144328993201E-14
 -0.444089209850E-15
 -0.444089209850E-15
  0.388578058619E-15
 -0.555111512313E-16
 -0.133226762955E-14
 -0.277555756156E-15
 -0.485722573274E-16
  0.277555756156E-15
 -0.222044604925E-15
 -0.166533453694E-15
  0.277555756156E-15
  0.113797860024E-14
 -0.457966997658E-15
  0.222044604925E-15
 -0.277555756156E-15
 -0.222044604925E-15
 -0.444089209850E-15
 -0.133226762955E-14
  0.111022302463E-14
  0.416333634234E-15
  0.888178419700E-15
  0.277555756156E-15
 -0.183186799063E-14
 -0.721644966006E-15
  0.222044604925E-15
 -0.388578058619E-15
  0.777156117238E-15
  0.000000000000E+00
  0.666133814775E-15
 -0.555111512313E-16
  0.000000000000E+00
  0.693889390391E-15
  0.777156117238E-15
  0.555111512313E-15
  0.818789480661E-15
  0.000000000000E+00
 -0.499600361081E-15
 -0.222044604925E-15
 -0.333066907388E-15
  0.000000000000E+00
 -0.122124532709E-14
 -0.277555756156E-14
  0.666133814775E-15
 -0.610622663544E-15
  0.555111512313E-15
  0.999200722163E-15
 -0.444089209850E-15
 -0.444089209850E-15
  0.222044604925E-15
 -0.346944695195E-15
 -0.144328993201E-14
  0.555111512313E-15
  0.832667268469E-16
 -0.111022302463E-15
  0.499600361081E-15
  0.155431223448E-14
  0.430211422042E-15
  0.721644966006E-15
 -0.555111512313E-15
  0.610622663544E-15
  0.888178419700E-15
 -0.111022302463E-14
 -0.222044604925E-15
 -0.133226762955E-14
 -0.333066907388E-15
  0.555111512313E-16
  0.277555756156E-15
  0.763278329430E-16
 -0.388578058619E-15
 -0.277555756156E-15
  0.499600361081E-15
  0.555111512313E-15
  0.777156117238E-15
 -0.666133814775E-15
  0.000000000000E+00
  0.555111512313E-16
  0.388578058619E-15
 -0.249800180541E-15
  0.111022302463E-15
 -0.555111512313E-16
  0.166533453694E-15
  0.416333634234E-15
  0.000000000000E+00
 -0.166533453694E-15
  0.111022302463E-15
  0.133226762955E-14
  0.133226762955E-14
  0.249800180541E-15
 -0.499600361081E-15
  0.485722573274E-16
  0.555111512313E-16
 -0.555111512313E-15
 -0.346944695195E-15
 -0.388578058619E-15
  0.166533453694E-15
  0.111022302463E-15
 -0.138777878078E-15
 -0.555111512313E-16
 -0.277555756156E-16
 -0.388578058619E-15
 -0.777156117238E-15
 -0.249800180541E-15
  0.357353036051E-15
  0.513478148889E-15
 -0.832667268469E-16
  0.555111512313E-16
  0.111022302463E-15
  0.416333634234E-15
  0.215105711021E-15
  0.555111512313E-15
  0.902056207508E-16
  0.194289029309E-15
  0.138777878078E-15
 -0.485722573274E-15
 -0.119348975147E-14
  0.485722573274E-16
  0.381639164715E-16
 -0.194289029309E-15
 -0.999200722163E-15
  0.520417042793E-16
 -0.555111512313E-16
 -0.111022302463E-15
 -0.666133814775E-15
 -0.666133814775E-15
 -0.388578058619E-15
 -0.666133814775E-15
 -0.111022302463E-15
  0.107552855511E-15
  0.222044604925E-15
  0.536029554077E-15
  0.000000000000E+00
 -0.555111512313E-16
 -0.832667268469E-15
 -0.208166817117E-16
  0.277555756156E-15
 -0.208166817117E-15
 -0.138777878078E-15
  0.222044604925E-15
 -0.222044604925E-15
  0.152655665886E-15
  0.194289029309E-15
 -0.305311331772E-15
  0.416333634234E-15
  0.610622663544E-15
 -0.111022302463E-15
  0.111022302463E-14
  0.555111512313E-15
 -0.999200722163E-15
  0.222044604925E-15
 -0.388578058619E-15
 -0.138777878078E-15
 -0.105471187339E-14
  0.555111512313E-16
 -0.832667268469E-16
 -0.999200722163E-15
 -0.222044604925E-15
  0.666133814775E-15
  0.166533453694E-15
 -0.333066907388E-15
  0.610622663544E-15
  0.144328993201E-14
 -0.416333634234E-15
 -0.111022302463E-15
 -0.166533453694E-15
  0.555111512313E-16
 -0.388578058619E-15
  0.888178419700E-15
  0.555111512313E-15
 -0.111022302463E-15
 -0.111022302463E-15
  0.166533453694E-15
  0.000000000000E+00
  0.111022302463E-15
  0.222044604925E-15
 -0.555111512313E-15
  0.777156117238E-15
 -0.155431223448E-14
  0.166533453694E-15
 -0.222044604925E-15
 -0.111022302463E-15
 -0.166533453694E-15
 -0.277555756156E-15
  0.166533453694E-15
  0.222044604925E-15
 -0.166533453694E-15
 -0.333066907388E-15
 -0.277555756156E-15
 -0.277555756156E-15
 -0.333066907388E-15
 -0.222044604925E-15
  0.388578058619E-15
  0.444089209850E-15
 -0.610622663544E-15
 -0.555111512313E-16
 -0.444089209850E-15
  0.222044604925E-15
  0.111022302463E-15
 -0.166533453694E-15
  0.222044604925E-15
  0.388578058619E-15
  0.721644966006E-15
 -0.499600361081E-15
  0.388578058619E-15
 -0.166533453694E-15
 -0.222044604925E-15
  0.111022302463E-15
 -0.111022302463E-15
 -0.555111512313E-15
  0.333066907388E-15
  0.333066907388E-15
  0.111022302463E-15
 -0.444089209850E-15
 -0.555111512313E-16
  0.333066907388E-15
  0.444089209850E-15
  0.166533453694E-15
 -0.111022302463E-15
 -0.499600361081E-15
 -0.111022302463E-15
 -0.166533453694E-15
 -0.555111512313E-16
  0.999200722163E-15
  0.388578058619E-15
  0.138777878078E-14
  0.111022302463E-15
  0.000000000000E+00
  0.222044604925E-15
  0.111022302463E-15
 -0.832667268469E-15
  0.388578058619E-15
 -0.194289029309E-15
  0.721644966006E-15
  0.832667268469E-15
  0.138777878078E-15
  0.222044604925E-14
  0.174860126378E-14
 -0.693889390391E-15
 -0.360822483003E-15
 -0.277555756156E-15
  0.555111512313E-16
 -0.555111512313E-16
 -0.555111512313E-16
 -0.277555756156E-15
 -0.444089209850E-15
 -0.333066907388E-15
  0.444089209850E-15
  0.277555756156E-15
  0.333066907388E-15
 -0.277555756156E-15
  0.943689570931E-15
 -0.277555756156E-15
  0.277555756156E-15
 -0.888178419700E-15
  0.555111512313E-16
  0.388578058619E-15
 -0.666133814775E-15
 -0.721644966006E-15
SCALARS phi_mu float 1
LOOKUP_TABLE default
  0.667939226891E+00
  0.789067759199E+00
  0.711202003920E+00
  0.796075282720E+00
  0.857216394264E+00
  0.751420533303E+00
  0.848346898064E+00
  0.673218670174E+00
  0.825531050236E+00
  0.874341114420E+00
  0.760100751900E+00
  0.856041151684E+00
  0.657402338370E+00
  0.822834235391E+00
  0.846604197288E+00
  0.636832175796E+00
  0.809546600425E+00
  0.543196602294E+00
  0.864591075100E+00
  0.746417167263E+00
  0.776775461130E+00
  0.495125892036E+00
  0.819965344602E+00
  0.604563971663E+00
  0.798494311428E+00
  0.738210490023E+00
  0.447495376693E+00
  0.835756831678E+00
  0.715761902760E+00
  0.632589808526E+00
  0.304172593717E+00
  0.780683200504E+00
  0.562735520197E+00
  0.690568031302E+00
  0.395135251535E+00
  0.572089884050E+00
  0.237851235060E+00
  0.762416328672E+00
  0.797226407044E+00
  0.676515594035E+00
  0.511122937748E+00
  0.173722716431E+00
  0.638638005453E+00
  0.341322047747E+00
  0.736916840326E+00
  0.518075621755E+00
  0.448411230896E+00
  0.110037255269E+00
  0.320705884572E+00
  0.999692185656E-03
  0.256364284164E+00
 -0.609100640976E-01
  0.725324505046E+00
  0.759258390300E+00
  0.638365573868E+00
  0.589562199587E+00
  0.291863228104E+00
  0.389401506773E+00
  0.513444025509E-01
  0.191616003996E+00
 -0.122483955346E+00
  0.697454866939E+00
  0.478477372195E+00
  0.130068131371E+00
 -0.181070516894E+00
  0.510208426567E-03
 -0.246860262134E+00
 -0.527218565683E-01
 -0.293137384197E+00
  0.340340435885E+00
  0.306410243953E-02
  0.549791085893E+00
  0.252292830409E+00
  0.694809937349E+00
  0.728749676668E+00
  0.607875082058E+00
  0.778393790048E-01
 -0.230995219504E+00
 -0.103985451393E+00
 -0.338475651834E+00
 -0.226085385608E+00
 -0.383185012699E+00
  0.667328257771E+00
  0.448459685828E+00
 -0.147959789420E+00
 -0.378525566929E+00
 -0.262146683620E+00
 -0.411065084213E+00
  0.304473301118E+00
 -0.320772503905E-01
  0.389262148888E-01
 -0.268358891139E+00
 -0.291186657646E+00
 -0.435204657771E+00
 -0.346482129527E+00
 -0.429430454166E+00
  0.521341228479E+00
  0.224138609314E+00
 -0.180992421353E+00
 -0.409241916400E+00
  0.672643178376E+00
 -0.362844902323E+00
 -0.438962144617E+00
  0.706834280798E+00
  0.586021208340E+00
 -0.395137130824E+00
 -0.427650721587E+00
 -0.311472940529E+00
 -0.452969429834E+00
 -0.368915538735E+00
 -0.442611951739E+00
 -0.399241608384E+00
 -0.388671293365E+00
 -0.417384498772E+00
  0.646173615345E+00
  0.427440724661E+00
  0.123125239798E-01
 -0.294058876785E+00
 -0.371640707272E+00
  0.280137096682E+00
 -0.559138334613E-01
 -0.204154663192E+00
 -0.431156787688E+00
 -0.381552568097E+00
 -0.409597924272E+00
 -0.326058516795E+00
 -0.466295929108E+00
 -0.373007696676E+00
 -0.445687657299E+00
 -0.361334963885E+00
  0.501804818481E+00
  0.204835667857E+00
 -0.379786443166E+00
 -0.407538213438E+00
 -0.357690461001E+00
 -0.378511750454E+00
 -0.450688116129E+00
  0.656720952774E+00
 -0.338011429455E+00
 -0.477607879491E+00
  0.691114543131E+00
  0.570359518673E+00
 -0.220815342471E+00
 -0.447167393685E+00
 -0.591133598655E-02
 -0.311774153390E+00
 -0.381837433772E+00
 -0.409432128921E+00
  0.631004165598E+00
  0.412383318225E+00
  0.263379332776E+00
 -0.723576272026E-01
 -0.358344696468E+00
 -0.385216423203E+00
 -0.457123417372E+00
 -0.348347982035E+00
 -0.487605784510E+00
  0.487650817737E+00
  0.190851745140E+00
 -0.386258868977E+00
 -0.413764546843E+00
 -0.361723326736E+00
 -0.233458133319E+00
 -0.459461939527E+00
  0.644267251389E+00
 -0.191967744912E-01
 -0.324765904718E+00
  0.678756991290E+00
  0.558054339586E+00
 -0.392380421616E+00
 -0.464137815902E+00
  0.618916057026E+00
  0.400392139449E+00
  0.250779897827E+00
 -0.847457873311E-01
 -0.391895791826E+00
 -0.419349594119E+00
 -0.357410463126E+00
 -0.496480703688E+00
 -0.366612012680E+00
  0.476041925773E+00
  0.179385490962E+00
 -0.243691423898E+00
 -0.469493130119E+00
 -0.399499133843E+00
 -0.471170045794E+00
  0.633053670604E+00
 -0.299512374789E-01
 -0.335325446969E+00
  0.667534080773E+00
  0.546887377351E+00
 -0.398009892013E+00
 -0.425432340549E+00
  0.607708023625E+00
  0.389287921087E+00
 -0.372210872615E+00
  0.239883873977E+00
 -0.954652719622E-01
 -0.365589200078E+00
 -0.504546307499E+00
  0.464871846368E+00
  0.168370801616E+00
 -0.252789777883E+00
 -0.478452701569E+00
 -0.406480716984E+00
 -0.478097425245E+00
  0.621399968876E+00
  0.655751644774E+00
  0.535178536459E+00
 -0.399818899786E-01
 -0.345187007331E+00
 -0.404335982711E+00
 -0.431738115560E+00
  0.595667082738E+00
  0.377386359490E+00
 -0.378187548677E+00
  0.228792583281E+00
 -0.106355444358E+00
 -0.373487945815E+00
 -0.512363587473E+00
  0.452407131045E+00
  0.156123412599E+00
  0.607964169049E+00
  0.642018821356E+00
  0.521556531926E+00
 -0.261953691487E+00
 -0.487488252147E+00
 -0.413616841712E+00
 -0.485193078366E+00
  0.581296688481E+00
  0.363232325925E+00
 -0.508781294121E-01
 -0.355876046062E+00
 -0.411023567914E+00
 -0.438410353385E+00
 -0.384624347777E+00
  0.215771602093E+00
 -0.119075724586E+00
  0.591600523873E+00
 -0.381896893422E+00
 -0.520692437070E+00
  0.625088893799E+00
  0.504804550550E+00
  0.436969657247E+00
  0.141042017639E+00
  0.563115642595E+00
  0.345413662908E+00
 -0.272406026702E+00
 -0.497770110514E+00
 -0.421448451653E+00
 -0.492983505167E+00
  0.571281806441E+00
  0.603750114072E+00
  0.483761007586E+00
 -0.642504470421E-01
 -0.368911399902E+00
  0.198943256951E+00
 -0.135369953477E+00
  0.416671842526E+00
  0.121384528999E+00
 -0.418467712537E+00
 -0.445839120062E+00
  0.539467856764E+00
  0.322403480275E+00
 -0.391833681672E+00
  0.545996359164E+00
  0.576653788952E+00
  0.457171224849E+00
 -0.391654292749E+00
 -0.530336974674E+00
  0.514416434092E+00
  0.508187182936E+00
  0.292319024634E+00
  0.389146022865E+00
  0.951028906008E-01
  0.541781015550E+00
  0.423233178289E+00
  0.176097313891E+00
 -0.157155614634E+00
 -0.285314451515E+00
 -0.510380337735E+00
 -0.817811049603E-01
 -0.385789324679E+00
  0.473631736377E+00
 -0.430479823307E+00
 -0.501955059442E+00
  0.494403359236E+00
  0.377976497602E+00
  0.465809735857E+00
  0.252493537732E+00
  0.406731543975E+00
  0.351459053353E+00
  0.600870182209E-01
  0.416793766650E+00
  0.310005650120E+00
 -0.426935691172E+00
 -0.454284954256E+00
  0.386348101599E+00
  0.292191678598E+00
  0.357051809219E+00
  0.286517439908E+00
  0.407301786883E+00
  0.200858502208E+00
  0.329698990115E+00
  0.291351312764E+00
  0.306465587642E+00
  0.145111355571E+00
 -0.185839556302E+00
 -0.399936679435E+00
 -0.403194120643E+00
 -0.541671418696E+00
  0.332678298704E+00
  0.146762130526E+00
  0.302100666992E+00
  0.170744219106E-01
  0.291998134491E+00
  0.131395696389E+00
 -0.104551353091E+00
 -0.407159543186E+00
  0.251121955866E+00
  0.132138456050E+00
  0.211054435568E+00
  0.146811515088E+00
  0.174403380338E+00
 -0.301152724423E+00
 -0.525611259612E+00
  0.246432358336E+00
 -0.243673139453E-01
  0.106567079439E+00
 -0.219179055368E+00
 -0.440433592184E+00
 -0.511798501018E+00
  0.190270684196E+00
 -0.534569519255E-01
  0.150087730398E+00
 -0.589466454754E-01
  0.105928041968E+00
 -0.485478702548E-01
  0.663438873635E-01
 -0.248613725540E+00
  0.594023088848E-01
 -0.239016919687E-01
 -0.130677726473E+00
 -0.430204729228E+00
  0.137873736841E-01
 -0.435650788272E+00
 -0.462959061245E+00
 -0.415216030765E+00
 -0.553274333633E+00
 -0.407859248061E+00
 -0.317798167831E+00
 -0.540959541140E+00
  0.296280700806E-01
 -0.266411435431E+00
 -0.419451509187E-02
 -0.270371880788E+00
 -0.154213891219E+00
 -0.447458188215E+00
 -0.342040677617E-01
 -0.261744775759E+00
 -0.729031432180E-01
 -0.241034213153E+00
 -0.448631761457E+00
 -0.519775705314E+00
 -0.117964237448E+00
 -0.208661804949E+00
 -0.165735056709E+00
 -0.170843862147E+00
 -0.452732257357E+00
 -0.329291889465E+00
 -0.549827053162E+00
 -0.422874071284E+00
 -0.560085586541E+00
 -0.441150646814E+00
 -0.468377751102E+00
 -0.181582310318E+00
 -0.444832562445E+00
 -0.411739760300E+00
 -0.190301261123E+00
 -0.424219986715E+00
 -0.330181448277E+00
 -0.545889066715E+00
 -0.202872171854E+00
 -0.402983420740E+00
 -0.449084604238E+00
 -0.519805928238E+00
 -0.226851177982E+00
 -0.374644112045E+00
 -0.259979858920E+00
 -0.339613758217E+00
 -0.419520929763E+00
 -0.555166710963E+00
 -0.299569257578E+00
 -0.320386100399E+00
 -0.527727442965E+00
 -0.437173182055E+00
 -0.464250160571E+00
 -0.405317765197E+00
 -0.304472485143E+00
 -0.497327952000E+00
 -0.402133924069E+00
 -0.535109191084E+00
 -0.436015184019E+00
 -0.506008174742E+00
 -0.289034444327E+00
 -0.455455139608E+00
 -0.289239308094E+00
 -0.431814295557E+00
 -0.299661266173E+00
 -0.404953395920E+00
 -0.318880241576E+00
 -0.375572517214E+00
 -0.345457214808E+00
 -0.418909952946E+00
 -0.445739695406E+00
 -0.372862348491E+00
 -0.501305193386E+00
 -0.384464953344E+00
 -0.408370612487E+00
 -0.477199532097E+00
 -0.336884614143E+00
 -0.456758535789E+00
 -0.386627968832E+00
 -0.413082716455E+00
 -0.301891670753E+00
 -0.400576310055E+00
 -0.369244701063E+00
 -0.436186433706E+00
 -0.297989975018E+00
 -0.382626430727E+00
 -0.301027421195E+00
 -0.363539529110E+00
 -0.310352711467E+00
 -0.344003206341E+00
 -0.325365432503E+00
 -0.350264216494E+00
 -0.322679991703E+00
 -0.385943076419E+00
 -0.344049856834E+00
 -0.369933947061E+00
 -0.273580698668E+00
 -0.322689575529E+00
 -0.306968583721E+00
 -0.270049944960E+00
 -0.312201502414E+00
 -0.270297440864E+00
 -0.301438795892E+00
 -0.274102648986E+00
 -0.290867501170E+00
 -0.281276203267E+00
 -0.294496871529E+00
 -0.319340448627E+00
 -0.258204302718E+00
 -0.236560908984E+00
 -0.254649719211E+00
 -0.234655298473E+00
 -0.250195949590E+00
 -0.234259731454E+00
 -0.245746311763E+00
 -0.235338524260E+00
 -0.241524147219E+00
 -0.237866578871E+00
 -0.198724983314E+00
 -0.399242078688E+00