# vtk DataFile Version 3.0
TriPan results file. Generated by TriPan, USU AeroLab (c) 2021.
ASCII
DATASET POLYDATA
POINTS                 309 float
  0.145119197349E-04  0.000000000000E+00  0.702222613473E-21
  0.420138497918E+00  0.000000000000E+00 -0.412059144854E+00
  0.420138497918E+00  0.000000000000E+00  0.412059144854E+00
  0.928185622804E+00  0.928162653334E+00  0.370492718948E-21
  0.134831331777E+01  0.928166164882E+00 -0.412060979457E+00
  0.134831331777E+01  0.928166164882E+00  0.412060979457E+00
  0.181353533969E+01  0.000000000000E+00 -0.806793832730E+00
  0.181353533969E+01  0.000000000000E+00  0.806793832730E+00
  0.226198092881E+01  0.226195057449E+01  0.000000000000E+00
  0.268210702775E+01  0.226195568206E+01 -0.412057187748E+00
  0.268210702775E+01  0.226195568206E+01  0.412057187748E+00
  0.274171014569E+01  0.928169171587E+00 -0.806795197448E+00
  0.274171014569E+01  0.928169171587E+00  0.806795197448E+00
  0.407550250541E+01  0.226195991982E+01 -0.806790662114E+00
  0.407550250541E+01  0.226195991982E+01  0.806790662114E+00
  0.413895454185E+01  0.413891468269E+01  0.321459894060E-20
  0.455907863241E+01  0.413892179865E+01 -0.412052224685E+00
  0.455907863241E+01  0.413892179865E+01  0.412052224685E+00
  0.479629669423E+01  0.000000000000E+00 -0.111703721841E+01
  0.479629669423E+01  0.000000000000E+00  0.111703721841E+01
  0.572447154981E+01  0.928172726805E+00 -0.111703822838E+01
  0.572447154981E+01  0.928172726805E+00  0.111703822838E+01
  0.595247250490E+01  0.413892764158E+01 -0.806784693282E+00
  0.595247250490E+01  0.413892764158E+01  0.806784693282E+00
  0.670397027304E+01  0.670391909310E+01  0.247656500064E-20
  0.705826345133E+01  0.226196417166E+01 -0.111703365070E+01
  0.705826345133E+01  0.226196417166E+01  0.111703365070E+01
  0.712409204420E+01  0.670392852846E+01 -0.412046181935E+00
  0.712409204420E+01  0.670392852846E+01  0.412046181935E+00
  0.851748444622E+01  0.670393631870E+01 -0.806777388893E+00
  0.851748444622E+01  0.670393631870E+01  0.806777388893E+00
  0.893523301137E+01  0.413893280970E+01 -0.111702761222E+01
  0.893523301137E+01  0.413893280970E+01  0.111702761222E+01
  0.939523493126E+01  0.000000000000E+00 -0.980728882398E+00
  0.939523493126E+01  0.000000000000E+00  0.980728882398E+00
  0.100722457449E+02  0.100721825083E+02  0.305997667590E-20
  0.103234084887E+02  0.928176637223E+00 -0.980721530569E+00
  0.103234084887E+02  0.928176637223E+00  0.980721530569E+00
  0.104923656357E+02  0.100721943008E+02 -0.412039541942E+00
  0.104923656357E+02  0.100721943008E+02  0.412039541942E+00
  0.115002433555E+02  0.670394260715E+01 -0.111702019620E+01
  0.115002433555E+02  0.670394260715E+01  0.111702019620E+01
  0.116572000425E+02  0.226196842976E+01 -0.980718679272E+00
  0.116572000425E+02  0.226196842976E+01  0.980718679272E+00
  0.118857549503E+02  0.100722042248E+02 -0.806769331235E+00
  0.118857549503E+02  0.100722042248E+02  0.806769331235E+00
  0.135341681758E+02  0.413893754088E+01 -0.980714688122E+00
  0.135341681758E+02  0.413893754088E+01  0.980714688122E+00
  0.139772048849E+02  0.000000000000E+00 -0.540117955762E+00
  0.139772048849E+02  0.000000000000E+00  0.540117955762E+00
  0.142710712716E+02  0.142709972098E+02  0.358380602499E-20
  0.146911892142E+02  0.142710109506E+02 -0.412033276042E+00
  0.146911892142E+02  0.142710109506E+02  0.412033276042E+00
  0.148685126249E+02  0.100722117480E+02 -0.111701198563E+01
  0.148685126249E+02  0.100722117480E+02  0.111701198563E+01
  0.149053790802E+02  0.928177214295E+00 -0.540120306661E+00
  0.149053790802E+02  0.928177214295E+00  0.540120306661E+00
  0.160845774727E+02  0.142710228843E+02 -0.806761707262E+00
  0.160845774727E+02  0.142710228843E+02  0.806761707262E+00
  0.160991788626E+02  0.670394794941E+01 -0.980709307171E+00
  0.160991788626E+02  0.670394794941E+01  0.980709307171E+00
  0.162391706293E+02  0.226196901156E+01 -0.540118505948E+00
  0.162391706293E+02  0.226196901156E+01  0.540118505948E+00
  0.169605804506E+02  0.000000000000E+00 -0.218323365097E+00
  0.169605804506E+02  0.000000000000E+00  0.218323365097E+00
  0.178887555873E+02  0.928176256456E+00 -0.218324870062E+00
  0.178887555873E+02  0.928176256456E+00  0.218324870062E+00
  0.181161386856E+02  0.413893819960E+01 -0.540115296205E+00
  0.181161386856E+02  0.413893819960E+01  0.540115296205E+00
  0.184032178921E+02  0.000000000000E+00 -0.636706128239E-01
  0.184032178921E+02  0.000000000000E+00  0.636706128239E-01
  0.190002907528E+02 -0.840944481527E-07 -0.788455474777E-06
  0.190673339798E+02  0.142710315750E+02 -0.111700419411E+01
  0.190673339798E+02  0.142710315750E+02  0.111700419411E+01
  0.191785074010E+02  0.191784261928E+02  0.261974574614E-20
  0.192225469940E+02  0.226196819618E+01 -0.218321837191E+00
  0.192225469940E+02  0.226196819618E+01  0.218321837191E+00
  0.193313927253E+02  0.928175608321E+00 -0.636692985335E-01
  0.193313927253E+02  0.928175608321E+00  0.636692985335E-01
  0.194674474091E+02  0.100722178131E+02 -0.980702613060E+00
  0.194674474091E+02  0.100722178131E+02  0.980702613060E+00
  0.195986242999E+02  0.191784409772E+02 -0.412028700899E+00
  0.195986242999E+02  0.191784409772E+02  0.412028700899E+00
  0.199284648759E+02  0.928183688477E+00 -0.100715878959E-05
  0.206651820729E+02  0.226196769971E+01 -0.636648302229E-01
  0.206651820729E+02  0.226196769971E+01  0.636648302229E-01
  0.206811482308E+02  0.670394879607E+01 -0.540110142948E+00
  0.206811482308E+02  0.670394879607E+01  0.540110142948E+00
  0.209920110930E+02  0.191784543764E+02 -0.806756130456E+00
  0.209920110930E+02  0.191784543764E+02  0.806756130456E+00
  0.210995148431E+02  0.413893759147E+01 -0.218316865234E+00
  0.210995148431E+02  0.413893759147E+01  0.218316865234E+00
  0.212622529717E+02  0.226197893907E+01 -0.139070631409E-05
  0.225421517127E+02  0.413893721166E+01 -0.636587391445E-01
  0.225421517127E+02  0.413893721166E+01  0.636587391445E-01
  0.231392185671E+02  0.413895249540E+01 -0.188590327224E-05
  0.236645241797E+02  0.670394839650E+01 -0.218310037539E+00
  0.236645241797E+02  0.670394839650E+01  0.218310037539E+00
  0.236662670754E+02  0.142710383750E+02 -0.980695478375E+00
  0.236662670754E+02  0.142710383750E+02  0.980695478375E+00
  0.239747667464E+02  0.191784639207E+02 -0.111699848317E+01
  0.239747667464E+02  0.191784639207E+02  0.111699848317E+01
  0.240494184145E+02  0.100722189299E+02 -0.540103376168E+00
  0.240494184145E+02  0.100722189299E+02  0.540103376168E+00
  0.245000413633E+02  0.244999586367E+02  0.000000000000E+00
  0.249201584372E+02  0.244999732461E+02 -0.412027011240E+00
  0.249201584372E+02  0.244999732461E+02  0.412027011240E+00
  0.251071609793E+02  0.670394808665E+01 -0.636512186147E-01
  0.251071609793E+02  0.670394808665E+01  0.636512186147E-01
  0.257042230406E+02  0.670396816347E+01 -0.247617573531E-05
  0.263135446900E+02  0.244999871856E+02 -0.806754065860E+00
  0.263135446900E+02  0.244999871856E+02  0.806754065860E+00
  0.270327922951E+02  0.100722186912E+02 -0.218302122370E+00
  0.270327922951E+02  0.100722186912E+02  0.218302122370E+00
  0.282482359082E+02  0.142710397571E+02 -0.540096384726E+00
  0.282482359082E+02  0.142710397571E+02  0.540096384726E+00
  0.284754290580E+02  0.100722184182E+02 -0.636429141243E-01
  0.284754290580E+02  0.100722184182E+02  0.636429141243E-01
  0.285736992607E+02  0.191784713021E+02 -0.980689568383E+00
  0.285736992607E+02  0.191784713021E+02  0.980689568383E+00
  0.290724860452E+02  0.100722435691E+02 -0.310492037916E-05
  0.292962981203E+02  0.244999970457E+02 -0.111699636567E+01
  0.292962981203E+02  0.244999970457E+02  0.111699636567E+01
  0.298215722923E+02  0.298214941139E+02 -0.252200432150E-20
  0.302416907090E+02  0.298215073806E+02 -0.412028695858E+00
  0.302416907090E+02  0.298215073806E+02  0.412028695858E+00
  0.312316115874E+02  0.142710396272E+02 -0.218294479658E+00
  0.312316115874E+02  0.142710396272E+02  0.218294479658E+00
  0.316350755952E+02  0.298215207793E+02 -0.806756113011E+00
  0.316350755952E+02  0.298215207793E+02  0.806756113011E+00
  0.326742502400E+02  0.142710393718E+02 -0.636350629714E-01
  0.326742502400E+02  0.142710393718E+02  0.636350629714E-01
  0.331556679204E+02  0.191784728572E+02 -0.540091052704E+00
  0.331556679204E+02  0.191784728572E+02  0.540091052704E+00
  0.332713008060E+02  0.142710690365E+02 -0.366946003233E-05
  0.338952322807E+02  0.245000046883E+02 -0.980686650712E+00
  0.338952322807E+02  0.245000046883E+02  0.980686650712E+00
  0.346178312461E+02  0.298215303261E+02 -0.111699846182E+01
  0.346178312461E+02  0.298215303261E+02  0.111699846182E+01
  0.347290001994E+02  0.347289313192E+02 -0.111102197025E-20
  0.351491207386E+02  0.347289424633E+02 -0.412033265542E+00
  0.351491207386E+02  0.347289424633E+02  0.412033265542E+00
  0.361390435369E+02  0.191784727900E+02 -0.218288838176E+00
  0.361390435369E+02  0.191784727900E+02  0.218288838176E+00
  0.365425070906E+02  0.347289543962E+02 -0.806761672327E+00
  0.365425070906E+02  0.347289543962E+02  0.806761672327E+00
  0.375816821825E+02  0.191784725416E+02 -0.636293256172E-01
  0.375816821825E+02  0.191784725416E+02  0.636293256172E-01
  0.381787298283E+02  0.191785051266E+02 -0.404213918334E-05
  0.384772009150E+02  0.245000062688E+02 -0.540089009297E+00
  0.384772009150E+02  0.245000062688E+02  0.540089009297E+00
  0.389278125514E+02  0.389277553808E+02 -0.922149802381E-21
  0.392167655509E+02  0.298215378243E+02 -0.980687720153E+00
  0.392167655509E+02  0.298215378243E+02  0.980687720153E+00
  0.393479354844E+02  0.389277641311E+02 -0.412039525323E+00
  0.393479354844E+02  0.389277641311E+02  0.412039525323E+00
  0.395252635926E+02  0.347289630920E+02 -0.111700415312E+01
  0.395252635926E+02  0.347289630920E+02  0.111700415312E+01
  0.407413276606E+02  0.389277740545E+02 -0.806769279584E+00
  0.407413276606E+02  0.389277740545E+02  0.806769279584E+00
  0.414605765133E+02  0.245000062199E+02 -0.218286729666E+00
[...]
POINT_DATA                 309
SCALARS phi float 1
LOOKUP_TABLE default
 -0.142689162975E-04
 -0.338011425138E+00
 -0.488195054731E+00
 -0.912643068753E+00
 -0.125064353750E+01
 -0.140082783575E+01
 -0.163614102472E+01
 -0.193019402086E+01
 -0.222410384906E+01
 -0.256210343950E+01
 -0.271228635579E+01
 -0.254877320910E+01
 -0.284282670264E+01
 -0.386023191896E+01
 -0.415428375950E+01
 -0.406964736546E+01
 -0.440764588560E+01
 -0.455782699299E+01
 -0.451241839825E+01
 -0.491954612723E+01
 -0.542505069602E+01
 -0.583217879311E+01
 -0.570577297004E+01
 -0.599982263512E+01
 -0.659171167113E+01
 -0.673650896308E+01
 -0.714363539173E+01
 -0.692970901190E+01
 -0.707988791689E+01
 -0.822783488043E+01
 -0.852188188327E+01
 -0.858204959475E+01
 -0.898917382256E+01
 -0.905918721063E+01
 -0.941663449713E+01
 -0.990358505883E+01
 -0.997181975586E+01
 -0.103292643628E+02
 -0.102415817608E+02
 -0.103917582457E+02
 -0.111041099551E+02
 -0.115112314799E+02
 -0.112832773664E+02
 -0.116407209341E+02
 -0.115397048519E+02
 -0.118337489180E+02
 -0.131288162221E+02
 -0.134862583352E+02
 -0.136447266176E+02
 -0.138415839766E+02
 -0.140321008640E+02
 -0.143700967923E+02
 -0.145202709934E+02
 -0.144159787404E+02
 -0.148230972727E+02
 -0.145573580218E+02
 -0.147542162376E+02
 -0.156682190925E+02
 -0.159622603798E+02
 -0.156508765484E+02
 -0.160083167003E+02
 -0.158688154363E+02
 -0.160656729958E+02
 -0.166367876901E+02
 -0.167163602364E+02
 -0.175494201740E+02
 -0.176289932689E+02
 -0.177143540739E+02
 -0.179112104635E+02
 -0.180834512598E+02
 -0.181066573550E+02
 -0.186821289842E+02
 -0.185444918636E+02
 -0.189516075561E+02
 -0.188573615218E+02
 -0.188608776730E+02
 -0.189404496624E+02
 -0.189960839592E+02
 -0.190192895753E+02
 -0.189627443467E+02
 -0.193201820588E+02
 -0.191953572576E+02
 -0.193455297912E+02
 -0.195947607059E+02
 -0.203075396951E+02
 -0.203307436827E+02
 -0.202364132363E+02
 -0.204332677477E+02
 -0.204934782995E+02
 -0.207875175542E+02
 -0.207064164280E+02
 -0.207859866054E+02
 -0.209062143268E+02
 -0.221530804148E+02
 -0.221762821824E+02
 -0.227517498696E+02
 -0.232284756904E+02
 -0.233080433792E+02
 -0.230912556898E+02
 -0.234486908015E+02
 -0.233697502556E+02
 -0.237768638667E+02
 -0.235482826576E+02
 -0.237451347027E+02
 -0.240897859060E+02
 -0.244277821217E+02
 -0.245779540396E+02
 -0.246751397346E+02
 -0.246983387612E+02
 -0.252738029985E+02
 -0.257259027007E+02
 -0.260199412030E+02
 -0.265403432873E+02
 -0.266199080913E+02
 -0.276767918382E+02
 -0.278736413352E+02
 -0.279870073664E+02
 -0.280102033662E+02
 -0.279165135465E+02
 -0.282739465042E+02
 -0.285856640132E+02
 -0.286021724806E+02
 -0.290092853199E+02
 -0.293222073077E+02
 -0.296602045368E+02
 -0.298103770686E+02
 -0.306688543553E+02
 -0.307484163737E+02
 -0.309583237060E+02
 -0.312523629544E+02
 -0.321155203303E+02
 -0.321387134686E+02
 -0.325020494194E+02
 -0.326988969731E+02
 -0.327141691299E+02
 -0.331489375358E+02
 -0.335063694301E+02
 -0.338345956603E+02
 -0.342417092636E+02
 -0.341474598808E+02
 -0.344854583641E+02
 -0.346356325614E+02
 -0.354941119312E+02
 -0.355736718934E+02
 -0.357835787942E+02
 -0.360776200688E+02
 -0.369407779169E+02
 -0.369639689641E+02
 -0.375394227316E+02
 -0.377344732246E+02
 -0.379313200334E+02
 -0.382759627319E+02
 -0.383813610447E+02
 -0.387387933287E+02
 -0.386139624281E+02
 -0.387641389069E+02
 -0.386598515613E+02
 -0.390669672390E+02
 -0.399120883394E+02
 -0.402061323866E+02
 -0.407265357303E+02
 -0.408060949240E+02
 -0.415878257763E+02
 -0.419258264800E+02
 -0.420760053765E+02
 -0.421731979674E+02
 -0.421963882415E+02
 -0.427718456167E+02
 -0.427883622210E+02
 -0.431954807328E+02
 -0.429668967080E+02
 -0.431637442036E+02
 -0.432239504804E+02
 -0.435179974595E+02
 -0.432066176169E+02
 -0.435640516313E+02
 -0.441098793746E+02
 -0.444478808384E+02
 -0.445980619350E+02
 -0.457460065217E+02
 -0.460400561604E+02
 -0.459554136097E+02
 -0.459589592118E+02
 -0.460385191495E+02
 -0.461002255450E+02
 -0.465073470464E+02
 -0.462934156137E+02
 -0.464435985176E+02
 -0.472668696301E+02
 -0.474056214426E+02
 -0.474288124853E+02
 -0.473351253828E+02
 -0.476925619432E+02
 -0.476048720039E+02
 -0.477550562898E+02
 -0.475915464388E+02
 -0.478855982538E+02
 -0.477921534320E+02
 -0.479890027972E+02
 -0.480042715093E+02
 -0.481794956898E+02
 -0.485174995629E+02
 -0.486676854788E+02
 -0.486222826645E+02
 -0.490294068694E+02
 -0.488259943023E+02
 -0.489321924917E+02
 -0.489977649189E+02
 -0.489030001488E+02
 -0.491970536210E+02
 -0.498156293262E+02
 -0.501096843446E+02
 -0.504196494066E+02
 -0.506275783669E+02
 -0.504678234685E+02
 -0.508749498780E+02
 -0.507559694179E+02
 -0.507842159314E+02
 -0.508637778928E+02
 -0.506469933603E+02
 -0.510044326102E+02
 -0.517792778567E+02
 -0.521864059399E+02
 -0.519206652396E+02
 -0.521175170561E+02
 -0.522308781459E+02
 -0.522540712740E+02
 -0.528295332633E+02
 -0.526919077972E+02
 -0.530990372004E+02
 -0.531690513379E+02
 -0.535264928935E+02
 -0.535281974104E+02
 -0.538160818085E+02
 -0.539938441561E+02
 -0.549127239654E+02
 -0.549922886607E+02
 -0.550145891451E+02
 -0.553720324171E+02
 -0.552325298200E+02
 -0.554293840192E+02
 -0.563593899009E+02
 -0.563825858821E+02
 -0.563260478942E+02
 -0.566834923551E+02
 -0.569580476759E+02
 -0.572386783698E+02
 -0.575961235588E+02
 -0.577545881338E+02
 -0.579514442289E+02
 -0.579729171136E+02
 -0.582256679412E+02
 -0.582245922444E+02
 -0.583041597403E+02
 -0.583817402727E+02
 -0.596712581307E+02
 -0.596944571243E+02
 -0.596001262201E+02
 -0.597969835984E+02
 -0.602699224129E+02
 -0.607466504848E+02
 -0.608262203615E+02
 -0.609115851927E+02
 -0.611084433263E+02
 -0.618242157593E+02
 -0.620210745754E+02
 -0.621933162965E+02
 -0.622165180049E+02
 -0.622285958745E+02
 -0.623677960500E+02
 -0.624537501605E+02
 -0.625921884894E+02
 -0.626717601295E+02
 -0.627919863330E+02
 -0.639036473829E+02
 -0.639832202088E+02
 -0.640388504609E+02
 -0.640620543415E+02
 -0.646375288670E+02
 -0.648162816381E+02
 -0.648958554982E+02
 -0.649797380894E+02
 -0.650360056114E+02
 -0.650707508652E+02
 -0.653503092729E+02
 -0.653735147154E+02
 -0.659489911153E+02
 -0.662629434484E+02
 -0.662861502936E+02
 -0.663106165320E+02
 -0.663270271057E+02
 -0.663371635246E+02
 -0.668616241960E+02
 -0.186821294061E+02
 -0.195947613584E+02
 -0.209062152279E+02
 -0.227517510914E+02
 -0.252738046028E+02
 -0.285856660248E+02
 -0.327141715073E+02
 -0.375394253504E+02
 -0.427718482869E+02
 -0.480042740257E+02
 -0.528295354656E+02
 -0.569580494825E+02
 -0.602699238195E+02
 -0.627919873865E+02
 -0.646375296370E+02
 -0.659489916736E+02
SCALARS phi_mu float 1
LOOKUP_TABLE default
 -0.142689162975E-04
 -0.338011425138E+00
 -0.488195054731E+00
 -0.912643068753E+00
 -0.125064353750E+01
 -0.140082783575E+01
 -0.163614102472E+01
 -0.193019402086E+01
 -0.222410384906E+01
 -0.256210343950E+01
 -0.271228635579E+01
 -0.254877320910E+01
 -0.284282670264E+01
 -0.386023191896E+01
 -0.415428375950E+01
 -0.406964736546E+01
 -0.440764588560E+01
 -0.455782699299E+01
 -0.451241839825E+01
 -0.491954612723E+01
 -0.542505069602E+01
 -0.583217879311E+01
 -0.570577297004E+01
 -0.599982263512E+01
 -0.659171167113E+01
 -0.673650896308E+01
 -0.714363539173E+01
 -0.692970901190E+01
 -0.707988791689E+01
 -0.822783488043E+01
 -0.852188188327E+01
 -0.858204959475E+01
 -0.898917382256E+01
 -0.905918721063E+01
 -0.941663449713E+01
 -0.990358505883E+01
 -0.997181975586E+01
 -0.103292643628E+02
 -0.102415817608E+02
 -0.103917582457E+02
 -0.111041099551E+02
 -0.115112314799E+02
 -0.112832773664E+02
 -0.116407209341E+02
 -0.115397048519E+02
 -0.118337489180E+02
 -0.131288162221E+02
 -0.134862583352E+02
 -0.136447266176E+02
 -0.138415839766E+02
 -0.140321008640E+02
 -0.143700967923E+02
 -0.145202709934E+02
 -0.144159787404E+02
 -0.148230972727E+02
 -0.145573580218E+02
 -0.147542162376E+02
 -0.156682190925E+02
 -0.159622603798E+02
 -0.156508765484E+02
 -0.160083167003E+02
 -0.158688154363E+02
 -0.160656729958E+02
 -0.166367876901E+02
 -0.167163602364E+02
 -0.175494201740E+02
 -0.176289932689E+02
 -0.177143540739E+02
 -0.179112104635E+02
 -0.180834512598E+02
 -0.181066573550E+02
 -0.186821289842E+02
 -0.185444918636E+02
 -0.189516075561E+02
 -0.188573615218E+02
 -0.188608776730E+02
 -0.189404496624E+02
 -0.189960839592E+02
 -0.190192895753E+02
 -0.189627443467E+02
 -0.193201820588E+02
 -0.191953572576E+02
 -0.193455297912E+02
 -0.195947607059E+02
 -0.203075396951E+02
 -0.203307436827E+02
 -0.202364132363E+02
 -0.204332677477E+02
 -0.204934782995E+02
 -0.207875175542E+02
 -0.207064164280E+02
 -0.207859866054E+02
 -0.209062143268E+02
 -0.221530804148E+02
 -0.221762821824E+02
 -0.227517498696E+02
 -0.232284756904E+02
 -0.233080433792E+02
 -0.230912556898E+02
 -0.234486908015E+02
 -0.233697502556E+02
 -0.237768638667E+02
 -0.235482826576E+02
 -0.237451347027E+02
 -0.240897859060E+02
 -0.244277821217E+02
 -0.245779540396E+02
 -0.246751397346E+02
 -0.246983387612E+02
 -0.252738029985E+02
 -0.257259027007E+02
 -0.260199412030E+02
 -0.265403432873E+02
 -0.266199080913E+02
 -0.276767918382E+02
 -0.278736413352E+02
 -0.279870073664E+02
 -0.280102033662E+02
 -0.279165135465E+02
 -0.282739465042E+02
 -0.285856640132E+02
 -0.286021724806E+02
 -0.290092853199E+02
 -0.293222073077E+02
 -0.296602045368E+02
 -0.298103770686E+02
 -0.306688543553E+02
 -0.307484163737E+02
 -0.309583237060E+02
 -0.312523629544E+02
 -0.321155203303E+02
 -0.321387134686E+02
 -0.325020494194E+02
 -0.326988969731E+02
 -0.327141691299E+02
 -0.331489375358E+02
 -0.335063694301E+02
 -0.338345956603E+02
 -0.342417092636E+02
 -0.341474598808E+02
 -0.344854583641E+02
 -0.346356325614E+02
 -0.354941119312E+02
 -0.355736718934E+02
 -0.357835787942E+02
 -0.360776200688E+02
 -0.369407779169E+02
 -0.369639689641E+02
 -0.375394227316E+02
 -0.377344732246E+02
 -0.379313200334E+02
 -0.382759627319E+02
 -0.383813610447E+02
 -0.387387933287E+02
 -0.386139624281E+02
 -0.387641389069E+02
 -0.386598515613E+02
 -0.390669672390E+02
 -0.399120883394E+02
 -0.402061323866E+02
 -0.407265357303E+02
 -0.408060949240E+02
 -0.415878257763E+02
 -0.419258264800E+02
 -0.420760053765E+02
 -0.421731979674E+02
 -0.421963882415E+02
 -0.427718456167E+02
 -0.427883622210E+02
 -0.431954807328E+02
 -0.429668967080E+02
 -0.431637442036E+02
 -0.432239504804E+02
 -0.435179974595E+02
 -0.432066176169E+02
 -0.435640516313E+02
 -0.441098793746E+02
 -0.444478808384E+02
 -0.445980619350E+02
 -0.457460065217E+02
 -0.460400561604E+02
 -0.459554136097E+02
 -0.459589592118E+02
 -0.460385191495E+02
 -0.461002255450E+02
 -0.465073470464E+02
 -0.462934156137E+02
 -0.464435985176E+02
 -0.472668696301E+02
 -0.474056214426E+02
 -0.474288124853E+02
 -0.473351253828E+02
 -0.476925619432E+02
 -0.476048720039E+02
 -0.477550562898E+02
 -0.475915464388E+02
 -0.478855982538E+02
 -0.477921534320E+02
 -0.479890027972E+02
 -0.480042715093E+02
 -0.481794956898E+02
 -0.485174995629E+02
 -0.486676854788E+02
 -0.486222826645E+02
 -0.490294068694E+02
 -0.488259943023E+02
 -0.489321924917E+02
 -0.489977649189E+02
 -0.489030001488E+02
 -0.491970536210E+02
 -0.498156293262E+02
 -0.501096843446E+02
 -0.504196494066E+02
 -0.506275783669E+02
 -0.504678234685E+02
 -0.508749498780E+02
 -0.507559694179E+02
 -0.507842159314E+02
 -0.508637778928E+02
 -0.506469933603E+02
 -0.510044326102E+02
 -0.517792778567E+02
 -0.521864059399E+02
 -0.519206652396E+02
 -0.521175170561E+02
 -0.522308781459E+02
 -0.522540712740E+02
 -0.528295332633E+02
 -0.526919077972E+02
 -0.530990372004E+02
 -0.531690513379E+02
 -0.535264928935E+02
 -0.535281974104E+02
 -0.538160818085E+02
 -0.539938441561E+02
 -0.549127239654E+02
 -0.549922886607E+02
 -0.550145891451E+02
 -0.553720324171E+02
 -0.552325298200E+02
 -0.554293840192E+02
 -0.563593899009E+02
 -0.563825858821E+02
 -0.563260478942E+02
 -0.566834923551E+02
 -0.569580476759E+02
 -0.572386783698E+02
 -0.575961235588E+02
 -0.577545881338E+02
 -0.579514442289E+02
 -0.579729171136E+02
 -0.582256679412E+02
 -0.582245922444E+02
 -0.583041597403E+02
 -0.583817402727E+02
 -0.596712581307E+02
 -0.596944571243E+02
 -0.596001262201E+02
 -0.597969835984E+02
 -0.602699224129E+02
 -0.607466504848E+02
 -0.608262203615E+02
 -0.609115851927E+02
 -0.611084433263E+02
 -0.618242157593E+02
 -0.620210745754E+02
 -0.621933162965E+02
 -0.622165180049E+02
 -0.622285958745E+02
 -0.623677960500E+02
 -0.624537501605E+02
 -0.625921884894E+02
 -0.626717601295E+02
 -0.627919863330E+02
 -0.639036473829E+02
 -0.639832202088E+02
 -0.640388504609E+02
 -0.640620543415E+02
 -0.646375288670E+02
 -0.648162816381E+02
 -0.648958554982E+02
 -0.649797380894E+02
 -0.650360056114E+02
 -0.650707508652E+02
 -0.653503092729E+02
 -0.653735147154E+02
 -0.659489911153E+02
 -0.662629434484E+02
 -0.662861502936E+02
 -0.663106165320E+02
 -0.663270271057E+02
 -0.663371635246E+02
 -0.668616241960E+02
 -0.186821294061E+02
 -0.195947613584E+02
 -0.209062152279E+02
 -0.227517510914E+02
 -0.252738046028E+02
 -0.285856660248E+02
 -0.327141715073E+02
 -0.375394253504E+02
 -0.427718482869E+02
 -0.480042740257E+02
 -0.528295354656E+02
 -0.569580494825E+02
 -0.602699238195E+02
 -0.627919873865E+02
 -0.646375296370E+02
 -0.659489916736E+02
SCALARS phi_sigma float 1
LOOKUP_TABLE default
  0.000000000000E+00
  0.000000000000E+00
  0.000000000000E+00
  0.000000000000E+00
  0.000000000000E+00
  0.000000000000E+00
  0.000000000000E+00
  0.000000000000E+00
  0.000000000000E+00
  0.000000000000E+00
  0.000000000000E+00
  0.000000000000E+00
  0.000000000000E+00
  0.000000000000E+00
  0.000000000000E+00
  0.000000000000E+00
  0.000000000000E+00
  0.000000000000E+00
  0.000000000000E+00
  0.000000000000E+00
  0.000000000000E+00
  0.000000000000E+00
  0.000000000000E+00
  0.000000000000E+00
  0.000000000000E+00
  0.000000000000E+00
  0.000000000000E+00
  0.000000000000E+00
  0.000000000000E+00
  0.000000000000E+00
  0.000000000000E+00
  0.000000000000E+00
  0.000000000000E+00
  0.000000000000E+00
  0.000000000000E+00
  0.000000000000E+00
  0.000000000000E+00
  0.000000000000E+00
  0.000000000000E+00
  0.000000000000E+00
  0.000000000000E+00
  0.000000000000E+00
  0.000000000000E+00
  0.000000000000E+00
  0.000000000000E+00
  0.000000000000E+00
  0.000000000000E+00
  0.000000000000E+00
  0.000000000000E+00
  0.000000000000E+00
  0.000000000000E+00
  0.000000000000E+00
  0.000000000000E+00
  0.000000000000E+00
  0.000000000000E+00
  0.000000000000E+00
  0.000000000000E+00
  0.000000000000E+00
  0.000000000000E+00
  0.000000000000E+00
  0.000000000000E+00
  0.000000000000E+00
  0.000000000000E+00
  0.000000000000E+00
  0.000000000000E+00
  0.000000000000E+00
  0.000000000000E+00
  0.000000000000E+00
  0.000000000000E+00
  0.000000000000E+00
  0.000000000000E+00
  0.000000000000E+00
  0.000000000000E+00
  0.000000000000E+00
  0.000000000000E+00
  0.000000000000E+00
  0.000000000000E+00
  0.000000000000E+00
  0.000000000000E+00
  0.000000000000E+00
  0.000000000000E+00
  0.000000000000E+00
  0.000000000000E+00
  0.000000000000E+00
  0.000000000000E+00
  0.000000000000E+00
  0.000000000000E+00
  0.000000000000E+00
  0.000000000000E+00
  0.000000000000E+00
  0.000000000000E+00
  0.000000000000E+00
  0.000000000000E+00
  0.000000000000E+00
  0.000000000000E+00
  0.000000000000E+00
  0.000000000000E+00
  0.000000000000E+00
  0.000000000000E+00
  0.000000000000E+00
  0.000000000000E+00
  0.000000000000E+00
  0.000000000000E+00
  0.000000000000E+00
  0.000000000000E+00
  0.000000000000E+00
  0.000000000000E+00
  0.000000000000E+00
  0.000000000000E+00
  0.000000000000E+00
  0.000000000000E+00
  0.000000000000E+00
  0.000000000000E+00
  0.000000000000E+00
  0.000000000000E+00
  0.000000000000E+00
  0.000000000000E+00
  0.000000000000E+00
  0.000000000000E+00
  0.000000000000E+00
  0.000000000000E+00
  0.000000000000E+00
  0.000000000000E+00
  0.000000000000E+00
  0.000000000000E+00
  0.000000000000E+00
  0.000000000000E+00
  0.000000000000E+00
  0.000000000000E+00
  0.000000000000E+00
  0.000000000000E+00
  0.000000000000E+00
  0.000000000000E+00
  0.000000000000E+00
  0.000000000000E+00
  0.000000000000E+00
  0.000000000000E+00
  0.000000000000E+00
  0.000000000000E+00
  0.000000000000E+00
  0.000000000000E+00
  0.000000000000E+00
  0.000000000000E+00
  0.000000000000E+00
  0.000000000000E+00
  0.000000000000E+00
  0.000000000000E+00
  0.000000000000E+00
  0.000000000000E+00
  0.000000000000E+00
  0.000000000000E+00
  0.000000000000E+00
  0.000000000000E+00
  0.000000000000E+00
  0.000000000000E+00
  0.000000000000E+00
  0.000000000000E+00
  0.000000000000E+00
  0.000000000000E+00
  0.000000000000E+00
  0.000000000000E+00
  0.000000000000E+00
  0.000000000000E+00
  0.000000000000E+00
  0.000000000000E+00
  0.000000000000E+00
  0.000000000000E+00
  0.000000000000E+00
  0.000000000000E+00
  0.000000000000E+00
  0.000000000000E+00
  0.000000000000E+00
  0.000000000000E+00
  0.000000000000E+00
  0.000000000000E+00
  0.000000000000E+00
  0.000000000000E+00
  0.000000000000E+00
  0.000000000000E+00
  0.000000000000E+00
  0.000000000000E+00
  0.000000000000E+00
  0.000000000000E+00
  0.000000000000E+00
  0.000000000000E+00
  0.000000000000E+00
  0.000000000000E+00
  0.000000000000E+00
  0.000000000000E+00
  0.000000000000E+00
  0.000000000000E+00
  0.000000000000E+00
  0.000000000000E+00
  0.000000000000E+00
  0.000000000000E+00
  0.000000000000E+00
  0.000000000000E+00
  0.000000000000E+00
  0.000000000000E+00
  0.000000000000E+00
  0.000000000000E+00
  0.000000000000E+00
  0.000000000000E+00
  0.000000000000E+00
  0.000000000000E+00
  0.000000000000E+00
  0.000000000000E+00
  0.000000000000E+00
  0.000000000000E+00
  0.000000000000E+00
  0.000000000000E+00
  0.000000000000E+00
  0.000000000000E+00
  0.000000000000E+00
  0.000000000000E+00
  0.000000000000E+00
  0.000000000000E+00
  0.000000000000E+00
  0.000000000000E+00
  0.000000000000E+00
  0.000000000000E+00
  0.000000000000E+00
  0.000000000000E+00
  0.000000000000E+00
  0.000000000000E+00
  0.000000000000E+00
  0.000000000000E+00
  0.000000000000E+00
  0.000000000000E+00
  0.000000000000E+00
  0.000000000000E+00
  0.000000000000E+00
  0.000000000000E+00
  0.000000000000E+00
  0.000000000000E+00
  0.000000000000E+00
  0.000000000000E+00
  0.000000000000E+00
  0.000000000000E+00
  0.000000000000E+00
  0.000000000000E+00
  0.000000000000E+00
  0.000000000000E+00
  0.000000000000E+00
  0.000000000000E+00
  0.000000000000E+00
  0.000000000000E+00
  0.000000000000E+00
  0.000000000000E+00
  0.000000000000E+00
  0.000000000000E+00
  0.000000000000E+00
  0.000000000000E+00
  0.000000000000E+00
  0.000000000000E+00
  0.000000000000E+00
  0.000000000000E+00
  0.000000000000E+00
  0.000000000000E+00
  0.000000000000E+00
  0.000000000000E+00
  0.000000000000E+00
  0.000000000000E+00
  0.000000000000E+00
  0.000000000000E+00
  0.000000000000E+00
  0.000000000000E+00
  0.000000000000E+00
  0.000000000000E+00
  0.000000000000E+00
  0.000000000000E+00
  0.000000000000E+00
  0.000000000000E+00
  0.000000000000E+00
  0.000000000000E+00
  0.000000000000E+00
  0.000000000000E+00
  0.000000000000E+00
  0.000000000000E+00
  0.000000000000E+00
  0.000000000000E+00
  0.000000000000E+00
  0.000000000000E+00
  0.000000000000E+00
  0.000000000000E+00
  0.000000000000E+00
  0.000000000000E+00
  0.000000000000E+00
  0.000000000000E+00
  0.000000000000E+00
  0.000000000000E+00
  0.000000000000E+00
  0.000000000000E+00
  0.000000000000E+00
  0.000000000000E+00
  0.000000000000E+00
  0.000000000000E+00
  0.000000000000E+00
  0.000000000000E+00
  0.000000000000E+00
  0.000000000000E+00
  0.000000000000E+00
  0.000000000000E+00
  0.000000000000E+00
  0.000000000000E+00
  0.000000000000E+00
  0.000000000000E+00
  0.000000000000E+00
  0.000000000000E+00
