# vtk DataFile Version 3.0
TriPan results file. Generated by TriPan, USU AeroLab (c) 2021.
ASCII
DATASET POLYDATA
POINTS                 144 float
  0.283974988144E-04  0.000000000000E+00  0.000000000000E+00
  0.751004003423E+00  0.000000000000E+00 -0.543756807810E+00
  0.751004003423E+00  0.000000000000E+00  0.543756807810E+00
  0.192378068665E+01  0.192372679015E+01  0.197131108707E-20
  0.267476104382E+01  0.192373944637E+01 -0.543755647857E+00
  0.267476104382E+01  0.192373944637E+01  0.543755647857E+00
  0.359246720978E+01  0.000000000000E+00 -0.103878991375E+01
  0.359246720978E+01  0.000000000000E+00  0.103878991375E+01
  0.547037454997E+01  0.547028878773E+01  0.313682877200E-20
  0.551622283152E+01  0.192374909230E+01 -0.103878740967E+01
  0.551622283152E+01  0.192374909230E+01  0.103878740967E+01
  0.622134638740E+01  0.547031020210E+01 -0.543737902761E+00
  0.622134638740E+01  0.547031020210E+01  0.543737902761E+00
  0.906280284545E+01  0.547032541611E+01 -0.103876751444E+01
  0.906280284545E+01  0.547032541611E+01  0.103876751444E+01
  0.939523443721E+01  0.000000000000E+00 -0.980714520316E+00
  0.939523443721E+01  0.000000000000E+00  0.980714520316E+00
  0.113189875785E+02  0.192375686728E+01 -0.980703476062E+00
  0.113189875785E+02  0.192375686728E+01  0.980703476062E+00
  0.113820626142E+02  0.113819411394E+02  0.000000000000E+00
  0.121330258136E+02  0.113819716687E+02 -0.543716282813E+00
  0.121330258136E+02  0.113819716687E+02  0.543716282813E+00
  0.148655642851E+02  0.547033554479E+01 -0.980689658068E+00
  0.148655642851E+02  0.547033554479E+01  0.980689658068E+00
  0.149744745509E+02  0.113819936498E+02 -0.103874306645E+01
  0.149744745509E+02  0.113819936498E+02  0.103874306645E+01
  0.151765256522E+02  0.000000000000E+00 -0.411027830800E+00
  0.151765256522E+02  0.000000000000E+00  0.411027830800E+00
  0.171002803041E+02  0.192375801073E+01 -0.411028060916E+00
  0.171002803041E+02  0.192375801073E+01  0.411028060916E+00
  0.180493232758E+02  0.000000000000E+00 -0.101491967928E+00
  0.180493232758E+02  0.000000000000E+00  0.101491967928E+00
  0.190002795530E+02 -0.173175899124E-06 -0.162225391358E-05
  0.197562664374E+02  0.197561236994E+02 -0.783114440160E-20
  0.199730763059E+02  0.192375711392E+01 -0.101485325227E+00
  0.199730763059E+02  0.192375711392E+01  0.101485325227E+00
  0.205072235903E+02  0.197561583677E+02 -0.543700224901E+00
  0.205072235903E+02  0.197561583677E+02  0.543700224901E+00
  0.206468561100E+02  0.547033758886E+01 -0.411012086126E+00
  0.206468561100E+02  0.547033758886E+01  0.411012086126E+00
  0.207772338176E+02  0.113820069050E+02 -0.980668344648E+00
  0.207772338176E+02  0.113820069050E+02  0.980668344648E+00
  0.209240314594E+02  0.192377737848E+01 -0.249514452704E-05
  0.233486692160E+02  0.197561853678E+02 -0.103872481848E+01
  0.233486692160E+02  0.197561853678E+02  0.103872481848E+01
  0.235196535462E+02  0.547033716507E+01 -0.101465552106E+00
  0.235196535462E+02  0.547033716507E+01  0.101465552106E+00
  0.244705931666E+02  0.547037105532E+01 -0.415713147902E-05
  0.265585244179E+02  0.113820101737E+02 -0.410989041801E+00
  0.265585244179E+02  0.113820101737E+02  0.410989041801E+00
  0.291514258978E+02  0.197562012080E+02 -0.980647787928E+00
  0.291514258978E+02  0.197562012080E+02  0.980647787928E+00
  0.292438722249E+02  0.292437376383E+02 -0.172291822300E-19
  0.294313196954E+02  0.113820100012E+02 -0.101441046993E+00
  0.294313196954E+02  0.113820100012E+02  0.101441046993E+00
  0.299948353693E+02  0.292437682226E+02 -0.543700204348E+00
  0.299948353693E+02  0.292437682226E+02  0.543700204348E+00
  0.303822461947E+02  0.113820589200E+02 -0.602074979604E-05
  0.328362790837E+02  0.292437952266E+02 -0.103872476409E+01
  0.328362790837E+02  0.292437952266E+02  0.103872476409E+01
  0.349327138601E+02  0.197562052073E+02 -0.410971183139E+00
  0.349327138601E+02  0.197562052073E+02  0.410971183139E+00
  0.376180479476E+02  0.376179444840E+02 -0.170292319506E-19
  0.378055090208E+02  0.197562051516E+02 -0.101422783182E+00
  0.378055090208E+02  0.197562051516E+02  0.101422783182E+00
  0.383690220867E+02  0.376179659809E+02 -0.543716216531E+00
  0.383690220867E+02  0.376179659809E+02  0.543716216531E+00
  0.386390354698E+02  0.292438113624E+02 -0.980642402552E+00
  0.386390354698E+02  0.292438113624E+02  0.980642402552E+00
  0.387564288728E+02  0.197562626250E+02 -0.713040546701E-05
  0.412104689028E+02  0.376179879758E+02 -0.103874290639E+01
  0.412104689028E+02  0.376179879758E+02  0.103874290639E+01
  0.435297011601E+02  0.435296326412E+02 -0.501228099987E-20
  0.442806840513E+02  0.435296453859E+02 -0.543737784041E+00
  0.442806840513E+02  0.435296453859E+02  0.543737784041E+00
  0.444203236993E+02  0.292438150946E+02 -0.410970949423E+00
  0.444203236993E+02  0.292438150946E+02  0.410970949423E+00
  0.470132275450E+02  0.376180018556E+02 -0.980657032378E+00
  0.470132275450E+02  0.376180018556E+02  0.980657032378E+00
  0.470762692596E+02  0.470762270782E+02 -0.771411711263E-21
  0.471221376194E+02  0.435296606289E+02 -0.103876728012E+01
  0.471221376194E+02  0.435296606289E+02  0.103876728012E+01
  0.472931226936E+02  0.292438150200E+02 -0.101422735367E+00
  0.472931226936E+02  0.292438150200E+02  0.101422735367E+00
  0.478272543457E+02  0.470762338134E+02 -0.543755490933E+00
  0.478272543457E+02  0.470762338134E+02  0.543755490933E+00
  0.482440427667E+02  0.292438684576E+02 -0.670499472475E-05
  0.490000083142E+02  0.489999868257E+02  0.263202238763E-20
  0.497510003277E+02  0.489999872485E+02 -0.543770195482E+00
  0.497510003277E+02  0.489999872485E+02  0.543770195482E+00
  0.501355185048E+02  0.493845010504E+02 -0.384508545247E+00
  0.501355185048E+02  0.493845010504E+02  0.384508545247E+00
  0.502947887725E+02  0.495437777197E+02 -0.938670438797E-15
  0.506687134656E+02  0.470762435046E+02 -0.103878718448E+01
  0.506687134656E+02  0.470762435046E+02  0.103878718448E+01
  0.525924679024E+02  0.489999880915E+02 -0.103880235312E+01
  0.525924679024E+02  0.489999880915E+02  0.103880235312E+01
  0.527945205660E+02  0.376180046110E+02 -0.410988088012E+00
  0.527945205660E+02  0.376180046110E+02  0.410988088012E+00
  0.529248995161E+02  0.435296712541E+02 -0.980680824889E+00
  0.529248995161E+02  0.435296712541E+02  0.980680824889E+00
  0.533270405701E+02  0.497345452322E+02 -0.734549052689E+00
  0.533270405701E+02  0.497345452322E+02  0.734549052689E+00
  0.536313126578E+02  0.500388122586E+02 -0.204173035700E-15
  0.556673159217E+02  0.376180043603E+02 -0.101440860275E+00
  0.556673159217E+02  0.376180043603E+02  0.101440860275E+00
  0.564714780046E+02  0.470762514875E+02 -0.980699967529E+00
  0.564714780046E+02  0.470762514875E+02  0.980699967529E+00
  0.566182494384E+02  0.376180443543E+02 -0.508088247706E-05
  0.583952342273E+02  0.489999960413E+02 -0.980710857954E+00
  0.583952342273E+02  0.489999960413E+02  0.980710857954E+00
  0.587061934788E+02  0.435296730678E+02 -0.411009689809E+00
  0.587061934788E+02  0.435296730678E+02  0.411009689809E+00
  0.590887387489E+02  0.496934784951E+02 -0.693465964062E+00
  0.590887387489E+02  0.496934784951E+02  0.693465964062E+00
  0.593759965991E+02  0.499807143259E+02 -0.475608202202E-20
  0.615789891982E+02  0.435296724534E+02 -0.101465024805E+00
  0.615789891982E+02  0.435296724534E+02  0.101465024805E+00
  0.622527725328E+02  0.470762527357E+02 -0.411025206224E+00
  0.622527725328E+02  0.470762527357E+02  0.411025206224E+00
  0.625299373919E+02  0.435296977704E+02 -0.325822189864E-05
  0.641765253436E+02  0.489999965324E+02 -0.411034716490E+00
  0.641765253436E+02  0.489999965324E+02  0.411034716490E+00
  0.644671978766E+02  0.492906485597E+02 -0.290647259627E+00
  0.644671978766E+02  0.492906485597E+02  0.290647259627E+00
  0.645875978094E+02  0.494110431752E+02  0.400782993512E-15
  0.651255686770E+02  0.470762516965E+02 -0.101483907665E+00
  0.651255686770E+02  0.470762516965E+02  0.101483907665E+00
  0.660765278131E+02  0.470762660711E+02 -0.188953021061E-05
  0.670493218100E+02  0.489999980114E+02 -0.101496046413E+00
  0.670493218100E+02  0.489999980114E+02  0.101496046413E+00
  0.671211074089E+02  0.490717750364E+02 -0.717736760465E-01
  0.671211074089E+02  0.490717750364E+02  0.717736760465E-01
  0.671508395772E+02  0.491015068840E+02 -0.511018225407E-16
  0.680002938493E+02  0.489999872158E+02  0.325911767234E-20
  0.190002798584E+02 -0.478615658286E-06  0.149450381313E-05
  0.209240322681E+02  0.192377656984E+01  0.201404731938E-05
  0.244705945139E+02  0.547036970805E+01  0.335558063785E-05
  0.303822481459E+02  0.113820569688E+02  0.485987155971E-05
  0.387564311837E+02  0.197562603141E+02  0.575557024806E-05
  0.482440449397E+02  0.292438662846E+02  0.541217999535E-05
  0.566182510851E+02  0.376180427076E+02  0.410121881224E-05
  0.625299384478E+02  0.435296967145E+02  0.262999241444E-05
  0.660765284254E+02  0.470762654588E+02  0.152520304746E-05
VERTICES                 144                 288
1                   0
1                   1
1                   2
1                   3
1                   4
1                   5
1                   6
1                   7
1                   8
1                   9
1                  10
1                  11
1                  12
1                  13
1                  14
1                  15
1                  16
1                  17
1                  18
1                  19
1                  20
1                  21
1                  22
1                  23
1                  24
1                  25
1                  26
1                  27
1                  28
1                  29
1                  30
1                  31
1                  32
1                  33
1                  34
1                  35
1                  36
1                  37
1                  38
1                  39
1                  40
1                  41
1                  42
1                  43
1                  44
1                  45
1                  46
1                  47
1                  48
1                  49
1                  50
1                  51
1                  52
1                  53
1                  54
1                  55
1                  56
1                  57
1                  58
1                  59
1                  60
1                  61
1                  62
1                  63
1                  64
1                  65
1                  66
1                  67
1                  68
1                  69
1                  70
1                  71
1                  72
1                  73
1                  74
1                  75
1                  76
1                  77
1                  78
1                  79
1                  80
1                  81
1                  82
1                  83
1                  84
1                  85
1                  86
1                  87
1                  88
1                  89
1                  90
1                  91
1                  92
1                  93
1                  94
1                  95
1                  96
1                  97
1                  98
1                  99
1                 100
1                 101
1                 102
1                 103
1                 104
1                 105
1                 106
1                 107
1                 108
1                 109
1                 110
1                 111
1                 112
1                 113
1                 114
1                 115
1                 116
1                 117
1                 118
1                 119
1                 120
1                 121
1                 122
1                 123
1                 124
1                 125
1                 126
1                 127
1                 128
1                 129
1                 130
1                 131
1                 132
1                 133
1                 134
1                 135
1                 136
1                 137
1                 138
1                 139
1                 140
1                 141
1                 142
1                 143
POINT_DATA                 144
SCALARS phi float 1
LOOKUP_TABLE default
 -0.279219800721E-04
 -0.639336564354E+00
 -0.837520179577E+00
 -0.189156680122E+01
 -0.253088032667E+01
 -0.272906351913E+01
 -0.334300658847E+01
 -0.372161544009E+01
 -0.537877262247E+01
 -0.523454920083E+01
 -0.561315713979E+01
 -0.601808100463E+01
 -0.621625772951E+01
 -0.872174503021E+01
 -0.910034571793E+01
 -0.905918934213E+01
 -0.941663139407E+01
 -0.109507310719E+02
 -0.113081690985E+02
 -0.111914689236E+02
 -0.118307727523E+02
 -0.120289415974E+02
 -0.144379225418E+02
 -0.147953555322E+02
 -0.145344297018E+02
 -0.149130214790E+02
 -0.148474894545E+02
 -0.149972972000E+02
 -0.167390306150E+02
 -0.168888384444E+02
 -0.177285902470E+02
 -0.177655811312E+02
 -0.186821178199E+02
 -0.194254459297E+02
 -0.196201310653E+02
 -0.196571195285E+02
 -0.200647467395E+02
 -0.202629097319E+02
 -0.202262215924E+02
 -0.203760235994E+02
 -0.202506045056E+02
 -0.206080297278E+02
 -0.205736561638E+02
 -0.227684010286E+02
 -0.231469861549E+02
 -0.231073241453E+02
 -0.231443054017E+02
 -0.240608300645E+02
 -0.260389026676E+02
 -0.261886962756E+02
 -0.284845737115E+02
 -0.288419914414E+02
 -0.287541808813E+02
 -0.289200033640E+02
 -0.289569756891E+02
 -0.293934875860E+02
 -0.295916505709E+02
 -0.298734915766E+02
 -0.320971400020E+02
 -0.324757251085E+02
 -0.342728687880E+02
 -0.344226558870E+02
 -0.369881302574E+02
 -0.371539694434E+02
 -0.371909351118E+02
 -0.376274448548E+02
 -0.378256136756E+02
 -0.378133133657E+02
 -0.381707291328E+02
 -0.381074475895E+02
 -0.403310999323E+02
 -0.407096916511E+02
 -0.428007922904E+02
 -0.434401115629E+02
 -0.436382882446E+02
 -0.436016077660E+02
 -0.437513947799E+02
 -0.460472761544E+02
 -0.464046972536E+02
 -0.462879727793E+02
 -0.461437727680E+02
 -0.465223733703E+02
 -0.464827121570E+02
 -0.465196778080E+02
 -0.469272909831E+02
 -0.471254741183E+02
 -0.474361905892E+02
 -0.481794986456E+02
 -0.488188209811E+02
 -0.490170094758E+02
 -0.492259234963E+02
 -0.493660657299E+02
 -0.494525978854E+02
 -0.496309572466E+02
 -0.500095651034E+02
 -0.515224954732E+02
 -0.519011088586E+02
 -0.518355748088E+02
 -0.519853680692E+02
 -0.518599522961E+02
 -0.522173820670E+02
 -0.523002134138E+02
 -0.525679352790E+02
 -0.527332513699E+02
 -0.547166754425E+02
 -0.547536476994E+02
 -0.553471395115E+02
 -0.557045762594E+02
 -0.556701706921E+02
 -0.572386802738E+02
 -0.575961209909E+02
 -0.576482522756E+02
 -0.577980534093E+02
 -0.579729182222E+02
 -0.582256664910E+02
 -0.583817400476E+02
 -0.605293527999E+02
 -0.605663338641E+02
 -0.611354407079E+02
 -0.612852474968E+02
 -0.614828672165E+02
 -0.630269783670E+02
 -0.631767886221E+02
 -0.633347224330E+02
 -0.634406549452E+02
 -0.635060725138E+02
 -0.640165410364E+02
 -0.640535289828E+02
 -0.649700699026E+02
 -0.659080785332E+02
 -0.659450709039E+02
 -0.659840785474E+02
 -0.660102379745E+02
 -0.660263925613E+02
 -0.668616226432E+02
 -0.186821186882E+02
 -0.205736577806E+02
 -0.240608327583E+02
 -0.298734954780E+02
 -0.381074522099E+02
 -0.474361949340E+02
 -0.556701739845E+02
 -0.614828693278E+02
 -0.649700711270E+02
SCALARS phi_mu float 1
LOOKUP_TABLE default
 -0.279219800721E-04
 -0.639336564354E+00
 -0.837520179577E+00
 -0.189156680122E+01
 -0.253088032667E+01
 -0.272906351913E+01
 -0.334300658847E+01
 -0.372161544009E+01
 -0.537877262247E+01
 -0.523454920083E+01
 -0.561315713979E+01
 -0.601808100463E+01
 -0.621625772951E+01
 -0.872174503021E+01
 -0.910034571793E+01
 -0.905918934213E+01
 -0.941663139407E+01
 -0.109507310719E+02
 -0.113081690985E+02
 -0.111914689236E+02
 -0.118307727523E+02
 -0.120289415974E+02
 -0.144379225418E+02
 -0.147953555322E+02
 -0.145344297018E+02
 -0.149130214790E+02
 -0.148474894545E+02
 -0.149972972000E+02
 -0.167390306150E+02
 -0.168888384444E+02
 -0.177285902470E+02
 -0.177655811312E+02
 -0.186821178199E+02
 -0.194254459297E+02
 -0.196201310653E+02
 -0.196571195285E+02
 -0.200647467395E+02
 -0.202629097319E+02
 -0.202262215924E+02
 -0.203760235994E+02
 -0.202506045056E+02
 -0.206080297278E+02
 -0.205736561638E+02
 -0.227684010286E+02
 -0.231469861549E+02
 -0.231073241453E+02
 -0.231443054017E+02
 -0.240608300645E+02
 -0.260389026676E+02
 -0.261886962756E+02
 -0.284845737115E+02
 -0.288419914414E+02
 -0.287541808813E+02
 -0.289200033640E+02
 -0.289569756891E+02
 -0.293934875860E+02
 -0.295916505709E+02
 -0.298734915766E+02
 -0.320971400020E+02
 -0.324757251085E+02
 -0.342728687880E+02
 -0.344226558870E+02
 -0.369881302574E+02
 -0.371539694434E+02
 -0.371909351118E+02
 -0.376274448548E+02
 -0.378256136756E+02
 -0.378133133657E+02
 -0.381707291328E+02
 -0.381074475895E+02
 -0.403310999323E+02
 -0.407096916511E+02
 -0.428007922904E+02
 -0.434401115629E+02
 -0.436382882446E+02
 -0.436016077660E+02
 -0.437513947799E+02
 -0.460472761544E+02
 -0.464046972536E+02
 -0.462879727793E+02
 -0.461437727680E+02
 -0.465223733703E+02
 -0.464827121570E+02
 -0.465196778080E+02
 -0.469272909831E+02
 -0.471254741183E+02
 -0.474361905892E+02
 -0.481794986456E+02
 -0.488188209811E+02
 -0.490170094758E+02
 -0.492259234963E+02
 -0.493660657299E+02
 -0.494525978854E+02
 -0.496309572466E+02
 -0.500095651034E+02
 -0.515224954732E+02
 -0.519011088586E+02
 -0.518355748088E+02
 -0.519853680692E+02
 -0.518599522961E+02
 -0.522173820670E+02
 -0.523002134138E+02
 -0.525679352790E+02
 -0.527332513699E+02
 -0.547166754425E+02
 -0.547536476994E+02
 -0.553471395115E+02
 -0.557045762594E+02
 -0.556701706921E+02
 -0.572386802738E+02
 -0.575961209909E+02
 -0.576482522756E+02
 -0.577980534093E+02
 -0.579729182222E+02
 -0.582256664910E+02
 -0.583817400476E+02
 -0.605293527999E+02
 -0.605663338641E+02
 -0.611354407079E+02
 -0.612852474968E+02
 -0.614828672165E+02
 -0.630269783670E+02
 -0.631767886221E+02
 -0.633347224330E+02
 -0.634406549452E+02
 -0.635060725138E+02
 -0.640165410364E+02
 -0.640535289828E+02
 -0.649700699026E+02
 -0.659080785332E+02
 -0.659450709039E+02
 -0.659840785474E+02
 -0.660102379745E+02
 -0.660263925613E+02
 -0.668616226432E+02
 -0.186821186882E+02
 -0.205736577806E+02
 -0.240608327583E+02
 -0.298734954780E+02
 -0.381074522099E+02
 -0.474361949340E+02
 -0.556701739845E+02
 -0.614828693278E+02
 -0.649700711270E+02
SCALARS phi_sigma float 1
LOOKUP_TABLE default
  0.000000000000E+00
  0.000000000000E+00
  0.000000000000E+00
  0.000000000000E+00
  0.000000000000E+00
  0.000000000000E+00
  0.000000000000E+00
  0.000000000000E+00
  0.000000000000E+00
  0.000000000000E+00
  0.000000000000E+00
  0.000000000000E+00
  0.000000000000E+00
  0.000000000000E+00
  0.000000000000E+00
  0.000000000000E+00
  0.000000000000E+00
  0.000000000000E+00
  0.000000000000E+00
  0.000000000000E+00
  0.000000000000E+00
  0.000000000000E+00
  0.000000000000E+00
  0.000000000000E+00
  0.000000000000E+00
  0.000000000000E+00
  0.000000000000E+00
  0.000000000000E+00
  0.000000000000E+00
  0.000000000000E+00
  0.000000000000E+00
  0.000000000000E+00
  0.000000000000E+00
  0.000000000000E+00
  0.000000000000E+00
  0.000000000000E+00
  0.000000000000E+00
  0.000000000000E+00
  0.000000000000E+00
  0.000000000000E+00
  0.000000000000E+00
  0.000000000000E+00
  0.000000000000E+00
  0.000000000000E+00
  0.000000000000E+00
  0.000000000000E+00
  0.000000000000E+00
  0.000000000000E+00
  0.000000000000E+00
  0.000000000000E+00
  0.000000000000E+00
  0.000000000000E+00
  0.000000000000E+00
  0.000000000000E+00
  0.000000000000E+00
  0.000000000000E+00
  0.000000000000E+00
  0.000000000000E+00
  0.000000000000E+00
  0.000000000000E+00
  0.000000000000E+00
  0.000000000000E+00
  0.000000000000E+00
  0.000000000000E+00
  0.000000000000E+00
  0.000000000000E+00
  0.000000000000E+00
  0.000000000000E+00
  0.000000000000E+00
  0.000000000000E+00
  0.000000000000E+00
  0.000000000000E+00
  0.000000000000E+00
  0.000000000000E+00
  0.000000000000E+00
  0.000000000000E+00
  0.000000000000E+00
  0.000000000000E+00
  0.000000000000E+00
  0.000000000000E+00
  0.000000000000E+00
  0.000000000000E+00
  0.000000000000E+00
  0.000000000000E+00
  0.000000000000E+00
  0.000000000000E+00
  0.000000000000E+00
  0.000000000000E+00
  0.000000000000E+00
  0.000000000000E+00
  0.000000000000E+00
  0.000000000000E+00
  0.000000000000E+00
  0.000000000000E+00
  0.000000000000E+00
  0.000000000000E+00
  0.000000000000E+00
  0.000000000000E+00
  0.000000000000E+00
  0.000000000000E+00
  0.000000000000E+00
  0.000000000000E+00
  0.000000000000E+00
  0.000000000000E+00
  0.000000000000E+00
  0.000000000000E+00
  0.000000000000E+00
  0.000000000000E+00
  0.000000000000E+00
  0.000000000000E+00
  0.000000000000E+00
  0.000000000000E+00
  0.000000000000E+00
  0.000000000000E+00
  0.000000000000E+00
  0.000000000000E+00
  0.000000000000E+00
  0.000000000000E+00
  0.000000000000E+00
  0.000000000000E+00
  0.000000000000E+00
  0.000000000000E+00
  0.000000000000E+00
  0.000000000000E+00
  0.000000000000E+00
  0.000000000000E+00
  0.000000000000E+00
  0.000000000000E+00
  0.000000000000E+00
  0.000000000000E+00
  0.000000000000E+00
  0.000000000000E+00
  0.000000000000E+00
  0.000000000000E+00
  0.000000000000E+00
  0.000000000000E+00
  0.000000000000E+00
  0.000000000000E+00
  0.000000000000E+00
  0.000000000000E+00
  0.000000000000E+00
  0.000000000000E+00
  0.000000000000E+00
  0.000000000000E+00
