# vtk DataFile Version 3.0
TriPan results file. Generated by TriPan, USU AeroLab (c) 2021.
ASCII
DATASET POLYDATA
POINTS                 532 float
  0.107300597574E-04  0.000000000000E+00  0.470060706801E-21
  0.193052340604E+00  0.000000000000E+00 -0.275442291303E+00
  0.193052340604E+00  0.000000000000E+00  0.275442291303E+00
  0.750997434593E+00  0.000000000000E+00 -0.543777307962E+00
  0.750997434593E+00  0.000000000000E+00  0.543777307962E+00
  0.757904666675E+00  0.757887941587E+00  0.854804944043E-21
  0.950948772764E+00  0.757889809275E+00 -0.275443655977E+00
  0.950948772764E+00  0.757889809275E+00  0.275443655977E+00
  0.150889418432E+01  0.757891556532E+00 -0.543777680183E+00
  0.150889418432E+01  0.757891556532E+00  0.543777680183E+00
  0.178898435544E+01  0.178896278430E+01  0.472492314218E-21
  0.181353407242E+01  0.000000000000E+00 -0.806802519519E+00
  0.181353407242E+01  0.000000000000E+00  0.806802519519E+00
  0.198202774760E+01  0.178896536592E+01 -0.275441549707E+00
  0.198202774760E+01  0.178896536592E+01  0.275441549707E+00
  0.253997234098E+01  0.178896781214E+01 -0.543774846994E+00
  0.253997234098E+01  0.178896781214E+01  0.543774846994E+00
  0.257143080916E+01  0.757892840247E+00 -0.806802781184E+00
  0.257143080916E+01  0.757892840247E+00  0.806802781184E+00
  0.317281151890E+01  0.317278384090E+01 -0.404171106719E-21
  0.336585415183E+01  0.317278730096E+01 -0.275438869278E+00
  0.336585415183E+01  0.317278730096E+01  0.275438869278E+00
  0.359246613977E+01  0.000000000000E+00 -0.103882035207E+01
  0.359246613977E+01  0.000000000000E+00  0.103882035207E+01
  0.360250852208E+01  0.178896953960E+01 -0.806799765038E+00
  0.360250852208E+01  0.178896953960E+01  0.806799765038E+00
  0.392379797868E+01  0.317279063292E+01 -0.543771230965E+00
  0.392379797868E+01  0.317279063292E+01  0.543771230965E+00
  0.435036291799E+01  0.757894256497E+00 -0.103882060032E+01
  0.435036291799E+01  0.757894256497E+00  0.103882060032E+01
  0.498633335756E+01  0.317279292418E+01 -0.806795901887E+00
  0.498633335756E+01  0.317279292418E+01  0.806795901887E+00
  0.499663387714E+01  0.499659884992E+01  0.767233562374E-21
  0.518967548568E+01  0.499660333436E+01 -0.275435603163E+00
  0.518967548568E+01  0.499660333436E+01  0.275435603163E+00
  0.538144008215E+01  0.178897126619E+01 -0.103881755634E+01
  0.538144008215E+01  0.178897126619E+01  0.103881755634E+01
  0.574761823684E+01  0.499660774202E+01 -0.543766814780E+00
  0.574761823684E+01  0.499660774202E+01  0.543766814780E+00
  0.619848478202E+01  0.000000000000E+00 -0.113916311308E+01
  0.619848478202E+01  0.000000000000E+00  0.113916311308E+01
  0.676526475929E+01  0.317279504753E+01 -0.103881364884E+01
  0.676526475929E+01  0.317279504753E+01  0.103881364884E+01
  0.681015293004E+01  0.499661071895E+01 -0.806791168514E+00
  0.681015293004E+01  0.499661071895E+01  0.806791168514E+00
  0.695638163485E+01  0.757896467068E+00 -0.113916286748E+01
  0.695638163485E+01  0.757896467068E+00  0.113916286748E+01
  0.734364625996E+01  0.734360292370E+01  0.253129131239E-20
  0.753668676067E+01  0.734360851597E+01 -0.275431848466E+00
  0.753668676067E+01  0.734360851597E+01  0.275431848466E+00
  0.798745852631E+01  0.178897374946E+01 -0.113915984203E+01
  0.798745852631E+01  0.178897374946E+01  0.113915984203E+01
  0.809462827810E+01  0.734361415736E+01 -0.543761729843E+00
  0.809462827810E+01  0.734361415736E+01  0.543761729843E+00
  0.858908384675E+01  0.499661332733E+01 -0.103880884801E+01
  0.858908384675E+01  0.499661332733E+01  0.103880884801E+01
  0.915716266131E+01  0.734361792112E+01 -0.806785704165E+00
  0.915716266131E+01  0.734361792112E+01  0.806785704165E+00
  0.937128333020E+01  0.317279788089E+01 -0.113915595582E+01
  0.937128333020E+01  0.317279788089E+01  0.113915595582E+01
  0.939523530906E+01  0.000000000000E+00 -0.980737909206E+00
  0.939523530906E+01  0.000000000000E+00  0.980737909206E+00
  0.101531313870E+02  0.757898309407E+00 -0.980733032608E+00
  0.101531313870E+02  0.757898309407E+00  0.980733032608E+00
  0.102728636151E+02  0.102728116627E+02  0.417253187993E-20
  0.104659035188E+02  0.102728183288E+02 -0.275427862644E+00
  0.104659035188E+02  0.102728183288E+02  0.275427862644E+00
  0.109360930193E+02  0.734362108820E+01 -0.103880329113E+01
  0.109360930193E+02  0.734362108820E+01  0.103880329113E+01
  0.110238437286E+02  0.102728252778E+02 -0.543756326205E+00
  0.110238437286E+02  0.102728252778E+02  0.543756326205E+00
  0.111842076819E+02  0.178897571161E+01 -0.980731105567E+00
  0.111842076819E+02  0.178897571161E+01  0.980731105567E+00
  0.111951015107E+02  0.499661659084E+01 -0.113915117489E+01
  0.111951015107E+02  0.499661659084E+01  0.113915117489E+01
  0.120863763240E+02  0.102728298757E+02 -0.806779886356E+00
  0.120863763240E+02  0.102728298757E+02  0.806779886356E+00
  0.125680318446E+02  0.317280000744E+01 -0.980728481938E+00
  0.125680318446E+02  0.317280000744E+01  0.980728481938E+00
  0.125823674922E+02  0.000000000000E+00 -0.686883727897E+00
  0.125823674922E+02  0.000000000000E+00  0.686883727897E+00
  0.133402639296E+02  0.757898602230E+00 -0.686884436067E+00
  0.133402639296E+02  0.757898602230E+00  0.686884436067E+00
  0.135421101853E+02  0.734362484966E+01 -0.113914563213E+01
  0.135421101853E+02  0.734362484966E+01  0.113914563213E+01
  0.137921518055E+02  0.137920919689E+02 -0.305819812213E-20
  0.138653060883E+02  0.102728336365E+02 -0.103879736182E+01
  0.138653060883E+02  0.102728336365E+02  0.103879736182E+01
  0.139851898795E+02  0.137920995111E+02 -0.275424084126E+00
  0.139851898795E+02  0.137920995111E+02  0.275424084126E+00
  0.143713411963E+02  0.178897598626E+01 -0.686883244298E+00
  0.143713411963E+02  0.178897598626E+01  0.686883244298E+00
  0.143918507566E+02  0.499661893940E+01 -0.980724975187E+00
  0.143918507566E+02  0.499661893940E+01  0.980724975187E+00
  0.145431288509E+02  0.137921076985E+02 -0.543751200125E+00
  0.145431288509E+02  0.137921076985E+02  0.543751200125E+00
  0.151765278269E+02  0.000000000000E+00 -0.411050235820E+00
  0.151765278269E+02  0.000000000000E+00  0.411050235820E+00
  0.156056616100E+02  0.137921130863E+02 -0.806774360281E+00
  0.156056616100E+02  0.137921130863E+02  0.806774360281E+00
  0.157551653481E+02  0.317280029295E+01 -0.686881262950E+00
  0.157551653481E+02  0.317280029295E+01  0.686881262950E+00
  0.159344243424E+02  0.757898269434E+00 -0.411051145801E+00
  0.159344243424E+02  0.757898269434E+00  0.411051145801E+00
  0.164713227229E+02  0.102728379293E+02 -0.113913970867E+01
  0.164713227229E+02  0.102728379293E+02  0.113913970867E+01
  0.167388581909E+02  0.734362748494E+01 -0.980720495475E+00
  0.167388581909E+02  0.734362748494E+01  0.980720495475E+00
  0.169605812374E+02  0.000000000000E+00 -0.218330691638E+00
  0.169605812374E+02  0.000000000000E+00  0.218330691638E+00
  0.169655015617E+02  0.178897570080E+01 -0.411049600485E+00
  0.169655015617E+02  0.178897570080E+01  0.411049600485E+00
  0.173845908111E+02  0.137921174103E+02 -0.103879172063E+01
  0.173845908111E+02  0.137921174103E+02  0.103879172063E+01
  0.175789841993E+02  0.499661928585E+01 -0.686878147034E+00
  0.175789841993E+02  0.499661928585E+01  0.686878147034E+00
  0.177184776840E+02  0.757897776606E+00 -0.218330892858E+00
  0.177184776840E+02  0.757897776606E+00  0.218330892858E+00
  0.178320393168E+02  0.178319735922E+02 -0.383900062500E-20
  0.180250759304E+02  0.178319816410E+02 -0.275421080370E+00
  0.180250759304E+02  0.178319816410E+02  0.275421080370E+00
  0.180493248631E+02  0.000000000000E+00 -0.101506719246E+00
  0.180493248631E+02  0.000000000000E+00  0.101506719246E+00
  0.183493246800E+02  0.317280008732E+01 -0.411047020753E+00
  0.183493246800E+02  0.317280008732E+01  0.411047020753E+00
  0.185830139180E+02  0.178319908123E+02 -0.543747123335E+00
  0.185830139180E+02  0.178319908123E+02  0.543747123335E+00
  0.186658678547E+02  0.000000000000E+00 -0.356379922509E-01
  0.186658678547E+02  0.000000000000E+00  0.356379922509E-01
  0.187495538711E+02  0.178897528655E+01 -0.218328624660E+00
  0.187495538711E+02  0.178897528655E+01  0.218328624660E+00
  0.188072211905E+02  0.757897479919E+00 -0.101505816827E+00
  0.188072211905E+02  0.757897479919E+00  0.101505816827E+00
  0.190002927776E+02 -0.679559026093E-07 -0.637557355474E-06
  0.194237641246E+02  0.757897362016E+00 -0.356365513220E-01
  0.194237641246E+02  0.757897362016E+00  0.356365513220E-01
  0.196455460496E+02  0.178319968276E+02 -0.806769961643E+00
  0.196455460496E+02  0.178319968276E+02  0.806769961643E+00
  0.196680703900E+02  0.102728409031E+02 -0.980715254779E+00
  0.196680703900E+02  0.102728409031E+02  0.980715254779E+00
  0.197581904870E+02  0.757903601551E+00 -0.769073861966E-06
  0.198382992177E+02  0.178897505719E+01 -0.101502907251E+00
  0.198382992177E+02  0.178897505719E+01  0.101502907251E+00
  0.199259915208E+02  0.734362794401E+01 -0.686873816168E+00
  0.199259915208E+02  0.734362794401E+01  0.686873816168E+00
  0.199906059865E+02  0.137921222087E+02 -0.113913406588E+01
  0.199906059865E+02  0.137921222087E+02  0.113913406588E+01
  0.201333788058E+02  0.317279976395E+01 -0.218325212533E+00
  0.201333788058E+02  0.317279976395E+01  0.218325212533E+00
  0.201731443822E+02  0.499661918286E+01 -0.411043177483E+00
  0.201731443822E+02  0.499661918286E+01  0.411043177483E+00
  0.204548402209E+02  0.178897496273E+01 -0.356334122733E-01
  0.204548402209E+02  0.178897496273E+01  0.356334122733E-01
  0.207892645215E+02  0.178898326408E+01 -0.102167083716E-05
  0.212221221967E+02  0.317279958288E+01 -0.101499025164E+00
  0.212221221967E+02  0.317279958288E+01  0.101499025164E+00
  0.214244757565E+02  0.178320015995E+02 -0.103878722531E+01
  0.214244757565E+02  0.178320015995E+02  0.103878722531E+01
  0.218386650940E+02  0.317279950180E+01 -0.356293917706E-01
  0.218386650940E+02  0.317279950180E+01  0.356293917706E-01
  0.219571965250E+02  0.499661893525E+01 -0.218320683055E+00
[...]
POINT_DATA                 532
SCALARS phi float 1
LOOKUP_TABLE default
 -0.105503839149E-04
 -0.139624290617E+00
 -0.240015032014E+00
 -0.639326369664E+00
 -0.837517456599E+00
 -0.745213482974E+00
 -0.884829428272E+00
 -0.985220667052E+00
 -0.138453200043E+01
 -0.158272322303E+01
 -0.175902764704E+01
 -0.163613819563E+01
 -0.193019435786E+01
 -0.189864327421E+01
 -0.199903374531E+01
 -0.239834517436E+01
 -0.259653536434E+01
 -0.238134383377E+01
 -0.267540009137E+01
 -0.311968249673E+01
 -0.325929786585E+01
 -0.335968736001E+01
 -0.334299998943E+01
 -0.372161993494E+01
 -0.339515660473E+01
 -0.368921176303E+01
 -0.375899918280E+01
 -0.395718805485E+01
 -0.408820567081E+01
 -0.446682570679E+01
 -0.475580986943E+01
 -0.504986361972E+01
 -0.491296478100E+01
 -0.505257973808E+01
 -0.515296804184E+01
 -0.510201790727E+01
 -0.548063683381E+01
 -0.555228020694E+01
 -0.575046746941E+01
 -0.588709459285E+01
 -0.630228656992E+01
 -0.646267102436E+01
 -0.684128852673E+01
 -0.654909027717E+01
 -0.684314230228E+01
 -0.663230043758E+01
 -0.704749232513E+01
 -0.722067622452E+01
 -0.736029077655E+01
 -0.746067771184E+01
 -0.764611240252E+01
 -0.806130318739E+01
 -0.785999027477E+01
 -0.805817568393E+01
 -0.825595096749E+01
 -0.863456672010E+01
 -0.885680010934E+01
 -0.915085014285E+01
 -0.900676564036E+01
 -0.942195500882E+01
 -0.905918593709E+01
 -0.941663651360E+01
 -0.980439186387E+01
 -0.101618406630E+02
 -0.101008435643E+02
 -0.102404582556E+02
 -0.103408437382E+02
 -0.105636602672E+02
 -0.109422739945E+02
 -0.107401567265E+02
 -0.109383401662E+02
 -0.108182030420E+02
 -0.111756511388E+02
 -0.108000446881E+02
 -0.112152323140E+02
 -0.117369648787E+02
 -0.120310127918E+02
 -0.121788554193E+02
 -0.125363025599E+02
 -0.122464999684E+02
 -0.124968492026E+02
 -0.129917052308E+02
 -0.132420547231E+02
 -0.131077534956E+02
 -0.135229391013E+02
 -0.135612009487E+02
 -0.134438244731E+02
 -0.138224360393E+02
 -0.137008145295E+02
 -0.138011986349E+02
 -0.140055172306E+02
 -0.142558662885E+02
 -0.139721349542E+02
 -0.143295808166E+02
 -0.142005120283E+02
 -0.143986935997E+02
 -0.148474875099E+02
 -0.149973034213E+02
 -0.151973204144E+02
 -0.154913663134E+02
 -0.153661694800E+02
 -0.156165178159E+02
 -0.155926928123E+02
 -0.157425090554E+02
 -0.159879171779E+02
 -0.164031006247E+02
 -0.162798423484E+02
 -0.166372865781E+02
 -0.166367871285E+02
 -0.167163623451E+02
 -0.166065048299E+02
 -0.167563205097E+02
 -0.169041794759E+02
 -0.172827889861E+02
 -0.171594488839E+02
 -0.174097960840E+02
 -0.173819924924E+02
 -0.174615677824E+02
 -0.175334401701E+02
 -0.176730528625E+02
 -0.177734358731E+02
 -0.177285891195E+02
 -0.177655853801E+02
 -0.179671561722E+02
 -0.181169709119E+02
 -0.181727495895E+02
 -0.183709296750E+02
 -0.183468116639E+02
 -0.183598006803E+02
 -0.183958036268E+02
 -0.184753780901E+02
 -0.184737945673E+02
 -0.185107904991E+02
 -0.186821310026E+02
 -0.190920171532E+02
 -0.191050056445E+02
 -0.191695574172E+02
 -0.194636017130E+02
 -0.191600055734E+02
 -0.195174478931E+02
 -0.194273376208E+02
 -0.194876076279E+02
 -0.195246024991E+02
 -0.194671561401E+02
 -0.197175017618E+02
 -0.194482707463E+02
 -0.198634521365E+02
 -0.197564569069E+02
 -0.198360301265E+02
 -0.197604365453E+02
 -0.199102498842E+02
 -0.201058283571E+02
 -0.201188157043E+02
 -0.204411461792E+02
 -0.208482590707E+02
 -0.208852525270E+02
 -0.208764169937E+02
 -0.212550248655E+02
 -0.214664816874E+02
 -0.214794675693E+02
 -0.215497354551E+02
 -0.216293070239E+02
 -0.218017961699E+02
 -0.218616550332E+02
 -0.220012698870E+02
 -0.221016522869E+02
 -0.220681438161E+02
 -0.222179553479E+02
 -0.223473192107E+02
 -0.225976629565E+02
 -0.225009661837E+02
 -0.226991454401E+02
 -0.226415376444E+02
 -0.226785293418E+02
 -0.226203606263E+02
 -0.229778009816E+02
 -0.232597602693E+02
 -0.232727443616E+02
 -0.235950707275E+02
 -0.234205078688E+02
 -0.238356876187E+02
 -0.234977737005E+02
 -0.237918171012E+02
 -0.238574427585E+02
 -0.239370123530E+02
 -0.249492468402E+02
 -0.249862364978E+02
 -0.249483068795E+02
 -0.250981163794E+02
 -0.252046311661E+02
 -0.255832381222E+02
 -0.255674675957E+02
 -0.255804496290E+02
 -0.259027734970E+02
 -0.258076722194E+02
 -0.260580140786E+02
 -0.263179023051E+02
 -0.264575157528E+02
 -0.265578981526E+02
 -0.265925974761E+02
 -0.269500361386E+02
 -0.267376077162E+02
 -0.268171751762E+02
 -0.269572120498E+02
 -0.271553913058E+02
 -0.278294099343E+02
 -0.278663974175E+02
 -0.277487236959E+02
 -0.281639025288E+02
 -0.279540195669E+02
 -0.282480629667E+02
 -0.284476325699E+02
 -0.284606124169E+02
 -0.284086598678E+02
 -0.285584673867E+02
 -0.287829318599E+02
 -0.296608770325E+02
 -0.300394839874E+02
 -0.297799089051E+02
 -0.300302492191E+02
 -0.301979607146E+02
 -0.302775261331E+02
 -0.306461136210E+02
 -0.307857294934E+02
 -0.308861125036E+02
 -0.309208113169E+02
 -0.312782488982E+02
 -0.312897629410E+02
 -0.313267483589E+02
 -0.312854262212E+02
 -0.314836063055E+02
 -0.319079837047E+02
 -0.319209614789E+02
 -0.322432823971E+02
 -0.322049695619E+02
 -0.326201483937E+02
 -0.322822340498E+02
 -0.325762783429E+02
 -0.323808984068E+02
 -0.325307043283E+02
 -0.339890936265E+02
 -0.343677014943E+02
 -0.341701955075E+02
 -0.342497592957E+02
 -0.341081263661E+02
 -0.343584658041E+02
 -0.346183464827E+02
 -0.347579628768E+02
 -0.348583469816E+02
 -0.352619996148E+02
 -0.352989833891E+02
 -0.352576585018E+02
 -0.354558400710E+02
 -0.353770572520E+02
 -0.357344946080E+02
 -0.358802222564E+02
 -0.358931983828E+02
 -0.362155139295E+02
 -0.362544668894E+02
 -0.365485127838E+02
 -0.365331826248E+02
 -0.369483623716E+02
 -0.367091121031E+02
 -0.368589171259E+02
 -0.380786949284E+02
 -0.379613268886E+02
 -0.383399363923E+02
 -0.382183117450E+02
 -0.383186972266E+02
 -0.384984129563E+02
 -0.385779758321E+02
 -0.385643703576E+02
 -0.388147097893E+02
 -0.387180120936E+02
 -0.389161955300E+02
 -0.395902133154E+02
 -0.396271961720E+02
 -0.397148174346E+02
 -0.400088653410E+02
 -0.397052742970E+02
 -0.400627123411E+02
 -0.402084359582E+02
 -0.402214111653E+02
 -0.405437298195E+02
 -0.405054200321E+02
 -0.409206014173E+02
 -0.409588552332E+02
 -0.410984723498E+02
 -0.411988592839E+02
 -0.411653598451E+02
 -0.413151648624E+02
 -0.414216779663E+02
 -0.418002895238E+02
 -0.415981699756E+02
 -0.417963553804E+02
 -0.425949798124E+02
 -0.428890298374E+02
 -0.429546569469E+02
 -0.430342198202E+02
 -0.428925836642E+02
 -0.431429239580E+02
 -0.432665582535E+02
 -0.434061755608E+02
 -0.435065638629E+02
 -0.436775083009E+02
 -0.440349477934E+02
 -0.439058741578E+02
 -0.441040614148E+02
 -0.440464610564E+02
 -0.440834439122E+02
 -0.439657716057E+02
 -0.443809550459E+02
 -0.443018409070E+02
 -0.446804546237E+02
 -0.446646836992E+02
 -0.446776589060E+02
 -0.449999742826E+02
 -0.449026846988E+02
 -0.451967367139E+02
 -0.450598331463E+02
 -0.451994505632E+02
 -0.452998400553E+02
 -0.454935731650E+02
 -0.456433790687E+02
 -0.456991500086E+02
 -0.458973388742E+02
 -0.464204816072E+02
 -0.465600990813E+02
 -0.466604895499E+02
 -0.466095463252E+02
 -0.469881620663E+02
 -0.466959611654E+02
 -0.469900149049E+02
 -0.468648215117E+02
 -0.471151633325E+02
 -0.468459350692E+02
 -0.472611206672E+02
 -0.470598029778E+02
 -0.472579931606E+02
 -0.471378602823E+02
 -0.474953016819E+02
 -0.472828740145E+02
 -0.473624377945E+02
 -0.474342923539E+02
 -0.475739098540E+02
 -0.476743010901E+02
 -0.480736105540E+02
 -0.482718017694E+02
 -0.481794940255E+02
 -0.480566146430E+02
 -0.483506697906E+02
 -0.483191124119E+02
 -0.484195047242E+02
 -0.483746743698E+02
 -0.484116581414E+02
 -0.485253257530E+02
 -0.485963143338E+02
 -0.484028232555E+02
 -0.487814407465E+02
 -0.486401457279E+02
 -0.488188142488E+02
 -0.490170066322E+02
 -0.489928970111E+02
 -0.490058731367E+02
 -0.490704226209E+02
 -0.493644788690E+02
 -0.492259203933E+02
 -0.493660641384E+02
 -0.493281937496E+02
 -0.491536409790E+02
 -0.495688285969E+02
 -0.494525962237E+02
 -0.494658072831E+02
 -0.496156147675E+02
 -0.497634733635E+02
 -0.501420922798E+02
 -0.498156270554E+02
 -0.501096842552E+02
 -0.500180241678E+02
 -0.503754675897E+02
 -0.503251736501E+02
 -0.505755173322E+02
 -0.504196477576E+02
 -0.506275780450E+02
 -0.507559684950E+02
 -0.507772853921E+02
 -0.511559054199E+02
 -0.509469183357E+02
 -0.513621076967E+02
 -0.512551081257E+02
 -0.513346735289E+02
 -0.515224902562E+02
 -0.519011110059E+02
 -0.523469122254E+02
 -0.523838976383E+02
 -0.523002105806E+02
 -0.525679361662E+02
 -0.523257304869E+02
 -0.526831757559E+02
 -0.523075687921E+02
 -0.527227595707E+02
 -0.527332500659E+02
 -0.529651348638E+02
 -0.529781126367E+02
 -0.529261594411E+02
 -0.530759688819E+02
 -0.533004316954E+02
 -0.532053377316E+02
 -0.534556832606E+02
 -0.533213810929E+02
 -0.537365729757E+02
 -0.540665861719E+02
 -0.544817786832E+02
 -0.541190082261E+02
 -0.544764549942E+02
 -0.547154602708E+02
 -0.547950277046E+02
 -0.549194314548E+02
 -0.552130170571E+02
 -0.553942975832E+02
 -0.555130442582E+02
 -0.557633913505E+02
 -0.554796590248E+02
 -0.558371069107E+02
 -0.558072643606E+02
 -0.558442518356E+02
 -0.558063235308E+02
 -0.559561349671E+02
 -0.564254869950E+02
 -0.564384668397E+02
 -0.564934716144E+02
 -0.568509202997E+02
 -0.567607884261E+02
 -0.572386768675E+02
 -0.575961259511E+02
 -0.573063221926E+02
 -0.575566704385E+02
 -0.575956243376E+02
 -0.576751938885E+02
 -0.579729160554E+02
 -0.582256698538E+02
 -0.581140300485E+02
 -0.582638432488E+02
 -0.583817407767E+02
 -0.586874246622E+02
 -0.587244143064E+02
 -0.586669731608E+02
 -0.589173221644E+02
 -0.593056472910E+02
 -0.593186293207E+02
 -0.596409571781E+02
 -0.596807858901E+02
 -0.599311353554E+02
 -0.599033308195E+02
 -0.599829023164E+02
 -0.599073079598E+02
 -0.600571225402E+02
 -0.604259911731E+02
 -0.606763410407E+02
 -0.609951348737E+02
 -0.610321265495E+02
 -0.609402384393E+02
 -0.611172624230E+02
 -0.612265686845E+02
 -0.612679626502E+02
 -0.614177782007E+02
 -0.616133574953E+02
 -0.616263415819E+02
 -0.616966086842E+02
 -0.617761817922E+02
 -0.619486679711E+02
 -0.622817716057E+02
 -0.624315877736E+02
 -0.627884127077E+02
 -0.628254061281E+02
 -0.630572595746E+02
 -0.631368338937E+02
 -0.630269768634E+02
 -0.631767936001E+02
 -0.633347219582E+02
 -0.634406584510E+02
 -0.634066353187E+02
 -0.634196211917E+02
 -0.635060736995E+02
 -0.637419532628E+02
 -0.640710759866E+02
 -0.641506511424E+02
 -0.641490635580E+02
 -0.641860583699E+02
 -0.647672824023E+02
 -0.647802697351E+02
 -0.648162811991E+02
 -0.648958571436E+02
 -0.649797379666E+02
 -0.650360069252E+02
 -0.650707513050E+02
 -0.651026033619E+02
 -0.651628724261E+02
 -0.651998682684E+02
 -0.657810987491E+02
 -0.657940872163E+02
 -0.659080775843E+02
 -0.659450744661E+02
 -0.659840785239E+02
 -0.660102397854E+02
 -0.660263931248E+02
 -0.661164145515E+02
 -0.665263038441E+02
 -0.665392936436E+02
 -0.665529914633E+02
 -0.665621774431E+02
 -0.665678467746E+02
 -0.668616249445E+02
 -0.186821313437E+02
 -0.194273381190E+02
 -0.204411468411E+02
 -0.218017970380E+02
 -0.235950718438E+02
 -0.259027748940E+02
 -0.287829335478E+02
 -0.322432843512E+02
 -0.362155160824E+02
 -0.405437320655E+02
 -0.449999764964E+02
 -0.493281958130E+02
 -0.533004335207E+02
 -0.567607899681E+02
 -0.596409584313E+02
 -0.619486689584E+02
 -0.637419540227E+02
 -0.651026039376E+02
 -0.661164149839E+02
SCALARS phi_mu float 1
LOOKUP_TABLE default
 -0.105503839149E-04
 -0.139624290617E+00
 -0.240015032014E+00
 -0.639326369664E+00
 -0.837517456599E+00
 -0.745213482974E+00
 -0.884829428272E+00
 -0.985220667052E+00
 -0.138453200043E+01
 -0.158272322303E+01
 -0.175902764704E+01
 -0.163613819563E+01
 -0.193019435786E+01
 -0.189864327421E+01
 -0.199903374531E+01
 -0.239834517436E+01
 -0.259653536434E+01
 -0.238134383377E+01
 -0.267540009137E+01
 -0.311968249673E+01
 -0.325929786585E+01
 -0.335968736001E+01
 -0.334299998943E+01
 -0.372161993494E+01
 -0.339515660473E+01
 -0.368921176303E+01
 -0.375899918280E+01
 -0.395718805485E+01
 -0.408820567081E+01
 -0.446682570679E+01
 -0.475580986943E+01
 -0.504986361972E+01
 -0.491296478100E+01
 -0.505257973808E+01
 -0.515296804184E+01
 -0.510201790727E+01
 -0.548063683381E+01
 -0.555228020694E+01
 -0.575046746941E+01
 -0.588709459285E+01
 -0.630228656992E+01
 -0.646267102436E+01
 -0.684128852673E+01
 -0.654909027717E+01
 -0.684314230228E+01
 -0.663230043758E+01
 -0.704749232513E+01
 -0.722067622452E+01
 -0.736029077655E+01
 -0.746067771184E+01
 -0.764611240252E+01
 -0.806130318739E+01
 -0.785999027477E+01
 -0.805817568393E+01
 -0.825595096749E+01
 -0.863456672010E+01
 -0.885680010934E+01
 -0.915085014285E+01
 -0.900676564036E+01
 -0.942195500882E+01
 -0.905918593709E+01
 -0.941663651360E+01
 -0.980439186387E+01
 -0.101618406630E+02
 -0.101008435643E+02
 -0.102404582556E+02
 -0.103408437382E+02
 -0.105636602672E+02
 -0.109422739945E+02
 -0.107401567265E+02
 -0.109383401662E+02
 -0.108182030420E+02
 -0.111756511388E+02
 -0.108000446881E+02
 -0.112152323140E+02
 -0.117369648787E+02
 -0.120310127918E+02
 -0.121788554193E+02
 -0.125363025599E+02
 -0.122464999684E+02
 -0.124968492026E+02
 -0.129917052308E+02
 -0.132420547231E+02
 -0.131077534956E+02
 -0.135229391013E+02
 -0.135612009487E+02
 -0.134438244731E+02
 -0.138224360393E+02
 -0.137008145295E+02
 -0.138011986349E+02
 -0.140055172306E+02
 -0.142558662885E+02
 -0.139721349542E+02
 -0.143295808166E+02
 -0.142005120283E+02
 -0.143986935997E+02
 -0.148474875099E+02
 -0.149973034213E+02
 -0.151973204144E+02
 -0.154913663134E+02
 -0.153661694800E+02
 -0.156165178159E+02
 -0.155926928123E+02
 -0.157425090554E+02
 -0.159879171779E+02
 -0.164031006247E+02
 -0.162798423484E+02
 -0.166372865781E+02
 -0.166367871285E+02
 -0.167163623451E+02
 -0.166065048299E+02
 -0.167563205097E+02
 -0.169041794759E+02
 -0.172827889861E+02
 -0.171594488839E+02
 -0.174097960840E+02
 -0.173819924924E+02
 -0.174615677824E+02
 -0.175334401701E+02
 -0.176730528625E+02
 -0.177734358731E+02
 -0.177285891195E+02
 -0.177655853801E+02
 -0.179671561722E+02
 -0.181169709119E+02
 -0.181727495895E+02
 -0.183709296750E+02
 -0.183468116639E+02
 -0.183598006803E+02
 -0.183958036268E+02
 -0.184753780901E+02
 -0.184737945673E+02
 -0.185107904991E+02
 -0.186821310026E+02
 -0.190920171532E+02
 -0.191050056445E+02
 -0.191695574172E+02
 -0.194636017130E+02
 -0.191600055734E+02
 -0.195174478931E+02
 -0.194273376208E+02
 -0.194876076279E+02
 -0.195246024991E+02
 -0.194671561401E+02
 -0.197175017618E+02
 -0.194482707463E+02
 -0.198634521365E+02
 -0.197564569069E+02
 -0.198360301265E+02
 -0.197604365453E+02
 -0.199102498842E+02
 -0.201058283571E+02
 -0.201188157043E+02
 -0.204411461792E+02
 -0.208482590707E+02
 -0.208852525270E+02
 -0.208764169937E+02
 -0.212550248655E+02
 -0.214664816874E+02
 -0.214794675693E+02
 -0.215497354551E+02
 -0.216293070239E+02
 -0.218017961699E+02
 -0.218616550332E+02
 -0.220012698870E+02
 -0.221016522869E+02
 -0.220681438161E+02
 -0.222179553479E+02
 -0.223473192107E+02
 -0.225976629565E+02
 -0.225009661837E+02
 -0.226991454401E+02
 -0.226415376444E+02
 -0.226785293418E+02
 -0.226203606263E+02
 -0.229778009816E+02
 -0.232597602693E+02
 -0.232727443616E+02
 -0.235950707275E+02
 -0.234205078688E+02
 -0.238356876187E+02
 -0.234977737005E+02
 -0.237918171012E+02
 -0.238574427585E+02
 -0.239370123530E+02
 -0.249492468402E+02
 -0.249862364978E+02
 -0.249483068795E+02
 -0.250981163794E+02
 -0.252046311661E+02
 -0.255832381222E+02
 -0.255674675957E+02
 -0.255804496290E+02
 -0.259027734970E+02
 -0.258076722194E+02
 -0.260580140786E+02
 -0.263179023051E+02
 -0.264575157528E+02
 -0.265578981526E+02
 -0.265925974761E+02
 -0.269500361386E+02
 -0.267376077162E+02
 -0.268171751762E+02
 -0.269572120498E+02
 -0.271553913058E+02
 -0.278294099343E+02
 -0.278663974175E+02
 -0.277487236959E+02
 -0.281639025288E+02
 -0.279540195669E+02
 -0.282480629667E+02
 -0.284476325699E+02
 -0.284606124169E+02
 -0.284086598678E+02
 -0.285584673867E+02
 -0.287829318599E+02
 -0.296608770325E+02
 -0.300394839874E+02
 -0.297799089051E+02
 -0.300302492191E+02
 -0.301979607146E+02
 -0.302775261331E+02
 -0.306461136210E+02
 -0.307857294934E+02
 -0.308861125036E+02
 -0.309208113169E+02
 -0.312782488982E+02
 -0.312897629410E+02
 -0.313267483589E+02
 -0.312854262212E+02
 -0.314836063055E+02
 -0.319079837047E+02
 -0.319209614789E+02
 -0.322432823971E+02
 -0.322049695619E+02
 -0.326201483937E+02
 -0.322822340498E+02
 -0.325762783429E+02
 -0.323808984068E+02
 -0.325307043283E+02
 -0.339890936265E+02
 -0.343677014943E+02
 -0.341701955075E+02
 -0.342497592957E+02
 -0.341081263661E+02
 -0.343584658041E+02
 -0.346183464827E+02
 -0.347579628768E+02
 -0.348583469816E+02
 -0.352619996148E+02
 -0.352989833891E+02
 -0.352576585018E+02
 -0.354558400710E+02
 -0.353770572520E+02
 -0.357344946080E+02
 -0.358802222564E+02
 -0.358931983828E+02
 -0.362155139295E+02
 -0.362544668894E+02
 -0.365485127838E+02
 -0.365331826248E+02
 -0.369483623716E+02
 -0.367091121031E+02
 -0.368589171259E+02
 -0.380786949284E+02
 -0.379613268886E+02
 -0.383399363923E+02
 -0.382183117450E+02
 -0.383186972266E+02
 -0.384984129563E+02
 -0.385779758321E+02
 -0.385643703576E+02
 -0.388147097893E+02
 -0.387180120936E+02
 -0.389161955300E+02
 -0.395902133154E+02
 -0.396271961720E+02
 -0.397148174346E+02
 -0.400088653410E+02
 -0.397052742970E+02
 -0.400627123411E+02
 -0.402084359582E+02
 -0.402214111653E+02
 -0.405437298195E+02
 -0.405054200321E+02
 -0.409206014173E+02
 -0.409588552332E+02
 -0.410984723498E+02
 -0.411988592839E+02
 -0.411653598451E+02
 -0.413151648624E+02
 -0.414216779663E+02
 -0.418002895238E+02
 -0.415981699756E+02
 -0.417963553804E+02
 -0.425949798124E+02
 -0.428890298374E+02
 -0.429546569469E+02
 -0.430342198202E+02
 -0.428925836642E+02
 -0.431429239580E+02
 -0.432665582535E+02
 -0.434061755608E+02
 -0.435065638629E+02
 -0.436775083009E+02
 -0.440349477934E+02
 -0.439058741578E+02
 -0.441040614148E+02
 -0.440464610564E+02
 -0.440834439122E+02
 -0.439657716057E+02
 -0.443809550459E+02
 -0.443018409070E+02
 -0.446804546237E+02
 -0.446646836992E+02
 -0.446776589060E+02
 -0.449999742826E+02
 -0.449026846988E+02
 -0.451967367139E+02
 -0.450598331463E+02
 -0.451994505632E+02
 -0.452998400553E+02
 -0.454935731650E+02
 -0.456433790687E+02
 -0.456991500086E+02
 -0.458973388742E+02
 -0.464204816072E+02
 -0.465600990813E+02
 -0.466604895499E+02
 -0.466095463252E+02
 -0.469881620663E+02
 -0.466959611654E+02
 -0.469900149049E+02
 -0.468648215117E+02
 -0.471151633325E+02
 -0.468459350692E+02
 -0.472611206672E+02
 -0.470598029778E+02
 -0.472579931606E+02
 -0.471378602823E+02
 -0.474953016819E+02
 -0.472828740145E+02
 -0.473624377945E+02
 -0.474342923539E+02
 -0.475739098540E+02
 -0.476743010901E+02
 -0.480736105540E+02
 -0.482718017694E+02
 -0.481794940255E+02
 -0.480566146430E+02
 -0.483506697906E+02
 -0.483191124119E+02
 -0.484195047242E+02
 -0.483746743698E+02
 -0.484116581414E+02
 -0.485253257530E+02
 -0.485963143338E+02
 -0.484028232555E+02
 -0.487814407465E+02
 -0.486401457279E+02
 -0.488188142488E+02
 -0.490170066322E+02
 -0.489928970111E+02
 -0.490058731367E+02
 -0.490704226209E+02
 -0.493644788690E+02
 -0.492259203933E+02
 -0.493660641384E+02
 -0.493281937496E+02
 -0.491536409790E+02
 -0.495688285969E+02
 -0.494525962237E+02
 -0.494658072831E+02
 -0.496156147675E+02
 -0.497634733635E+02
 -0.501420922798E+02
 -0.498156270554E+02
 -0.501096842552E+02
 -0.500180241678E+02
 -0.503754675897E+02
 -0.503251736501E+02
 -0.505755173322E+02
 -0.504196477576E+02
 -0.506275780450E+02
 -0.507559684950E+02
 -0.507772853921E+02
 -0.511559054199E+02
 -0.509469183357E+02
 -0.513621076967E+02
 -0.512551081257E+02
 -0.513346735289E+02
 -0.515224902562E+02
 -0.519011110059E+02
 -0.523469122254E+02
 -0.523838976383E+02
 -0.523002105806E+02
 -0.525679361662E+02
 -0.523257304869E+02
 -0.526831757559E+02
 -0.523075687921E+02
 -0.527227595707E+02
 -0.527332500659E+02
 -0.529651348638E+02
 -0.529781126367E+02
 -0.529261594411E+02
 -0.530759688819E+02
 -0.533004316954E+02
 -0.532053377316E+02
 -0.534556832606E+02
 -0.533213810929E+02
 -0.537365729757E+02
 -0.540665861719E+02
 -0.544817786832E+02
 -0.541190082261E+02