# vtk DataFile Version 3.0
TriPan results file. Generated by TriPan, USU AeroLab (c) 2021.
ASCII
DATASET POLYDATA
POINTS                 144 float
      0.000000000000      0.000000000000      0.000000000000
      0.750993072987      0.000000000000     -0.543790996075
      0.750993072987      0.000000000000      0.543790996075
      1.923753738400      1.923753738400      0.000000000000
      2.674746751790      1.923753738400     -0.543790996075
      2.674746751790      1.923753738400      0.543790996075
      3.592464447020      0.000000000000     -1.038844943050
      3.592464447020      0.000000000000      1.038844943050
      5.470331668850      5.470331668850      0.000000000000
      5.516218185420      1.923753738400     -1.038844943050
      5.516218185420      1.923753738400      1.038844943050
      6.221324920650      5.470331668850     -0.543790996075
      6.221324920650      5.470331668850      0.543790996075
      9.062796592710      5.470331668850     -1.038844943050
      9.062796592710      5.470331668850      1.038844943050
      9.395236968990      0.000000000000     -0.980761349201
      9.395236968990      0.000000000000      0.980761349201
     11.318990707400      1.923753738400     -0.980761349201
     11.318990707400      1.923753738400      0.980761349201
     11.382001876800     11.382001876800      0.000000000000
     12.132995605500     11.382001876800     -0.543790996075
     12.132995605500     11.382001876800      0.543790996075
     14.865568161000      5.470331668850     -0.980761349201
     14.865568161000      5.470331668850      0.980761349201
     14.974466323900     11.382001876800     -1.038844943050
     14.974466323900     11.382001876800      1.038844943050
     15.176529884300      0.000000000000     -0.411069482565
     15.176529884300      0.000000000000      0.411069482565
     17.100284576400      1.923753738400     -0.411069482565
     17.100284576400      1.923753738400      0.411069482565
     18.049325943000      0.000000000000     -0.101516798139
     18.049325943000      0.000000000000      0.101516798139
     19.000301361100      0.000000000000      0.000000000000
     19.756195068400     19.756195068400      0.000000000000
     19.973079681400      1.923753738400     -0.101516798139
     19.973079681400      1.923753738400      0.101516798139
     20.507186889600     19.756195068400     -0.543790996075
     20.507186889600     19.756195068400      0.543790996075
     20.646862030000      5.470331668850     -0.411069482565
     20.646862030000      5.470331668850      0.411069482565
     20.777238845800     11.382001876800     -0.980761349201
     20.777238845800     11.382001876800      0.980761349201
     20.924055099500      1.923753738400      0.000000000000
     23.348659515400     19.756195068400     -1.038844943050
     23.348659515400     19.756195068400      1.038844943050
     23.519659042400      5.470331668850     -0.101516798139
     23.519659042400      5.470331668850      0.101516798139
     24.470632553100      5.470331668850      0.000000000000
     26.558532714800     11.382001876800     -0.411069482565
     26.558532714800     11.382001876800      0.411069482565
     29.151432037400     19.756195068400     -0.980761349201
     29.151432037400     19.756195068400      0.980761349201
     29.243804931600     29.243804931600      0.000000000000
     29.431327819800     11.382001876800     -0.101516798139
     29.431327819800     11.382001876800      0.101516798139
     29.994798660300     29.243804931600     -0.543790996075
     29.994798660300     29.243804931600      0.543790996075
     30.382303237900     11.382001876800      0.000000000000
     32.836269378700     29.243804931600     -1.038844943050
     32.836269378700     29.243804931600      1.038844943050
     34.932723999000     19.756195068400     -0.411069482565
     34.932723999000     19.756195068400      0.411069482565
     37.617996215800     37.617996215800      0.000000000000
     37.805519104000     19.756195068400     -0.101516798139
     37.805519104000     19.756195068400      0.101516798139
     38.368991851800     37.617996215800     -0.543790996075
     38.368991851800     37.617996215800      0.543790996075
     38.639041900600     29.243804931600     -0.980761349201
     38.639041900600     29.243804931600      0.980761349201
     38.756496429400     19.756195068400      0.000000000000
     41.210460662800     37.617996215800     -1.038844943050
     41.210460662800     37.617996215800      1.038844943050
     43.529666900600     43.529666900600      0.000000000000
     44.280662536600     43.529666900600     -0.543790996075
     44.280662536600     43.529666900600      0.543790996075
     44.420333862300     29.243804931600     -0.411069482565
     44.420333862300     29.243804931600      0.411069482565
     47.013233184800     37.617996215800     -0.980761349201
     47.013233184800     37.617996215800      0.980761349201
     47.076248168900     47.076248168900      0.000000000000
     47.122131347700     43.529666900600     -1.038844943050
     47.122131347700     43.529666900600      1.038844943050
     47.293132782000     29.243804931600     -0.101516798139
     47.293132782000     29.243804931600      0.101516798139
     47.827239990200     47.076248168900     -0.543790996075
     47.827239990200     47.076248168900      0.543790996075
     48.244106292700     29.243804931600      0.000000000000
     49.000000000000     49.000000000000      0.000000000000
     49.750991821300     49.000000000000     -0.543790996075
     49.750991821300     49.000000000000      0.543790996075
     50.135513305700     49.384517669700     -0.384518325329
     50.135513305700     49.384517669700      0.384518325329
     50.294784545900     49.543792724600     -0.000000000000
     50.668708801300     47.076248168900     -1.038844943050
     50.668708801300     47.076248168900      1.038844943050
     52.592464447000     49.000000000000     -1.038844943050
     52.592464447000     49.000000000000      1.038844943050
     52.794528961200     37.617996215800     -0.411069482565
     52.794528961200     37.617996215800      0.411069482565
     52.924903869600     43.529666900600     -0.980761349201
     52.924903869600     43.529666900600      0.980761349201
     53.327037811300     49.734573364300     -0.734574317932
     53.327037811300     49.734573364300      0.734574317932
     53.631309509300     50.038845062300     -0.000000000000
     55.667324066200     37.617996215800     -0.101516798139
     55.667324066200     37.617996215800      0.101516798139
     56.471481323200     47.076248168900     -0.980761349201
     56.471481323200     47.076248168900      0.980761349201
     56.618297576900     37.617996215800      0.000000000000
     58.395236969000     49.000000000000     -0.980761349201
     58.395236969000     49.000000000000      0.980761349201
     58.706199646000     43.529666900600     -0.411069482565
     58.706199646000     43.529666900600      0.411069482565
     59.088741302500     49.693504333500     -0.693503022194
     59.088741302500     49.693504333500      0.693503022194
     59.375999450700     49.980762481700      0.000000000000
     61.578994751000     43.529666900600     -0.101516798139
     61.578994751000     43.529666900600      0.101516798139
     62.252777099600     47.076248168900     -0.411069482565
     62.252777099600     47.076248168900      0.411069482565
     62.529968261700     43.529666900600      0.000000000000
     64.176528930700     49.000000000000     -0.411069482565
     64.176528930700     49.000000000000      0.411069482565
     64.467201232900     49.290668487500     -0.290670007467
     64.467201232900     49.290668487500      0.290670007467
     64.587600708000     49.411067962600      0.000000000000
     65.125572204600     47.076248168900     -0.101516798139
     65.125572204600     47.076248168900      0.101516798139
     66.076545715300     47.076248168900      0.000000000000
     67.049324035600     49.000000000000     -0.101516798139
     67.049324035600     49.000000000000      0.101516798139
     67.121109008800     49.071784973100     -0.071783214807
     67.121109008800     49.071784973100      0.071783214807
     67.150840759300     49.101516723600     -0.000000000000
     68.000297546400     49.000000000000      0.000000000000
     20.924055099500      1.923753738400      0.000000000000
     19.000301361100      0.000000000000      0.000000000000
     24.470632553100      5.470331668850      0.000000000000
     30.382303237900     11.382001876800      0.000000000000
     38.756496429400     19.756195068400      0.000000000000
     48.244106292700     29.243804931600      0.000000000000
     56.618297576900     37.617996215800      0.000000000000
     62.529968261700     43.529666900600      0.000000000000
     66.076545715300     47.076248168900      0.000000000000
POLYGONS                 256                1024
3                  32                  34                  42
3                  32                  30                  34
3                  30                  28                  34
3                  30                  26                  28
3                  26                  17                  28
3                  26                  15                  17
3                  15                   6                  17
3                  17                   6                   9
3                   6                   1                   9
3                   9                   1                   4
3                   1                   0                   4
3                   4                   0                   3
3                   0                   5                   3
3                   0                   2                   5
3                   2                  10                   5
3                   2                   7                  10
[...]
CELL_DATA                 256
SCALARS sigma float 1
LOOKUP_TABLE default
      0.000000000000
      0.000000000000
      0.000000000000
      0.000000000000
      0.000000000000
      0.000000000000
      0.000000000000
      0.000000000000
      0.000000000000
      0.000000000000
      0.000000000000
      0.000000000000
      0.000000000000
      0.000000000000
      0.000000000000
      0.000000000000
      0.000000000000
      0.000000000000
      0.000000000000
      0.000000000000
      0.000000000000
      0.000000000000
      0.000000000000
      0.000000000000
      0.000000000000
      0.000000000000
      0.000000000000
      0.000000000000
      0.000000000000
      0.000000000000
      0.000000000000
      0.000000000000
      0.000000000000
      0.000000000000
      0.000000000000
      0.000000000000
      0.000000000000
      0.000000000000
      0.000000000000
      0.000000000000
      0.000000000000
      0.000000000000
      0.000000000000
      0.000000000000
      0.000000000000
      0.000000000000
      0.000000000000
      0.000000000000
      0.000000000000
      0.000000000000
      0.000000000000
      0.000000000000
      0.000000000000
      0.000000000000
      0.000000000000
      0.000000000000
      0.000000000000
      0.000000000000
      0.000000000000
      0.000000000000
      0.000000000000
      0.000000000000
      0.000000000000
      0.000000000000
      0.000000000000
      0.000000000000
      0.000000000000
      0.000000000000
      0.000000000000
      0.000000000000
      0.000000000000
      0.000000000000
      0.000000000000
      0.000000000000
      0.000000000000
      0.000000000000
      0.000000000000
      0.000000000000
      0.000000000000
      0.000000000000
      0.000000000000
      0.000000000000
      0.000000000000
      0.000000000000
      0.000000000000
      0.000000000000
      0.000000000000
      0.000000000000
      0.000000000000
      0.000000000000
      0.000000000000
      0.000000000000
      0.000000000000
      0.000000000000
      0.000000000000
      0.000000000000
      0.000000000000
      0.000000000000
      0.000000000000
      0.000000000000
      0.000000000000
      0.000000000000
      0.000000000000
      0.000000000000
      0.000000000000
      0.000000000000
      0.000000000000
      0.000000000000
      0.000000000000
      0.000000000000
      0.000000000000
      0.000000000000
      0.000000000000
      0.000000000000
      0.000000000000
      0.000000000000
      0.000000000000
      0.000000000000
      0.000000000000
      0.000000000000
      0.000000000000
      0.000000000000
      0.000000000000
      0.000000000000
      0.000000000000
      0.000000000000
      0.000000000000
      0.000000000000
      0.000000000000
      0.000000000000
      0.000000000000
      0.000000000000
      0.000000000000
      0.000000000000
      0.000000000000
      0.000000000000
      0.000000000000
      0.000000000000
      0.000000000000
      0.000000000000
      0.000000000000
      0.000000000000
      0.000000000000
      0.000000000000
      0.000000000000
      0.000000000000
      0.000000000000
      0.000000000000
      0.000000000000
      0.000000000000
      0.000000000000
      0.000000000000
      0.000000000000
      0.000000000000
      0.000000000000
      0.000000000000
      0.000000000000
      0.000000000000
      0.000000000000
      0.000000000000
      0.000000000000
      0.000000000000
      0.000000000000
      0.000000000000
      0.000000000000
      0.000000000000
      0.000000000000
      0.000000000000
      0.000000000000
      0.000000000000
      0.000000000000
      0.000000000000
      0.000000000000
      0.000000000000
      0.000000000000
      0.000000000000
      0.000000000000
      0.000000000000
      0.000000000000
      0.000000000000
      0.000000000000
      0.000000000000
      0.000000000000
      0.000000000000
      0.000000000000
      0.000000000000
      0.000000000000
      0.000000000000
      0.000000000000
      0.000000000000
      0.000000000000
      0.000000000000
      0.000000000000
      0.000000000000
      0.000000000000
      0.000000000000
      0.000000000000
      0.000000000000
      0.000000000000
      0.000000000000
      0.000000000000
      0.000000000000
      0.000000000000
      0.000000000000
      0.000000000000
      0.000000000000
      0.000000000000
      0.000000000000
      0.000000000000
      0.000000000000
      0.000000000000
      0.000000000000
      0.000000000000
      0.000000000000
      0.000000000000
      0.000000000000
      0.000000000000
      0.000000000000
      0.000000000000
      0.000000000000
      0.000000000000
      0.000000000000
      0.000000000000
      0.000000000000
      0.000000000000
      0.000000000000
      0.000000000000
      0.000000000000
      0.000000000000
      0.000000000000
      0.000000000000
      0.000000000000
      0.000000000000
      0.000000000000
      0.000000000000
      0.000000000000
      0.000000000000
      0.000000000000
      0.000000000000
      0.000000000000
      0.000000000000
      0.000000000000
      0.000000000000
      0.000000000000
      0.000000000000
      0.000000000000
      0.000000000000
      0.000000000000
      0.000000000000
      0.000000000000
      0.000000000000
      0.000000000000
      0.000000000000
      0.000000000000
      0.000000000000
      0.000000000000
SCALARS C_p float 1
LOOKUP_TABLE default
      0.211152399696
      0.459105726640
      0.178252817720
      0.163585574124
      0.093355812797
      0.076549202241
      0.137940646287
      0.112969351953
      0.371046859375
      0.322201297032
      0.634890882191
      0.602541205016
     -0.818781096177
     -0.032071667928
     -0.793969931184
     -0.515449131610
     -0.525714184849
     -0.527402869781
     -0.379908219425
     -0.319382438934
     -0.216600332337
     -0.127130070367
     -0.493436735165
      0.064549862372
      0.163339585041
      0.218430936502
      0.126671174943
      0.175735734203
      0.092180092730
      0.093556005781
      0.113375353977
      0.109889013145
      0.304796086093
      0.319177602091
      0.515654059909
      0.435740216364
     -1.254879887057
     -0.790019449701
     -0.986874603003
     -0.780438712544
     -0.555505201882
     -0.546424628333
     -0.320605833931
     -0.255388385104
     -0.126950176508
     -0.024933543580
      0.066987810861
      0.133255203141
      0.156858435688
      0.164437052888
      0.109951469841
      0.126940355570
      0.078296348790
      0.091872214562
      0.109381100173
      0.116234910415
      0.316043046114
      0.339161278479
      0.441835893905
      0.362992062993
     -1.563857056922
     -1.248050264638
     -1.108090932824
     -0.988467270908
     -0.561559491008
     -0.575549422071
     -0.256771037057
     -0.213782681202
     -0.024618566655
      0.003274595476
      0.131313078269
      0.138901295296
      0.148243433448
      0.156079281397
      0.099949503158
      0.109570279745
      0.069129243518
      0.078051639999
      0.115598724847
      0.115989989426
      0.339827637573
      0.353223315132
      0.375803500375
      0.328086192502
     -1.713427443467
     -1.563932057286
     -1.158349504148
     -1.116116999361
     -0.563551637995
     -0.574278257124
     -0.214791273694
     -0.198666057379
      0.003270478524
      0.016780201461
      0.139630457671
      0.150559613404
      0.135744242750
      0.146439406476
      0.083547284679
      0.099018740033
      0.054092328404
      0.068757913147
      0.115064979412
      0.105527918403
      0.352270738515
      0.351283884494
      0.332005324508
      0.325179676241
     -1.732844716117
     -1.714266369922
     -1.157233656750
     -1.163687067384
     -0.550354574904
     -0.570418989902
     -0.200062371933
     -0.179251442738
      0.016714110644
      0.039704404027
      0.152318324578
      0.171955995424
      0.116830853336
      0.131283184461
      0.055096674042
      0.081172868743
      0.021501022113
      0.053285896439
      0.103419388391
      0.075663547582
      0.347068770666
      0.331267597597
      0.320247374808
      0.349638445250
     -1.644588717409
     -1.733821535856
     -1.105560264007
     -1.163290695047
     -0.507619657492
     -0.559234643904
     -0.181023989387
     -0.132517532748
      0.039276245700
      0.097564315666
      0.175222793019
      0.230607070914
      0.212562063014
      0.104533429562
      0.037619331575
      0.046791822627
     -0.032800928815
      0.018572723623
      0.069246997802
      0.013962841134
      0.319714181081
      0.286070199507
      0.331624893469
      0.389736949241
     -1.478933614127
     -1.645726453580
     -1.013145440273
     -1.115347631785
     -0.433417640229
     -0.524420620104
     -0.134204921682
     -0.053273259514
      0.096189885783
      0.215949348852
      0.235406816690
      0.447468438570
    -21.397033102269
     -0.332622093596
      0.176264744754
     -0.110950575948
     -0.382159142944
     -0.046099648866
     -0.007688289127
     -0.069881659945
      0.253423204973
      0.196717009940
      0.342200764029
      0.427303824113
     -1.266139897336
     -1.479545793089
     -0.887806399870
     -1.030436580703
     -0.333847566978
     -0.469140740763
     -0.055103484336
     -0.194565994136
      0.198392579017
      0.198224033717
     -0.682488358452
    -20.740131792094
********************
 -30156.028077584069
 -17669.569906761310
      0.638667408241
     -0.501941678090
     -0.375212186447
     -0.171710159735
     -0.178635631506
      0.092063056746
      0.070168523833
      0.231271940481
      0.426870772475
     -0.945341961696
     -1.263217068627
     -0.601877882307
     -0.965350604684
     -0.298755768828
     -0.410974325642
     -0.264395768576
     -2.144264594472
      0.028514104162
 -17527.900985336171
 -29932.156775569711
********************
********************
-763313.462185439770
 -30167.134564261385
    -68.075789625222
     -0.789820412259
     -0.621631866878
     -0.403532842294
     -0.264604277211
     -0.304773108633
     -0.209834731145
     -0.943935129029
     -0.553953171722
     -0.801268895751
     -0.494552108203
     -0.533216514344
      0.842132556265
    -98.913258646976
 -30508.173472427996
-759044.853860534611
********************
********************
********************
 -31592.572385007337
    -84.667674181155
     -1.037914646071
     -0.976778147226
     -0.713444061572
     -0.592422521866
     -0.672347930018
     -0.546936840310
     -0.801966176164
     -0.753628278883
     -0.747280142254
     -0.754215868851
     -0.784122150245
      0.880068848596
   -133.254901826439
 -31910.760454221061
********************
********************
VECTORS v float
    142.551914574548     21.712756910583     12.899601969070
    114.082140224479     35.868854366375      8.349282432672
    146.912998026323      3.037996564531     15.502982738580
    148.211247399348      3.689669083815     15.572648056013
    154.412452776868     -2.511539367949     15.463376320245
    155.885382035521      0.400019502850     15.321615374519
    151.249983625417      5.035417912978      1.463553399258
    153.460853859058     -3.847630123693      1.574599393315
    125.810275405734     23.802948329631    -17.772176186917
    132.228228383657      6.857920869044    -21.842579495676
     66.923969907998     72.162177321607      3.792962829992
     62.864515538410     80.303665424741     12.627617725206
    167.982773847587    -24.814592884436    139.603791548722
    141.269412925989     28.760710717246     81.467089280025
    210.131401166993    -40.101275390447     43.596663373317
    197.385870802100     -6.449835084406     35.513175200609
    201.070920107127    -10.134884389432     -2.114091517540
    201.163356098935    -10.506282648390     -2.118734325810
    190.553326112448      0.103747338153    -18.767008975561
    186.032033183215     -8.833551217717    -19.202161926167
    178.729496395279     -1.531010809552    -19.423628756108
    171.927401838917     -4.945410735199    -19.058600398964
    195.660750099031    -28.678758995313    -23.948283232005
    156.390290830739     -9.152209831276    -17.671691931541
    147.838713349186     12.857598214690     14.409287576366
    142.495881333977     16.739623056736     13.424502629417
    151.334661804247      7.900839021250     15.455433746903
    146.977756985129      8.680262260783     14.901989016926
    154.563790760660      1.094229505221     15.122974698803
    154.446411170320      1.019591496612     15.118762918924
    153.461440146971      2.004562387528      1.516026994984
    153.771310600482      1.187509279989      1.527307327242
    132.682455070496     22.276367645387    -19.235445136015
    130.690097610456     26.004084646224    -18.238866695462
     66.326287754070     90.367898829309     17.408437500952
     57.939867562279    102.846704077122     32.516847921673
    187.477912614419    -26.691340975019    155.079038937963
    174.155735759383     -6.868244972133    131.078730815570
    218.877313524586    -51.589825743635     47.121999439658
    210.267519008224    -35.480831636498     42.815384969563
    201.515657742728    -26.728969194308     -2.284644201817
    201.069375557345    -25.552231487518     -2.268397930746
    186.016018047550    -10.498876001701    -19.364685232283
    181.109755168343    -13.618615046266    -19.188640153072
    171.933179267230     -4.442040378977    -19.004983135694
    164.007257811338     -3.024144911582    -17.998145796846
    156.543433481946      4.439682428424    -16.237102785412
    150.743427959530      8.653884761172    -15.168115021450
    148.536846749898     11.088095973288     14.672678946979
    147.825474793801     11.682640364081     14.533301687545
    152.823592139061      6.684524228304     15.746943175055
    151.329371703595      7.439929527372     15.504528411922
    155.734128118110      3.035172757558     15.047038732922
    154.582594300766      3.049497748707     14.932154366800
    153.771578389157      3.860513725735      1.500554221861
    153.141974078817      5.108309120488      1.481761910000
    130.734628212042     27.515653180172    -17.983273454122
    127.358669172728     32.638275127397    -16.502617227080
     57.737778343497    102.259171573012     32.237756063474
     50.539749069881    111.464155350593     44.115073549304
    196.858592944803    -34.854688524329    167.782487813878
    188.393531254230    -24.029405053884    153.814539480115
    223.726275600868    -59.362152250849     49.320953763186
    218.865622476405    -51.986679023875     47.189102797640
    200.826141887685    -33.947199889990     -2.349993769341
    201.514797869241    -35.312028162890     -2.370548828152
    181.097483098900    -14.894711745637    -19.313178423645
    177.953148575124    -14.855596468651    -18.999479535087
    164.031250852704     -0.933697623255    -17.775478893854
    161.798446612504      0.195101218864    -17.413267415547
    150.772354418569     11.221190744622    -14.897142169586
    150.070877157839     11.807464412959    -14.759644253463
    149.282182560149     11.325628045892     14.726857646894
    148.546847142120     11.975665994881     14.578998616744
    153.675797605886      6.846716699343     15.821294233640
    152.831754177781      7.395659594571     15.671195601022
    156.498489707877      3.728924899652     15.054001701126
    155.742986102883      3.956262313853     14.957146957986
    153.142119225440      6.557129191296      1.467261208908
    153.105517609712      6.619100195427      1.466274533636
    127.350875955547     32.373741849285    -16.547348106528
    125.303479089017     35.165690319053    -15.704206214221
     50.146947077701    110.322205210978     43.572600733688
     46.194918990321    115.036133063523     49.847723124416
    200.711782663732    -39.480730609888    173.922701094284
    196.851281175002    -34.875953642463    167.792585614883
    225.375853266063    -63.400519236107     50.311896216391
    223.675609923414    -61.081971958091     49.611760532417
    200.288380466646    -37.694742501603     -2.382122512122
    200.825675312096    -38.604448273471     -2.396606449947
    177.944801367144    -15.723574328519    -19.084187892616
    176.783615055917    -15.374162639036    -18.935338639847
    161.791818705085     -0.382369702903    -17.474777526586
    160.699846316431      0.327819446823    -17.280588984935
    150.061399144010     10.966264196112    -14.848431117603
    149.041998928510     11.867415122710    -14.643382299543
    150.309580855801     12.351253683444     14.727105953591
    149.303909255384     13.253943197932     14.523328823074
    155.048715083672      7.509135059760     15.897831138709
    153.694147549332      8.445493701528     15.650998092265
    157.747154584460      4.392486666357     15.111658017336
    156.509423652831      4.865879408211     14.943042897302
    153.105682963110      8.269620097932      1.449755098663
    154.001519014642      6.825733146051      1.473174855387
    125.313726525903     35.513525635093    -15.645388762963
    125.468022682236     35.309763318344    -15.707780603557
     46.078922404471    114.698879557423     49.687528329193
     45.537132440878    115.332321512643     50.538365283394
    201.113120184625    -40.243666231104    174.765303994836
    200.639725859338    -39.690209384247    174.022213721658
    225.084739707871    -64.135228147491     50.389219951164
    225.344117480233    -64.477757714447     50.494050842655
    199.274918387225    -38.408558621164     -2.379123167606
    200.288145346978    -40.041653408964     -2.405611863610
    176.772537520726    -16.526045582713    -19.047754612243
    175.276663217282    -15.953921205892    -18.843972821257
    160.680500140196     -1.357758128652    -17.460130637072
    158.811251218555     -0.065622422413    -17.119458796676
    149.017890931118      9.727741802761    -14.869218410438
    147.175498328264     11.381472789523    -14.496065898764
    151.727223285838     15.211704292830     14.573085610190
    150.355473266019     16.424333903134     14.297202063200
    157.360389712003      9.419417457149     15.941103846347
    155.087605731372     10.897573913527     15.536907081777
    160.417910188241      5.567267028541     15.259061967868
    157.766126028439      6.365213341957     14.919133842428
    154.001849993576     10.129489376820      1.440108797755
    156.600054393505      5.730411701809      1.510148987752
    125.512455379981     36.818010714961    -15.452749388569
    127.970655217624     33.465867486268    -16.465063498126
     45.682276272631    115.754265173206     50.738813816364
     48.017752218040    112.968534919457     47.030434170265
    198.757333584229    -37.771046446732    171.268642867376
    201.030836439817    -40.482876779226    174.878940625034
    222.735575018004    -62.187620300870     49.640650248611
    225.049171794060    -65.342571761271     50.593369794281
    196.680903003858    -36.974302971407     -2.338801673354
    199.274622124405    -41.365786520108     -2.408720953064
    175.263195390041    -17.354359785743    -18.980645724505
    171.702028497402    -16.282773532968    -18.524120047728
    158.773506207842     -3.354245354070    -17.469750787210
    153.950654684545     -0.217592304816    -16.612112233743
    147.121751722358      6.611310657373    -14.999545120364
    141.847127756680     11.274088212748    -13.938723580239
    140.325664078986     33.155113318425     11.440498652793
    151.821145039401     23.547523544659     13.693259794645
    158.257330772712     17.111337811347     15.208923511851
    157.453338681249     17.517797694752     15.078493514411
    164.627963086241     10.343173289759     15.203302735608