# vtk DataFile Version 3.0
TriPan results file. Generated by TriPan, USU AeroLab (c) 2021.
ASCII
DATASET POLYDATA
POINTS                  80 float
  0.190000000000E+02  0.000000000000E+00  0.000000000000E+00
  0.989564767047E+02  0.000000000000E+00  0.148190570285E+02
  0.193396415710E+02  0.339639574289E+00  0.000000000000E+00
  0.989677561288E+02  0.339639574289E+00  0.147581987018E+02
  0.197353687286E+02  0.735364913940E+00  0.000000000000E+00
  0.989808981433E+02  0.735364913940E+00  0.146872907368E+02
  0.201952877045E+02  0.119528055191E+01  0.000000000000E+00
  0.989961719544E+02  0.119528055191E+01  0.146048806266E+02
  0.207282505035E+02  0.172824025154E+01  0.000000000000E+00
  0.990138715353E+02  0.172824025154E+01  0.145093822339E+02
  0.213437728882E+02  0.234375929832E+01  0.000000000000E+00
  0.990343129025E+02  0.234375929832E+01  0.143990904865E+02
  0.220518741608E+02  0.305185556412E+01  0.000000000000E+00
  0.990578287947E+02  0.305185556412E+01  0.142722100859E+02
  0.228628253937E+02  0.386280250549E+01  0.000000000000E+00
  0.990847603123E+02  0.386280250549E+01  0.141269006206E+02
  0.237868041992E+02  0.478677463531E+01  0.000000000000E+00
  0.991154454513E+02  0.478677463531E+01  0.139613384257E+02
  0.248334121704E+02  0.583337688446E+01  0.000000000000E+00
  0.991502030789E+02  0.583337688446E+01  0.137738030494E+02
  0.260110912323E+02  0.701104879379E+01  0.000000000000E+00
  0.991893135494E+02  0.701104879379E+01  0.135627818340E+02
  0.273264064789E+02  0.832635498047E+01  0.000000000000E+00
  0.992329948882E+02  0.832635498047E+01  0.133270984201E+02
  0.287832584381E+02  0.978319931030E+01  0.000000000000E+00
  0.992813766311E+02  0.978319931030E+01  0.130660538954E+02
  0.303820724487E+02  0.113820018768E+02  0.000000000000E+00
  0.993344729035E+02  0.113820018768E+02  0.127795720460E+02
  0.321190223694E+02  0.131189413071E+02  0.000000000000E+00
  0.993921566399E+02  0.131189413071E+02  0.124683384553E+02
  0.339854316711E+02  0.149853391647E+02  0.000000000000E+00
  0.994541396948E+02  0.149853391647E+02  0.121339078180E+02
  0.359674301147E+02  0.169673271179E+02  0.000000000000E+00
  0.995199614405E+02  0.169673271179E+02  0.117787654589E+02
  0.380459861755E+02  0.190458717346E+02  0.000000000000E+00
  0.995889898440E+02  0.190458717346E+02  0.114063215221E+02
  0.401973724365E+02  0.211972446442E+02  0.000000000000E+00
  0.996604369230E+02  0.211972446442E+02  0.110208275806E+02
  0.423940925598E+02  0.233939495087E+02  0.000000000000E+00
  0.997333895298E+02  0.233939495087E+02  0.106272105375E+02
  0.446062088013E+02  0.256060504913E+02  0.000000000000E+00
  0.998068534385E+02  0.256060504913E+02  0.102308347567E+02
  0.468029289246E+02  0.278027553558E+02  0.000000000000E+00
  0.998798060453E+02  0.278027553558E+02  0.983721771350E+01
  0.489543113708E+02  0.299541282654E+02  0.000000000000E+00
  0.999512529976E+02  0.299541282654E+02  0.945172445554E+01
  0.510328712463E+02  0.320326728821E+02  0.000000000000E+00
  0.100020281528E+03  0.320326728821E+02  0.907927983524E+01
  0.530148696899E+02  0.340146598816E+02  0.000000000000E+00
  0.100086103273E+03  0.340146598816E+02  0.872413747612E+01
  0.548812789917E+02  0.358810577393E+02  0.000000000000E+00
  0.100148086328E+03  0.358810577393E+02  0.838970683888E+01
  0.566182289124E+02  0.376179962158E+02  0.000000000000E+00
  0.100205770065E+03  0.376179962158E+02  0.807847324810E+01
  0.582170410156E+02  0.392168006897E+02  0.000000000000E+00
  0.100258866274E+03  0.392168006897E+02  0.779199174054E+01
  0.596738929749E+02  0.406736450195E+02  0.000000000000E+00
  0.100307248017E+03  0.406736450195E+02  0.753094721581E+01
  0.609892082214E+02  0.419889526367E+02  0.000000000000E+00
  0.100350929356E+03  0.419889526367E+02  0.729526380187E+01
  0.621668891907E+02  0.431666221619E+02  0.000000000000E+00
  0.100390039889E+03  0.431666221619E+02  0.708424224477E+01
  0.632134971619E+02  0.442132263184E+02  0.000000000000E+00
  0.100424797517E+03  0.442132263184E+02  0.689670686847E+01
  0.641374740601E+02  0.451371994019E+02  0.000000000000E+00
  0.100455482593E+03  0.451371994019E+02  0.673114501525E+01
  0.649484252930E+02  0.459481430054E+02  0.000000000000E+00
  0.100482414110E+03  0.459481430054E+02  0.658583554999E+01
  0.656565246582E+02  0.466562423706E+02  0.000000000000E+00
  0.100505929939E+03  0.466562423706E+02  0.645895549120E+01
  0.662720489502E+02  0.472717590332E+02  0.000000000000E+00
  0.100526371370E+03  0.472717590332E+02  0.634866340199E+01
  0.668050155640E+02  0.478047180176E+02  0.000000000000E+00
  0.100544071077E+03  0.478047180176E+02  0.625316432571E+01
  0.672649307251E+02  0.482646369934E+02  0.000000000000E+00
  0.100559344762E+03  0.482646369934E+02  0.617075489908E+01
  0.676606597900E+02  0.486603622437E+02  0.000000000000E+00
  0.100572486839E+03  0.486603622437E+02  0.609984659230E+01
  0.680002975464E+02  0.490000000000E+02  0.000000000000E+00
  0.100583766137E+03  0.490000000000E+02  0.603898894913E+01
POLYGONS                  78                 312
3                   0                   1                   3
3                   0                   3                   2
3                   2                   3                   5
3                   2                   5                   4
3                   4                   5                   7
3                   4                   7                   6
3                   6                   7                   9
3                   6                   9                   8
3                   8                   9                  11
3                   8                  11                  10
3                  10                  11                  13
3                  10                  13                  12
3                  12                  13                  15
3                  12                  15                  14
3                  14                  15                  17
3                  14                  17                  16
3                  16                  17                  19
3                  16                  19                  18
3                  18                  19                  21
3                  18                  21                  20
3                  20                  21                  23
3                  20                  23                  22
3                  22                  23                  25
3                  22                  25                  24
3                  24                  25                  27
3                  24                  27                  26
3                  26                  27                  29
3                  26                  29                  28
3                  28                  29                  31
3                  28                  31                  30
3                  30                  31                  33
3                  30                  33                  32
3                  32                  33                  35
3                  32                  35                  34
3                  34                  35                  37
3                  34                  37                  36
3                  36                  37                  39
3                  36                  39                  38
3                  38                  39                  41
3                  38                  41                  40
3                  40                  41                  43
3                  40                  43                  42
3                  42                  43                  45
3                  42                  45                  44
3                  44                  45                  47
3                  44                  47                  46
3                  46                  47                  49
3                  46                  49                  48
3                  48                  49                  51
3                  48                  51                  50
3                  50                  51                  53
3                  50                  53                  52
3                  52                  53                  55
3                  52                  55                  54
3                  54                  55                  57
3                  54                  57                  56
3                  56                  57                  59
3                  56                  59                  58
3                  58                  59                  61
3                  58                  61                  60
3                  60                  61                  63
3                  60                  63                  62
3                  62                  63                  65
3                  62                  65                  64
3                  64                  65                  67
3                  64                  67                  66
3                  66                  67                  69
3                  66                  69                  68
3                  68                  69                  71
3                  68                  71                  70
3                  70                  71                  73
3                  70                  73                  72
3                  72                  73                  75
3                  72                  75                  74
3                  74                  75                  77
3                  74                  77                  76
3                  76                  77                  79
3                  76                  79                  78
POINT_DATA                  80
SCALARS mu float 1
LOOKUP_TABLE default
 -0.335209211286E-03
 -0.335209211286E-03
 -0.565377720072E-04
 -0.565377720072E-04
 -0.609370256655E-04
 -0.609370256655E-04
 -0.627194815550E-04
 -0.627194815550E-04
 -0.670280980870E-04
 -0.670280980870E-04
 -0.732733723936E-04
 -0.732733723936E-04
 -0.808177876088E-04
 -0.808177876088E-04
 -0.877996923663E-04
 -0.877996923663E-04
 -0.968932038994E-04
 -0.968932038994E-04
 -0.106322783520E-03
 -0.106322783520E-03
 -0.118205188048E-03
 -0.118205188048E-03
 -0.126070317641E-03
 -0.126070317641E-03
 -0.138340387171E-03
 -0.138340387171E-03
 -0.149407342715E-03
 -0.149407342715E-03
 -0.159578773228E-03
 -0.159578773228E-03
 -0.167380666142E-03
 -0.167380666142E-03
 -0.174068268478E-03
 -0.174068268478E-03
 -0.178584920434E-03
 -0.178584920434E-03
 -0.183219914348E-03
 -0.183219914348E-03
 -0.182994288330E-03
 -0.182994288330E-03
 -0.182031333281E-03
 -0.182031333281E-03
 -0.178051775812E-03
 -0.178051775812E-03
 -0.172329601369E-03
 -0.172329601369E-03
 -0.165071910679E-03
 -0.165071910679E-03
 -0.153374468816E-03
 -0.153374468816E-03
 -0.143050781077E-03
 -0.143050781077E-03
 -0.129853355787E-03
 -0.129853355787E-03
 -0.117278412446E-03
 -0.117278412446E-03
 -0.103050653088E-03
 -0.103050653088E-03
 -0.909626212930E-04
 -0.909626212930E-04
 -0.757937164764E-04
 -0.757937164764E-04
 -0.647050001419E-04
 -0.647050001419E-04
 -0.527432014508E-04
 -0.527432014508E-04
 -0.410848745673E-04
 -0.410848745673E-04
 -0.345209045349E-04
 -0.345209045349E-04
 -0.459542116289E-04
 -0.459542116289E-04
 -0.217112785776E-04
 -0.217112785776E-04
 -0.134263119662E-04
 -0.134263119662E-04
  0.123063764117E-02
  0.123063764117E-02
  0.000000000000E+00
  0.000000000000E+00
