# vtk DataFile Version 3.0
TriPan results file. Generated by TriPan, USU AeroLab (c) 2021.
ASCII
DATASET POLYDATA
POINTS                  34 float
  0.190003013611E+02  0.000000000000E+00  0.000000000000E+00
  0.989564867128E+02  0.000000000000E+00  0.148190030295E+02
  0.199284744263E+02  0.928174138069E+00  0.000000000000E+00
  0.989873111424E+02  0.928174138069E+00  0.146526892904E+02
  0.212622661591E+02  0.226196575165E+01  0.000000000000E+00
  0.990316060814E+02  0.226196575165E+01  0.144136951862E+02
  0.231392364502E+02  0.413893461227E+01  0.000000000000E+00
  0.990939398645E+02  0.413893461227E+01  0.140773721889E+02
  0.257042465210E+02  0.670394468307E+01  0.000000000000E+00
  0.991791233020E+02  0.670394468307E+01  0.136177634890E+02
  0.290725154877E+02  0.100722141266E+02  0.000000000000E+00
  0.992909827961E+02  0.100722141266E+02  0.130142236675E+02
  0.332713356018E+02  0.142710342407E+02  0.000000000000E+00
  0.994304247167E+02  0.142710342407E+02  0.122618623901E+02
  0.381787681580E+02  0.191784667969E+02  0.000000000000E+00
  0.995933995054E+02  0.191784667969E+02  0.113825291187E+02
  0.435003013611E+02  0.245000000000E+02  0.000000000000E+00
  0.997701264882E+02  0.245000000000E+02  0.104289956475E+02
  0.488218345642E+02  0.298215332031E+02  0.000000000000E+00
  0.999468534711E+02  0.298215332031E+02  0.947546217631E+01
  0.537292671204E+02  0.347289657593E+02  0.000000000000E+00
  0.100109828260E+03  0.347289657593E+02  0.859612890496E+01
  0.579280853271E+02  0.389277839661E+02  0.000000000000E+00
  0.100249270117E+03  0.389277839661E+02  0.784376796934E+01
  0.612963562012E+02  0.422960548401E+02  0.000000000000E+00
  0.100361129674E+03  0.422960548401E+02  0.724022780600E+01
  0.638613662720E+02  0.448610649109E+02  0.000000000000E+00
  0.100446313112E+03  0.448610649109E+02  0.678061910619E+01
  0.657383346558E+02  0.467380332947E+02  0.000000000000E+00
  0.100508646832E+03  0.467380332947E+02  0.644429645065E+01
  0.670721282959E+02  0.480718269348E+02  0.000000000000E+00
  0.100552941834E+03  0.480718269348E+02  0.620530200469E+01
  0.680002975464E+02  0.490000000000E+02  0.000000000000E+00
  0.100583766137E+03  0.490000000000E+02  0.603898894913E+01
POLYGONS                  32                 128
3                   0                   1                   3
3                   0                   3                   2
3                   2                   3                   5
3                   2                   5                   4
3                   4                   5                   7
3                   4                   7                   6
3                   6                   7                   9
3                   6                   9                   8
3                   8                   9                  11
3                   8                  11                  10
3                  10                  11                  13
3                  10                  13                  12
3                  12                  13                  15
3                  12                  15                  14
3                  14                  15                  17
3                  14                  17                  16
3                  16                  17                  19
3                  16                  19                  18
3                  18                  19                  21
3                  18                  21                  20
3                  20                  21                  23
3                  20                  23                  22
3                  22                  23                  25
3                  22                  25                  24
3                  24                  25                  27
3                  24                  27                  26
3                  26                  27                  29
3                  26                  29                  28
3                  28                  29                  31
3                  28                  31                  30
3                  30                  31                  33
3                  30                  33                  32
POINT_DATA                  34
SCALARS mu float 1
LOOKUP_TABLE default
 -0.523293422834E-03
 -0.523293422834E-03
 -0.953466089761E-04
 -0.953466089761E-04
 -0.113855739006E-03
 -0.113855739006E-03
 -0.141820772168E-03
 -0.141820772168E-03
 -0.175445020162E-03
 -0.175445020162E-03
 -0.213817312634E-03
 -0.213817312634E-03
 -0.245013112867E-03
 -0.245013112867E-03
 -0.264887891568E-03
 -0.264887891568E-03
 -0.268436230471E-03
 -0.268436230471E-03
 -0.252086637317E-03
 -0.252086637317E-03
 -0.215933885080E-03
 -0.215933885080E-03
 -0.170181912772E-03
 -0.170181912772E-03
 -0.122828175257E-03
 -0.122828175257E-03
 -0.800537764363E-04
 -0.800537764363E-04
 -0.256073538338E-04
 -0.256073538338E-04
  0.925654158266E-04
  0.925654158266E-04
  0.000000000000E+00
  0.000000000000E+00
