# vtk DataFile Version 3.0
TriPan results file. Generated by TriPan, USU AeroLab (c) 2021.
ASCII
DATASET POLYDATA
POINTS                 532 float
      0.000010730060      0.000000000000      0.000000000000
      0.193052340604      0.000000000000     -0.275442291303
      0.193052340604      0.000000000000      0.275442291303
      0.750997434593      0.000000000000     -0.543777307962
      0.750997434593      0.000000000000      0.543777307962
      0.757904666675      0.757887941587      0.000000000000
      0.950948772764      0.757889809275     -0.275443655977
      0.950948772764      0.757889809275      0.275443655977
      1.508894184319      0.757891556532     -0.543777680183
      1.508894184319      0.757891556532      0.543777680183
      1.788984355435      1.788962784304      0.000000000000
      1.813534072423      0.000000000000     -0.806802519519
      1.813534072423      0.000000000000      0.806802519519
      1.982027747603      1.788965365917     -0.275441549707
      1.982027747603      1.788965365917      0.275441549707
      2.539972340984      1.788967812136     -0.543774846994
      2.539972340984      1.788967812136      0.543774846994
      2.571430809164      0.757892840247     -0.806802781184
      2.571430809164      0.757892840247      0.806802781184
      3.172811518898      3.172783840902     -0.000000000000
      3.365854151830      3.172787300960     -0.275438869278
      3.365854151830      3.172787300960      0.275438869278
      3.592466139769      0.000000000000     -1.038820352069
      3.592466139769      0.000000000000      1.038820352069
      3.602508522084      1.788969539596     -0.806799765038
      3.602508522084      1.788969539596      0.806799765038
      3.923797978680      3.172790632919     -0.543771230965
      3.923797978680      3.172790632919      0.543771230965
      4.350362917994      0.757894256497     -1.038820600324
      4.350362917994      0.757894256497      1.038820600324
      4.986333357561      3.172792924179     -0.806795901887
      4.986333357561      3.172792924179      0.806795901887
      4.996633877142      4.996598849918      0.000000000000
      5.189675485682      4.996603334358     -0.275435603163
      5.189675485682      4.996603334358      0.275435603163
      5.381440082154      1.788971266186     -1.038817556345
      5.381440082154      1.788971266186      1.038817556345
      5.747618236840      4.996607742020     -0.543766814780
      5.747618236840      4.996607742020      0.543766814780
      6.198484782022      0.000000000000     -1.139163113077
      6.198484782022      0.000000000000      1.139163113077
      6.765264759292      3.172795047528     -1.038813648835
      6.765264759292      3.172795047528      1.038813648835
      6.810152930043      4.996610718946     -0.806791168514
      6.810152930043      4.996610718946      0.806791168514
      6.956381634853      0.757896467068     -1.139162867477
      6.956381634853      0.757896467068      1.139162867477
      7.343646259961      7.343602923698      0.000000000000
      7.536686760666      7.343608515973     -0.275431848466
      7.536686760666      7.343608515973      0.275431848466
      7.987458526306      1.788973749464     -1.139159842030
      7.987458526306      1.788973749464      1.139159842030
      8.094628278105      7.343614157355     -0.543761729843
      8.094628278105      7.343614157355      0.543761729843
      8.589083846752      4.996613327327     -1.038808848010
      8.589083846752      4.996613327327      1.038808848010
      9.157162661312      7.343617921118     -0.806785704165
      9.157162661312      7.343617921118      0.806785704165
      9.371283330200      3.172797880891     -1.139155955820
      9.371283330200      3.172797880891      1.139155955820
      9.395235309056      0.000000000000     -0.980737909206
      9.395235309056      0.000000000000      0.980737909206
     10.153131387024      0.757898309407     -0.980733032608
     10.153131387024      0.757898309407      0.980733032608
     10.272863615142     10.272811662661      0.000000000000
     10.465903518770     10.272818328831     -0.275427862644
     10.465903518770     10.272818328831      0.275427862644
     10.936093019329      7.343621088200     -1.038803291134
     10.936093019329      7.343621088200      1.038803291134
     11.023843728569     10.272825277831     -0.543756326205
     11.023843728569     10.272825277831      0.543756326205
     11.184207681858      1.788975711611     -0.980731105567
     11.184207681858      1.788975711611      0.980731105567
     11.195101510688      4.996616590842     -1.139151174894
     11.195101510688      4.996616590842      1.139151174894
     12.086376324018     10.272829875682     -0.806779886356
     12.086376324018     10.272829875682      0.806779886356
     12.568031844562      3.172800007438     -0.980728481938
     12.568031844562      3.172800007438      0.980728481938
     12.582367492180      0.000000000000     -0.686883727897
     12.582367492180      0.000000000000      0.686883727897
     13.340263929601      0.757898602230     -0.686884436067
     13.340263929601      0.757898602230      0.686884436067
     13.542110185271      7.343624849659     -1.139145632127
     13.542110185271      7.343624849659      1.139145632127
     13.792151805529     13.792091968873     -0.000000000000
     13.865306088285     10.272833636516     -1.038797361824
     13.865306088285     10.272833636516      1.038797361824
     13.985189879504     13.792099511100     -0.275424084126
     13.985189879504     13.792099511100      0.275424084126
     14.371341196311      1.788975986259     -0.686883244298
     14.371341196311      1.788975986259      0.686883244298
     14.391850756627      4.996618939403     -0.980724975187
     14.391850756627      4.996618939403      0.980724975187
     14.543128850900     13.792107698504     -0.543751200125
     14.543128850900     13.792107698504      0.543751200125
     15.176527826907      0.000000000000     -0.411050235820
     15.176527826907      0.000000000000      0.411050235820
     15.605661610037     13.792113086264     -0.806774360281
     15.605661610037     13.792113086264      0.806774360281
     15.755165348051      3.172800292949     -0.686881262950
     15.755165348051      3.172800292949      0.686881262950
     15.934424342397      0.757898269434     -0.411051145801
     15.934424342397      0.757898269434      0.411051145801
     16.471322722859     10.272837929342     -1.139139708667
     16.471322722859     10.272837929342      1.139139708667
     16.738858190891      7.343627484939     -0.980720495475
     16.738858190891      7.343627484939      0.980720495475
     16.960581237392      0.000000000000     -0.218330691638
     16.960581237392      0.000000000000      0.218330691638
     16.965501561672      1.788975700797     -0.411049600485
     16.965501561672      1.788975700797      0.411049600485
     17.384590811105     13.792117410295     -1.038791720630
     17.384590811105     13.792117410295      1.038791720630
     17.578984199280      4.996619285851     -0.686878147034
     17.578984199280      4.996619285851      0.686878147034
     17.718477684025      0.757897776606     -0.218330892858
     17.718477684025      0.757897776606      0.218330892858
     17.832039316797     17.831973592198     -0.000000000000
     18.025075930401     17.831981640996     -0.275421080370
     18.025075930401     17.831981640996      0.275421080370
     18.049324863052      0.000000000000     -0.101506719246
     18.049324863052      0.000000000000      0.101506719246
     18.349324679981      3.172800087319     -0.411047020753
     18.349324679981      3.172800087319      0.411047020753
     18.583013918023     17.831990812275     -0.543747123335
     18.583013918023     17.831990812275      0.543747123335
     18.665867854728      0.000000000000     -0.035637992251
     18.665867854728      0.000000000000      0.035637992251
     18.749553871119      1.788975286551     -0.218328624660
     18.749553871119      1.788975286551      0.218328624660
     18.807221190513      0.757897479919     -0.101505816827
     18.807221190513      0.757897479919      0.101505816827
     19.000292777644     -0.000000067956     -0.000000637557
     19.423764124615      0.757897362016     -0.035636551322
     19.423764124615      0.757897362016      0.035636551322
     19.645546049638     17.831996827562     -0.806769961643
     19.645546049638     17.831996827562      0.806769961643
     19.668070389964     10.272840903136     -0.980715254779
     19.668070389964     10.272840903136      0.980715254779
     19.758190486977      0.757903601551     -0.000000769074
     19.838299217679      1.788975057192     -0.101502907251
     19.838299217679      1.788975057192      0.101502907251
     19.925991520818      7.343627944012     -0.686873816168
     19.925991520818      7.343627944012      0.686873816168
     19.990605986492     13.792122208708     -1.139134065882
     19.990605986492     13.792122208708      1.139134065882
     20.133378805849      3.172799763951     -0.218325212533
     20.133378805849      3.172799763951      0.218325212533
     20.173144382166      4.996619182864     -0.411043177483
     20.173144382166      4.996619182864      0.411043177483
     20.454840220937      1.788974962733     -0.035633412273
     20.454840220937      1.788974962733      0.035633412273
     20.789264521492      1.788983264080     -0.000001021671
     21.222122196717      3.172799582883     -0.101499025164
     21.222122196717      3.172799582883      0.101499025164
     21.424475756535     17.832001599465     -1.038787225311
     21.424475756535     17.832001599465      1.038787225311
     21.838665093998      3.172799501802     -0.035629391771
     21.838665093998      3.172799501802      0.035629391771
     21.957196524978      4.996618935251     -0.218320683055
[...]
POINT_DATA                 532
SCALARS phi float 1
LOOKUP_TABLE default
     -0.000010550384
     -0.139624290617
     -0.240015032014
     -0.639326369664
     -0.837517456599
     -0.745213482974
     -0.884829428272
     -0.985220667052
     -1.384532000427
     -1.582723223025
     -1.759027647037
     -1.636138195632
     -1.930194357858
     -1.898643274205
     -1.999033745312
     -2.398345174358
     -2.596535364341
     -2.381343833774
     -2.675400091369
     -3.119682496732
     -3.259297865847
     -3.359687360015
     -3.342999989434
     -3.721619934937
     -3.395156604732
     -3.689211763029
     -3.758999182804
     -3.957188054849
     -4.088205670810
     -4.466825706794
     -4.755809869427
     -5.049863619717
     -4.912964781000
     -5.052579738079
     -5.152968041843
     -5.102017907269
     -5.480636833811
     -5.552280206940
     -5.750467469414
     -5.887094592851
     -6.302286569917
     -6.462671024359
     -6.841288526727
     -6.549090277170
     -6.843142302283
     -6.632300437581
     -7.047492325133
     -7.220676224520
     -7.360290776555
     -7.460677711840
     -7.646112402522
     -8.061303187386
     -7.859990274772
     -8.058175683933
     -8.255950967494
     -8.634566720101
     -8.856800109338
     -9.150850142854
     -9.006765640365
     -9.421955008817
     -9.059185937094
     -9.416636513602
     -9.804391863868
    -10.161840662998
    -10.100843564323
    -10.240458255637
    -10.340843738206
    -10.563660267189
    -10.942273994474
    -10.740156726488
    -10.938340166179
    -10.818203042012
    -11.175651138791
    -10.800044688088
    -11.215232314032
    -11.736964878709
    -12.031012791802
    -12.178855419315
    -12.536302559857
    -12.246499968354
    -12.496849202565
    -12.991705230819
    -13.242054723137
    -13.107753495557
    -13.522939101322
    -13.561200948654
    -13.443824473070
    -13.822436039294
    -13.700814529533
    -13.801198634940
    -14.005517230573
    -14.255866288526
    -13.972134954165
    -14.329580816598
    -14.200512028290
    -14.398693599674
    -14.847487509859
    -14.997303421316
    -15.197320414352
    -15.491366313350
    -15.366169480049
    -15.616517815858
    -15.592692812309
    -15.742509055428
    -15.987917177902
    -16.403100624738
    -16.279842348357
    -16.637286578064
    -16.636787128481
    -16.716362345125
    -16.606504829850
    -16.756320509746
    -16.904179475924
    -17.282788986096
    -17.159448883857
    -17.409796084005
    -17.381992492389
    -17.461567782371
    -17.533440170114
    -17.673052862466
    -17.773435873092
    -17.728589119489
    -17.765585380134
    -17.967156172247
    -18.116970911905
    -18.172749589470
    -18.370929674982
    -18.346811663856
    -18.359800680347
    -18.395803626767
    -18.475378090057
    -18.473794567343
    -18.510790499082
    -18.682131002585
    -19.092017153236
    -19.105005644550
    -19.169557417169
    -19.463601712992
    -19.160005573433
    -19.517447893058
    -19.427337620751
    -19.487607627863
    -19.524602499146
    -19.467156140086
    -19.717501761758
    -19.448270746294
    -19.863452136498
    -19.756456906861
    -19.836030126530
    -19.760436545312
    -19.910249884210
    -20.105828357062
    -20.118815704284
    -20.441146179218
    -20.848259070656
    -20.885252527031
    -20.876416993719
    -21.255024865477
    -21.466481687387
    -21.479467569252
    -21.549735455129
    -21.629307023933
    -21.801796169875
    -21.861655033191
    -22.001269886964
    -22.101652286856
    -22.068143816097
    -22.217955347944
    -22.347319210675
    -22.597662956460
    -22.500966183733
    -22.699145440083
    -22.641537644395
    -22.678529341817
    -22.620360626303
    -22.977800981606
    -23.259760269324
    -23.272744361598
    -23.595070727461
    -23.420507868780
    -23.835687618667
    -23.497773700538
    -23.791817101156
    -23.857442758491
    -23.937012352981
    -24.949246840222
    -24.986236497760
    -24.948306879502
    -25.098116379390
    -25.204631166089
    -25.583238122244
    -25.567467595706
    -25.580449629041
    -25.902773497013
    -25.807672219419
    -26.058014078632
    -26.317902305112
    -26.457515752766
    -26.557898152554
    -26.592597476079
    -26.950036138621
    -26.737607716167
    -26.817175176172
    -26.957212049829
    -27.155391305764
    -27.829409934260
    -27.866397417521
    -27.748723695935
    -28.163902528772
    -27.954019566948
    -28.248062966651
    -28.447632569850
    -28.460612416898
    -28.408659867846
    -28.558467386689
    -28.782931859917
    -29.660877032530
    -30.039483987379
    -29.779908905057
    -30.030249219069
    -30.197960714567
    -30.277526133083
    -30.646113620959
    -30.785729493379
    -30.886112503650
    -30.920811316946
    -31.278248898184
    -31.289762940973
    -31.326748358879
    -31.285426221217
    -31.483606305462
    -31.907983704689
    -31.920961478939
    -32.243282397099
    -32.204969561935
    -32.620148393721
    -32.282234049850
    -32.576278342905
    -32.380898406798
    -32.530704328348
    -33.989093626454
    -34.367701494308
    -34.170195507535
    -34.249759295663
    -34.108126366112
    -34.358465804097
    -34.618346482721
    -34.757962876802
    -34.858346981599
    -35.261999614814
    -35.298983389074
    -35.257658501797
    -35.455840070993
    -35.377057252021
    -35.734494608031
    -35.880222256370
    -35.893198382763
    -36.215513929483
    -36.254466889448
    -36.548512783761
    -36.533182624825
    -36.948362371598
    -36.709112103103
    -36.858917125886
    -38.078694928434
    -37.961326888618
    -38.339936392349
    -38.218311744974
    -38.318697226626
    -38.498412956312
    -38.577975832146
    -38.564370357592
    -38.814709789330
    -38.718012093551
    -38.916195530019
    -39.590213315352
    -39.627196172020
    -39.714817434562
    -40.008865341013
    -39.705274297048
    -40.062712341136
    -40.208435958164
    -40.221411165271
    -40.543729819509
    -40.505420032109
    -40.920601417284
    -40.958855233223
    -41.098472349832
    -41.198859283852
    -41.165359845125
    -41.315164862363
    -41.421677966331
    -41.800289523788
    -41.598169975610
    -41.796355380429
    -42.594979812417
    -42.889029837428
    -42.954656946870
    -43.034219820186
    -42.892583664170
    -43.142923958034
    -43.266558253538
    -43.406175560763
    -43.506563862858
    -43.677508300896
    -44.034947793359
    -43.905874157771
    -44.104061414766
    -44.046461056385
    -44.083443912209
    -43.965771605742
    -44.380955045939
    -44.301840907037
    -44.680454623725
    -44.664683699157
    -44.677658906022
    -44.999974282588
    -44.902684698841
    -45.196736713939
    -45.059833146329
    -45.199450563185
    -45.299840055256
    -45.493573165010
    -45.643379068656
    -45.699150008626
    -45.897338874189
    -46.420481607227
    -46.560099081295
    -46.660489549926
    -46.609546325246
    -46.988162066269
    -46.695961165445
    -46.990014904898
    -46.864821511727
    -47.115163332484
    -46.845935069168
    -47.261120667234
    -47.059802977775
    -47.257993160640
    -47.137860282288
    -47.495301681924
    -47.282874014483
    -47.362437794539
    -47.434292353904
    -47.573909854042
    -47.674301090149
    -48.073610553971
    -48.271801769432
    -48.179494025492
    -48.056614642952
    -48.350669790564
    -48.319112411901
    -48.419504724237
    -48.374674369812
    -48.411658141407
    -48.525325752959
    -48.596314333809
    -48.402823255548
    -48.781440746456
    -48.640145727898
    -48.818814248831
    -49.017006632209
    -48.992897011078
    -49.005873136689
    -49.070422620909
    -49.364478868986
    -49.225920393296
    -49.366064138429
    -49.328193749650
    -49.153640978981
    -49.568828596930
    -49.452596223692
    -49.465807283122
    -49.615614767520
    -49.763473363517
    -50.142092279840
    -49.815627055389
    -50.109684255156
    -50.018024167816
    -50.375467589694
    -50.325173650073
    -50.575517332217
    -50.419647757591
    -50.627578044968
    -50.755968494959
    -50.777285392077
    -51.155905419860
    -50.946918335693
    -51.362107696677
    -51.255108125704
    -51.334673528863
    -51.522490256178
    -51.901111005915
    -52.346912225408
    -52.383897638333
    -52.300210580608
    -52.567936166201
    -52.325730486868
    -52.683175755945
    -52.307568792091
    -52.722759570667
    -52.733250065940
    -52.965134863825
    -52.978112636651
    -52.926159441122
    -53.075968881915
    -53.300431695353
    -53.205337731580
    -53.455683260582
    -53.321381092911
    -53.736572975672
    -54.066586171889
    -54.481778683239
    -54.119008226082
    -54.476454994170
    -54.715460270819
    -54.795027704619
    -54.919431454777
    -55.213017057093
    -55.394297583165
    -55.513044258176
    -55.763391350518
    -55.479659024759
    -55.837106910692
    -55.807264360625
    -55.844251835633
    -55.806323530757
    -55.956134967068
    -56.425486994958
    -56.438466839700
    -56.493471614395
    -56.850920299713
    -56.760788426051
    -57.238676867465
    -57.596125951061
    -57.306322192642
    -57.556670438461
    -57.595624337609
    -57.675193888454
    -57.972916055372
    -58.225669853762
    -58.114030048455
    -58.263843248774
    -58.381740776714
    -58.687424662187
    -58.724414306407
    -58.666973160811
    -58.917322164365
    -59.305647290989
    -59.318629320726
    -59.640957178111
    -59.680785890095
    -59.931135355370
    -59.903330819486
    -59.982902316366
    -59.907307959799
    -60.057122540176
    -60.425991173106
    -60.676341040732
    -60.995134873717
    -61.032126549464
    -60.940238439307
    -61.117262422968
    -61.226568684471
    -61.267962650201
    -61.417778200696
    -61.613357495251
    -61.626341581942
    -61.696608684229
    -61.776181792217
    -61.948667971085
    -62.281771605711
    -62.431587773586
    -62.788412707675
    -62.825406128100
    -63.057259574593
    -63.136833893666
    -63.026976863410
    -63.176793600104
    -63.334721958205
    -63.440658451004
    -63.406635318685
    -63.419621191721
    -63.506073699485
    -63.741953262758
    -64.071075986586
    -64.150651142424
    -64.149063558014
    -64.186058369865
    -64.767282402262
    -64.780269735098
    -64.816281199090
    -64.895857143563
    -64.979737966572
    -65.036006925176
    -65.070751304972
    -65.102603361917
    -65.162872426126
    -65.199868268440
    -65.781098749077
    -65.794087216271
    -65.908077584287
    -65.945074466120
    -65.984078523938
    -66.010239785436
    -66.026393124849
    -66.116414551516
    -66.526303844109
    -66.539293643640
    -66.552991463318
    -66.562177443114
    -66.567846774619
    -66.861624944517
    -19.427337901056
    -18.682131234956
    -20.441146551587
    -21.801796658301
    -23.595071355544
    -25.902774282972
    -28.782932809567
    -32.243283496525
    -36.215515140754
    -40.543731083182
    -44.999975528139
    -49.328194910542
    -53.300432722349
    -56.760789293644
    -59.640957883173
    -61.948668526587
    -63.741953690333
    -65.102603685811
    -66.116414794794
SCALARS phi_mu float 1
LOOKUP_TABLE default
     -0.000010550384
     -0.139624290617
     -0.240015032014
     -0.639326369664
     -0.837517456599
     -0.745213482974
     -0.884829428272
     -0.985220667052
     -1.384532000427
     -1.582723223025
     -1.759027647037
     -1.636138195632
     -1.930194357858
     -1.898643274205
     -1.999033745312
     -2.398345174358
     -2.596535364341
     -2.381343833774
     -2.675400091369
     -3.119682496732
     -3.259297865847
     -3.359687360015
     -3.342999989434
     -3.721619934937
     -3.395156604732
     -3.689211763029
     -3.758999182804
     -3.957188054849
     -4.088205670810
     -4.466825706794
     -4.755809869427
     -5.049863619717
     -4.912964781000
     -5.052579738079
     -5.152968041843
     -5.102017907269
     -5.480636833811
     -5.552280206940
     -5.750467469414
     -5.887094592851
     -6.302286569917
     -6.462671024359
     -6.841288526727
     -6.549090277170
     -6.843142302283
     -6.632300437581
     -7.047492325133
     -7.220676224520
     -7.360290776555
     -7.460677711840
     -7.646112402522
     -8.061303187386
     -7.859990274772
     -8.058175683933
     -8.255950967494
     -8.634566720101
     -8.856800109338
     -9.150850142854
     -9.006765640365
     -9.421955008817
     -9.059185937094
     -9.416636513602
     -9.804391863868
    -10.161840662998
    -10.100843564323
    -10.240458255637
    -10.340843738206
    -10.563660267189
    -10.942273994474
    -10.740156726488
    -10.938340166179
    -10.818203042012
    -11.175651138791
    -10.800044688088
    -11.215232314032
    -11.736964878709
    -12.031012791802
    -12.178855419315
    -12.536302559857
    -12.246499968354
    -12.496849202565
    -12.991705230819
    -13.242054723137
    -13.107753495557
    -13.522939101322
    -13.561200948654
    -13.443824473070
    -13.822436039294
    -13.700814529533
    -13.801198634940
    -14.005517230573
    -14.255866288526
    -13.972134954165
    -14.329580816598
    -14.200512028290
    -14.398693599674
    -14.847487509859
    -14.997303421316
    -15.197320414352
    -15.491366313350
    -15.366169480049
    -15.616517815858
    -15.592692812309
    -15.742509055428
    -15.987917177902
    -16.403100624738
    -16.279842348357
    -16.637286578064
    -16.636787128481
    -16.716362345125
    -16.606504829850
    -16.756320509746
    -16.904179475924
    -17.282788986096
    -17.159448883857
    -17.409796084005
    -17.381992492389
    -17.461567782371
    -17.533440170114
    -17.673052862466
    -17.773435873092
    -17.728589119489
    -17.765585380134
    -17.967156172247
    -18.116970911905
    -18.172749589470
    -18.370929674982
    -18.346811663856
    -18.359800680347
    -18.395803626767
    -18.475378090057
    -18.473794567343
    -18.510790499082
    -18.682131002585
    -19.092017153236
    -19.105005644550
    -19.169557417169
    -19.463601712992
    -19.160005573433
    -19.517447893058
    -19.427337620751
    -19.487607627863
    -19.524602499146
    -19.467156140086
    -19.717501761758
    -19.448270746294
    -19.863452136498
    -19.756456906861
    -19.836030126530
    -19.760436545312
    -19.910249884210
    -20.105828357062
    -20.118815704284
    -20.441146179218
    -20.848259070656
    -20.885252527031
    -20.876416993719
    -21.255024865477
    -21.466481687387
    -21.479467569252
    -21.549735455129
    -21.629307023933
    -21.801796169875
    -21.861655033191
    -22.001269886964
    -22.101652286856
    -22.068143816097
    -22.217955347944
    -22.347319210675
    -22.597662956460
    -22.500966183733
    -22.699145440083
    -22.641537644395
    -22.678529341817
    -22.620360626303
    -22.977800981606
    -23.259760269324
    -23.272744361598
    -23.595070727461
    -23.420507868780
    -23.835687618667
    -23.497773700538
    -23.791817101156
    -23.857442758491
    -23.937012352981
    -24.949246840222
    -24.986236497760
    -24.948306879502
    -25.098116379390
    -25.204631166089
    -25.583238122244
    -25.567467595706
    -25.580449629041
    -25.902773497013
    -25.807672219419
    -26.058014078632
    -26.317902305112
    -26.457515752766
    -26.557898152554
    -26.592597476079
    -26.950036138621
    -26.737607716167
    -26.817175176172
    -26.957212049829
    -27.155391305764
    -27.829409934260
    -27.866397417521
    -27.748723695935
    -28.163902528772
    -27.954019566948
    -28.248062966651
    -28.447632569850
    -28.460612416898
    -28.408659867846
    -28.558467386689
    -28.782931859917
    -29.660877032530
    -30.039483987379
    -29.779908905057
    -30.030249219069
    -30.197960714567
    -30.277526133083
    -30.646113620959
    -30.785729493379
    -30.886112503650
    -30.920811316946
    -31.278248898184
    -31.289762940973
    -31.326748358879
    -31.285426221217
    -31.483606305462
    -31.907983704689
    -31.920961478939
    -32.243282397099
    -32.204969561935
    -32.620148393721
    -32.282234049850
    -32.576278342905
    -32.380898406798
    -32.530704328348
    -33.989093626454
    -34.367701494308
    -34.170195507535
    -34.249759295663
    -34.108126366112
    -34.358465804097
    -34.618346482721
    -34.757962876802
    -34.858346981599
    -35.261999614814
    -35.298983389074
    -35.257658501797
    -35.455840070993
    -35.377057252021
    -35.734494608031
    -35.880222256370
    -35.893198382763
    -36.215513929483
    -36.254466889448
    -36.548512783761
    -36.533182624825
    -36.948362371598
    -36.709112103103
    -36.858917125886
    -38.078694928434
    -37.961326888618
    -38.339936392349
    -38.218311744974
    -38.318697226626
    -38.498412956312
    -38.577975832146
    -38.564370357592
    -38.814709789330
    -38.718012093551
    -38.916195530019
    -39.590213315352
    -39.627196172020
    -39.714817434562
    -40.008865341013
    -39.705274297048
    -40.062712341136
    -40.208435958164
    -40.221411165271
    -40.543729819509
    -40.505420032109
    -40.920601417284
    -40.958855233223
    -41.098472349832
    -41.198859283852
    -41.165359845125
    -41.315164862363
    -41.421677966331
    -41.800289523788
    -41.598169975610
    -41.796355380429
    -42.594979812417
    -42.889029837428
    -42.954656946870
    -43.034219820186
    -42.892583664170
    -43.142923958034
    -43.266558253538
    -43.406175560763
    -43.506563862858
    -43.677508300896
    -44.034947793359
    -43.905874157771
    -44.104061414766
    -44.046461056385
    -44.083443912209
    -43.965771605742
    -44.380955045939
    -44.301840907037
    -44.680454623725
    -44.664683699157
    -44.677658906022
    -44.999974282588
    -44.902684698841
    -45.196736713939
    -45.059833146329
    -45.199450563185
    -45.299840055256
    -45.493573165010
    -45.643379068656
    -45.699150008626
    -45.897338874189
    -46.420481607227
    -46.560099081295
    -46.660489549926
    -46.609546325246
    -46.988162066269
    -46.695961165445
    -46.990014904898
    -46.864821511727
    -47.115163332484
    -46.845935069168
    -47.261120667234
    -47.059802977775
    -47.257993160640
    -47.137860282288
    -47.495301681924
    -47.282874014483
    -47.362437794539
    -47.434292353904
    -47.573909854042
    -47.674301090149
    -48.073610553971
    -48.271801769432
    -48.179494025492
    -48.056614642952
    -48.350669790564
    -48.319112411901
    -48.419504724237
    -48.374674369812
    -48.411658141407
    -48.525325752959
    -48.596314333809
    -48.402823255548
    -48.781440746456
    -48.640145727898
    -48.818814248831
    -49.017006632209
    -48.992897011078
    -49.005873136689
    -49.070422620909
    -49.364478868986
    -49.225920393296
    -49.366064138429
    -49.328193749650
    -49.153640978981
    -49.568828596930
    -49.452596223692
    -49.465807283122
    -49.615614767520
    -49.763473363517
    -50.142092279840
    -49.815627055389
    -50.109684255156
    -50.018024167816
    -50.375467589694
    -50.325173650073
    -50.575517332217
    -50.419647757591
    -50.627578044968
    -50.755968494959
    -50.777285392077
    -51.155905419860
    -50.946918335693
    -51.362107696677
    -51.255108125704
    -51.334673528863
    -51.522490256178
    -51.901111005915
    -52.346912225408
    -52.383897638333
    -52.300210580608
    -52.567936166201
    -52.325730486868
    -52.683175755945
    -52.307568792091
    -52.722759570667
    -52.733250065940
    -52.965134863825
    -52.978112636651
    -52.926159441122
    -53.075968881915
    -53.300431695353
    -53.205337731580
    -53.455683260582
    -53.321381092911
    -53.736572975672
    -54.066586171889
    -54.481778683239
    -54.119008226082