# vtk DataFile Version 3.0
TriPan results file. Generated by TriPan, USU AeroLab (c) 2021.
ASCII
DATASET POLYDATA
POINTS                 482 float
  0.000000000000E+00  0.000000000000E+00  0.000000000000E+00
  0.473465979099E+00  0.000000000000E+00 -0.436293870211E+00
  0.473465979099E+00  0.000000000000E+00  0.436293870211E+00
  0.757896304131E+00  0.757896304131E+00  0.000000000000E+00
  0.123136246204E+01  0.757896304131E+00 -0.436293989420E+00
  0.123136246204E+01  0.757896304131E+00  0.436293989420E+00
  0.157641971111E+01  0.000000000000E+00 -0.760520398617E+00
  0.157641971111E+01  0.000000000000E+00  0.760520398617E+00
  0.178897356987E+01  0.178897356987E+01  0.000000000000E+00
  0.226243972778E+01  0.178897356987E+01 -0.436294138432E+00
  0.226243972778E+01  0.178897356987E+01  0.436294138432E+00
  0.233431649208E+01  0.757896304131E+00 -0.760520577431E+00
  0.233431649208E+01  0.757896304131E+00  0.760520577431E+00
  0.317279767990E+01  0.317279767990E+01  0.000000000000E+00
  0.336539411545E+01  0.178897356987E+01 -0.760520815849E+00
  0.336539411545E+01  0.178897356987E+01  0.760520815849E+00
  0.342464399338E+01  0.000000000000E+00 -0.102348911762E+01
  0.342464399338E+01  0.000000000000E+00  0.102348911762E+01
  0.364626431465E+01  0.317279767990E+01 -0.436294317245E+00
  0.364626431465E+01  0.317279767990E+01  0.436294317245E+00
  0.418254137039E+01  0.757896304131E+00 -0.102348935604E+01
  0.418254137039E+01  0.757896304131E+00  0.102348935604E+01
  0.474921894073E+01  0.317279767990E+01 -0.760521173477E+00
  0.474921894073E+01  0.317279767990E+01  0.760521173477E+00
  0.499661636353E+01  0.499661636353E+01  0.000000000000E+00
  0.521361970901E+01  0.178897356987E+01 -0.102348971367E+01
  0.521361970901E+01  0.178897356987E+01  0.102348971367E+01
  0.547008323669E+01  0.499661636353E+01 -0.436294585466E+00
  0.547008323669E+01  0.499661636353E+01  0.436294585466E+00
  0.611307668686E+01  0.000000000000E+00 -0.114008128643E+01
  0.611307668686E+01  0.000000000000E+00  0.114008128643E+01
  0.657303857803E+01  0.499661636353E+01 -0.760521650314E+00
  0.657303857803E+01  0.499661636353E+01  0.760521650314E+00
  0.659744548798E+01  0.317279767990E+01 -0.102349019051E+01
  0.659744548798E+01  0.317279767990E+01  0.102349019051E+01
  0.687097454071E+01  0.757896304131E+00 -0.114008152485E+01
  0.687097454071E+01  0.757896304131E+00  0.114008152485E+01
  0.734362459183E+01  0.734362459183E+01  0.000000000000E+00
  0.781709194183E+01  0.734362459183E+01 -0.436294913292E+00
  0.781709194183E+01  0.734362459183E+01  0.436294913292E+00
  0.790205335617E+01  0.178897356987E+01 -0.114008200169E+01
  0.790205335617E+01  0.178897356987E+01  0.114008200169E+01
  0.842126560211E+01  0.499661636353E+01 -0.102349078655E+01
  0.842126560211E+01  0.499661636353E+01  0.102349078655E+01
  0.892004776001E+01  0.734362459183E+01 -0.760522186756E+00
  0.892004776001E+01  0.734362459183E+01  0.760522186756E+00
  0.928588008881E+01  0.317279767990E+01 -0.114008247852E+01
  0.928588008881E+01  0.317279767990E+01  0.114008247852E+01
  0.939508819580E+01  0.000000000000E+00 -0.980745851994E+00
  0.939508819580E+01  0.000000000000E+00  0.980745851994E+00
  0.101529865265E+02  0.757896304131E+00 -0.980746090412E+00
  0.101529865265E+02  0.757896304131E+00  0.980746090412E+00
  0.102728376389E+02  0.102728376389E+02  0.000000000000E+00
  0.107463054657E+02  0.102728376389E+02 -0.436295330524E+00
  0.107463054657E+02  0.102728376389E+02  0.436295330524E+00
  0.107682771683E+02  0.734362459183E+01 -0.102349150181E+01
  0.107682771683E+02  0.734362459183E+01  0.102349150181E+01
  0.111097030640E+02  0.499661636353E+01 -0.114008307457E+01
  0.111097030640E+02  0.499661636353E+01  0.114008307457E+01
  0.111840667725E+02  0.178897356987E+01 -0.980746388435E+00
  0.111840667725E+02  0.178897356987E+01  0.980746388435E+00
  0.118492631912E+02  0.102728376389E+02 -0.760522902012E+00
  0.118492631912E+02  0.102728376389E+02  0.760522902012E+00
  0.125678949356E+02  0.317279767990E+01 -0.980746865273E+00
  0.125678949356E+02  0.317279767990E+01  0.980746865273E+00
  0.126670312881E+02  0.000000000000E+00 -0.678052663803E+00
  0.126670312881E+02  0.000000000000E+00  0.678052663803E+00
  0.134249305725E+02  0.757896304131E+00 -0.678052842617E+00
  0.134249305725E+02  0.757896304131E+00  0.678052842617E+00
  0.134567155838E+02  0.734362459183E+01 -0.114008402824E+01
  0.134567155838E+02  0.734362459183E+01  0.114008402824E+01
  0.136974935532E+02  0.102728376389E+02 -0.102349245548E+01
  0.136974935532E+02  0.102728376389E+02  0.102349245548E+01
  0.137921218872E+02  0.137921218872E+02  0.000000000000E+00
  0.142655897141E+02  0.137921218872E+02 -0.436295837164E+00
  0.142655897141E+02  0.137921218872E+02  0.436295837164E+00
  0.143917188644E+02  0.499661636353E+01 -0.980747401714E+00
  0.143917188644E+02  0.499661636353E+01  0.980747401714E+00
  0.144560117722E+02  0.178897356987E+01 -0.678053081036E+00
  0.144560117722E+02  0.178897356987E+01  0.678053081036E+00
  0.153437566757E+02  0.000000000000E+00 -0.393031150103E+00
  0.153437566757E+02  0.000000000000E+00  0.393031150103E+00
  0.153685483932E+02  0.137921218872E+02 -0.760523796082E+00
  0.153685483932E+02  0.137921218872E+02  0.760523796082E+00
  0.158398418427E+02  0.317279767990E+01 -0.678053379059E+00
  0.158398418427E+02  0.317279767990E+01  0.678053379059E+00
  0.161016559601E+02  0.757896304131E+00 -0.393031239510E+00
  0.161016559601E+02  0.757896304131E+00  0.393031239510E+00
  0.163859348297E+02  0.102728376389E+02 -0.114008510113E+01
  0.163859348297E+02  0.102728376389E+02  0.114008510113E+01
  0.167387351990E+02  0.734362459183E+01 -0.980748176575E+00
  0.167387351990E+02  0.734362459183E+01  0.980748176575E+00
  0.171327381134E+02  0.178897356987E+01 -0.393031388521E+00
  0.171327381134E+02  0.178897356987E+01  0.393031388521E+00
  0.172004318237E+02  0.000000000000E+00 -0.192506864667E+00
  0.172004318237E+02  0.000000000000E+00  0.192506864667E+00
  0.172167816162E+02  0.137921218872E+02 -0.102349364758E+01
  0.172167816162E+02  0.137921218872E+02  0.102349364758E+01
  0.176636676788E+02  0.499661636353E+01 -0.678053736687E+00
  0.176636676788E+02  0.499661636353E+01  0.678053736687E+00
  0.178320064545E+02  0.178320064545E+02  0.000000000000E+00
  0.179583320618E+02  0.757896304131E+00 -0.192506924272E+00
  0.179583320618E+02  0.757896304131E+00  0.192506924272E+00
  0.183054752350E+02  0.178320064545E+02 -0.436296403408E+00
  0.183054752350E+02  0.178320064545E+02  0.436296403408E+00
  0.183450412750E+02  0.000000000000E+00 -0.698660761118E-01
  0.183450412750E+02  0.000000000000E+00  0.698660761118E-01
  0.185165691376E+02  0.317279767990E+01 -0.393031567335E+00
  0.185165691376E+02  0.317279767990E+01  0.393031567335E+00
  0.189894161224E+02  0.178897356987E+01 -0.192506983876E+00
  0.189894161224E+02  0.178897356987E+01  0.192506983876E+00
  0.190000000000E+02  0.000000000000E+00  0.000000000000E+00
  0.191029415131E+02  0.757896304131E+00 -0.698660910130E-01
  0.191029415131E+02  0.757896304131E+00  0.698660910130E-01
  0.194084339142E+02  0.178320064545E+02 -0.760524809361E+00
  0.194084339142E+02  0.178320064545E+02  0.760524809361E+00
  0.196679573059E+02  0.102728376389E+02 -0.980749070644E+00
  0.196679573059E+02  0.102728376389E+02  0.980749070644E+00
  0.197579002380E+02  0.757896304131E+00  0.000000000000E+00
  0.199052257538E+02  0.137921218872E+02 -0.114008641243E+01
  0.199052257538E+02  0.137921218872E+02  0.114008641243E+01
  0.200106849670E+02  0.734362459183E+01 -0.678054273129E+00
  0.200106849670E+02  0.734362459183E+01  0.678054273129E+00
  0.201340255737E+02  0.178897356987E+01 -0.698661133647E-01
  0.201340255737E+02  0.178897356987E+01  0.698661133647E-01
  0.203403968811E+02  0.499661636353E+01 -0.393031775951E+00
  0.203403968811E+02  0.499661636353E+01  0.393031775951E+00
  0.203732471466E+02  0.317279767990E+01 -0.192507073283E+00
  0.203732471466E+02  0.317279767990E+01  0.192507073283E+00
  0.207889842987E+02  0.178897356987E+01  0.000000000000E+00
  0.212566699982E+02  0.178320064545E+02 -0.102349495888E+01
  0.212566699982E+02  0.178320064545E+02  0.102349495888E+01
  0.215178565979E+02  0.317279767990E+01 -0.698661431670E-01
  0.215178565979E+02  0.317279767990E+01  0.698661431670E-01
  0.221728172302E+02  0.317279767990E+01  0.000000000000E+00
  0.221970767975E+02  0.499661636353E+01 -0.192507177591E+00
  0.221970767975E+02  0.499661636353E+01  0.192507177591E+00
  0.222339305878E+02  0.222339305878E+02  0.000000000000E+00
  0.226874179840E+02  0.734362459183E+01 -0.393032073975E+00
  0.226874179840E+02  0.734362459183E+01  0.393032073975E+00
  0.227074012756E+02  0.222339305878E+02 -0.436297029257E+00
  0.227074012756E+02  0.222339305878E+02  0.436297029257E+00
  0.229399108887E+02  0.102728376389E+02 -0.678054928780E+00
  0.229399108887E+02  0.102728376389E+02  0.678054928780E+00
  0.231872520447E+02  0.137921218872E+02 -0.980750203133E+00
  0.231872520447E+02  0.137921218872E+02  0.980750203133E+00
  0.233416862488E+02  0.499661636353E+01 -0.698661878705E-01
  0.233416862488E+02  0.499661636353E+01  0.698661878705E-01
  0.238103618622E+02  0.222339305878E+02 -0.760525882244E+00
  0.238103618622E+02  0.222339305878E+02  0.760525882244E+00
  0.239451179504E+02  0.178320064545E+02 -0.114008784294E+01
  0.239451179504E+02  0.178320064545E+02  0.114008784294E+01
  0.239966468811E+02  0.499661636353E+01  0.000000000000E+00
  0.245440979004E+02  0.734362459183E+01 -0.192507326603E+00
  0.245440979004E+02  0.734362459183E+01  0.192507326603E+00
  0.256166458130E+02  0.102728376389E+02 -0.393032461405E+00
  0.256166458130E+02  0.102728376389E+02  0.393032461405E+00
  0.256585998535E+02  0.222339305878E+02 -0.102349650860E+01
  0.256585998535E+02  0.222339305878E+02  0.102349650860E+01
  0.256887092590E+02  0.734362459183E+01 -0.698662400246E-01
  0.256887092590E+02  0.734362459183E+01  0.698662400246E-01
[...]
CELL_DATA                 904
SCALARS sigma float 1
LOOKUP_TABLE default
  0.192895102791E-02
  0.192897341434E-02
  0.146291487127E-02
  0.146295326348E-02
  0.622072328420E-03
  0.622033584583E-03
  0.211685151475E-02
  0.211688433952E-02
  0.158932718126E-01
  0.158932632181E-01
  0.595949153143E-01
  0.595949224382E-01
  0.150830363405E+00
  0.150830356051E+00
  0.244547444599E+00
  0.244547433334E+00
  0.369577583575E+00
  0.369577568394E+00
  0.623444728306E+00
  0.623444723842E+00
  0.491950325725E+00
  0.491950341531E+00
  0.170127526997E+00
  0.170127546564E+00
  0.327929647598E-01
  0.327929777769E-01
 -0.647632520569E-01
 -0.647632443048E-01
 -0.155896486273E+00
 -0.155896492932E+00
 -0.198280226880E+00
 -0.198280217890E+00
 -0.211473636366E+00
 -0.211473670329E+00
 -0.212900414641E+00
 -0.212900375497E+00
 -0.212097904132E+00
 -0.212097942096E+00
 -0.211653043528E+00
 -0.211653065339E+00
  0.192891745248E-02
  0.192895099351E-02
  0.146288284769E-02
  0.146291484245E-02
  0.622134037322E-03
  0.622072327289E-03
  0.211685594785E-02
  0.211685149253E-02
  0.158932804841E-01
  0.158932718751E-01
  0.595949223935E-01
  0.595948888457E-01
  0.150830356990E+00
  0.150830392256E+00
  0.244547435086E+00
  0.244547443088E+00
  0.369577572223E+00
  0.369577563190E+00
  0.623444754612E+00
  0.623444780300E+00
  0.491950410449E+00
  0.491950350005E+00
  0.170127517539E+00
  0.170127528760E+00
  0.327929740334E-01
  0.327929649947E-01
 -0.647632156206E-01
 -0.647632524601E-01
 -0.155896517906E+00
 -0.155896486156E+00
 -0.198280218671E+00
 -0.198280209862E+00
 -0.211473668109E+00
 -0.211473663593E+00
 -0.212900375110E+00
 -0.212900313682E+00
 -0.212097937917E+00
 -0.212097969264E+00
 -0.211653061564E+00
 -0.211653094068E+00
  0.192917820079E-02
  0.192891748235E-02
  0.146283167253E-02
  0.146288286728E-02
  0.622086718049E-03
  0.622134043935E-03
  0.211684945727E-02
  0.211685594240E-02
  0.158932797287E-01
  0.158932804388E-01
  0.595948889858E-01
  0.595949102411E-01
  0.150830392000E+00
  0.150830377126E+00
  0.244547442791E+00
  0.244547435095E+00
  0.369577559668E+00
  0.369577624622E+00
  0.623444740207E+00
  0.623444681567E+00
  0.491950262284E+00
  0.491950378812E+00
  0.170127594656E+00
  0.170127515918E+00
  0.327929654361E-01
  0.327929739935E-01
 -0.647632309493E-01
 -0.647632155105E-01
 -0.155896497980E+00
 -0.155896518272E+00
 -0.198280209297E+00
 -0.198280210012E+00
 -0.211473663049E+00
 -0.211473669524E+00
 -0.212900315945E+00
 -0.212900362557E+00
 -0.212097972104E+00
 -0.212098021932E+00
 -0.211653097346E+00
 -0.211652845645E+00
  0.192911108576E-02
  0.192917820361E-02
  0.146278045421E-02
  0.146283165037E-02
  0.622140546164E-03
  0.622086714986E-03
  0.211686933572E-02
  0.211684946776E-02
  0.158932790934E-01
  0.158932798063E-01
  0.595949102493E-01
  0.595949061817E-01
  0.150830376686E+00
  0.150830331938E+00
  0.244547436108E+00
  0.244547460391E+00
  0.369577632016E+00
  0.369577631008E+00
  0.623444687232E+00
  0.623444699954E+00
  0.491950289876E+00
  0.491950266754E+00
  0.170127596858E+00
  0.170127598060E+00
  0.327929922794E-01
  0.327929655721E-01
 -0.647632770021E-01
 -0.647632307604E-01
 -0.155896501909E+00
 -0.155896498002E+00
 -0.198280210979E+00
 -0.198280211689E+00
 -0.211473670572E+00
 -0.211473650943E+00
 -0.212900361508E+00
 -0.212900308889E+00
 -0.212098018720E+00
 -0.212098068317E+00
 -0.211652845954E+00
 -0.211652910577E+00
  0.192903278573E-02
  0.192911107518E-02
  0.146287279625E-02
  0.146278045690E-02
  0.622061665853E-03
  0.622140545325E-03
  0.211693096673E-02
  0.211686933654E-02
  0.158932336708E-01
  0.158932789622E-01
  0.595949060182E-01
  0.595949079690E-01
  0.150830332161E+00
  0.150830403390E+00
  0.244547457560E+00
  0.244547381062E+00
  0.369577631052E+00
  0.369577673819E+00
  0.623444689832E+00
  0.623444657679E+00
  0.491950226436E+00
  0.491950281889E+00
  0.170127647307E+00
  0.170127596878E+00
  0.327929083956E-01
  0.327929918998E-01
 -0.647632037214E-01
 -0.647632770979E-01
 -0.155896499599E+00
 -0.155896501481E+00
 -0.198280210052E+00
 -0.198280254802E+00
 -0.211473651025E+00
 -0.211473590593E+00
 -0.212900308602E+00
 -0.212900385295E+00
 -0.212098068708E+00
 -0.212097979546E+00
 -0.211652909416E+00
 -0.211652984653E+00
  0.192923757577E-02
  0.192903279401E-02
  0.146277681286E-02
  0.146287280016E-02
  0.622060275322E-03
  0.622061664452E-03
  0.211690704561E-02
  0.211693097097E-02
  0.158932682018E-01
  0.158932336626E-01
  0.595949080834E-01
  0.595948959090E-01
  0.150830403595E+00
  0.150830401837E+00
  0.244547380817E+00
  0.244547430093E+00
  0.369577666868E+00
  0.369577500686E+00
  0.623444656070E+00
  0.623444649293E+00
  0.491950213851E+00
  0.491950225167E+00
  0.170127449633E+00
  0.170127644108E+00
  0.327929618731E-01
  0.327929083628E-01
 -0.647632056164E-01
 -0.647632038093E-01
 -0.155896511677E+00
 -0.155896499898E+00
 -0.198280254699E+00
 -0.198280220762E+00
 -0.211473591017E+00
 -0.211473614354E+00
 -0.212900384815E+00
 -0.212900386161E+00
 -0.212097980113E+00
 -0.212098072586E+00
 -0.211652985563E+00
 -0.211652789021E+00
  0.192880904026E-02
  0.192923757357E-02
  0.146300629804E-02
  0.146277681565E-02
  0.622051006812E-03
  0.622060278724E-03
  0.211686123059E-02
  0.211690704927E-02
  0.158932668210E-01
  0.158932682493E-01
  0.595948959161E-01
  0.595948978623E-01
  0.150830401929E+00
  0.150830400160E+00
  0.244547431971E+00
  0.244547379454E+00
  0.369577508078E+00
  0.369577576413E+00
  0.623444679938E+00
  0.623444841215E+00
  0.491950501862E+00
  0.491950238033E+00
  0.170127532602E+00
  0.170127453036E+00
  0.327929052944E-01
  0.327929621248E-01
 -0.647632074715E-01
 -0.647632056561E-01
 -0.155896509810E+00
 -0.155896511696E+00
 -0.198280221355E+00
 -0.198280222753E+00
 -0.211473614720E+00
 -0.211473659254E+00
 -0.212900387325E+00
 -0.212900396284E+00
 -0.212098072990E+00
 -0.212097852251E+00
 -0.211652788780E+00
 -0.211653199706E+00
  0.192928578345E-02
  0.192880904648E-02
  0.146286551213E-02
  0.146300630906E-02
  0.622025952673E-03
  0.622051005780E-03
  0.211686812258E-02
  0.211686122929E-02
  0.158932474237E-01
  0.158932668348E-01
  0.595948978697E-01
  0.595949179740E-01
  0.150830400033E+00
  0.150830383272E+00
  0.244547378609E+00
  0.244547325955E+00
  0.369577579884E+00
  0.369577866590E+00
  0.623444824746E+00
  0.623444722819E+00
  0.491950324189E+00
  0.491950488866E+00
  0.170127866957E+00
  0.170127534200E+00
  0.327928483284E-01
  0.327929051812E-01
 -0.647632246053E-01
 -0.647632074169E-01
 -0.155896490314E+00
 -0.155896509829E+00
 -0.198280222926E+00
 -0.198280241881E+00
 -0.211473659124E+00
 -0.211473652439E+00
 -0.212900395931E+00
 -0.212900420099E+00
 -0.212097853849E+00
 -0.212097989147E+00
 -0.211653200388E+00
 -0.211652743499E+00
  0.192914033451E-02
  0.192928576196E-02
  0.146306938492E-02
  0.146286549185E-02
  0.622086286014E-03
  0.622025948301E-03
  0.211680037987E-02
  0.211686810141E-02
  0.158932811756E-01
  0.158932473350E-01
  0.595949178763E-01
  0.595949117139E-01
  0.150830383282E+00
  0.150830366511E+00
  0.244547324279E+00
  0.244547423628E+00
  0.369577859014E+00
  0.369577785892E+00
  0.623444668081E+00
  0.623444294035E+00
  0.491949680730E+00
  0.491950280996E+00
  0.170127778754E+00
  0.170127863470E+00
  0.327929552425E-01
  0.327928481036E-01
 -0.647632417986E-01
 -0.647632246096E-01
 -0.155896496044E+00
 -0.155896490058E+00
 -0.198280240774E+00
 -0.198280207772E+00
 -0.211473650325E+00
 -0.211473715914E+00
 -0.212900418603E+00
 -0.212900360448E+00
 -0.212097986208E+00
 -0.212097790386E+00
 -0.211652741141E+00
 -0.211652880470E+00
  0.192898377212E-02
  0.192914037028E-02
  0.146291581308E-02
  0.146306940963E-02
  0.621936409679E-03
  0.622086289016E-03
  0.211693462515E-02
  0.211680040196E-02
  0.158933152331E-01
  0.158932813885E-01
  0.595949119054E-01
  0.595948956946E-01
  0.150830366627E+00
  0.150830423117E+00
  0.244547426151E+00
  0.244547467869E+00
  0.369577794989E+00
  0.369577360793E+00
  0.623444406004E+00
  0.623445197064E+00
  0.491951035870E+00
  0.491949769083E+00
  0.170127280179E+00
  0.170127782941E+00
  0.327930005520E-01
  0.327929555808E-01
 -0.647631839591E-01
 -0.647632418485E-01
 -0.155896512296E+00
 -0.155896496545E+00
 -0.198280210428E+00
 -0.198280177437E+00
 -0.211473718121E+00
 -0.211473588176E+00
 -0.212900361476E+00
 -0.212900505890E+00
 -0.212097793968E+00
 -0.212097941458E+00
 -0.211652884395E+00
 -0.211653034411E+00
  0.192944927754E-02
  0.192898374589E-02
  0.146275579393E-02
  0.146291579007E-02
  0.622004624310E-03
  0.621936404277E-03
  0.211694151537E-02
  0.211693462177E-02
  0.158932776669E-01
  0.158933150732E-01
  0.595948955111E-01
  0.595949156115E-01
  0.150830422858E+00
  0.150830406089E+00
  0.244547464576E+00
  0.244547346235E+00
  0.369577336776E+00
  0.369577302018E+00
  0.623445142321E+00
  0.623444768246E+00
  0.491950392359E+00
  0.491950992673E+00
  0.170127228853E+00
  0.170127269123E+00
  0.327928724907E-01
  0.327930001104E-01
 -0.647632010351E-01
 -0.647631838477E-01
 -0.155896492290E+00
 -0.155896511816E+00
 -0.198280175442E+00
 -0.198280211921E+00
 -0.211473587838E+00
 -0.211473581161E+00
 -0.212900504041E+00
 -0.212900438289E+00
 -0.212097938122E+00
 -0.212098091785E+00
 -0.211653031533E+00
 -0.211652585523E+00
  0.192930386372E-02
  0.192944928978E-02
  0.146297249341E-02
  0.146275580202E-02
  0.622088628652E-03
  0.622004633183E-03
  0.211679918670E-02
  0.211694151725E-02
  0.158932762444E-01
  0.158932776696E-01
  0.595949156345E-01
  0.595948812605E-01
  0.150830406293E+00
  0.150830329538E+00
  0.244547351350E+00
  0.244547581593E+00
  0.369577309658E+00
  0.369577558151E+00
  0.623444705461E+00
  0.623444316881E+00
  0.491949715014E+00
  0.491950342816E+00
  0.170127520778E+00
  0.170127232371E+00
  0.327931217788E-01
  0.327928731766E-01
 -0.647632798329E-01
 -0.647632011230E-01
 -0.155896525718E+00
 -0.155896492351E+00
 -0.198280211956E+00
 -0.198280213348E+00
 -0.211473581349E+00
 -0.211473719375E+00
 -0.212900441326E+00
 -0.212900360297E+00
 -0.212098092958E+00
 -0.212097884730E+00
 -0.211652586866E+00
 -0.211652726238E+00
  0.192919198591E-02
  0.192930385160E-02
  0.146285729567E-02
  0.146297248199E-02
  0.622180505459E-03
  0.622088622824E-03
  0.211682795397E-02
  0.211679916378E-02
  0.158932748045E-01
  0.158932762325E-01
  0.595948813139E-01
  0.595948832567E-01
  0.150830329180E+00
  0.150830355628E+00
  0.244547580983E+00
  0.244547405697E+00
  0.369577581557E+00
  0.369577828735E+00
  0.623444347532E+00
  0.623444508837E+00
  0.491950003075E+00
  0.491949739200E+00
  0.170127819354E+00
  0.170127531552E+00
  0.327929320125E-01
  0.327931216969E-01
 -0.647632525313E-01
 -0.647632796789E-01
 -0.155896523974E+00
 -0.155896525858E+00
 -0.198280213200E+00
 -0.198280214597E+00
 -0.211473717085E+00
 -0.211473689102E+00
 -0.212900358303E+00
 -0.212900269522E+00
 -0.212097883075E+00
 -0.212097993872E+00
 -0.211652724908E+00
 -0.211652832178E+00
  0.192909133077E-02
  0.192919200909E-02
  0.146276130606E-02
  0.146285731081E-02
  0.622070079095E-03
  0.622180509846E-03
  0.211690055272E-02
  0.211682797262E-02
  0.158932914714E-01
  0.158932749130E-01
  0.595948833897E-01
  0.595948853371E-01
  0.150830355967E+00
  0.150830399123E+00
  0.244547401892E+00
  0.244547255891E+00
  0.369577838019E+00
  0.369578026577E+00
  0.623444539164E+00
  0.623444666918E+00
  0.491950240300E+00
  0.491950027005E+00
  0.170128044286E+00
  0.170127823627E+00
  0.327927729567E-01
  0.327929315023E-01
 -0.647632083154E-01
 -0.647632526766E-01
 -0.155896522438E+00
 -0.155896524322E+00
 -0.198280215952E+00
 -0.198280199682E+00
 -0.211473690965E+00
 -0.211473620168E+00
 -0.212900271023E+00
 -0.212900377995E+00
 -0.212097996067E+00
 -0.212098088557E+00
 -0.211652834721E+00
 -0.211652931348E+00
  0.192901299401E-02
  0.192909129856E-02
  0.146302919486E-02
  0.146276130531E-02
  0.621991199079E-03
  0.622070077129E-03
  0.211696220649E-02
  0.211690057746E-02
  0.158932194813E-01
  0.158932913760E-01
  0.595948851688E-01
  0.595949234977E-01
  0.150830399227E+00
  0.150830399223E+00
  0.244547251882E+00
  0.244547365583E+00
  0.369577992648E+00
  0.369577459555E+00
  0.623444696657E+00
  0.623444791124E+00
  0.491950426692E+00
  0.491950263767E+00
  0.170127400065E+00
  0.170128028668E+00
  0.327928965319E-01
  0.327927724191E-01
 -0.647632083638E-01
 -0.647632083601E-01
 -0.155896485022E+00
 -0.155896521997E+00
 -0.198280198493E+00
 -0.198280269527E+00
 -0.211473622640E+00
 -0.211473562209E+00
 -0.212900377322E+00
 -0.212900454014E+00
 -0.212098088448E+00
 -0.212097829776E+00
 -0.211652927814E+00
 -0.211653003066E+00
  0.192894589289E-02
  0.192901299394E-02
  0.146296518862E-02
  0.146302919197E-02
  0.622161957508E-03
  0.621991200650E-03
  0.211688557499E-02
  0.211696220031E-02
  0.158932719580E-01
  0.158932194943E-01
  0.595949235153E-01
  0.595948870939E-01
  0.150830399330E+00
  0.150830382661E+00
  0.244547375752E+00
  0.244547460298E+00
  0.369577467807E+00
  0.369577577514E+00
  0.623444818957E+00
  0.623444881456E+00
  0.491950562250E+00
  0.491950448655E+00
  0.170127534682E+00
  0.170127403864E+00
  0.327929908839E-01
  0.327928978956E-01
 -0.647632256348E-01
 -0.647632084097E-01
 -0.155896520053E+00
 -0.155896485068E+00
 -0.198280269689E+00
 -0.198280217439E+00
 -0.211473561592E+00
 -0.211473637295E+00
 -0.212900454551E+00
 -0.212900287639E+00
 -0.212097829357E+00
 -0.212097891362E+00
 -0.211653003059E+00
 -0.211653067665E+00
  0.192890108612E-02
  0.192894584574E-02
  0.146326505597E-02
  0.146296519498E-02
  0.622114633509E-03
  0.622161958714E-03
  0.211684174026E-02
  0.211688552152E-02
  0.158932357830E-01
  0.158932716750E-01
  0.595948868767E-01
  0.595949253089E-01
  0.150830381998E+00
  0.150830381998E+00
  0.244547451055E+00
  0.244547506716E+00
  0.369577514280E+00
  0.369576933432E+00
  0.623444913539E+00
  0.623444960461E+00
  0.491950680810E+00
  0.491950587566E+00
  0.170126801459E+00
  0.170127505573E+00
  0.327930515349E-01
  0.327929896444E-01
 -0.647632253500E-01
 -0.647632253500E-01
 -0.155896482794E+00
 -0.155896519484E+00
 -0.198280213908E+00
 -0.198280250059E+00
 -0.211473631953E+00
 -0.211473675669E+00
 -0.212900288052E+00
 -0.212900334663E+00
 -0.212097892284E+00
 -0.212097600425E+00
 -0.211653062492E+00
 -0.211653105703E+00
  0.192886762312E-02
  0.192890117983E-02
  0.146323313137E-02
  0.146326512546E-02
  0.622067316842E-03
  0.622114641123E-03
  0.211680892917E-02
  0.211684176034E-02
  0.158933246210E-01
  0.158932364138E-01
  0.595949258542E-01
  0.595949075752E-01
  0.150830382792E+00
  0.150830382788E+00
  0.244547522789E+00
  0.244547328514E+00
  0.369577041633E+00
  0.369577737180E+00
  0.623444991250E+00
  0.623445016953E+00
  0.491950765585E+00
  0.491950705105E+00
  0.170127715268E+00
  0.170126851267E+00
  0.327928342494E-01
  0.327930536902E-01
 -0.647632256946E-01
 -0.647632256909E-01
 -0.155896501520E+00
 -0.155896484220E+00
 -0.198280257928E+00
 -0.198280167672E+00
 -0.211473677675E+00
 -0.211473710949E+00
 -0.212900337269E+00
 -0.212900384377E+00
 -0.212097610498E+00
 -0.212097641844E+00
 -0.211653115987E+00
 -0.211653148506E+00
  0.192884532861E-02
  0.192886769856E-02
  0.146250539779E-02
  0.146323302109E-02
  0.622043607162E-03
  0.622067267744E-03
  0.211694708121E-02
  0.211680889506E-02
  0.158932885303E-01
  0.158933243222E-01
  0.595949069644E-01
  0.595948702758E-01
  0.150830382180E+00
  0.150830365740E+00
  0.244547313697E+00
  0.244547582955E+00
  0.369577608587E+00
  0.369577049166E+00
  0.623445042070E+00
  0.623445050828E+00
  0.491950816419E+00
  0.491950785404E+00
  0.170126935038E+00
  0.170127656073E+00
  0.327931434076E-01
  0.327928322625E-01
 -0.647632427621E-01
 -0.647632254336E-01
 -0.155896534216E+00
 -0.155896499922E+00
 -0.198280163944E+00
 -0.198280201381E+00
 -0.211473707541E+00
 -0.211473564564E+00
 -0.212900367574E+00
 -0.212900391479E+00
 -0.212097625860E+00
 -0.212098345375E+00
 -0.211653156784E+00
 -0.211653178578E+00
  0.193103178620E-02
  0.146564471664E-02
  0.146429744051E-02
  0.622304381788E-03
  0.622911375568E-03
  0.211904708688E-02
  0.211926482535E-02
  0.158667952445E-01
  0.158667503086E-01
  0.589771437169E-01
  0.589770778057E-01
  0.146634169050E+00
  0.146634147148E+00
  0.233764003558E+00
  0.233764177748E+00
  0.346755670407E+00
  0.346756010661E+00
  0.580603825746E+00
  0.458145470419E+00
  0.159622659644E+00
  0.159621598653E+00
  0.313473979007E-01
  0.313470957251E-01
 -0.629615207250E-01
 -0.629614881646E-01
 -0.154280686918E+00
 -0.154280599335E+00
 -0.197949117985E+00
 -0.197949081730E+00
 -0.211705096859E+00
 -0.211705269318E+00
 -0.213197393541E+00
 -0.213197851552E+00
 -0.212358234532E+00
 -0.212357305074E+00
 -0.211893099680E+00
 -0.152936880707E-01
 -0.157804624224E-01
 -0.157823120399E-01
 -0.166662321817E-01
 -0.166670559224E-01
 -0.150970972314E-01
 -0.150969741939E-01
 -0.763384514302E-03
 -0.762888196369E-03
  0.432387071379E-01
  0.432390203382E-01
  0.128615350534E+00
  0.128615264559E+00
  0.208915606150E+00
  0.208915449711E+00
  0.308456597040E+00
  0.308456634547E+00
  0.517718003147E+00
  0.423944513497E+00
  0.161693769535E+00
  0.161693475900E+00
  0.450939490304E-01
  0.450944574130E-01
 -0.460622020699E-01
 -0.460619536776E-01
 -0.140386555149E+00
 -0.140387495380E+00
 -0.187996015229E+00
 -0.187996199121E+00
 -0.203358716542E+00
 -0.203358752170E+00
 -0.205037050063E+00
 -0.205036894316E+00
 -0.204092078492E+00
 -0.204091986928E+00
 -0.203571564434E+00
 -0.474742270311E-01
 -0.479941880480E-01
 -0.479844175968E-01
 -0.489206253591E-01
 -0.489253275297E-01
 -0.472600681729E-01
 -0.472605720008E-01
 -0.321343636687E-01
 -0.321353891821E-01
  0.135126094130E-01
  0.135125072318E-01
  0.990843067500E-01
  0.990845747205E-01
  0.176736985031E+00
  0.176736577053E+00
  0.270733779756E+00
  0.270733586145E+00
  0.471835911045E+00
  0.412460878694E+00
  0.176585070271E+00
  0.176587169573E+00
  0.696133599509E-01
  0.696154464973E-01
 -0.174185024952E-01
 -0.174198719958E-01
 -0.112002368933E+00
 -0.112001680149E+00
 -0.161898308584E+00
 -0.161898163443E+00
 -0.178346693541E+00
 -0.178346672051E+00
 -0.180154911566E+00
 -0.180155229109E+00
 -0.179138704298E+00
 -0.179136643966E+00
 -0.178572019707E+00
 -0.913696389487E-01
 -0.919221065663E-01
 -0.919235078814E-01
 -0.929187123437E-01
 -0.929157038014E-01
 -0.911476551848E-01
 -0.911447404211E-01
 -0.751047763502E-01
 -0.751040268331E-01
 -0.271708995666E-01
 -0.271708218207E-01
  0.610361190055E-01
  0.610357923010E-01
  0.139690289638E+00
  0.139690680178E+00
  0.233977454571E+00
  0.233977230969E+00
  0.438157644966E+00
  0.417785574430E+00
  0.201487400993E+00
  0.201488913714E+00
  0.102377959800E+00
  0.102375906832E+00
  0.200351304652E-01
  0.200371385626E-01
 -0.719488477320E-01
 -0.719496077158E-01
 -0.121779821469E+00
 -0.121779846766E+00
 -0.138429934997E+00
 -0.138429717423E+00
 -0.140264246181E+00
 -0.140263679945E+00
 -0.139231066494E+00
 -0.139231532314E+00
 -0.138658266602E+00
SCALARS inclination float 1
LOOKUP_TABLE default
  0.100000000000E+01
  0.100000000000E+01
  0.100000000000E+01
  0.100000000000E+01
  0.100000000000E+01
  0.100000000000E+01
  0.100000000000E+01
  0.100000000000E+01
  0.100000000000E+01
  0.100000000000E+01
  0.100000000000E+01
  0.100000000000E+01
  0.100000000000E+01
  0.100000000000E+01
  0.100000000000E+01
  0.100000000000E+01
  0.100000000000E+01
  0.100000000000E+01
  0.100000000000E+01
  0.100000000000E+01
  0.100000000000E+01
  0.100000000000E+01
  0.100000000000E+01
  0.100000000000E+01
  0.100000000000E+01
  0.100000000000E+01
  0.100000000000E+01
  0.100000000000E+01
  0.100000000000E+01
  0.100000000000E+01
  0.100000000000E+01
  0.100000000000E+01
  0.100000000000E+01
  0.100000000000E+01
  0.100000000000E+01
  0.100000000000E+01
  0.100000000000E+01
  0.100000000000E+01
  0.100000000000E+01
  0.100000000000E+01
  0.100000000000E+01
  0.100000000000E+01