# vtk DataFile Version 3.0
MachLine results file. Generated by MachLine, USU AeroLab (c) 2022.
ASCII
DATASET POLYDATA
POINTS                 144 float
  0.000000000000E+00  0.000000000000E+00  0.000000000000E+00
  0.113538098335E+01  0.000000000000E+00 -0.658124566078E+00
  0.113538098335E+01  0.000000000000E+00  0.658124566078E+00
  0.192375373840E+01  0.192375373840E+01  0.000000000000E+00
  0.305913543701E+01  0.192375373840E+01 -0.658124983311E+00
  0.305913543701E+01  0.192375373840E+01  0.658124983311E+00
  0.423028087616E+01  0.000000000000E+00 -0.108747220039E+01
  0.423028087616E+01  0.000000000000E+00  0.108747220039E+01
  0.547033166885E+01  0.547033166885E+01  0.000000000000E+00
  0.615403699875E+01  0.192375373840E+01 -0.108747279644E+01
  0.615403699875E+01  0.192375373840E+01  0.108747279644E+01
  0.660571479797E+01  0.547033166885E+01 -0.658125698566E+00
  0.660571479797E+01  0.547033166885E+01  0.658125698566E+00
  0.939508819580E+01  0.000000000000E+00 -0.980745851994E+00
  0.939508819580E+01  0.000000000000E+00  0.980745851994E+00
  0.970061969757E+01  0.547033166885E+01 -0.108747410774E+01
  0.970061969757E+01  0.547033166885E+01  0.108747410774E+01
  0.113188476562E+02  0.192375373840E+01 -0.980746448040E+00
  0.113188476562E+02  0.192375373840E+01  0.980746448040E+00
  0.113820018768E+02  0.113820018768E+02  0.000000000000E+00
  0.125173873901E+02  0.113820018768E+02 -0.658127009869E+00
  0.125173873901E+02  0.113820018768E+02  0.658127009869E+00
  0.145402030945E+02  0.000000000000E+00 -0.479613035917E+00
  0.145402030945E+02  0.000000000000E+00  0.479613035917E+00
  0.148654365540E+02  0.547033166885E+01 -0.980747580528E+00
  0.148654365540E+02  0.547033166885E+01  0.980747580528E+00
  0.156122989655E+02  0.113820018768E+02 -0.108747613430E+01
  0.156122989655E+02  0.113820018768E+02  0.108747613430E+01
  0.164639663696E+02  0.192375373840E+01 -0.479613333941E+00
  0.164639663696E+02  0.192375373840E+01  0.479613333941E+00
  0.176505107880E+02  0.000000000000E+00 -0.144198849797E+00
  0.176505107880E+02  0.000000000000E+00  0.144198849797E+00
  0.190000000000E+02  0.000000000000E+00  0.000000000000E+00
  0.195742740631E+02  0.192375373840E+01 -0.144198939204E+00
  0.195742740631E+02  0.192375373840E+01  0.144198939204E+00
  0.197561950684E+02  0.197561950684E+02  0.000000000000E+00
  0.200105609894E+02  0.547033166885E+01 -0.479613870382E+00
  0.200105609894E+02  0.547033166885E+01  0.479613870382E+00
  0.207771244049E+02  0.113820018768E+02 -0.980749428272E+00
  0.207771244049E+02  0.113820018768E+02  0.980749428272E+00
  0.208915824890E+02  0.197561950684E+02 -0.658128738403E+00
  0.208915824890E+02  0.197561950684E+02  0.658128738403E+00
  0.209237651825E+02  0.192375373840E+01  0.000000000000E+00
  0.231208724976E+02  0.547033166885E+01 -0.144199103117E+00
  0.231208724976E+02  0.547033166885E+01  0.144199103117E+00
  0.239865016937E+02  0.197561950684E+02 -0.108747911453E+01
  0.239865016937E+02  0.197561950684E+02  0.108747911453E+01
  0.244703655243E+02  0.547033166885E+01  0.000000000000E+00
  0.259222583771E+02  0.113820018768E+02 -0.479614794254E+00
  0.259222583771E+02  0.113820018768E+02  0.479614794254E+00
  0.290325775146E+02  0.113820018768E+02 -0.144199386239E+00
  0.290325775146E+02  0.113820018768E+02  0.144199386239E+00
  0.291513423920E+02  0.197561950684E+02 -0.980752110481E+00
  0.291513423920E+02  0.197561950684E+02  0.980752110481E+00
  0.292438049316E+02  0.292438049316E+02  0.000000000000E+00
  0.303791980743E+02  0.292438049316E+02 -0.658130764961E+00
  0.303791980743E+02  0.292438049316E+02  0.658130764961E+00
  0.303820724487E+02  0.113820018768E+02  0.000000000000E+00
  0.334741249084E+02  0.292438049316E+02 -0.108748245239E+01
  0.334741249084E+02  0.292438049316E+02  0.108748245239E+01
  0.342964897156E+02  0.197561950684E+02 -0.479616105556E+00
  0.342964897156E+02  0.197561950684E+02  0.479616105556E+00
  0.374068183899E+02  0.197561950684E+02 -0.144199773669E+00
  0.374068183899E+02  0.197561950684E+02  0.144199773669E+00
  0.376179962158E+02  0.376179962158E+02  0.000000000000E+00
  0.386389808655E+02  0.292438049316E+02 -0.980755090714E+00
  0.386389808655E+02  0.292438049316E+02  0.980755090714E+00
  0.387533912659E+02  0.376179962158E+02 -0.658132553101E+00
  0.387533912659E+02  0.376179962158E+02  0.658132553101E+00
  0.387563171387E+02  0.197561950684E+02  0.000000000000E+00
  0.418483314514E+02  0.376179962158E+02 -0.108748543262E+01
  0.418483314514E+02  0.376179962158E+02  0.108748543262E+01
  0.435296669006E+02  0.435296669006E+02  0.000000000000E+00
  0.437841453552E+02  0.292438049316E+02 -0.479617565870E+00
  0.437841453552E+02  0.292438049316E+02  0.479617565870E+00
  0.446650657654E+02  0.435296669006E+02 -0.658133804798E+00
  0.446650657654E+02  0.435296669006E+02  0.658133804798E+00
  0.468944816589E+02  0.292438049316E+02 -0.144200220704E+00
  0.468944816589E+02  0.292438049316E+02  0.144200220704E+00
  0.470131988525E+02  0.376179962158E+02 -0.980757772923E+00
  0.470131988525E+02  0.376179962158E+02  0.980757772923E+00
  0.470762481689E+02  0.470762481689E+02  0.000000000000E+00
  0.477600097656E+02  0.435296669006E+02 -0.108748745918E+01
  0.477600097656E+02  0.435296669006E+02  0.108748745918E+01
  0.482116432190E+02  0.470762481689E+02 -0.658134579659E+00
  0.482116432190E+02  0.470762481689E+02  0.658134579659E+00
  0.482439842224E+02  0.292438049316E+02  0.000000000000E+00
  0.490000000000E+02  0.490000000000E+02  0.000000000000E+00
  0.501353988647E+02  0.490000000000E+02 -0.658134996891E+00
  0.501353988647E+02  0.490000000000E+02  0.658134996891E+00
  0.506007728577E+02  0.494653701782E+02 -0.465371757746E+00
  0.506007728577E+02  0.494653701782E+02  0.465371757746E+00
  0.507935333252E+02  0.496581344604E+02 -0.771266485397E-15
  0.513065910339E+02  0.470762481689E+02 -0.108748877048E+01
  0.513065910339E+02  0.470762481689E+02  0.108748877048E+01
  0.521583786011E+02  0.376179962158E+02 -0.479618877172E+00
  0.521583786011E+02  0.376179962158E+02  0.479618877172E+00
  0.529248886108E+02  0.435296669006E+02 -0.980759620667E+00
  0.529248886108E+02  0.435296669006E+02  0.980759620667E+00
  0.532303466797E+02  0.490000000000E+02 -0.108748936653E+01
  0.532303466797E+02  0.490000000000E+02  0.108748936653E+01
  0.539993209839E+02  0.497689704895E+02 -0.768971264362E+00
  0.539993209839E+02  0.497689704895E+02  0.768971264362E+00
  0.543178405762E+02  0.500874900818E+02 -0.157378642191E-15
  0.552687225342E+02  0.376179962158E+02 -0.144200608134E+00
  0.552687225342E+02  0.376179962158E+02  0.144200608134E+00
  0.564714775085E+02  0.470762481689E+02 -0.980760753155E+00
  0.564714775085E+02  0.470762481689E+02  0.980760753155E+00
  0.566182289124E+02  0.376179962158E+02  0.000000000000E+00
  0.580700759888E+02  0.435296669006E+02 -0.479619771242E+00
  0.580700759888E+02  0.435296669006E+02  0.479619771242E+00
  0.583952369690E+02  0.490000000000E+02 -0.980761349201E+00
  0.583952369690E+02  0.490000000000E+02  0.980761349201E+00
  0.590887413025E+02  0.496935043335E+02 -0.693503141403E+00
  0.590887413025E+02  0.496935043335E+02  0.693503141403E+00
  0.593759994507E+02  0.499807624817E+02  0.000000000000E+00
  0.611804275513E+02  0.435296669006E+02 -0.144200876355E+00
  0.611804275513E+02  0.435296669006E+02  0.144200876355E+00
  0.616166725159E+02  0.470762481689E+02 -0.479620337486E+00
  0.616166725159E+02  0.470762481689E+02  0.479620337486E+00
  0.625299339294E+02  0.435296669006E+02  0.000000000000E+00
  0.635404319763E+02  0.490000000000E+02 -0.479620635509E+00
  0.635404319763E+02  0.490000000000E+02  0.479620635509E+00
  0.638795776367E+02  0.493391418457E+02 -0.339143037796E+00
  0.638795776367E+02  0.493391418457E+02  0.339143037796E+00
  0.640200576782E+02  0.494796218872E+02  0.296956834055E-15
  0.647270278931E+02  0.470762481689E+02 -0.144201040268E+00
  0.647270278931E+02  0.470762481689E+02  0.144201040268E+00
  0.660765380859E+02  0.470762481689E+02  0.000000000000E+00
  0.666507873535E+02  0.490000000000E+02 -0.144201144576E+00
  0.666507873535E+02  0.490000000000E+02  0.144201144576E+00
  0.667527542114E+02  0.491019668579E+02 -0.101965606213E+00
  0.667527542114E+02  0.491019668579E+02  0.101965606213E+00
  0.667949905396E+02  0.491441993713E+02 -0.260488604752E-16
  0.680002975464E+02  0.490000000000E+02  0.000000000000E+00
  0.209237651825E+02  0.192375373840E+01  0.000000000000E+00
  0.190000000000E+02  0.000000000000E+00  0.000000000000E+00
  0.660765380859E+02  0.470762481689E+02  0.000000000000E+00
  0.625299339294E+02  0.435296669006E+02  0.000000000000E+00
  0.566182289124E+02  0.376179962158E+02  0.000000000000E+00
  0.387563171387E+02  0.197561950684E+02  0.000000000000E+00
  0.303820724487E+02  0.113820018768E+02  0.000000000000E+00
  0.244703655243E+02  0.547033166885E+01  0.000000000000E+00
  0.482439842224E+02  0.292438049316E+02  0.000000000000E+00
POLYGONS                 256                1024
3                  32                  33                  42
3                  32                  30                  33
3                  30                  28                  33
3                  30                  22                  28
3                  22                  17                  28
3                  22                  13                  17
3                  13                   6                  17
3                  17                   6                   9
3                   6                   1                   9
3                   9                   1                   4
3                   1                   0                   4
3                   4                   0                   3
3                   0                   5                   3
3                   0                   2                   5
3                   2                  10                   5
3                   2                   7                  10
[...]
CELL_DATA                 256
SCALARS C_p_inc float 1
LOOKUP_TABLE default
  0.121696424185E+00
  0.913161932188E-01
  0.468162998651E-01
  0.204110820637E-01
 -0.248913008541E-01
 -0.440742193194E-01
 -0.230276331356E-01
 -0.427297416397E-01
  0.159914720008E+00
  0.793401731901E-01
  0.547460235614E+00
  0.543460903529E+00
 -0.289508610970E+00
  0.120170020481E+00
 -0.538581643838E+00
 -0.362187660511E+00
 -0.407276907494E+00
 -0.412310048129E+00
 -0.298984871429E+00
 -0.244395909524E+00
 -0.132203757614E+00
 -0.615560362834E-01
  0.169330891678E-01
  0.956418507289E-01
  0.120414349195E+00
  0.120159199599E+00
  0.552330380498E-01
  0.467329069534E-01
 -0.109354447159E-01
 -0.247706576467E-01
 -0.425913711360E-01
 -0.465082853192E-01
  0.791287861413E-01
  0.712417625877E-01
  0.476191987599E+00
  0.480730080350E+00
 -0.498734513100E+00
 -0.284635394136E+00
 -0.646142416492E+00
 -0.531093317950E+00
 -0.417558006250E+00
 -0.420661402318E+00
 -0.244870377740E+00
 -0.196760729195E+00
 -0.613637885698E-01
 -0.207430362820E-01
  0.927767508328E-01
  0.107525585416E+00
  0.120352607771E+00
  0.119692731895E+00
  0.556946548058E-01
  0.550156231008E-01
 -0.545341361707E-02
 -0.107400916642E-01
 -0.466124071359E-01
 -0.358279856574E-01
  0.707936050036E-01
  0.878344600490E-01
  0.480465176509E+00
  0.485097848660E+00
 -0.625372048184E+00
 -0.497139991051E+00
 -0.702475290525E+00
 -0.648672604009E+00
 -0.416166256411E+00
 -0.429442308766E+00
 -0.197696975816E+00
 -0.174796417697E+00
 -0.207544002755E-01
 -0.771222905986E-02
  0.107433064158E+00
  0.113799696815E+00
  0.118598387440E+00
  0.119637920176E+00
  0.538970399917E-01
  0.554388007198E-01
 -0.505597721939E-02
 -0.533338413140E-02
 -0.358682434123E-01
 -0.300339125696E-01
  0.882357033197E-01
  0.103796909275E+00
  0.492724496186E+00
  0.494899190948E+00
 -0.686291162739E+00
 -0.625596073391E+00
 -0.726749393828E+00
 -0.707622587129E+00
 -0.418667415658E+00
 -0.422693843274E+00
 -0.175711763274E+00
 -0.168557658509E+00
 -0.764289431758E-02
 -0.125384920201E-02
  0.114578615412E+00
  0.119544512210E+00
  0.111159614033E+00
  0.117501287984E+00
  0.454298961518E-01
  0.534895252075E-01
 -0.115683573623E-01
 -0.500554606197E-02
 -0.298672576033E-01
 -0.333516164583E-01
  0.103803921156E+00
  0.105993757425E+00
  0.497963102845E+00
  0.498348659136E+00
 -0.701622389329E+00
 -0.686621054282E+00
 -0.729710324977E+00
 -0.729518474660E+00
 -0.413615938740E+00
 -0.421813513823E+00
 -0.169445033234E+00
 -0.159182999261E+00
 -0.121864362531E-02
  0.107322252576E-01
  0.120693791227E+00
  0.131416641556E+00
  0.963476111988E-01
  0.108852864182E+00
  0.264221705292E-01
  0.445275909227E-01
 -0.303436303118E-01
 -0.115947213719E-01
 -0.330145676470E-01
 -0.510445037729E-01
  0.105289255671E+00
  0.918193208158E-01
  0.496704877626E+00
  0.496236923688E+00
 -0.673796604876E+00
 -0.701908297369E+00
 -0.707303367370E+00
 -0.732436142925E+00
 -0.391055992140E+00
 -0.417481069880E+00
 -0.160197904802E+00
 -0.133191409104E+00
  0.106524293250E-01
  0.410689108358E-01
  0.133362307665E+00
  0.160830393608E+00
  0.742620716596E-01
  0.913285506410E-01
  0.333267509119E-02
  0.241683311466E-01
 -0.537200203626E-01
 -0.307302619103E-01
 -0.505383582253E-01
 -0.852357414046E-01
  0.896426301038E-01
  0.570823279905E-01
  0.488165064613E+00
  0.487143818265E+00
 -0.611439900775E+00
 -0.674167225589E+00
 -0.661016770021E+00
 -0.711844743385E+00
 -0.342562156125E+00
 -0.399249977269E+00
 -0.134652524606E+00
 -0.774141434918E-01
  0.403597950287E-01
  0.988562720667E-01
  0.164199226286E+00
  0.218498728445E+00
 -0.102710536849E-02
  0.638719365057E-01
 -0.283137025472E-01
 -0.163015645007E-02
 -0.683496378848E-01
 -0.559021787936E-01
 -0.855333919123E-01
 -0.106625416798E+00
  0.500620791153E-01
 -0.770939611566E-02
  0.462764800538E+00
  0.462677459846E+00
 -0.529921041632E+00
 -0.611472254182E+00
 -0.591006625551E+00
 -0.668880144460E+00
 -0.249834999809E+00
 -0.365964806238E+00
 -0.813168371702E-01
 -0.109185312710E-01
  0.940154797097E-01
  0.170421669785E+00
  0.218903057609E+00
  0.290868421047E+00
 -0.202869885208E+03
 -0.293741596224E+00
 -0.660002025795E+00
 -0.412180762551E-01
 -0.877265602114E-01
 -0.775553704755E-01
 -0.113953232594E+00
 -0.105657435690E+00
 -0.316667226374E-01
 -0.461284923662E-01
  0.347036076723E+00
  0.364240372326E+00
 -0.421390380115E+00
 -0.528246774867E+00
 -0.395529710381E+00
 -0.629661643386E+00
 -0.153232337565E+00
 -0.326642439003E+00
 -0.320583958385E-01
  0.127864356514E-01
  0.136008003582E+00
 -0.202974314049E+00
  0.262730442920E+00
 -0.207658326367E+03
 -0.470478863741E+03
 -0.585748014036E+01
 -0.589291557287E+00
 -0.213603182974E+00
 -0.141950042320E+00
 -0.167614912334E+00
 -0.168363023406E+00
 -0.153487013231E+00
 -0.179151894440E+00
 -0.244373460407E-02
 -0.425929078383E+00
 -0.316102319466E+00
 -0.484850791935E+00
 -0.179681778787E+00
 -0.360977760281E+00
 -0.954765583751E-01
 -0.257037381214E+00
 -0.843586866664E+00
 -0.123576394681E+01
 -0.435364618902E+03
 -0.315154777672E+03
 -0.849948311740E+01
 -0.961666118196E+00
 -0.434669206864E+00
 -0.234289824748E+00
 -0.293300574286E+00
 -0.266979053669E+00
 -0.290613107055E+00
 -0.312611744236E+00
 -0.205346846844E+00
 -0.351937738343E+00
 -0.357547480825E+00
 -0.394396963697E+00
 -0.256241371161E+00
 -0.380523360405E+00
 -0.233581121586E+00
 -0.462712506041E+00
 -0.130447467074E+01
 -0.145499440914E+01
 -0.285772406038E+03
SCALARS sigma float 1
LOOKUP_TABLE default
  0.175017226851E-02
  0.175008891247E-02
  0.781459428867E-03
  0.781525349272E-03
  0.110648552507E-01
  0.110648411864E-01
  0.874187508560E-01
  0.874187642387E-01
  0.241315074770E+00
  0.241315060136E+00
  0.529180910234E+00
  0.529180910915E+00
  0.362135599677E+00
  0.362135598649E+00
  0.293570262943E-01
  0.293570426680E-01
 -0.128487771857E+00
 -0.128487784961E+00
 -0.202913446817E+00
 -0.202913432555E+00
 -0.212748227716E+00
 -0.212748293058E+00
 -0.211823817121E+00
 -0.211823736221E+00
  0.175020132871E-02
  0.175017226333E-02
  0.781471698642E-03
  0.781459422472E-03
  0.110648478519E-01
  0.110648552689E-01
  0.874187641525E-01
  0.874187543334E-01
  0.241315060714E+00
  0.241315098655E+00
  0.529180905021E+00
  0.529180870580E+00
  0.362135547719E+00
  0.362135595644E+00
  0.293570678013E-01
  0.293570263646E-01
 -0.128487781398E+00
 -0.128487771730E+00
 -0.202913432890E+00
 -0.202913440222E+00
 -0.212748291317E+00
 -0.212748279356E+00
 -0.211823735594E+00
 -0.211823707597E+00
  0.175014354019E-02
  0.175020132838E-02
  0.781529211958E-03
  0.781471700091E-03
  0.110648488187E-01
  0.110648478586E-01
  0.874187543755E-01
  0.874187540938E-01
  0.241315098155E+00
  0.241315037232E+00
  0.529180868386E+00
  0.529180845556E+00
  0.362135515484E+00
  0.362135546217E+00
  0.293570019491E-01
  0.293570677404E-01
 -0.128487781738E+00
 -0.128487781460E+00
 -0.202913440345E+00
 -0.202913439408E+00
 -0.212748279750E+00
 -0.212748224179E+00
 -0.211823707556E+00
 -0.211823763021E+00
  0.175015825148E-02
  0.175014354183E-02
  0.781562261598E-03
  0.781529214845E-03
  0.110648353021E-01
  0.110648488138E-01
  0.874187540812E-01
  0.874187574238E-01
  0.241315038264E+00
  0.241315094425E+00
  0.529180859204E+00
  0.529181066084E+00
  0.362135799562E+00
  0.362135524823E+00
  0.293570624255E-01
  0.293570020747E-01
 -0.128487778416E+00
 -0.128487781719E+00
 -0.202913439318E+00
 -0.202913452442E+00
 -0.212748224965E+00
 -0.212748193150E+00
 -0.211823763219E+00
 -0.211823749123E+00
  0.175012953080E-02
  0.175015825304E-02
  0.781502049931E-03
  0.781562260451E-03
  0.110648644449E-01
  0.110648352941E-01
  0.874187574292E-01
  0.874187492498E-01
  0.241315093837E+00
  0.241315167425E+00
  0.529181041135E+00
  0.529180609337E+00
  0.362135211193E+00
  0.362135782488E+00
  0.293571413236E-01
  0.293570623540E-01
 -0.128487786510E+00
 -0.128487778424E+00
 -0.202913452295E+00
 -0.202913424026E+00
 -0.212748192838E+00
 -0.212748250744E+00
 -0.211823749312E+00
 -0.211823776823E+00
  0.175014423408E-02
  0.175012952447E-02
  0.781470090532E-03
  0.781502046405E-03
  0.110648865412E-01
  0.110648644375E-01
  0.874187492402E-01
  0.874187373435E-01
  0.241315166560E+00
  0.241314974777E+00
  0.529180624290E+00
  0.529180850944E+00
  0.362135522424E+00
  0.362135221425E+00
  0.293569351254E-01
  0.293571412184E-01
 -0.128487798254E+00
 -0.128487786496E+00
 -0.202913423890E+00
 -0.202913402421E+00
 -0.212748249784E+00
 -0.212748280548E+00
 -0.211823776057E+00
 -0.211823761962E+00
  0.174994879056E-02
  0.175014423691E-02
  0.781532317941E-03
  0.781470094365E-03
  0.110648462050E-01
  0.110648865601E-01
  0.874187373693E-01
  0.874187485223E-01
  0.241314974192E+00
  0.241315045169E+00
  0.529180821168E+00
  0.529180511289E+00
  0.362135084889E+00
  0.362135502047E+00
  0.293570117028E-01
  0.293569350542E-01
 -0.128487787282E+00
 -0.128487798292E+00
 -0.202913402767E+00
 -0.202913442176E+00
 -0.212748281592E+00
 -0.212748221468E+00
 -0.211823762305E+00
 -0.211823949894E+00
  0.175012636001E-02
  0.174994879050E-02
  0.781535179983E-03
  0.781532321896E-03
  0.110648801435E-01
  0.110648462709E-01
  0.874187485326E-01
  0.874187444365E-01
  0.241315053148E+00
  0.241315055212E+00
  0.529180665751E+00
  0.529181568332E+00
  0.362136446544E+00
  0.362135190593E+00
  0.293570149278E-01
  0.293570126735E-01
 -0.128487791330E+00
 -0.128487787297E+00
 -0.202913443386E+00
 -0.202913409899E+00
 -0.212748222545E+00
 -0.212748219760E+00
 -0.211823949887E+00
 -0.211823778843E+00
  0.175005040962E-02
  0.175012639870E-02
  0.781473972955E-03
  0.781535183573E-03
  0.110648230136E-01
  0.110648800193E-01
  0.874187443967E-01
  0.874187596914E-01
  0.241315044479E+00
  0.241315094119E+00
  0.529181397255E+00
  0.529180933302E+00
  0.362135628515E+00
  0.362136329471E+00
  0.293570691650E-01
  0.293570136221E-01
 -0.128487776296E+00
 -0.128487791272E+00
 -0.202913407622E+00
 -0.202913465427E+00
 -0.212748220737E+00
 -0.212748281411E+00
 -0.211823783526E+00
 -0.211823857276E+00
  0.168305636869E-02
  0.752380419759E-03
  0.751846173744E-03
  0.106019540242E-01
  0.106021122037E-01
  0.813656764638E-01
  0.813657714231E-01
  0.213638479167E+00
  0.213638636752E+00
  0.448873688193E+00
  0.307178783225E+00
  0.259904072898E-01
  0.259900841765E-01
 -0.119590802704E+00
 -0.119590976497E+00
 -0.194427992698E+00
 -0.194428086281E+00
 -0.204682416670E+00
 -0.204682156091E+00
 -0.203714984476E+00
 -0.620992042678E-01
 -0.631401331159E-01
 -0.631345625348E-01
 -0.522053822694E-01
 -0.522068576820E-01
  0.227467162283E-01
  0.227466292638E-01
  0.149758588744E+00
  0.149758497651E+00
  0.358360671869E+00
  0.306729199639E+00
  0.764005413708E-01
  0.764009009126E-01
 -0.613786813212E-01
 -0.613782251626E-01
 -0.141867290558E+00
 -0.141867111965E+00
 -0.153552874816E+00
 -0.153552638911E+00
 -0.152440204769E+00
SCALARS inclination float 1
LOOKUP_TABLE default
  0.100000000000E+01
  0.100000000000E+01
  0.100000000000E+01
  0.100000000000E+01
  0.100000000000E+01
  0.100000000000E+01
  0.100000000000E+01
  0.100000000000E+01
  0.100000000000E+01
  0.100000000000E+01
  0.100000000000E+01
  0.100000000000E+01
  0.100000000000E+01
  0.100000000000E+01
  0.100000000000E+01
  0.100000000000E+01
  0.100000000000E+01
  0.100000000000E+01
  0.100000000000E+01
  0.100000000000E+01
  0.100000000000E+01
  0.100000000000E+01
  0.100000000000E+01
  0.100000000000E+01
  0.100000000000E+01
  0.100000000000E+01
  0.100000000000E+01
  0.100000000000E+01
  0.100000000000E+01
  0.100000000000E+01
  0.100000000000E+01
  0.100000000000E+01
  0.100000000000E+01
  0.100000000000E+01
  0.100000000000E+01
  0.100000000000E+01
  0.100000000000E+01
  0.100000000000E+01
  0.100000000000E+01
  0.100000000000E+01
  0.100000000000E+01
  0.100000000000E+01
  0.100000000000E+01
  0.100000000000E+01
  0.100000000000E+01
  0.100000000000E+01
  0.100000000000E+01
  0.100000000000E+01
  0.100000000000E+01
  0.100000000000E+01
  0.100000000000E+01
  0.100000000000E+01
  0.100000000000E+01
  0.100000000000E+01
  0.100000000000E+01
  0.100000000000E+01
  0.100000000000E+01
  0.100000000000E+01
  0.100000000000E+01
  0.100000000000E+01
  0.100000000000E+01
  0.100000000000E+01
  0.100000000000E+01
  0.100000000000E+01
  0.100000000000E+01
  0.100000000000E+01
  0.100000000000E+01
  0.100000000000E+01
  0.100000000000E+01
  0.100000000000E+01
  0.100000000000E+01
  0.100000000000E+01
  0.100000000000E+01
  0.100000000000E+01
  0.100000000000E+01
  0.100000000000E+01
  0.100000000000E+01
  0.100000000000E+01
  0.100000000000E+01
  0.100000000000E+01
  0.100000000000E+01
  0.100000000000E+01
  0.100000000000E+01
  0.100000000000E+01
  0.100000000000E+01
  0.100000000000E+01
  0.100000000000E+01
  0.100000000000E+01
  0.100000000000E+01
  0.100000000000E+01
  0.100000000000E+01
  0.100000000000E+01
  0.100000000000E+01
  0.100000000000E+01
  0.100000000000E+01
  0.100000000000E+01
  0.100000000000E+01
  0.100000000000E+01
  0.100000000000E+01
  0.100000000000E+01
  0.100000000000E+01
  0.100000000000E+01
  0.100000000000E+01
  0.100000000000E+01
  0.100000000000E+01
  0.100000000000E+01
  0.100000000000E+01
  0.100000000000E+01
  0.100000000000E+01
  0.100000000000E+01
  0.100000000000E+01
  0.100000000000E+01
  0.100000000000E+01
  0.100000000000E+01
  0.100000000000E+01
  0.100000000000E+01
  0.100000000000E+01
  0.100000000000E+01
  0.100000000000E+01
  0.100000000000E+01
  0.100000000000E+01
  0.100000000000E+01
  0.100000000000E+01
  0.100000000000E+01
  0.100000000000E+01
  0.100000000000E+01
  0.100000000000E+01
  0.100000000000E+01
  0.100000000000E+01
  0.100000000000E+01
  0.100000000000E+01
  0.100000000000E+01
  0.100000000000E+01
  0.100000000000E+01
  0.100000000000E+01
  0.100000000000E+01
  0.100000000000E+01
  0.100000000000E+01
  0.100000000000E+01
  0.100000000000E+01
  0.100000000000E+01
  0.100000000000E+01
  0.100000000000E+01
  0.100000000000E+01
  0.100000000000E+01
  0.100000000000E+01
  0.100000000000E+01
  0.100000000000E+01
  0.100000000000E+01
  0.100000000000E+01
  0.100000000000E+01
  0.100000000000E+01
  0.100000000000E+01
  0.100000000000E+01
  0.100000000000E+01
  0.100000000000E+01
  0.100000000000E+01
  0.100000000000E+01
  0.100000000000E+01
  0.100000000000E+01
  0.100000000000E+01
  0.100000000000E+01
  0.100000000000E+01
  0.100000000000E+01
  0.100000000000E+01
  0.100000000000E+01
  0.100000000000E+01
  0.100000000000E+01
  0.100000000000E+01
  0.100000000000E+01
  0.100000000000E+01
  0.100000000000E+01
  0.100000000000E+01
  0.100000000000E+01
  0.100000000000E+01
  0.100000000000E+01
  0.100000000000E+01
  0.100000000000E+01
  0.100000000000E+01
  0.100000000000E+01
  0.100000000000E+01
  0.100000000000E+01
  0.100000000000E+01
  0.100000000000E+01
  0.100000000000E+01
  0.100000000000E+01
  0.100000000000E+01
  0.100000000000E+01
  0.100000000000E+01
  0.100000000000E+01
  0.100000000000E+01
  0.100000000000E+01
  0.100000000000E+01
  0.100000000000E+01
  0.100000000000E+01
  0.100000000000E+01
  0.100000000000E+01
  0.100000000000E+01
  0.100000000000E+01
  0.100000000000E+01
  0.100000000000E+01
  0.100000000000E+01
  0.100000000000E+01
  0.100000000000E+01
  0.100000000000E+01
  0.100000000000E+01
  0.100000000000E+01
  0.100000000000E+01
  0.100000000000E+01
  0.100000000000E+01
  0.100000000000E+01
  0.100000000000E+01
  0.100000000000E+01
  0.100000000000E+01
  0.100000000000E+01
  0.100000000000E+01
  0.100000000000E+01
  0.100000000000E+01
  0.100000000000E+01
  0.100000000000E+01
  0.100000000000E+01
  0.100000000000E+01
  0.100000000000E+01
  0.100000000000E+01
  0.100000000000E+01
  0.100000000000E+01
  0.100000000000E+01
  0.100000000000E+01
  0.100000000000E+01
  0.100000000000E+01
  0.100000000000E+01
  0.100000000000E+01
  0.100000000000E+01
  0.100000000000E+01
  0.100000000000E+01
  0.100000000000E+01
  0.100000000000E+01
  0.100000000000E+01
  0.100000000000E+01
  0.100000000000E+01
  0.100000000000E+01
  0.100000000000E+01
  0.100000000000E+01
  0.100000000000E+01
  0.100000000000E+01
  0.100000000000E+01
  0.100000000000E+01
  0.100000000000E+01
  0.100000000000E+01
  0.100000000000E+01
  0.100000000000E+01
  0.100000000000E+01
  0.100000000000E+01
  0.100000000000E+01
  0.100000000000E+01
  0.100000000000E+01
VECTORS v float
  0.151892289714E+03  0.368584842875E+01  0.158364943256E+02
  0.154505346935E+03  0.293276729571E+01  0.161961942118E+02
  0.158210621636E+03 -0.772525730259E+00  0.171446823911E+02
  0.160403694535E+03  0.595639121338E+00  0.172336285817E+02
  0.164178325678E+03 -0.317901087838E+01  0.163005594893E+02
  0.165762764049E+03 -0.552289330462E+00  0.161990420818E+02
  0.164830606650E+03  0.379866875560E+00  0.339823446112E+01
  0.166328670943E+03 -0.514819210658E+01  0.354342289806E+01
  0.147615684805E+03  0.135648103640E+02 -0.185965406319E+02
  0.154701911784E+03 -0.573868335942E+01 -0.222575142866E+02
  0.911448853605E+02  0.578183673323E+02 -0.193177449928E+02
  0.946720196150E+02  0.499497619041E+02 -0.259232953514E+02
  0.156680498063E+03 -0.120587165438E+02  0.978098316477E+02
  0.136657713062E+03  0.326096696564E+02  0.603115381289E+02
  0.197701583979E+03 -0.284342176801E+02  0.313712392554E+02
  0.188357410765E+03 -0.297988377736E+01  0.265437385185E+02
  0.193163346520E+03 -0.778581597725E+01 -0.415244337864E+01
  0.193461209476E+03 -0.888497058857E+01 -0.418131492855E+01
  0.184897737235E+03 -0.321468582438E+00 -0.180403013386E+02
  0.180764534237E+03 -0.717359496638E+01 -0.183051254462E+02
  0.172449808316E+03  0.114117219920E+01 -0.184738456685E+02
  0.166931489919E+03 -0.230147446303E+01 -0.182500196350E+02
  0.160695493680E+03  0.393455262049E+01 -0.167505928417E+02
  0.154087187689E+03  0.583906289933E+01 -0.158409470189E+02
  0.151911031269E+03  0.736040129302E+01  0.154458482395E+02
  0.151933615661E+03  0.734656864091E+01  0.154497439223E+02
  0.157531678562E+03  0.174847343803E+01  0.167995982752E+02
  0.158238694760E+03  0.166951514214E+01  0.168843594816E+02
  0.163056938539E+03 -0.314875141589E+01  0.161883905775E+02
  0.164183460641E+03 -0.263260011838E+01  0.162478389852E+02
  0.166328828957E+03 -0.477797912840E+01  0.353577613612E+01
  0.166618955079E+03 -0.549123502630E+01  0.355651220023E+01
  0.154927343971E+03  0.620038285734E+01 -0.206325137486E+02
  0.155611980241E+03  0.488470692434E+01 -0.209100180199E+02
  0.978621697561E+02  0.626345408013E+02 -0.204197235711E+02
  0.947467307186E+02  0.676185470179E+02 -0.157248724162E+02
  0.170435911733E+03 -0.807063399626E+01  0.103471455664E+03
  0.161342194465E+03  0.647727724050E+01  0.897675829657E+02
  0.203399377580E+03 -0.355799114204E+02  0.331529933359E+02
  0.197770892796E+03 -0.247635715477E+02  0.308716350630E+02
  0.192988320273E+03 -0.199809795530E+02 -0.440083655012E+01
  0.193157963211E+03 -0.203980354039E+02 -0.441295795640E+01
  0.180756797830E+03 -0.799682721253E+01 -0.183845548986E+02
  0.177122571944E+03 -0.966196171463E+01 -0.181927682857E+02
  0.166963660478E+03  0.496997519666E+00 -0.179517010804E+02
  0.163740187390E+03  0.856989837108E+00 -0.175652592577E+02
  0.154139329872E+03  0.104579027592E+02 -0.153529724683E+02
  0.152828391375E+03  0.112608459361E+02 -0.151270902611E+02
  0.151865333600E+03  0.859722361665E+01  0.153088131756E+02
  0.151924481546E+03  0.855184960592E+01  0.153199732895E+02
  0.157488802890E+03  0.298749556203E+01  0.166613490128E+02
  0.157545618418E+03  0.296108193411E+01  0.166703335614E+02
  0.162640013713E+03 -0.213333688036E+01  0.160488803250E+02
  0.163065998949E+03 -0.218463342526E+01  0.160953676293E+02
  0.166618849968E+03 -0.573749896530E+01  0.356159882635E+01
  0.165803660242E+03 -0.420923017189E+01  0.351317273549E+01
  0.155632323749E+03  0.596211358722E+01 -0.207633743591E+02
  0.154134096239E+03  0.828318418975E+01 -0.202335233535E+02
  0.947571862220E+02  0.676601191574E+02 -0.157068348252E+02
  0.910438158637E+02  0.726481822824E+02 -0.106630419199E+02