# vtk DataFile Version 3.0
MachLine results file. Generated by MachLine, USU AeroLab (c) 2022.
ASCII
DATASET POLYDATA
POINTS                7064 float
  0.248117048081E-05  0.000000000000E+00 -0.753360684505E-22
  0.390009530229E-01  0.000000000000E+00 -0.109216802644E+00
  0.390009530229E-01  0.000000000000E+00  0.109216802644E+00
  0.147667587429E+00  0.000000000000E+00 -0.234918546461E+00
  0.147667587429E+00  0.000000000000E+00  0.234918546461E+00
  0.161140126811E+00  0.161136763467E+00 -0.567342204492E-22
  0.200138918513E+00  0.161136784202E+00 -0.109217282026E+00
  0.200138918513E+00  0.161136784202E+00  0.109217282026E+00
  0.290267336203E+00  0.000000000000E+00 -0.347330612704E+00
  0.290267336203E+00  0.000000000000E+00  0.347330612704E+00
  0.308805753889E+00  0.161136845646E+00 -0.234918966854E+00
  0.308805753889E+00  0.161136845646E+00  0.234918966854E+00
  0.335007894265E+00  0.335004341377E+00 -0.119863089475E-22
  0.374006676601E+00  0.335004371478E+00 -0.109217238696E+00
  0.374006676601E+00  0.335004371478E+00  0.109217238696E+00
  0.451405695827E+00  0.161137052624E+00 -0.347330980480E+00
  0.451405695827E+00  0.161137052624E+00  0.347330980480E+00
  0.473467227553E+00  0.000000000000E+00 -0.436290954441E+00
  0.473467227553E+00  0.000000000000E+00  0.436290954441E+00
  0.482673530543E+00  0.335004444157E+00 -0.234918888772E+00
  0.482673530543E+00  0.335004444157E+00  0.234918888772E+00
  0.522508472950E+00  0.522504716366E+00  0.000000000000E+00
  0.561507275069E+00  0.522504756486E+00 -0.109217191547E+00
  0.561507275069E+00  0.522504756486E+00  0.109217191547E+00
  0.625273429732E+00  0.335004664083E+00 -0.347330881903E+00
  0.625273429732E+00  0.335004664083E+00  0.347330881903E+00
  0.634605647116E+00  0.161137252065E+00 -0.436291201616E+00
  0.634605647116E+00  0.161137252065E+00  0.436291201616E+00
  0.670174087105E+00  0.522504841270E+00 -0.234918819742E+00
  0.670174087105E+00  0.522504841270E+00  0.234918819742E+00
  0.689336105034E+00  0.000000000000E+00 -0.522846809678E+00
  0.689336105034E+00  0.000000000000E+00  0.522846809678E+00
  0.724592348672E+00  0.724588373564E+00 -0.536429592088E-22
  0.763591140102E+00  0.724588424374E+00 -0.109217140388E+00
  0.763591140102E+00  0.724588424374E+00  0.109217140388E+00
  0.808473398767E+00  0.335004875579E+00 -0.436291120216E+00
  0.808473398767E+00  0.335004875579E+00  0.436291120216E+00
  0.812774031945E+00  0.522505075150E+00 -0.347330805804E+00
  0.812774031945E+00  0.522505075150E+00  0.347330805804E+00
  0.850474557516E+00  0.161137351158E+00 -0.522846992743E+00
  0.850474557516E+00  0.161137351158E+00  0.522846992743E+00
  0.872257939128E+00  0.724588522168E+00 -0.234918744568E+00
  0.872257939128E+00  0.724588522168E+00  0.234918744568E+00
  0.942256171024E+00  0.942251961910E+00 -0.127801826535E-21
  0.944065572333E+00  0.000000000000E+00 -0.604289928279E+00
  0.944065572333E+00  0.000000000000E+00  0.604289928279E+00
  0.981254891470E+00  0.942252024099E+00 -0.109217085037E+00
  0.981254891470E+00  0.942252024099E+00  0.109217085037E+00
  0.995973988017E+00  0.522505299608E+00 -0.436291030581E+00
  0.995973988017E+00  0.522505299608E+00  0.436291030581E+00
  0.101485792856E+01  0.724588771058E+00 -0.347330722008E+00
  0.101485792856E+01  0.724588771058E+00  0.347330722008E+00
  0.102434236145E+01  0.335004981989E+00 -0.522846935900E+00
  0.102434236145E+01  0.335004981989E+00  0.522846935900E+00
  0.108992173615E+01  0.942252135844E+00 -0.234918677862E+00
  0.108992173615E+01  0.942252135844E+00  0.234918677862E+00
  0.110520403330E+01  0.161137444330E+00 -0.604290132511E+00
  0.110520403330E+01  0.161137444330E+00  0.604290132511E+00
  0.117654153149E+01  0.117653707225E+01  0.601761213589E-22
  0.119805781112E+01  0.724589009429E+00 -0.436290932283E+00
  0.119805781112E+01  0.724589009429E+00  0.436290932283E+00
  0.121184288325E+01  0.522505413871E+00 -0.522846810817E+00
  0.121184288325E+01  0.522505413871E+00  0.522846810817E+00
  0.121554029945E+01  0.117653714653E+01 -0.109217025314E+00
  0.121554029945E+01  0.117653714653E+01  0.109217025314E+00
  0.123252164987E+01  0.942252400848E+00 -0.347330630148E+00
  0.123252164987E+01  0.942252400848E+00  0.347330630148E+00
  0.123833332178E+01  0.000000000000E+00 -0.683992575719E+00
  0.123833332178E+01  0.000000000000E+00  0.683992575719E+00
  0.127907177119E+01  0.335005081612E+00 -0.604290012508E+00
  0.127907177119E+01  0.335005081612E+00  0.604290012508E+00
  0.132420706960E+01  0.117653727320E+01 -0.234918589542E+00
  0.132420706960E+01  0.117653727320E+01  0.234918589542E+00
  0.139947185373E+01  0.161137516738E+00 -0.683992760737E+00
  0.139947185373E+01  0.161137516738E+00  0.683992760737E+00
  0.141392675754E+01  0.724589132110E+00 -0.522846736253E+00
  0.141392675754E+01  0.724589132110E+00  0.522846736253E+00
  0.141572163672E+01  0.942252654127E+00 -0.436290824909E+00
  0.141572163672E+01  0.942252654127E+00  0.436290824909E+00
  0.142853317529E+01  0.142852844923E+01  0.127553543506E-21
  0.146657240526E+01  0.522505520421E+00 -0.604289943199E+00
  0.146657240526E+01  0.522505520421E+00  0.604289943199E+00
  0.146680696606E+01  0.117653755546E+01 -0.347330529873E+00
  0.146680696606E+01  0.117653755546E+01  0.347330529873E+00
  0.146753193045E+01  0.142852853631E+01 -0.109216961055E+00
  0.146753193045E+01  0.142852853631E+01  0.109216961055E+00
  0.157333958654E+01  0.335005159101E+00 -0.683992698276E+00
  0.157333958654E+01  0.335005159101E+00  0.683992698276E+00
  0.157619868467E+01  0.142852867891E+01 -0.234918494249E+00
  0.157619868467E+01  0.142852867891E+01  0.234918494249E+00
  0.157642056144E+01  0.000000000000E+00 -0.760516189264E+00
  0.157642056144E+01  0.000000000000E+00  0.760516189264E+00
  0.163159057413E+01  0.942252785815E+00 -0.522846592560E+00
  0.163159057413E+01  0.942252785815E+00  0.522846592560E+00
  0.165000693697E+01  0.117653782469E+01 -0.436290708060E+00
  0.165000693697E+01  0.117653782469E+01  0.436290708060E+00
  0.166865627212E+01  0.724589246086E+00 -0.604289804906E+00
  0.166865627212E+01  0.724589246086E+00  0.604289804906E+00
  0.169935572313E+01  0.169935071303E+01  0.169024916640E-22
  0.171879856266E+01  0.142852897964E+01 -0.347330420851E+00
  0.171879856266E+01  0.142852897964E+01  0.347330420851E+00
  0.173755909906E+01  0.161137591741E+00 -0.760516356356E+00
  0.173755909906E+01  0.161137591741E+00  0.760516356356E+00
  0.173835434555E+01  0.169935081364E+01 -0.109216899558E+00
  0.173835434555E+01  0.169935081364E+01  0.109216899558E+00
  0.176084021515E+01  0.522505603365E+00 -0.683992567137E+00
  0.176084021515E+01  0.522505603365E+00  0.683992567137E+00
  0.184702120201E+01  0.169935097321E+01 -0.234918391742E+00
  0.184702120201E+01  0.169935097321E+01  0.234918391742E+00
  0.186587586475E+01  0.117653796600E+01 -0.522846498523E+00
  0.186587586475E+01  0.117653796600E+01  0.522846498523E+00
  0.188632008077E+01  0.942252907738E+00 -0.604289716380E+00
  0.188632008077E+01  0.942252907738E+00  0.604289716380E+00
  0.190199851656E+01  0.142852926588E+01 -0.436290581359E+00
  0.190199851656E+01  0.142852926588E+01  0.436290581359E+00
  0.191142682723E+01  0.335005238732E+00 -0.760516232872E+00
  0.191142682723E+01  0.335005238732E+00  0.760516232872E+00
  0.196138828406E+01  0.000000000000E+00 -0.833664252954E+00
  0.196138828406E+01  0.000000000000E+00  0.833664252954E+00
  0.196292407617E+01  0.724589334880E+00 -0.683992486046E+00
  0.196292407617E+01  0.724589334880E+00  0.683992486046E+00
  0.198962106032E+01  0.169935129362E+01 -0.347330302783E+00
  0.198962106032E+01  0.169935129362E+01  0.347330302783E+00
  0.199017003531E+01  0.199016472345E+01 -0.179204840377E-22
  0.202916876266E+01  0.199016483834E+01 -0.109216825788E+00
  0.202916876266E+01  0.199016483834E+01  0.109216825788E+00
  0.209892745088E+01  0.522505687967E+00 -0.760516159807E+00
  0.209892745088E+01  0.522505687967E+00  0.760516159807E+00
  0.211786743409E+01  0.142852941745E+01 -0.522846394139E+00
  0.211786743409E+01  0.142852941745E+01  0.522846394139E+00
  0.212060548212E+01  0.117653809641E+01 -0.604289617574E+00
  0.212060548212E+01  0.117653809641E+01  0.604289617574E+00
  0.212252694648E+01  0.161137667481E+00 -0.833664346748E+00
  0.212252694648E+01  0.161137667481E+00  0.833664346748E+00
  0.213783548188E+01  0.199016501594E+01 -0.234918296716E+00
  0.213783548188E+01  0.199016501594E+01  0.234918296716E+00
  0.217282099607E+01  0.169935159800E+01 -0.436290474266E+00
  0.217282099607E+01  0.169935159800E+01  0.436290474266E+00
  0.218058787856E+01  0.942253002792E+00 -0.683992394927E+00
  0.218058787856E+01  0.942253002792E+00  0.683992394927E+00
  0.228043543846E+01  0.199016535729E+01 -0.347330175398E+00
  0.228043543846E+01  0.199016535729E+01  0.347330175398E+00
  0.229639467055E+01  0.335005318579E+00 -0.833664281975E+00
  0.229639467055E+01  0.335005318579E+00  0.833664281975E+00
  0.230101130656E+01  0.724589424811E+00 -0.760516077064E+00
  0.230101130656E+01  0.724589424811E+00  0.760516077064E+00
  0.230216808568E+01  0.230216245402E+01 -0.227993093794E-21
  0.234116679803E+01  0.230216258391E+01 -0.109216747083E+00
  0.234116679803E+01  0.230216258391E+01  0.109216747083E+00
  0.237259704239E+01  0.142852955692E+01 -0.604289508070E+00
  0.237259704239E+01  0.142852955692E+01  0.604289508070E+00
  0.238869002190E+01  0.169935176048E+01 -0.522846219438E+00
  0.238869002190E+01  0.169935176048E+01  0.522846219438E+00
  0.239635584192E+01  0.000000000000E+00 -0.902056088369E+00
  0.239635584192E+01  0.000000000000E+00  0.902056088369E+00
  0.241487327321E+01  0.117653819815E+01 -0.683992293322E+00
  0.241487327321E+01  0.117653819815E+01  0.683992293322E+00
  0.244983373656E+01  0.230216278062E+01 -0.234918179192E+00
  0.244983373656E+01  0.230216278062E+01  0.234918179192E+00
  0.246363523572E+01  0.199016568095E+01 -0.436290326871E+00
  0.246363523572E+01  0.199016568095E+01  0.436290326871E+00
[...]
POINT_DATA                7064
SCALARS phi float 1
LOOKUP_TABLE default
 -0.246665802361E-05
 -0.269774907257E-01
 -0.505681793613E-01
 -0.121432822729E+00
 -0.172174926051E+00
 -0.160197612404E+00
 -0.187172902677E+00
 -0.210763694859E+00
 -0.251058069707E+00
 -0.326081034485E+00
 -0.281628440846E+00
 -0.332370634973E+00
 -0.333048421022E+00
 -0.360023706664E+00
 -0.383614489486E+00
 -0.411253885541E+00
 -0.486276929758E+00
 -0.423578758701E+00
 -0.517817042661E+00
 -0.454479267043E+00
 -0.505221444304E+00
 -0.519452302067E+00
 -0.546427612469E+00
 -0.570018385107E+00
 -0.584104671452E+00
 -0.659127694376E+00
 -0.583774647148E+00
 -0.678012984497E+00
 -0.640883133550E+00
 -0.691625295900E+00
 -0.628837034743E+00
 -0.741771271899E+00
 -0.720354181919E+00
 -0.747329487219E+00
 -0.770920248807E+00
 -0.756625448846E+00
 -0.850863768614E+00
 -0.770508584106E+00
 -0.845531590593E+00
 -0.789032962839E+00
 -0.901967239537E+00
 -0.841784997960E+00
 -0.892527144073E+00
 -0.936744880732E+00
 -0.873280775874E+00
 -0.100380662170E+01
 -0.963720121442E+00
 -0.987310871074E+00
 -0.943029350075E+00
 -0.103726765048E+01
 -0.971410493779E+00
 -0.104643348217E+01
 -0.961883813865E+00
 -0.107481807829E+01
 -0.105817567880E+01
 -0.110891781050E+01
 -0.103347671012E+01
 -0.116400260006E+01
 -0.116965989768E+01
 -0.114393118823E+01
 -0.123816946741E+01
 -0.114828765186E+01
 -0.126122188926E+01
 -0.119663519208E+01
 -0.122022592881E+01
 -0.118780110206E+01
 -0.126282407061E+01
 -0.115721950808E+01
 -0.130496102305E+01
 -0.120632750231E+01
 -0.133685336633E+01
 -0.129109067843E+01
 -0.134183279106E+01
 -0.131741551497E+01
 -0.146515706991E+01
 -0.134918953834E+01
 -0.146212375964E+01
 -0.136032190187E+01
 -0.145456015785E+01
 -0.142017763328E+01
 -0.139273144590E+01
 -0.152325729495E+01
 -0.142071608582E+01
 -0.149573903271E+01
 -0.144715292189E+01
 -0.147074364474E+01
 -0.149026629589E+01
 -0.163800783734E+01
 -0.154160839575E+01
 -0.159235048780E+01
 -0.148506476234E+01
 -0.164933527923E+01
 -0.156558024695E+01
 -0.167851443721E+01
 -0.159323687158E+01
 -0.168747510232E+01
 -0.159363333188E+01
 -0.172415915106E+01
 -0.168941613028E+01
 -0.167123378628E+01
 -0.174625670962E+01
 -0.164526077680E+01
 -0.180953132978E+01
 -0.171639129357E+01
 -0.173998200314E+01
 -0.167667024074E+01
 -0.182441175385E+01
 -0.181084687350E+01
 -0.186158894341E+01
 -0.179849520462E+01
 -0.191142937457E+01
 -0.181002402663E+01
 -0.194054982669E+01
 -0.184375455702E+01
 -0.193799276040E+01
 -0.181811155970E+01
 -0.198238208601E+01
 -0.185988085113E+01
 -0.203995125551E+01
 -0.187757211473E+01
 -0.202531361033E+01
 -0.194047224614E+01
 -0.201549514398E+01
 -0.197852945907E+01
 -0.200550473465E+01
 -0.202909542828E+01
 -0.200451549334E+01
 -0.216878600387E+01
 -0.204901287747E+01
 -0.216194702487E+01
 -0.204293909490E+01
 -0.217346487361E+01
 -0.202007699758E+01
 -0.220014742222E+01
 -0.209996018044E+01
 -0.215070222982E+01
 -0.211299299766E+01
 -0.220723117791E+01
 -0.209396280353E+01
 -0.224170427945E+01
 -0.222958565426E+01
 -0.230460852458E+01
 -0.219292777006E+01
 -0.237299818072E+01
 -0.220541736220E+01
 -0.236968785485E+01
 -0.228870262161E+01
 -0.231567789077E+01
 -0.233926856740E+01
 -0.229345675928E+01
 -0.242398251434E+01
 -0.231825143307E+01
 -0.243118554273E+01
 -0.228491799391E+01
 -0.247976094662E+01
 -0.232687786544E+01
 -0.247461931942E+01
 -0.241013355878E+01
 -0.246087558277E+01
 -0.240210627026E+01
 -0.249634441867E+01
 -0.237933181792E+01
 -0.255940221259E+01
 -0.242180804553E+01
 -0.258607851812E+01
 -0.244511425556E+01
 -0.263995723886E+01
 -0.253975877555E+01
 -0.261478161630E+01
 -0.262114538884E+01
 -0.256269529946E+01
 -0.269322102848E+01
 -0.257739552307E+01
 -0.272513695274E+01
 -0.264812065058E+01
 -0.267171131075E+01
 -0.260736469185E+01
 -0.272029877427E+01
 -0.258023368220E+01
 -0.276030405877E+01
 -0.261796502448E+01
 -0.281280799368E+01
 -0.265472310159E+01
 -0.281899355181E+01
 -0.271227961055E+01
 -0.280651772480E+01
 -0.274257630219E+01
 -0.279331830235E+01
 -0.276249619684E+01
 -0.297104166800E+01
 -0.279662436061E+01
 -0.297669471687E+01
 -0.280436907495E+01
 -0.299921201516E+01
 -0.287220173649E+01
 -0.294722454557E+01
 -0.285180854870E+01
 -0.298233424921E+01
 -0.284663405606E+01
 -0.299437545898E+01
 -0.291753801769E+01
 -0.303047207042E+01
 -0.297708436034E+01
 -0.290524098999E+01
 -0.306951141546E+01
 -0.300405961451E+01
 -0.302765025710E+01
 -0.292269222391E+01
 -0.313123772354E+01
 -0.304472231217E+01
 -0.313896039633E+01
 -0.300527093512E+01
 -0.320011385710E+01
 -0.302953941141E+01
 -0.320960974505E+01
 -0.309851524891E+01
 -0.314925722355E+01
 -0.309554299620E+01
 -0.330408846881E+01
 -0.313574753468E+01
 -0.328348890834E+01
 -0.316198186444E+01
 -0.329250753390E+01
 -0.317447951634E+01
 -0.333874991457E+01
 -0.322814066260E+01
 -0.330316343789E+01
 -0.324998070744E+01
 -0.336291472800E+01
 -0.322166160268E+01
 -0.341650451709E+01
 -0.335775395741E+01
 -0.328005729421E+01
 -0.346012760280E+01
 -0.328194703695E+01
 -0.349049249340E+01
 -0.338472920385E+01
 -0.340831982779E+01
 -0.329407810476E+01
 -0.351514919425E+01
 -0.340066121492E+01
 -0.349489926661E+01
 -0.347918458322E+01
 -0.352992653066E+01
 -0.344592060530E+01
 -0.359366194711E+01
 -0.346359298791E+01
 -0.362786335635E+01
 -0.345457688581E+01
 -0.364941977744E+01
 -0.349442454352E+01
 -0.362495017937E+01
 -0.345427438103E+01
 -0.367534548401E+01
 -0.348284913060E+01
 -0.369139456878E+01
 -0.354929581458E+01
 -0.372936609563E+01
 -0.360880997198E+01
 -0.368383271780E+01
 -0.360591983471E+01
 -0.371885382059E+01
 -0.362712513757E+01
 -0.384819623927E+01
 -0.376438528291E+01
 -0.370509452656E+01
 -0.389993739299E+01
 -0.379136052231E+01
 -0.381495112488E+01
 -0.369923979439E+01
 -0.390778522495E+01
 -0.378133074336E+01
 -0.387556875375E+01
 -0.377836351285E+01
 -0.392610482018E+01
 -0.377376628808E+01
 -0.393803662411E+01
 -0.388581588208E+01
 -0.393655780063E+01
 -0.385036365953E+01
 -0.398088925917E+01
 -0.381352918165E+01
 -0.403460025430E+01
 -0.383840927337E+01
 -0.401847953717E+01
 -0.388045614925E+01
 -0.411227282562E+01
 -0.393215483645E+01
 -0.414070024417E+01
 -0.398658934679E+01
 -0.409952329547E+01
 -0.401544148507E+01
 -0.409046419288E+01
 -0.397433327860E+01
 -0.416917611731E+01
 -0.401443126555E+01
 -0.423550233279E+01
 -0.404065265576E+01
 -0.427246936899E+01
 -0.410620918129E+01
 -0.427047949510E+01
 -0.419819379602E+01
 -0.413430238284E+01
 -0.428204365303E+01
 -0.418796223098E+01
 -0.428220020414E+01
 -0.422516926370E+01
 -0.424875984708E+01
 -0.414858232979E+01
 -0.432865256081E+01
 -0.418267270991E+01
 -0.439121809236E+01
 -0.423103315978E+01
 -0.436155872059E+01
 -0.421350342216E+01
 -0.444532010835E+01
 -0.423082193865E+01
 -0.445189297250E+01
 -0.431962460471E+01
 -0.437036649273E+01
 -0.426344673171E+01
 -0.445828955297E+01
 -0.439322034658E+01
 -0.450615425557E+01
 -0.444925018061E+01
 -0.452427285479E+01
 -0.439990768717E+01
 -0.463172437007E+01
 -0.446214827996E+01
 -0.462641855598E+01
 -0.445191168795E+01
 -0.466045705548E+01
 -0.448102522233E+01
 -0.466109541786E+01
 -0.446373744449E+01
 -0.468480846837E+01
 -0.451497210419E+01
 -0.466271334744E+01
 -0.452137837062E+01
 -0.476145237797E+01
 -0.466036580186E+01
 -0.462177090326E+01
 -0.471600883685E+01
 -0.457362025615E+01
 -0.476846304442E+01
 -0.468734126153E+01
 -0.471093182306E+01
 -0.463766462121E+01
 -0.476819014062E+01
 -0.460080978048E+01
 -0.483262643222E+01
 -0.468157440885E+01
 -0.492164845013E+01
 -0.478179658061E+01
 -0.483253843974E+01
 -0.471425530744E+01
 -0.493532631890E+01
 -0.474102514260E+01
 -0.494957047973E+01
 -0.482702947206E+01
 -0.493996335177E+01
 -0.484281751851E+01
 -0.500708776690E+01
 -0.483696430708E+01
 -0.501703447727E+01
 -0.481720043699E+01
 -0.504901708109E+01
 -0.491142213002E+01
 -0.498644476856E+01
 -0.485442564617E+01
 -0.509449966043E+01
 -0.492160355570E+01
 -0.506934475650E+01
 -0.490606313587E+01
 -0.510090590130E+01
 -0.498349380709E+01
 -0.520456480361E+01
 -0.508394282519E+01
 -0.517818072339E+01
 -0.507147325969E+01
 -0.520199874802E+01
 -0.515204020058E+01
 -0.505119818137E+01
 -0.525974349829E+01
 -0.504082943378E+01
 -0.528090344476E+01
 -0.505011547771E+01
 -0.528193208608E+01
 -0.517901565224E+01
 -0.520260619095E+01
 -0.527347095029E+01
 -0.532421277580E+01
 -0.521763401178E+01
 -0.539770415389E+01
 -0.524944895439E+01
 -0.541371917246E+01
 -0.521425847933E+01
 -0.545938646281E+01
 -0.528920138220E+01
 -0.540213521738E+01
 -0.526200221389E+01
 -0.545684495372E+01
 -0.524173152348E+01
 -0.548180550332E+01
 -0.527260726357E+01
 -0.549367821678E+01
 -0.530063381045E+01
 -0.553245040642E+01
 -0.535541218379E+01
 -0.550315335241E+01
 -0.540309647060E+01
 -0.547811907160E+01
 -0.538364153610E+01
 -0.559218681720E+01
 -0.537445452300E+01
 -0.561958253720E+01
 -0.545812265018E+01
 -0.569819662240E+01
 -0.553364515631E+01
 -0.566417059823E+01
 -0.557561714055E+01
 -0.566985499478E+01
 -0.554730575709E+01
 -0.579243374430E+01
 -0.567429308082E+01
 -0.556987230559E+01
 -0.580168888661E+01
 -0.558278077149E+01
 -0.580385170446E+01
 -0.570126804967E+01
 -0.572485856625E+01
 -0.562426543940E+01
 -0.580433555069E+01
 -0.564267191795E+01
 -0.583751461654E+01
 -0.568325805338E+01
 -0.584752822560E+01
 -0.569103767387E+01
 -0.593111163614E+01
 -0.579572379927E+01
 -0.584646559295E+01
 -0.578087568199E+01
 -0.589380947039E+01
 -0.573958060832E+01
 -0.594812586371E+01
 -0.573371001525E+01
 -0.597883799922E+01
 -0.581758406318E+01
 -0.596532519710E+01
 -0.592534881711E+01
 -0.600037137880E+01
 -0.585898574438E+01
 -0.609080230785E+01
 -0.591522364054E+01
 -0.613629455053E+01
 -0.593461210120E+01
 -0.617974005407E+01
 -0.594155601508E+01
 -0.618162993922E+01
 -0.595419371923E+01
 -0.620044826224E+01
 -0.602531943565E+01
 -0.615584484167E+01
 -0.609786993503E+01
 -0.619210774327E+01
 -0.604930333814E+01
 -0.624414600562E+01
 -0.605807452330E+01
 -0.623814460109E+01
 -0.612025029987E+01
 -0.632879552676E+01
 -0.614542992276E+01
 -0.630970005943E+01
 -0.622811520245E+01
 -0.611438976971E+01
 -0.636064434094E+01
 -0.625509063744E+01
 -0.627868112944E+01
 -0.615100274984E+01
 -0.639613069514E+01
 -0.616915924720E+01
 -0.640097579042E+01
 -0.621079450549E+01
 -0.645086841472E+01
 -0.630312845392E+01
 -0.641606220628E+01
 -0.634954588910E+01
 -0.640028764967E+01
 -0.627116318135E+01
 -0.649223406558E+01
 -0.630925880536E+01
 -0.645699990216E+01
 -0.628724100029E+01
 -0.653349554459E+01
 -0.638391824329E+01
 -0.662904617869E+01
 -0.647917135175E+01
 -0.655419387250E+01
 -0.648311193379E+01
 -0.667795458031E+01
 -0.647364525468E+01
 -0.671989979580E+01
 -0.652024638368E+01
 -0.670031642537E+01
 -0.654757219308E+01
 -0.667809756101E+01
 -0.650160258489E+01
 -0.673341910512E+01
 -0.649990841332E+01
 -0.673998230502E+01
 -0.652688171367E+01
 -0.673542690929E+01
 -0.665169196550E+01
 -0.674592973238E+01
 -0.663710465455E+01
 -0.680137475323E+01
 -0.663443610586E+01
 -0.687956400319E+01
 -0.665183286712E+01
 -0.687290372280E+01
 -0.667454733659E+01
 -0.692080184669E+01
 -0.681439445668E+01
 -0.684136988310E+01
 -0.686496035141E+01
 -0.673587633019E+01
 -0.697830968791E+01
 -0.683151155119E+01
 -0.697925260862E+01
 -0.685695094507E+01
 -0.696988464660E+01
 -0.681008191081E+01
 -0.705015578230E+01
 -0.693582511115E+01
 -0.698656683748E+01
 -0.685754164593E+01
 -0.708935814039E+01
 -0.689093798090E+01
 -0.713719248351E+01
 -0.689607238187E+01
 -0.713850573945E+01
 -0.690367506543E+01
 -0.714880294790E+01
 -0.694528426012E+01
 -0.714012687018E+01
 -0.696069077668E+01
 -0.716923595118E+01
 -0.701192110611E+01
 -0.719199110920E+01
 -0.706545054382E+01
 -0.714047302221E+01
 -0.710139466286E+01
 -0.723191999071E+01
 -0.705846427487E+01
 -0.727953509921E+01
 -0.706892359659E+01
 -0.731135695307E+01
 -0.715935690915E+01
 -0.732362698042E+01
 -0.712385346971E+01
 -0.737010796251E+01
 -0.714252476882E+01
 -0.738259861735E+01
 -0.723797112676E+01
 -0.733220885066E+01
 -0.719278896805E+01
 -0.743791683306E+01
 -0.723821179974E+01
 -0.747002826563E+01
 -0.725532786066E+01
 -0.749776118831E+01
 -0.743388979348E+01
 -0.738533400901E+01
 -0.753307502503E+01
 -0.746086473750E+01
 -0.748445518150E+01
 -0.737437180139E+01
 -0.762062625620E+01
 -0.744322961204E+01
 -0.755616327392E+01
 -0.742286309604E+01
 -0.763140823391E+01
 -0.743695897415E+01
 -0.763180154524E+01
 -0.745622992626E+01
 -0.769866324873E+01
 -0.755532041555E+01
 -0.760606210669E+01
 -0.749227332512E+01
 -0.771334414114E+01
 -0.749846429794E+01
 -0.773853812073E+01
 -0.753417383153E+01
 -0.771424379371E+01
 -0.750296246002E+01
 -0.774809030488E+01
 -0.754979624753E+01
 -0.778507279973E+01
 -0.768494581761E+01
 -0.775996825246E+01
 -0.768767378857E+01
 -0.781819907457E+01
 -0.764484320117E+01
 -0.787665963570E+01
 -0.764361075568E+01
 -0.788986519574E+01
 -0.767262105380E+01
 -0.791505434314E+01
 -0.771317982998E+01
 -0.787744985887E+01
 -0.770999277276E+01
 -0.794526932218E+01
 -0.785746636917E+01
 -0.795170404876E+01
 -0.783540531216E+01
 -0.808053313413E+01
 -0.787913397142E+01
 -0.811920776566E+01
 -0.788284398531E+01
 -0.811812053371E+01
 -0.791453779639E+01
 -0.812308290797E+01
 -0.790553653868E+01
 -0.814796981832E+01
 -0.797161264842E+01
 -0.811935362123E+01
 -0.793272417864E+01
 -0.817897860134E+01
 -0.795921168443E+01
 -0.815405422708E+01
 -0.795444611192E+01
 -0.817551689121E+01
 -0.808720941536E+01
 -0.806272483385E+01
 -0.817565845466E+01
 -0.811418529936E+01
 -0.813777571859E+01
 -0.808799626190E+01
 -0.826806619391E+01
 -0.806924824703E+01
 -0.830452476669E+01
 -0.807865225767E+01
 -0.831046865810E+01
 -0.820864095304E+01
 -0.825938260828E+01
 -0.815605485327E+01
 -0.839848812080E+01
 -0.819134530915E+01
 -0.843647310544E+01
 -0.824289766464E+01
 -0.848915206730E+01
 -0.830716899475E+01
 -0.843769423744E+01
 -0.833826584679E+01
 -0.841328824362E+01
 -0.829945940614E+01
 -0.846372939081E+01
 -0.827015078418E+01
 -0.850542729875E+01
 -0.828576582742E+01
 -0.852583961607E+01
 -0.838611224032E+01
 -0.861103000552E+01
 -0.843679097322E+01
 -0.864533605614E+01
 -0.842529332903E+01
 -0.866772658193E+01
 -0.844612033779E+01
 -0.866719107781E+01
 -0.851078684376E+01
 -0.860502447800E+01
 -0.848654142213E+01
 -0.872181792942E+01
 -0.851303457988E+01
 -0.870787709194E+01
 -0.854082455064E+01
 -0.877264094005E+01
 -0.854630923694E+01
 -0.877122699678E+01
 -0.859110831616E+01
 -0.873884924425E+01
 -0.857201545014E+01
 -0.881714321797E+01
 -0.857534098451E+01
 -0.882159536439E+01
 -0.867427534736E+01
 -0.885434524734E+01
 -0.871604481355E+01
 -0.882897839221E+01
 -0.877478802300E+01
 -0.880176389926E+01
 -0.882535429341E+01
 -0.871916044757E+01
 -0.894407820647E+01
 -0.871440769531E+01
 -0.895684093099E+01
 -0.871945739106E+01
 -0.895473386301E+01
 -0.871957487701E+01
 -0.895964863158E+01
 -0.889621857863E+01
 -0.894696020072E+01
 -0.891895410776E+01
 -0.908322405956E+01
 -0.890556470724E+01
 -0.913048243748E+01
 -0.896048895858E+01
 -0.909101415682E+01
 -0.893128097482E+01
 -0.917753532915E+01
 -0.902584439072E+01
 -0.910086674252E+01
 -0.896837350109E+01
 -0.918944422521E+01
 -0.896997475449E+01
 -0.920525121444E+01
 -0.899061291929E+01
 -0.919915795851E+01
 -0.897864729928E+01
 -0.922377506159E+01
 -0.902458117624E+01
 -0.926701439203E+01
 -0.903249971743E+01
 -0.926431606753E+01
 -0.909931366258E+01
 -0.929415612929E+01
 -0.910646629409E+01
 -0.933138401933E+01
 -0.919836535556E+01
 -0.929260294380E+01
 -0.918174717563E+01
 -0.942182089345E+01
 -0.924442826085E+01
 -0.939216915593E+01
 -0.923421625603E+01
 -0.944605482111E+01
 -0.923921417507E+01
 -0.947449062053E+01
 -0.929377099309E+01
 -0.947384084660E+01
 -0.931195110877E+01
 -0.955820543475E+01
 -0.932285787775E+01
 -0.954777559580E+01
 -0.940362330432E+01
 -0.951655684014E+01
 -0.935702449073E+01
 -0.959945768390E+01
 -0.949685932055E+01
 -0.939441231777E+01
 -0.960625063544E+01
 -0.941245634168E+01
 -0.965758406997E+01
 -0.952383424055E+01
 -0.954742461112E+01
 -0.952219638793E+01
 -0.974326706822E+01
 -0.961828984417E+01
 -0.966903142970E+01
 -0.952832853787E+01
 -0.976360496624E+01
 -0.957227498881E+01
 -0.973654490653E+01
 -0.955577384415E+01
 -0.978069152697E+01
 -0.955475287329E+01
 -0.978656920742E+01
 -0.956726353190E+01
 -0.977910184567E+01
 -0.957689292930E+01
 -0.978543794866E+01
 -0.964806743333E+01
 -0.977859258640E+01
 -0.974791562155E+01
 -0.982293793452E+01
 -0.967342232204E+01
 -0.991349602629E+01
 -0.971880928605E+01
 -0.991365173156E+01
 -0.971296447536E+01
 -0.995539764314E+01
 -0.971858295050E+01
 -0.996483727110E+01
 -0.975366778200E+01
 -0.996550609048E+01
 -0.980629120488E+01
 -0.100312088758E+02
 -0.983850201515E+01
 -0.100737784238E+02
 -0.992043655413E+01
 -0.100146741025E+02
 -0.987462861995E+01
 -0.101197563373E+02
 -0.993200672284E+01
 -0.100797475713E+02
 -0.994709186353E+01
 -0.101271616822E+02
 -0.995457032009E+01
 -0.101664086218E+02
 -0.100824586108E+02
 -0.102794809144E+02
 -0.101256954332E+02
 -0.102386289258E+02
 -0.100755306225E+02
 -0.103004482791E+02
 -0.100936346033E+02
 -0.103360677429E+02
 -0.101084763904E+02
 -0.103295470507E+02
 -0.101085757524E+02
 -0.103403920427E+02
 -0.102534356315E+02
 -0.101523919851E+02
 -0.103986462719E+02
 -0.101709619066E+02
 -0.103828002000E+02
 -0.101709453257E+02
 -0.104062217119E+02
 -0.102804105446E+02
 -0.103040008901E+02
 -0.101963885511E+02
 -0.104049335361E+02
 -0.101956754830E+02
 -0.104357491455E+02
 -0.102426555707E+02
 -0.104396778932E+02
 -0.102598534389E+02
 -0.104241233089E+02
 -0.103748661221E+02
 -0.104256076744E+02
 -0.103701395461E+02
 -0.105006646537E+02
 -0.103721301470E+02
 -0.105669725572E+02
 -0.103646449823E+02
 -0.105895626219E+02
 -0.103663037714E+02
 -0.106114314495E+02
 -0.104038769147E+02
 -0.106157151980E+02
 -0.104155067895E+02
 -0.106125291047E+02
 -0.105044909183E+02
 -0.105795131927E+02
 -0.105002664517E+02
 -0.107426995603E+02
 -0.105268853062E+02
 -0.107621616671E+02
 -0.106019110378E+02
 -0.107989333577E+02
 -0.106770118220E+02
 -0.107712493243E+02
 -0.106346702965E+02
 -0.108147400797E+02
 -0.106540788163E+02
 -0.108018196306E+02
 -0.106145652034E+02
 -0.108608194793E+02
 -0.106543952261E+02
 -0.108662334974E+02
 -0.106748184691E+02
 -0.108997360633E+02
 -0.106948557471E+02
 -0.109266720172E+02
 -0.107279719982E+02
 -0.109490426368E+02
 -0.107494983412E+02
 -0.109895719856E+02
 -0.108028135738E+02
 -0.109998358976E+02
 -0.108822706799E+02
 -0.109952041297E+02
 -0.108497084557E+02
 -0.110582534052E+02
 -0.109197747999E+02
 -0.111004190932E+02
 -0.108885569114E+02
 -0.111336845736E+02
 -0.109075554298E+02
 -0.111428317627E+02
 -0.109236346396E+02
 -0.111354729098E+02
 -0.110442818261E+02
 -0.109340754796E+02
 -0.111765085546E+02
 -0.109819245724E+02
 -0.111461944072E+02
 -0.110712567321E+02
 -0.110948470543E+02
 -0.110192051583E+02
 -0.112162274848E+02
 -0.110072617763E+02
 -0.112321793482E+02
 -0.110597085703E+02
 -0.112545509444E+02
 -0.110799717709E+02
 -0.112606160750E+02
 -0.111657122843E+02
 -0.112164538039E+02
 -0.111267147704E+02
 -0.112572398456E+02
 -0.111062403464E+02
 -0.113524945832E+02
 -0.112127490013E+02
 -0.114245872555E+02
 -0.112953379960E+02
 -0.113703602322E+02
 -0.112528229831E+02
 -0.114334672928E+02
 -0.112521201578E+02
 -0.114491424985E+02
 -0.113143513467E+02
 -0.115461675952E+02
 -0.113141872735E+02
 -0.115494635756E+02
 -0.113567414128E+02
 -0.115368111728E+02
 -0.113357783276E+02
 -0.115758519519E+02
 -0.113632017531E+02
 -0.115881192999E+02
 -0.114106540278E+02
 -0.115583948083E+02
 -0.113812919014E+02
 -0.116023624915E+02
 -0.114678588678E+02
 -0.115620963312E+02
 -0.113962486910E+02
 -0.116386817553E+02
 -0.114392272310E+02
 -0.116198715453E+02
 -0.114423807223E+02
 -0.116875083406E+02
 -0.115026384667E+02
 -0.116996608075E+02
 -0.115229224708E+02
 -0.117347607195E+02
 -0.115372878125E+02
 -0.117458327384E+02
 -0.116731177082E+02
 -0.117860511157E+02
 -0.116401297668E+02
 -0.118207740848E+02
 -0.116284934776E+02
 -0.118747476986E+02
 -0.117353462954E+02
 -0.118990875969E+02
 -0.117385007137E+02