# vtk DataFile Version 3.0
MachLine results file. Generated by MachLine, USU AeroLab (c) 2022.
ASCII
DATASET POLYDATA
POINTS                  80 float
  0.609892082214E+02  0.419889526367E+02  0.000000000000E+00
  0.994222100936E+04  0.419889526367E+02  0.107344528827E+04
  0.596738929749E+02  0.406736450195E+02  0.000000000000E+00
  0.994220566771E+04  0.406736450195E+02  0.107358651059E+04
  0.228628253937E+02  0.386280250549E+01  0.000000000000E+00
  0.994177630854E+04  0.386280250549E+01  0.107753882891E+04
  0.220518741608E+02  0.305185556412E+01  0.000000000000E+00
  0.994176684971E+04  0.305185556412E+01  0.107762589885E+04
  0.621668891907E+02  0.431666221619E+02  0.000000000000E+00
  0.994223474567E+04  0.431666221619E+02  0.107331884342E+04
  0.237868041992E+02  0.478677463531E+01  0.000000000000E+00
  0.994178708570E+04  0.478677463531E+01  0.107743962347E+04
  0.632134971619E+02  0.442132263184E+02  0.000000000000E+00
  0.994224695316E+04  0.442132263184E+02  0.107320647156E+04
  0.248334121704E+02  0.583337688446E+01  0.000000000000E+00
  0.994179929319E+04  0.583337688446E+01  0.107732725162E+04
  0.641374740601E+02  0.451371994019E+02  0.000000000000E+00
  0.994225773029E+04  0.451371994019E+02  0.107310726632E+04
  0.260110912323E+02  0.701104879379E+01  0.000000000000E+00
  0.994181302947E+04  0.701104879379E+01  0.107720080697E+04
  0.649484252930E+02  0.459481430054E+02  0.000000000000E+00
  0.994226718912E+04  0.459481430054E+02  0.107302019638E+04
  0.273264064789E+02  0.832635498047E+01  0.000000000000E+00
  0.994182837113E+04  0.832635498047E+01  0.107705958464E+04
  0.656565246582E+02  0.466562423706E+02  0.000000000000E+00
  0.994227544829E+04  0.466562423706E+02  0.107294416941E+04
  0.530148696899E+02  0.340146598816E+02  0.000000000000E+00
  0.994212799779E+04  0.340146598816E+02  0.107430147437E+04
  0.510328712463E+02  0.320326728821E+02  0.000000000000E+00
  0.994210488003E+04  0.320326728821E+02  0.107451427691E+04
  0.548812789917E+02  0.358810577393E+02  0.000000000000E+00
  0.994214976732E+04  0.358810577393E+02  0.107410108236E+04
  0.566182289124E+02  0.376179962158E+02  0.000000000000E+00
  0.994217002687E+04  0.376179962158E+02  0.107391459011E+04
  0.582170410156E+02  0.392168006897E+02  0.000000000000E+00
  0.994218867519E+04  0.392168006897E+02  0.107374292939E+04
  0.287832584381E+02  0.978319931030E+01  0.000000000000E+00
  0.994184536364E+04  0.978319931030E+01  0.107690316585E+04
  0.321190223694E+02  0.131189413071E+02  0.000000000000E+00
  0.994188427153E+04  0.131189413071E+02  0.107654501267E+04
  0.303820724487E+02  0.113820018768E+02  0.000000000000E+00
  0.994186401199E+04  0.113820018768E+02  0.107673150493E+04
  0.339854316711E+02  0.149853391647E+02  0.000000000000E+00
  0.994190604107E+04  0.149853391647E+02  0.107634462067E+04
  0.359674301147E+02  0.169673271179E+02  0.000000000000E+00
  0.994192915882E+04  0.169673271179E+02  0.107613181812E+04
  0.380459861755E+02  0.190458717346E+02  0.000000000000E+00
  0.994195340281E+04  0.190458717346E+02  0.107590864842E+04
  0.662720489502E+02  0.472717590332E+02  0.000000000000E+00
  0.994228262768E+04  0.472717590332E+02  0.107287808200E+04
  0.401973724365E+02  0.211972446442E+02  0.000000000000E+00
  0.994197849628E+04  0.211972446442E+02  0.107567765910E+04
  0.668050155640E+02  0.478047180176E+02  0.000000000000E+00
  0.994228884413E+04  0.478047180176E+02  0.107282085862E+04
  0.423940925598E+02  0.233939495087E+02  0.000000000000E+00
  0.994200411852E+04  0.233939495087E+02  0.107544180239E+04
  0.672649307251E+02  0.482646369934E+02  0.000000000000E+00
  0.994229420851E+04  0.482646369934E+02  0.107277147861E+04
  0.446062088013E+02  0.256060504913E+02  0.000000000000E+00
  0.994202992033E+04  0.256060504913E+02  0.107520429264E+04
  0.676606597900E+02  0.486603622437E+02  0.000000000000E+00
  0.994229882424E+04  0.486603622437E+02  0.107272899010E+04
  0.468029289246E+02  0.278027553558E+02  0.000000000000E+00
  0.994205554257E+04  0.278027553558E+02  0.107496843593E+04
  0.680002975464E+02  0.490000000000E+02  0.000000000000E+00
  0.994230278573E+04  0.490000000000E+02  0.107269252399E+04
  0.489543113708E+02  0.299541282654E+02  0.000000000000E+00
  0.994208063600E+04  0.299541282654E+02  0.107473744703E+04
  0.193396415710E+02  0.339639574289E+00  0.000000000000E+00
  0.994173521461E+04  0.339639574289E+00  0.107791710493E+04
  0.190000000000E+02  0.000000000000E+00  0.000000000000E+00
  0.994173125308E+04  0.000000000000E+00  0.107795357145E+04
  0.197353687286E+02  0.735364913940E+00  0.000000000000E+00
  0.994173983032E+04  0.735364913940E+00  0.107787461663E+04
  0.201952877045E+02  0.119528055191E+01  0.000000000000E+00
  0.994174519475E+04  0.119528055191E+01  0.107782523620E+04
  0.207282505035E+02  0.172824025154E+01  0.000000000000E+00
  0.994175141115E+04  0.172824025154E+01  0.107776801323E+04
  0.213437728882E+02  0.234375929832E+01  0.000000000000E+00
  0.994175859052E+04  0.234375929832E+01  0.107770192603E+04
POLYGONS                  78                 312
3                  68                  69                  71
3                  68                  71                  70
3                  72                  73                  69
3                  72                  69                  68
3                  74                  75                  73
3                  74                  73                  72
3                  76                  77                  75
3                  76                  75                  74
3                  78                  79                  77
3                  78                  77                  76
3                   6                   7                  79
3                   6                  79                  78
3                   4                   5                   7
3                   4                   7                   6
3                  10                  11                   5
3                  10                   5                   4
3                  14                  15                  11
3                  14                  11                  10
3                  18                  19                  15
3                  18                  15                  14
3                  22                  23                  19
3                  22                  19                  18
3                  36                  37                  23
3                  36                  23                  22
3                  38                  39                  41
3                  38                  41                  40
3                  42                  43                  39
3                  42                  39                  38
3                  44                  45                  43
3                  44                  43                  42
3                  46                  47                  45
3                  46                  45                  44
3                  50                  51                  47
3                  50                  47                  46
3                  40                  41                  37
3                  40                  37                  36
3                  54                  55                  51
3                  54                  51                  50
3                  58                  59                  55
3                  58                  55                  54
3                  62                  63                  59
3                  62                  59                  58
3                  66                  67                  63
3                  66                  63                  62
3                  28                  29                  67
3                  28                  67                  66
3                  26                  27                  29
3                  26                  29                  28
3                  30                  31                  27
3                  30                  27                  26
3                  32                  33                  31
3                  32                  31                  30
3                  34                  35                  33
3                  34                  33                  32
3                   2                   3                  35
3                   2                  35                  34
3                   0                   1                   3
3                   0                   3                   2
3                   8                   9                   1
3                   8                   1                   0
3                  12                  13                   9
3                  12                   9                   8
3                  16                  17                  13
3                  16                  13                  12
3                  20                  21                  17
3                  20                  17                  16
3                  24                  25                  21
3                  24                  21                  20
3                  48                  49                  25
3                  48                  25                  24
3                  52                  53                  49
3                  52                  49                  48
3                  56                  57                  53
3                  56                  53                  52
3                  60                  61                  57
3                  60                  57                  56
3                  64                  65                  61
3                  64                  61                  60
CELL_DATA                  78
NORMALS normals float
  0.107374960503E+00 -0.107375591751E+00 -0.988403308449E+00
  0.107374960503E+00 -0.107375591750E+00 -0.988403308449E+00
  0.107374962093E+00 -0.107375455370E+00 -0.988403323092E+00
  0.107374962093E+00 -0.107375455370E+00 -0.988403323092E+00
  0.107374958796E+00 -0.107375738091E+00 -0.988403292737E+00
  0.107374958796E+00 -0.107375738091E+00 -0.988403292737E+00
  0.107374960581E+00 -0.107375585009E+00 -0.988403309173E+00
  0.107374960581E+00 -0.107375585009E+00 -0.988403309173E+00
  0.107374961067E+00 -0.107375543355E+00 -0.988403313645E+00
  0.107374961067E+00 -0.107375543355E+00 -0.988403313645E+00
  0.107374959027E+00 -0.107375718253E+00 -0.988403294867E+00
  0.107374959027E+00 -0.107375718253E+00 -0.988403294867E+00
  0.107374961229E+00 -0.107375529457E+00 -0.988403315137E+00
  0.107374961229E+00 -0.107375529458E+00 -0.988403315137E+00
  0.107374958836E+00 -0.107375734618E+00 -0.988403293110E+00
  0.107374958836E+00 -0.107375734618E+00 -0.988403293110E+00
  0.107374961012E+00 -0.107375548059E+00 -0.988403313140E+00
  0.107374961012E+00 -0.107375548059E+00 -0.988403313140E+00
  0.107374960262E+00 -0.107375612402E+00 -0.988403306232E+00
  0.107374960262E+00 -0.107375612402E+00 -0.988403306232E+00
  0.107374959253E+00 -0.107375698860E+00 -0.988403296949E+00
  0.107374959253E+00 -0.107375698860E+00 -0.988403296949E+00
  0.107374961297E+00 -0.107375523611E+00 -0.988403315765E+00
  0.107374961297E+00 -0.107375523611E+00 -0.988403315765E+00
  0.107374960304E+00 -0.107375608804E+00 -0.988403306618E+00
  0.107374960304E+00 -0.107375608804E+00 -0.988403306618E+00
  0.107374960190E+00 -0.107375618576E+00 -0.988403305569E+00
  0.107374960190E+00 -0.107375618576E+00 -0.988403305569E+00
  0.107374961228E+00 -0.107375529550E+00 -0.988403315128E+00
  0.107374961228E+00 -0.107375529550E+00 -0.988403315128E+00
  0.107374960965E+00 -0.107375552152E+00 -0.988403312701E+00
  0.107374960965E+00 -0.107375552152E+00 -0.988403312701E+00
  0.107374960098E+00 -0.107375626466E+00 -0.988403304722E+00
  0.107374960098E+00 -0.107375626466E+00 -0.988403304722E+00
  0.107374958919E+00 -0.107375727501E+00 -0.988403293874E+00
  0.107374958919E+00 -0.107375727501E+00 -0.988403293874E+00
  0.107374959181E+00 -0.107375705032E+00 -0.988403296286E+00
  0.107374959181E+00 -0.107375705032E+00 -0.988403296286E+00
  0.107374959241E+00 -0.107375699905E+00 -0.988403296837E+00
  0.107374959241E+00 -0.107375699905E+00 -0.988403296837E+00
  0.107374959181E+00 -0.107375705032E+00 -0.988403296286E+00
  0.107374959181E+00 -0.107375705032E+00 -0.988403296286E+00
  0.107374962293E+00 -0.107375438264E+00 -0.988403324929E+00
  0.107374962293E+00 -0.107375438264E+00 -0.988403324929E+00
  0.107374958693E+00 -0.107375746943E+00 -0.988403291786E+00
  0.107374958693E+00 -0.107375746943E+00 -0.988403291786E+00
  0.107374960632E+00 -0.107375580621E+00 -0.988403309644E+00
  0.107374960632E+00 -0.107375580621E+00 -0.988403309644E+00
  0.107374960190E+00 -0.107375618576E+00 -0.988403305569E+00
  0.107374960190E+00 -0.107375618576E+00 -0.988403305569E+00
  0.107374959624E+00 -0.107375667088E+00 -0.988403300360E+00
  0.107374959624E+00 -0.107375667088E+00 -0.988403300360E+00
  0.107374961873E+00 -0.107375474253E+00 -0.988403321065E+00
  0.107374961873E+00 -0.107375474253E+00 -0.988403321065E+00
  0.107374961297E+00 -0.107375523620E+00 -0.988403315764E+00
  0.107374961297E+00 -0.107375523621E+00 -0.988403315764E+00
  0.107374960600E+00 -0.107375583417E+00 -0.988403309344E+00
  0.107374960600E+00 -0.107375583417E+00 -0.988403309344E+00
  0.107374955750E+00 -0.107375999175E+00 -0.988403264705E+00
  0.107374955750E+00 -0.107375999175E+00 -0.988403264705E+00
  0.107374963268E+00 -0.107375354633E+00 -0.988403333908E+00
  0.107374963268E+00 -0.107375354633E+00 -0.988403333908E+00
  0.107374962670E+00 -0.107375405976E+00 -0.988403328395E+00
  0.107374962670E+00 -0.107375405976E+00 -0.988403328395E+00
  0.107374956134E+00 -0.107375966323E+00 -0.988403268232E+00
  0.107374956134E+00 -0.107375966323E+00 -0.988403268232E+00
  0.107374967781E+00 -0.107374967780E+00 -0.988403375444E+00
  0.107374967781E+00 -0.107374967781E+00 -0.988403375444E+00
  0.107374952436E+00 -0.107376283361E+00 -0.988403234192E+00
  0.107374952436E+00 -0.107376283361E+00 -0.988403234192E+00
  0.107374950059E+00 -0.107376487149E+00 -0.988403212311E+00
  0.107374950059E+00 -0.107376487149E+00 -0.988403212311E+00
  0.107374978049E+00 -0.107374087450E+00 -0.988403469962E+00
  0.107374978049E+00 -0.107374087450E+00 -0.988403469962E+00
  0.107374955847E+00 -0.107375990890E+00 -0.988403265594E+00
  0.107374955847E+00 -0.107375990890E+00 -0.988403265594E+00
  0.107374967780E+00 -0.107374967811E+00 -0.988403375440E+00
  0.107374967780E+00 -0.107374967811E+00 -0.988403375440E+00
POINT_DATA                  80
SCALARS mu float 1
LOOKUP_TABLE default
 -0.332058462855E+01
 -0.332058462855E+01
 -0.347711061665E+01
 -0.347711061665E+01
 -0.357930842582E+01
 -0.357930842582E+01
 -0.354755177602E+01
 -0.354755177602E+01
 -0.314418151134E+01
 -0.314418151134E+01
 -0.361454810714E+01
 -0.361454810714E+01
 -0.294850921575E+01
 -0.294850921575E+01
 -0.365321175579E+01
 -0.365321175579E+01
 -0.273483504900E+01
 -0.273483504900E+01
 -0.369355102329E+01
 -0.369355102329E+01
 -0.250215331783E+01
 -0.250215331783E+01
 -0.373515856311E+01
 -0.373515856311E+01
 -0.224991861962E+01
 -0.224991861962E+01
 -0.388630765690E+01
 -0.388630765690E+01
 -0.393781137354E+01
 -0.393781137354E+01
 -0.381585034777E+01
 -0.381585034777E+01
 -0.372469735275E+01
 -0.372469735275E+01
 -0.361184234773E+01
 -0.361184234773E+01
 -0.377736517320E+01
 -0.377736517320E+01
 -0.385925114649E+01
 -0.385925114649E+01
 -0.381923128729E+01
 -0.381923128729E+01
 -0.389643711478E+01
 -0.389643711478E+01
 -0.392996243268E+01
 -0.392996243268E+01
 -0.395815307576E+01
 -0.395815307576E+01
 -0.197289149575E+01
 -0.197289149575E+01
 -0.397983661686E+01
 -0.397983661686E+01
 -0.166074252297E+01
 -0.166074252297E+01
 -0.399384409072E+01
 -0.399384409072E+01
 -0.128734188010E+01
 -0.128734188010E+01
 -0.399831534017E+01
 -0.399831534017E+01
 -0.788996647993E+00
 -0.788996647993E+00
 -0.399175010670E+01
 -0.399175010670E+01
  0.000000000000E+00
  0.000000000000E+00
 -0.397218567135E+01
 -0.397218567135E+01
 -0.344393822804E+01
 -0.344393822804E+01
 -0.343677682595E+01
 -0.343677682595E+01
 -0.345694127491E+01
 -0.345694127491E+01
 -0.347201788779E+01
 -0.347201788779E+01
 -0.349369644678E+01
 -0.349369644678E+01
 -0.351861950963E+01
 -0.351861950963E+01
