# vtk DataFile Version 3.0
MachLine results file. Generated by MachLine, USU AeroLab (c) 2022.
ASCII
DATASET POLYDATA
POINTS                3696 float
  0.000000000000E+00  0.000000000000E+00  0.000000000000E+00
  0.982612796544E+04  0.000000000000E+00  0.185666615386E+04
  0.147665724158E+00  0.000000000000E+00 -0.234920635819E+00
  0.982617591433E+04  0.000000000000E+00  0.185641239153E+04
  0.147665724158E+00  0.000000000000E+00  0.234920635819E+00
  0.982609019724E+04  0.000000000000E+00  0.185686603639E+04
  0.339639574289E+00  0.339639574289E+00  0.000000000000E+00
  0.982613967352E+04  0.339639574289E+00  0.185660419056E+04
  0.473465979099E+00  0.000000000000E+00 -0.436293870211E+00
  0.982622388355E+04  0.000000000000E+00  0.185615852158E+04
  0.473465979099E+00  0.000000000000E+00  0.436293870211E+00
  0.982606469005E+04  0.000000000000E+00  0.185700102939E+04
  0.487305283546E+00  0.339639574289E+00 -0.234920650721E+00
  0.982618762241E+04  0.339639574289E+00  0.185635042822E+04
  0.487305283546E+00  0.339639574289E+00  0.234920650721E+00
  0.982610190532E+04  0.339639574289E+00  0.185680407311E+04
  0.735364913940E+00  0.735364913940E+00  0.000000000000E+00
  0.982615331500E+04  0.735364913940E+00  0.185653199506E+04
  0.813105583191E+00  0.339639574289E+00 -0.436293929815E+00
  0.982623559165E+04  0.339639574289E+00  0.185609655822E+04
  0.813105583191E+00  0.339639574289E+00  0.436293929815E+00
  0.982607639812E+04  0.339639574289E+00  0.185693906615E+04
  0.883030653000E+00  0.735364913940E+00 -0.234920680523E+00
  0.982620126390E+04  0.735364913940E+00  0.185627823269E+04
  0.883030653000E+00  0.735364913940E+00  0.234920680523E+00
  0.982611554680E+04  0.735364913940E+00  0.185673187764E+04
  0.944064557552E+00  0.000000000000E+00 -0.604293465614E+00
  0.982627075564E+04  0.000000000000E+00  0.185591045803E+04
  0.944064557552E+00  0.000000000000E+00  0.604293465614E+00
  0.982605026299E+04  0.000000000000E+00  0.185707738244E+04
  0.119528055191E+01  0.119528055191E+01  0.000000000000E+00
  0.982616916926E+04  0.119528055191E+01  0.185644808879E+04
  0.120883107185E+01  0.735364913940E+00 -0.436293989420E+00
  0.982624923315E+04  0.735364913940E+00  0.185602436264E+04
  0.120883107185E+01  0.735364913940E+00  0.436293989420E+00
  0.982609003960E+04  0.735364913940E+00  0.185686687068E+04
  0.128370416164E+01  0.339639574289E+00 -0.604293525219E+00
  0.982628246374E+04  0.339639574289E+00  0.185584849467E+04
  0.128370416164E+01  0.339639574289E+00  0.604293525219E+00
  0.982606197107E+04  0.339639574289E+00  0.185701541920E+04
  0.134294629097E+01  0.119528055191E+01 -0.234920725226E+00
  0.982621711816E+04  0.119528055191E+01  0.185619432638E+04
  0.134294629097E+01  0.119528055191E+01  0.234920725226E+00
  0.982613140104E+04  0.119528055191E+01  0.185664797141E+04
  0.157641971111E+01  0.000000000000E+00 -0.760520398617E+00
  0.982632105604E+04  0.000000000000E+00  0.185564425071E+04
  0.157641971111E+01  0.000000000000E+00  0.760520398617E+00
  0.982604355980E+04  0.000000000000E+00  0.185711285805E+04
  0.166874670982E+01  0.119528055191E+01 -0.436294049025E+00
  0.982626508741E+04  0.119528055191E+01  0.185594045631E+04
  0.166874670982E+01  0.119528055191E+01  0.436294049025E+00
  0.982610589384E+04  0.119528055191E+01  0.185678296447E+04
  0.167942965031E+01  0.735364913940E+00 -0.604293584824E+00
  0.982629610524E+04  0.735364913940E+00  0.185577629909E+04
  0.167942965031E+01  0.735364913940E+00  0.604293584824E+00
  0.982607561254E+04  0.735364913940E+00  0.185694322373E+04
  0.172824025154E+01  0.172824025154E+01  0.000000000000E+00
  0.982618754149E+04  0.172824025154E+01  0.185635085648E+04
  0.187590610981E+01  0.172824025154E+01 -0.234920769930E+00
  0.982623549041E+04  0.172824025154E+01  0.185609709400E+04
  0.187590610981E+01  0.172824025154E+01  0.234920769930E+00
  0.982614977328E+04  0.172824025154E+01  0.185655073912E+04
  0.191605937481E+01  0.339639574289E+00 -0.760520458221E+00
  0.982633276414E+04  0.339639574289E+00  0.185558228734E+04
  0.191605937481E+01  0.339639574289E+00  0.760520458221E+00
  0.982605526788E+04  0.339639574289E+00  0.185705089479E+04
  0.213934540749E+01  0.119528055191E+01 -0.604293704033E+00
  0.982631195952E+04  0.119528055191E+01  0.185569239268E+04
  0.213934540749E+01  0.119528055191E+01  0.604293704033E+00
  0.982609146678E+04  0.119528055191E+01  0.185685931756E+04
  0.220170640945E+01  0.172824025154E+01 -0.436294138432E+00
  0.982628345966E+04  0.172824025154E+01  0.185584322391E+04
  0.220170640945E+01  0.172824025154E+01  0.436294138432E+00
  0.982612426606E+04  0.172824025154E+01  0.185668573225E+04
  0.231178498268E+01  0.735364913940E+00 -0.760520577431E+00
  0.982634640565E+04  0.735364913940E+00  0.185551009168E+04
  0.231178498268E+01  0.735364913940E+00  0.760520577431E+00
  0.982606890935E+04  0.735364913940E+00  0.185697869936E+04
  0.234375929832E+01  0.234375929832E+01  0.000000000000E+00
  0.982620875972E+04  0.234375929832E+01  0.185623856218E+04
  0.239635515213E+01  0.000000000000E+00 -0.902061045170E+00
  0.982637514338E+04  0.000000000000E+00  0.185535800156E+04
  0.239635515213E+01  0.000000000000E+00  0.902061045170E+00
  0.982604600224E+04  0.000000000000E+00  0.185709993179E+04
  0.249142503738E+01  0.234375929832E+01 -0.234920814633E+00
  0.982625670865E+04  0.234375929832E+01  0.185598479968E+04
  0.249142503738E+01  0.234375929832E+01  0.234920814633E+00
  0.982617099149E+04  0.234375929832E+01  0.185643844488E+04
  0.267230534554E+01  0.172824025154E+01 -0.604293823242E+00
  0.982633033179E+04  0.172824025154E+01  0.185559516021E+04
  0.267230534554E+01  0.172824025154E+01  0.604293823242E+00
  0.982610983900E+04  0.172824025154E+01  0.185676208532E+04
  0.273599505424E+01  0.339639574289E+00 -0.902061164379E+00
  0.982638685150E+04  0.339639574289E+00  0.185529603809E+04
  0.273599505424E+01  0.339639574289E+00  0.902061164379E+00
  0.982605771032E+04  0.339639574289E+00  0.185703796855E+04
  0.277170085907E+01  0.119528055191E+01 -0.760520696640E+00
  0.982636225994E+04  0.119528055191E+01  0.185542618525E+04
  0.277170085907E+01  0.119528055191E+01  0.760520696640E+00
  0.982608476359E+04  0.119528055191E+01  0.185689479316E+04
  0.281722569466E+01  0.234375929832E+01 -0.436294227839E+00
  0.982630467792E+04  0.234375929832E+01  0.185573092948E+04
  0.281722569466E+01  0.234375929832E+01  0.436294227839E+00
  0.982614548428E+04  0.234375929832E+01  0.185657343798E+04
  0.305185556412E+01  0.305185556412E+01  0.000000000000E+00
  0.982623316928E+04  0.305185556412E+01  0.185610937823E+04
  0.313172078133E+01  0.735364913940E+00 -0.902061283588E+00
  0.982640049301E+04  0.735364913940E+00  0.185522384241E+04
  0.313172078133E+01  0.735364913940E+00  0.902061283588E+00
  0.982607135179E+04  0.735364913940E+00  0.185696577310E+04
  0.319952154160E+01  0.305185556412E+01 -0.234920859337E+00
  0.982628111822E+04  0.305185556412E+01  0.185585561564E+04
  0.319952154160E+01  0.305185556412E+01  0.234920859337E+00
  0.982619540105E+04  0.305185556412E+01  0.185630926094E+04
  0.328782463074E+01  0.234375929832E+01 -0.604293942451E+00
  0.982635155004E+04  0.234375929832E+01  0.185548286575E+04
  0.328782463074E+01  0.234375929832E+01  0.604293942451E+00
  0.982613105721E+04  0.234375929832E+01  0.185664979108E+04
  0.330466079712E+01  0.172824025154E+01 -0.760520815849E+00
  0.982638063220E+04  0.172824025154E+01  0.185532895278E+04
  0.330466079712E+01  0.172824025154E+01  0.760520815849E+00
  0.982610313581E+04  0.172824025154E+01  0.185679756093E+04
  0.342464399338E+01  0.000000000000E+00 -0.102348911762E+01
  0.982643274379E+04  0.000000000000E+00  0.185505316001E+04
  0.342464399338E+01  0.000000000000E+00  0.102348911762E+01
  0.982605929637E+04  0.000000000000E+00  0.185702957462E+04
  0.352532196045E+01  0.305185556412E+01 -0.436294317245E+00
  0.982632908749E+04  0.305185556412E+01  0.185560174545E+04
  0.352532196045E+01  0.305185556412E+01  0.436294317245E+00
  0.982616989383E+04  0.305185556412E+01  0.185644425412E+04
  0.359163665771E+01  0.119528055191E+01 -0.902061402798E+00
  0.982641634730E+04  0.119528055191E+01  0.185513993598E+04
  0.359163665771E+01  0.119528055191E+01  0.902061402798E+00
  0.982608720603E+04  0.119528055191E+01  0.185688186690E+04
  0.376428389549E+01  0.339639574289E+00 -0.102348923683E+01
  0.982644445191E+04  0.339639574289E+00  0.185499119653E+04
  0.376428389549E+01  0.339639574289E+00  0.102348923683E+01
  0.982607100445E+04  0.339639574289E+00  0.185696761138E+04
  0.386280250549E+01  0.386280250549E+01  0.000000000000E+00
  0.982626112432E+04  0.386280250549E+01  0.185596143038E+04
  0.392018008232E+01  0.234375929832E+01 -0.760520994663E+00
  0.982640185047E+04  0.234375929832E+01  0.185521665826E+04
  0.392018008232E+01  0.234375929832E+01  0.760520994663E+00
  0.982612435402E+04  0.234375929832E+01  0.185668526675E+04
  0.399592113495E+01  0.305185556412E+01 -0.604294061661E+00
  0.982637595963E+04  0.305185556412E+01  0.185535368165E+04
  0.399592113495E+01  0.305185556412E+01  0.604294061661E+00
  0.982615546676E+04  0.305185556412E+01  0.185652060721E+04
  0.401046848297E+01  0.386280250549E+01 -0.234920918941E+00
  0.982630907327E+04  0.386280250549E+01  0.185570766773E+04
  0.401046848297E+01  0.386280250549E+01  0.234920918941E+00
  0.982622335608E+04  0.386280250549E+01  0.185616131314E+04
  0.412459707260E+01  0.172824025154E+01 -0.902061522007E+00
  0.982643471958E+04  0.172824025154E+01  0.185504270342E+04
  0.412459707260E+01  0.172824025154E+01  0.902061522007E+00
  0.982610557827E+04  0.172824025154E+01  0.185678463457E+04
  0.416000986099E+01  0.735364913940E+00 -0.102348935604E+01
  0.982645809343E+04  0.735364913940E+00  0.185491900081E+04
  0.416000986099E+01  0.735364913940E+00  0.102348935604E+01
  0.982608464593E+04  0.735364913940E+00  0.185689541588E+04
  0.433626890182E+01  0.386280250549E+01 -0.436294436455E+00
[...]
CELL_DATA                  78
NORMALS normals float
  0.182546851175E+00 -0.182547924352E+00 -0.966101911002E+00
  0.182546851175E+00 -0.182547924351E+00 -0.966101911002E+00
  0.182546858991E+00 -0.182547697606E+00 -0.966101952369E+00
  0.182546858991E+00 -0.182547697605E+00 -0.966101952369E+00
  0.182546842788E+00 -0.182548167658E+00 -0.966101866613E+00
  0.182546842788E+00 -0.182548167658E+00 -0.966101866613E+00
  0.182546851561E+00 -0.182547913143E+00 -0.966101913047E+00
  0.182546851561E+00 -0.182547913143E+00 -0.966101913047E+00
  0.182546853949E+00 -0.182547843888E+00 -0.966101925681E+00
  0.182546853949E+00 -0.182547843888E+00 -0.966101925681E+00
  0.182546843925E+00 -0.182548134675E+00 -0.966101872630E+00
  0.182546843925E+00 -0.182548134675E+00 -0.966101872630E+00
  0.182546854745E+00 -0.182547820783E+00 -0.966101929897E+00
  0.182546854745E+00 -0.182547820783E+00 -0.966101929897E+00
  0.182546842987E+00 -0.182548161884E+00 -0.966101867666E+00
  0.182546842987E+00 -0.182548161884E+00 -0.966101867666E+00
  0.182546853679E+00 -0.182547851711E+00 -0.966101924254E+00
  0.182546853679E+00 -0.182547851710E+00 -0.966101924254E+00
  0.182546849991E+00 -0.182547958687E+00 -0.966101904738E+00
  0.182546849991E+00 -0.182547958686E+00 -0.966101904738E+00
  0.182546845036E+00 -0.182548102431E+00 -0.966101878513E+00
  0.182546845036E+00 -0.182548102431E+00 -0.966101878513E+00
  0.182546855080E+00 -0.182547811063E+00 -0.966101931670E+00
  0.182546855080E+00 -0.182547811062E+00 -0.966101931670E+00
  0.182546843395E+00 -0.182548150050E+00 -0.966101869825E+00
  0.182546843395E+00 -0.182548150050E+00 -0.966101869825E+00
  0.182546850198E+00 -0.182547952705E+00 -0.966101905829E+00
  0.182546850197E+00 -0.182547952705E+00 -0.966101905829E+00
  0.182546849637E+00 -0.182547968951E+00 -0.966101902865E+00
  0.182546849637E+00 -0.182547968951E+00 -0.966101902865E+00
  0.182546854740E+00 -0.182547820936E+00 -0.966101929869E+00
  0.182546854740E+00 -0.182547820936E+00 -0.966101929869E+00
  0.182546853444E+00 -0.182547858515E+00 -0.966101923013E+00
  0.182546853444E+00 -0.182547858515E+00 -0.966101923013E+00
  0.182546849185E+00 -0.182547982069E+00 -0.966101900472E+00
  0.182546849185E+00 -0.182547982069E+00 -0.966101900472E+00
  0.182546844682E+00 -0.182548112693E+00 -0.966101876641E+00
  0.182546844682E+00 -0.182548112693E+00 -0.966101876641E+00
  0.182546844976E+00 -0.182548104170E+00 -0.966101878196E+00
  0.182546844976E+00 -0.182548104170E+00 -0.966101878196E+00
  0.182546844682E+00 -0.182548112693E+00 -0.966101876641E+00
  0.182546844682E+00 -0.182548112693E+00 -0.966101876641E+00
  0.182546859972E+00 -0.182547669165E+00 -0.966101957558E+00
  0.182546859972E+00 -0.182547669165E+00 -0.966101957558E+00
  0.182546842280E+00 -0.182548182375E+00 -0.966101863928E+00
  0.182546842280E+00 -0.182548182374E+00 -0.966101863928E+00
  0.182546851813E+00 -0.182547905848E+00 -0.966101914377E+00
  0.182546851813E+00 -0.182547905848E+00 -0.966101914377E+00
  0.182546849637E+00 -0.182547968951E+00 -0.966101902865E+00
  0.182546849637E+00 -0.182547968951E+00 -0.966101902865E+00
  0.182546846857E+00 -0.182548049607E+00 -0.966101888150E+00
  0.182546846857E+00 -0.182548049607E+00 -0.966101888150E+00
  0.182546857909E+00 -0.182547729000E+00 -0.966101946641E+00
  0.182546857909E+00 -0.182547729000E+00 -0.966101946641E+00
  0.182546855080E+00 -0.182547811078E+00 -0.966101931667E+00
  0.182546855080E+00 -0.182547811079E+00 -0.966101931667E+00
  0.182546851653E+00 -0.182547910496E+00 -0.966101913529E+00
  0.182546851653E+00 -0.182547910496E+00 -0.966101913530E+00
  0.182546827824E+00 -0.182548601737E+00 -0.966101787420E+00
  0.182546827824E+00 -0.182548601738E+00 -0.966101787419E+00
  0.182546864765E+00 -0.182547530118E+00 -0.966101982925E+00
  0.182546864765E+00 -0.182547530119E+00 -0.966101982925E+00
  0.182546861822E+00 -0.182547615482E+00 -0.966101967352E+00
  0.182546861822E+00 -0.182547615482E+00 -0.966101967352E+00
  0.182546829707E+00 -0.182548547117E+00 -0.966101797385E+00
  0.182546829707E+00 -0.182548547117E+00 -0.966101797385E+00
  0.182546886937E+00 -0.182546886937E+00 -0.966102100266E+00
  0.182546886937E+00 -0.182546886937E+00 -0.966102100267E+00
  0.182546811536E+00 -0.182549074225E+00 -0.966101701219E+00
  0.182546811536E+00 -0.182549074225E+00 -0.966101701219E+00
  0.182546799856E+00 -0.182549413045E+00 -0.966101639404E+00
  0.182546799856E+00 -0.182549413045E+00 -0.966101639404E+00
  0.182546937391E+00 -0.182545423294E+00 -0.966102367290E+00
  0.182546937391E+00 -0.182545423295E+00 -0.966102367290E+00
  0.182546828299E+00 -0.182548587962E+00 -0.966101789933E+00
  0.182546828299E+00 -0.182548587963E+00 -0.966101789933E+00
  0.182546886935E+00 -0.182546886988E+00 -0.966102100257E+00
  0.182546886935E+00 -0.182546886989E+00 -0.966102100257E+00
POINT_DATA                3696
SCALARS mu float 1
LOOKUP_TABLE default
  0.000000000000E+00
  0.000000000000E+00
  0.000000000000E+00
  0.000000000000E+00
  0.000000000000E+00
  0.000000000000E+00
  0.000000000000E+00
  0.000000000000E+00
  0.000000000000E+00
  0.000000000000E+00
  0.000000000000E+00
  0.000000000000E+00
  0.000000000000E+00
  0.000000000000E+00
  0.000000000000E+00
  0.000000000000E+00
  0.000000000000E+00
  0.000000000000E+00
  0.000000000000E+00
  0.000000000000E+00
  0.000000000000E+00
  0.000000000000E+00
  0.000000000000E+00
  0.000000000000E+00
  0.000000000000E+00
  0.000000000000E+00
  0.000000000000E+00
  0.000000000000E+00
  0.000000000000E+00
  0.000000000000E+00
  0.000000000000E+00
  0.000000000000E+00
  0.000000000000E+00
  0.000000000000E+00
  0.000000000000E+00
  0.000000000000E+00
  0.000000000000E+00
  0.000000000000E+00
  0.000000000000E+00
  0.000000000000E+00
  0.000000000000E+00
  0.000000000000E+00
  0.000000000000E+00
  0.000000000000E+00
  0.000000000000E+00
  0.000000000000E+00
  0.000000000000E+00
  0.000000000000E+00
  0.000000000000E+00
  0.000000000000E+00
  0.000000000000E+00
  0.000000000000E+00
  0.000000000000E+00
  0.000000000000E+00
  0.000000000000E+00
  0.000000000000E+00
  0.000000000000E+00
  0.000000000000E+00
  0.000000000000E+00
  0.000000000000E+00
  0.000000000000E+00
  0.000000000000E+00
  0.000000000000E+00
  0.000000000000E+00
  0.000000000000E+00
  0.000000000000E+00
  0.000000000000E+00
  0.000000000000E+00
  0.000000000000E+00
  0.000000000000E+00
  0.000000000000E+00
  0.000000000000E+00
  0.000000000000E+00
  0.000000000000E+00
  0.000000000000E+00
  0.000000000000E+00
  0.000000000000E+00
  0.000000000000E+00
  0.000000000000E+00
  0.000000000000E+00
  0.000000000000E+00
  0.000000000000E+00
  0.000000000000E+00
  0.000000000000E+00
  0.000000000000E+00
  0.000000000000E+00
  0.000000000000E+00
  0.000000000000E+00
  0.000000000000E+00
  0.000000000000E+00
  0.000000000000E+00
  0.000000000000E+00
  0.000000000000E+00
  0.000000000000E+00
  0.000000000000E+00
  0.000000000000E+00
  0.000000000000E+00
  0.000000000000E+00
  0.000000000000E+00
  0.000000000000E+00
  0.000000000000E+00
  0.000000000000E+00
  0.000000000000E+00
  0.000000000000E+00
  0.000000000000E+00
  0.000000000000E+00
  0.000000000000E+00
  0.000000000000E+00
  0.000000000000E+00
  0.000000000000E+00
  0.000000000000E+00
  0.000000000000E+00
  0.000000000000E+00
  0.000000000000E+00
  0.000000000000E+00
  0.000000000000E+00
  0.000000000000E+00
  0.000000000000E+00
  0.000000000000E+00
  0.000000000000E+00
  0.000000000000E+00
  0.000000000000E+00
  0.000000000000E+00
  0.000000000000E+00
  0.000000000000E+00
  0.000000000000E+00
  0.000000000000E+00
  0.000000000000E+00
  0.000000000000E+00
  0.000000000000E+00
  0.000000000000E+00
  0.000000000000E+00
  0.000000000000E+00
  0.000000000000E+00
  0.000000000000E+00
  0.000000000000E+00
  0.000000000000E+00
  0.000000000000E+00
  0.000000000000E+00
  0.000000000000E+00
  0.000000000000E+00
  0.000000000000E+00
  0.000000000000E+00
  0.000000000000E+00
  0.000000000000E+00
  0.000000000000E+00
  0.000000000000E+00
  0.000000000000E+00
  0.000000000000E+00
  0.000000000000E+00
  0.000000000000E+00
  0.000000000000E+00
  0.000000000000E+00
  0.000000000000E+00
  0.000000000000E+00
  0.000000000000E+00
  0.000000000000E+00
  0.000000000000E+00
  0.000000000000E+00
  0.000000000000E+00
  0.000000000000E+00
  0.000000000000E+00
  0.000000000000E+00
  0.000000000000E+00
  0.000000000000E+00
  0.000000000000E+00
  0.000000000000E+00
  0.000000000000E+00
  0.000000000000E+00
  0.000000000000E+00
  0.000000000000E+00
  0.000000000000E+00
  0.000000000000E+00
  0.000000000000E+00
  0.000000000000E+00
  0.000000000000E+00
  0.000000000000E+00
  0.000000000000E+00
  0.000000000000E+00
  0.000000000000E+00
  0.000000000000E+00
  0.000000000000E+00
  0.000000000000E+00
  0.000000000000E+00
  0.000000000000E+00
  0.000000000000E+00
  0.000000000000E+00
  0.000000000000E+00
  0.000000000000E+00
  0.000000000000E+00
  0.000000000000E+00
  0.000000000000E+00
  0.000000000000E+00
  0.000000000000E+00
  0.000000000000E+00
  0.000000000000E+00
  0.000000000000E+00
  0.000000000000E+00
  0.000000000000E+00
  0.000000000000E+00
  0.000000000000E+00
  0.000000000000E+00
  0.000000000000E+00
  0.000000000000E+00
  0.000000000000E+00
  0.000000000000E+00
  0.000000000000E+00
  0.000000000000E+00
  0.000000000000E+00
  0.000000000000E+00
  0.000000000000E+00
  0.000000000000E+00
  0.000000000000E+00
  0.000000000000E+00
  0.000000000000E+00
  0.000000000000E+00
  0.000000000000E+00
  0.000000000000E+00
  0.000000000000E+00
  0.000000000000E+00
  0.000000000000E+00
  0.000000000000E+00
  0.000000000000E+00
  0.000000000000E+00
  0.000000000000E+00
  0.000000000000E+00
  0.000000000000E+00
  0.000000000000E+00
  0.000000000000E+00
  0.000000000000E+00
  0.000000000000E+00
  0.000000000000E+00
  0.000000000000E+00
  0.000000000000E+00
  0.000000000000E+00
  0.000000000000E+00
  0.000000000000E+00
  0.000000000000E+00
  0.000000000000E+00
  0.000000000000E+00
  0.000000000000E+00
  0.000000000000E+00
  0.000000000000E+00
  0.000000000000E+00
  0.000000000000E+00
  0.000000000000E+00
  0.000000000000E+00
  0.000000000000E+00
  0.000000000000E+00
  0.000000000000E+00
  0.000000000000E+00
  0.000000000000E+00
  0.000000000000E+00
  0.000000000000E+00
  0.000000000000E+00
  0.000000000000E+00
  0.000000000000E+00
  0.000000000000E+00
  0.000000000000E+00
  0.000000000000E+00
  0.000000000000E+00
  0.000000000000E+00
  0.000000000000E+00
  0.000000000000E+00
  0.000000000000E+00
  0.000000000000E+00
  0.000000000000E+00
  0.000000000000E+00
  0.000000000000E+00
  0.000000000000E+00
  0.000000000000E+00
  0.000000000000E+00
  0.000000000000E+00
  0.000000000000E+00
  0.000000000000E+00
  0.000000000000E+00
  0.000000000000E+00
  0.000000000000E+00
  0.000000000000E+00
  0.000000000000E+00
  0.000000000000E+00
  0.000000000000E+00
  0.000000000000E+00
  0.000000000000E+00
  0.000000000000E+00
  0.000000000000E+00
  0.000000000000E+00
  0.000000000000E+00
  0.000000000000E+00
  0.000000000000E+00
  0.000000000000E+00
  0.000000000000E+00
  0.000000000000E+00
  0.000000000000E+00
  0.000000000000E+00
  0.000000000000E+00
  0.000000000000E+00
  0.000000000000E+00
  0.000000000000E+00
  0.000000000000E+00
  0.000000000000E+00
  0.000000000000E+00
  0.000000000000E+00
  0.000000000000E+00
  0.000000000000E+00
  0.000000000000E+00
  0.000000000000E+00
  0.000000000000E+00
  0.000000000000E+00
  0.000000000000E+00
  0.000000000000E+00
  0.000000000000E+00
  0.000000000000E+00
  0.000000000000E+00
  0.000000000000E+00
  0.000000000000E+00
  0.000000000000E+00
  0.000000000000E+00
  0.000000000000E+00
  0.000000000000E+00
  0.000000000000E+00
  0.000000000000E+00
  0.000000000000E+00
  0.000000000000E+00
  0.000000000000E+00
  0.000000000000E+00
  0.000000000000E+00
  0.000000000000E+00
  0.000000000000E+00
  0.000000000000E+00
  0.000000000000E+00
  0.000000000000E+00
  0.000000000000E+00
  0.000000000000E+00
  0.000000000000E+00
  0.000000000000E+00
  0.000000000000E+00
  0.000000000000E+00
  0.000000000000E+00
  0.000000000000E+00
  0.000000000000E+00
  0.000000000000E+00
  0.000000000000E+00
  0.000000000000E+00
  0.000000000000E+00
  0.000000000000E+00
  0.000000000000E+00
  0.000000000000E+00
  0.000000000000E+00
  0.000000000000E+00
  0.000000000000E+00
  0.000000000000E+00
  0.000000000000E+00
  0.000000000000E+00
  0.000000000000E+00
  0.000000000000E+00
  0.000000000000E+00
  0.000000000000E+00
  0.000000000000E+00
  0.000000000000E+00
  0.000000000000E+00
  0.000000000000E+00
  0.000000000000E+00
  0.000000000000E+00
  0.000000000000E+00
  0.000000000000E+00
  0.000000000000E+00
  0.000000000000E+00
  0.000000000000E+00
  0.000000000000E+00
  0.000000000000E+00
  0.000000000000E+00
  0.000000000000E+00
  0.000000000000E+00
  0.000000000000E+00
  0.000000000000E+00
  0.000000000000E+00
  0.000000000000E+00
  0.000000000000E+00
  0.000000000000E+00
  0.000000000000E+00
  0.000000000000E+00
  0.000000000000E+00
  0.000000000000E+00
  0.000000000000E+00
  0.000000000000E+00
  0.000000000000E+00
  0.000000000000E+00
  0.000000000000E+00
  0.000000000000E+00
  0.000000000000E+00
  0.000000000000E+00
  0.000000000000E+00
  0.000000000000E+00
  0.000000000000E+00
  0.000000000000E+00
  0.000000000000E+00
  0.000000000000E+00
  0.000000000000E+00
  0.000000000000E+00
  0.000000000000E+00
  0.000000000000E+00
  0.000000000000E+00
  0.000000000000E+00
  0.000000000000E+00
  0.000000000000E+00
  0.000000000000E+00
  0.000000000000E+00
  0.000000000000E+00
  0.000000000000E+00
  0.000000000000E+00
  0.000000000000E+00
  0.000000000000E+00
  0.000000000000E+00
  0.000000000000E+00
  0.000000000000E+00
  0.000000000000E+00
  0.000000000000E+00
  0.000000000000E+00
  0.000000000000E+00
  0.000000000000E+00
  0.000000000000E+00
  0.000000000000E+00
  0.000000000000E+00
  0.000000000000E+00
  0.000000000000E+00
  0.000000000000E+00
  0.000000000000E+00
  0.000000000000E+00
  0.000000000000E+00
  0.000000000000E+00
  0.000000000000E+00
  0.000000000000E+00
  0.000000000000E+00
  0.000000000000E+00
  0.000000000000E+00
  0.000000000000E+00
  0.000000000000E+00
  0.000000000000E+00
  0.000000000000E+00
  0.000000000000E+00
  0.000000000000E+00
  0.000000000000E+00
  0.000000000000E+00
  0.000000000000E+00
  0.000000000000E+00
  0.000000000000E+00
  0.000000000000E+00
  0.000000000000E+00
  0.000000000000E+00
  0.000000000000E+00
  0.000000000000E+00
  0.000000000000E+00
  0.000000000000E+00
  0.000000000000E+00
  0.000000000000E+00
  0.000000000000E+00
  0.000000000000E+00
  0.000000000000E+00
  0.000000000000E+00
  0.000000000000E+00
  0.000000000000E+00
  0.000000000000E+00
  0.000000000000E+00
  0.000000000000E+00
  0.000000000000E+00
  0.000000000000E+00
  0.000000000000E+00
  0.000000000000E+00
  0.000000000000E+00
  0.000000000000E+00
  0.000000000000E+00
  0.000000000000E+00
  0.000000000000E+00
  0.000000000000E+00
  0.000000000000E+00
  0.000000000000E+00
  0.000000000000E+00
  0.000000000000E+00
  0.000000000000E+00
  0.000000000000E+00
  0.000000000000E+00
  0.000000000000E+00
  0.000000000000E+00
  0.000000000000E+00
  0.000000000000E+00
  0.000000000000E+00
  0.000000000000E+00
  0.000000000000E+00
  0.000000000000E+00
  0.000000000000E+00
  0.000000000000E+00
  0.000000000000E+00
  0.000000000000E+00
  0.000000000000E+00
  0.000000000000E+00
  0.000000000000E+00
  0.000000000000E+00
  0.000000000000E+00
  0.000000000000E+00
  0.000000000000E+00
  0.000000000000E+00
  0.000000000000E+00
  0.000000000000E+00
  0.000000000000E+00
  0.000000000000E+00
  0.000000000000E+00
  0.000000000000E+00
  0.000000000000E+00
  0.000000000000E+00
  0.000000000000E+00
  0.000000000000E+00
  0.000000000000E+00
  0.000000000000E+00
  0.000000000000E+00
  0.000000000000E+00
  0.000000000000E+00
  0.000000000000E+00
  0.000000000000E+00
  0.000000000000E+00
  0.000000000000E+00
  0.000000000000E+00
  0.000000000000E+00
  0.000000000000E+00
  0.000000000000E+00
  0.000000000000E+00
  0.000000000000E+00
  0.000000000000E+00
  0.000000000000E+00
  0.000000000000E+00
  0.000000000000E+00
  0.000000000000E+00
  0.000000000000E+00
  0.000000000000E+00
  0.000000000000E+00
  0.000000000000E+00
  0.000000000000E+00
  0.000000000000E+00
  0.000000000000E+00
  0.000000000000E+00
  0.000000000000E+00
  0.000000000000E+00
  0.000000000000E+00
  0.000000000000E+00
  0.000000000000E+00
  0.000000000000E+00
  0.000000000000E+00
  0.000000000000E+00
  0.000000000000E+00
  0.000000000000E+00
  0.000000000000E+00
  0.000000000000E+00
  0.000000000000E+00
  0.000000000000E+00
  0.000000000000E+00
  0.000000000000E+00
  0.000000000000E+00
  0.000000000000E+00
  0.000000000000E+00
  0.000000000000E+00
  0.000000000000E+00
  0.000000000000E+00
  0.000000000000E+00
  0.000000000000E+00
  0.000000000000E+00
  0.000000000000E+00
  0.000000000000E+00
  0.000000000000E+00
  0.000000000000E+00
  0.000000000000E+00
  0.000000000000E+00
  0.000000000000E+00
  0.000000000000E+00
  0.000000000000E+00
  0.000000000000E+00
  0.000000000000E+00
  0.000000000000E+00
  0.000000000000E+00
  0.000000000000E+00
  0.000000000000E+00
  0.000000000000E+00
  0.000000000000E+00
  0.000000000000E+00
  0.000000000000E+00
  0.000000000000E+00
  0.000000000000E+00
  0.000000000000E+00
  0.000000000000E+00
  0.000000000000E+00
  0.000000000000E+00
  0.000000000000E+00
  0.000000000000E+00
  0.000000000000E+00
  0.000000000000E+00
  0.000000000000E+00
  0.000000000000E+00
  0.000000000000E+00
  0.000000000000E+00
  0.000000000000E+00
  0.000000000000E+00
  0.000000000000E+00
  0.000000000000E+00
  0.000000000000E+00
  0.000000000000E+00
  0.000000000000E+00
  0.000000000000E+00
  0.000000000000E+00
  0.000000000000E+00
  0.000000000000E+00
  0.000000000000E+00
  0.000000000000E+00
  0.000000000000E+00
  0.000000000000E+00
  0.000000000000E+00
  0.000000000000E+00
  0.000000000000E+00
  0.000000000000E+00
  0.000000000000E+00
  0.000000000000E+00
  0.000000000000E+00
  0.000000000000E+00
  0.000000000000E+00
  0.000000000000E+00
  0.000000000000E+00
  0.000000000000E+00
  0.000000000000E+00
  0.000000000000E+00
  0.000000000000E+00
  0.000000000000E+00
  0.000000000000E+00
  0.000000000000E+00
  0.000000000000E+00
  0.000000000000E+00
  0.000000000000E+00
  0.000000000000E+00
  0.000000000000E+00
  0.000000000000E+00
  0.000000000000E+00
  0.000000000000E+00
  0.000000000000E+00
  0.000000000000E+00
  0.000000000000E+00
  0.000000000000E+00
  0.000000000000E+00
  0.000000000000E+00
  0.000000000000E+00
  0.000000000000E+00
  0.000000000000E+00
  0.000000000000E+00
  0.000000000000E+00
  0.000000000000E+00
  0.000000000000E+00
  0.000000000000E+00
  0.000000000000E+00
  0.000000000000E+00
  0.000000000000E+00
  0.000000000000E+00
  0.000000000000E+00
  0.000000000000E+00
  0.000000000000E+00
  0.000000000000E+00
  0.000000000000E+00
  0.000000000000E+00
  0.000000000000E+00
  0.000000000000E+00
  0.000000000000E+00
  0.000000000000E+00
  0.000000000000E+00
  0.000000000000E+00
  0.000000000000E+00
  0.000000000000E+00
  0.000000000000E+00
  0.000000000000E+00
  0.000000000000E+00
  0.000000000000E+00
  0.000000000000E+00
  0.000000000000E+00
  0.000000000000E+00
  0.000000000000E+00
  0.000000000000E+00
  0.000000000000E+00
  0.000000000000E+00
  0.000000000000E+00
  0.000000000000E+00
  0.000000000000E+00
  0.000000000000E+00
  0.000000000000E+00
  0.000000000000E+00
  0.000000000000E+00
  0.000000000000E+00
  0.000000000000E+00
  0.000000000000E+00
  0.000000000000E+00
  0.000000000000E+00
  0.000000000000E+00
  0.000000000000E+00
  0.000000000000E+00
  0.000000000000E+00
  0.000000000000E+00
  0.000000000000E+00
  0.000000000000E+00
  0.000000000000E+00
  0.000000000000E+00
  0.000000000000E+00
  0.000000000000E+00
  0.000000000000E+00
  0.000000000000E+00
  0.000000000000E+00
  0.000000000000E+00
  0.000000000000E+00
  0.000000000000E+00
  0.000000000000E+00
  0.000000000000E+00
  0.000000000000E+00
  0.000000000000E+00
  0.000000000000E+00
  0.000000000000E+00
  0.000000000000E+00
  0.000000000000E+00