# vtk DataFile Version 3.0
MachLine results file. Generated by MachLine, USU AeroLab (c) 2022.
ASCII
DATASET POLYDATA
POINTS                 156 float
  0.193396415710E+02  0.339639574289E+00  0.000000000000E+00
  0.190000000000E+02  0.000000000000E+00  0.000000000000E+00
  0.147305221442E+05  0.339639574289E+00  0.277970679111E+04
  0.147306744028E+05  0.000000000000E+00  0.277979973661E+04
  0.197353687286E+02  0.735364913940E+00  0.000000000000E+00
  0.193396415710E+02  0.339639574289E+00  0.000000000000E+00
  0.147303447430E+05  0.735364913940E+00  0.277959849737E+04
  0.147305221442E+05  0.339639574289E+00  0.277970679111E+04
  0.201952877045E+02  0.119528055191E+01  0.000000000000E+00
  0.197353687286E+02  0.735364913940E+00  0.000000000000E+00
  0.147301385650E+05  0.119528055191E+01  0.277947263706E+04
  0.147303447430E+05  0.735364913940E+00  0.277959849737E+04
  0.207282505035E+02  0.172824025154E+01  0.000000000000E+00
  0.201952877045E+02  0.119528055191E+01  0.000000000000E+00
  0.147298996421E+05  0.172824025154E+01  0.277932678774E+04
  0.147301385650E+05  0.119528055191E+01  0.277947263706E+04
  0.213437728882E+02  0.234375929832E+01  0.000000000000E+00
  0.207282505035E+02  0.172824025154E+01  0.000000000000E+00
  0.147296237085E+05  0.234375929832E+01  0.277915834537E+04
  0.147298996421E+05  0.172824025154E+01  0.277932678774E+04
  0.220518741608E+02  0.305185556412E+01  0.000000000000E+00
  0.213437728882E+02  0.234375929832E+01  0.000000000000E+00
  0.147293062724E+05  0.305185556412E+01  0.277896456808E+04
  0.147296237085E+05  0.234375929832E+01  0.277915834537E+04
  0.228628253937E+02  0.386280250549E+01  0.000000000000E+00
  0.220518741608E+02  0.305185556412E+01  0.000000000000E+00
  0.147289427296E+05  0.386280250549E+01  0.277874264513E+04
  0.147293062724E+05  0.305185556412E+01  0.277896456808E+04
  0.237868041992E+02  0.478677463531E+01  0.000000000000E+00
  0.228628253937E+02  0.386280250549E+01  0.000000000000E+00
  0.147285285174E+05  0.478677463531E+01  0.277848979131E+04
  0.147289427296E+05  0.386280250549E+01  0.277874264513E+04
  0.248334121704E+02  0.583337688446E+01  0.000000000000E+00
  0.237868041992E+02  0.478677463531E+01  0.000000000000E+00
  0.147280593316E+05  0.583337688446E+01  0.277820337910E+04
  0.147285285174E+05  0.478677463531E+01  0.277848979131E+04
  0.260110912323E+02  0.701104879379E+01  0.000000000000E+00
  0.248334121704E+02  0.583337688446E+01  0.000000000000E+00
  0.147275313876E+05  0.701104879379E+01  0.277788109829E+04
  0.147280593316E+05  0.583337688446E+01  0.277820337910E+04
  0.273264064789E+02  0.832635498047E+01  0.000000000000E+00
  0.260110912323E+02  0.701104879379E+01  0.000000000000E+00
  0.147269417425E+05  0.832635498047E+01  0.277752115229E+04
  0.147275313876E+05  0.701104879379E+01  0.277788109829E+04
  0.287832584381E+02  0.978319931030E+01  0.000000000000E+00
  0.273264064789E+02  0.832635498047E+01  0.000000000000E+00
  0.147262886476E+05  0.978319931030E+01  0.277712247370E+04
  0.147269417425E+05  0.832635498047E+01  0.277752115229E+04
  0.303820724487E+02  0.113820018768E+02  0.000000000000E+00
  0.287832584381E+02  0.978319931030E+01  0.000000000000E+00
  0.147255719123E+05  0.113820018768E+02  0.277668494611E+04
  0.147262886476E+05  0.978319931030E+01  0.277712247370E+04
  0.321190223694E+02  0.131189413071E+02  0.000000000000E+00
  0.303820724487E+02  0.113820018768E+02  0.000000000000E+00
  0.147247932518E+05  0.131189413071E+02  0.277620961658E+04
  0.147255719123E+05  0.113820018768E+02  0.277668494611E+04
  0.339854316711E+02  0.149853391647E+02  0.000000000000E+00
  0.321190223694E+02  0.131189413071E+02  0.000000000000E+00
  0.147239565557E+05  0.149853391647E+02  0.277569885952E+04
  0.147247932518E+05  0.131189413071E+02  0.277620961658E+04
  0.359674301147E+02  0.169673271179E+02  0.000000000000E+00
  0.339854316711E+02  0.149853391647E+02  0.000000000000E+00
  0.147230680419E+05  0.169673271179E+02  0.277515647060E+04
  0.147239565557E+05  0.149853391647E+02  0.277569885952E+04
  0.380459861755E+02  0.190458717346E+02  0.000000000000E+00
  0.359674301147E+02  0.169673271179E+02  0.000000000000E+00
  0.147221362422E+05  0.190458717346E+02  0.277458765796E+04
  0.147230680419E+05  0.169673271179E+02  0.277515647060E+04
  0.401973724365E+02  0.211972446442E+02  0.000000000000E+00
  0.380459861755E+02  0.190458717346E+02  0.000000000000E+00
  0.147211717932E+05  0.211972446442E+02  0.277399891479E+04
  0.147221362422E+05  0.190458717346E+02  0.277458765796E+04
  0.423940925598E+02  0.233939495087E+02  0.000000000000E+00
  0.401973724365E+02  0.211972446442E+02  0.000000000000E+00
  0.147201870215E+05  0.233939495087E+02  0.277339776566E+04
  0.147211717932E+05  0.211972446442E+02  0.277399891479E+04
  0.446062088013E+02  0.256060504913E+02  0.000000000000E+00
  0.423940925598E+02  0.233939495087E+02  0.000000000000E+00
  0.147191953478E+05  0.256060504913E+02  0.277279240326E+04
  0.147201870215E+05  0.233939495087E+02  0.277339776566E+04
  0.468029289246E+02  0.278027553558E+02  0.000000000000E+00
  0.446062088013E+02  0.256060504913E+02  0.000000000000E+00
  0.147182105760E+05  0.278027553558E+02  0.277219125413E+04
  0.147191953478E+05  0.256060504913E+02  0.277279240326E+04
  0.489543113708E+02  0.299541282654E+02  0.000000000000E+00
  0.468029289246E+02  0.278027553558E+02  0.000000000000E+00
  0.147172461288E+05  0.299541282654E+02  0.277160251200E+04
  0.147182105760E+05  0.278027553558E+02  0.277219125413E+04
  0.510328712463E+02  0.320326728821E+02  0.000000000000E+00
  0.489543113708E+02  0.299541282654E+02  0.000000000000E+00
  0.147163143273E+05  0.320326728821E+02  0.277103369832E+04
  0.147172461288E+05  0.299541282654E+02  0.277160251200E+04
  0.530148696899E+02  0.340146598816E+02  0.000000000000E+00
  0.510328712463E+02  0.320326728821E+02  0.000000000000E+00
  0.147154258135E+05  0.340146598816E+02  0.277049130940E+04
  0.147163143273E+05  0.320326728821E+02  0.277103369832E+04
  0.548812789917E+02  0.358810577393E+02  0.000000000000E+00
  0.530148696899E+02  0.340146598816E+02  0.000000000000E+00
  0.147145891174E+05  0.358810577393E+02  0.276998055233E+04
  0.147154258135E+05  0.340146598816E+02  0.277049130940E+04
  0.566182289124E+02  0.376179962158E+02  0.000000000000E+00
  0.548812789917E+02  0.358810577393E+02  0.000000000000E+00
  0.147138104569E+05  0.376179962158E+02  0.276950522281E+04
  0.147145891174E+05  0.358810577393E+02  0.276998055233E+04
  0.582170410156E+02  0.392168006897E+02  0.000000000000E+00
  0.566182289124E+02  0.376179962158E+02  0.000000000000E+00
  0.147130937224E+05  0.392168006897E+02  0.276906769574E+04
  0.147138104569E+05  0.376179962158E+02  0.276950522281E+04
  0.596738929749E+02  0.406736450195E+02  0.000000000000E+00
  0.582170410156E+02  0.392168006897E+02  0.000000000000E+00
  0.147124406276E+05  0.406736450195E+02  0.276866901715E+04
  0.147130937224E+05  0.392168006897E+02  0.276906769574E+04
  0.609892082214E+02  0.419889526367E+02  0.000000000000E+00
  0.596738929749E+02  0.406736450195E+02  0.000000000000E+00
  0.147118509824E+05  0.419889526367E+02  0.276830907115E+04
  0.147124406276E+05  0.406736450195E+02  0.276866901715E+04
  0.621668891907E+02  0.431666221619E+02  0.000000000000E+00
  0.609892082214E+02  0.419889526367E+02  0.000000000000E+00
  0.147113230377E+05  0.431666221619E+02  0.276798678982E+04
  0.147118509824E+05  0.419889526367E+02  0.276830907115E+04
  0.632134971619E+02  0.442132263184E+02  0.000000000000E+00
  0.621668891907E+02  0.431666221619E+02  0.000000000000E+00
  0.147108538518E+05  0.442132263184E+02  0.276770037761E+04
  0.147113230377E+05  0.431666221619E+02  0.276798678982E+04
  0.641374740601E+02  0.451371994019E+02  0.000000000000E+00
  0.632134971619E+02  0.442132263184E+02  0.000000000000E+00
  0.147104396405E+05  0.451371994019E+02  0.276744752432E+04
  0.147108538518E+05  0.442132263184E+02  0.276770037761E+04
  0.649484252930E+02  0.459481430054E+02  0.000000000000E+00
  0.641374740601E+02  0.451371994019E+02  0.000000000000E+00
  0.147100760977E+05  0.459481430054E+02  0.276722560136E+04
  0.147104396405E+05  0.451371994019E+02  0.276744752432E+04
  0.656565246582E+02  0.466562423706E+02  0.000000000000E+00
  0.649484252930E+02  0.459481430054E+02  0.000000000000E+00
  0.147097586625E+05  0.466562423706E+02  0.276703182459E+04
  0.147100760977E+05  0.459481430054E+02  0.276722560136E+04
  0.662720489502E+02  0.472717590332E+02  0.000000000000E+00
  0.656565246582E+02  0.466562423706E+02  0.000000000000E+00
  0.147094827279E+05  0.472717590332E+02  0.276686338170E+04
  0.147097586625E+05  0.466562423706E+02  0.276703182459E+04
  0.668050155640E+02  0.478047180176E+02  0.000000000000E+00
  0.662720489502E+02  0.472717590332E+02  0.000000000000E+00
  0.147092438033E+05  0.478047180176E+02  0.276671753134E+04
  0.147094827279E+05  0.472717590332E+02  0.276686338170E+04
  0.672649307251E+02  0.482646369934E+02  0.000000000000E+00
  0.668050155640E+02  0.478047180176E+02  0.000000000000E+00
  0.147090376271E+05  0.482646369934E+02  0.276659167207E+04
  0.147092438033E+05  0.478047180176E+02  0.276671753134E+04
  0.676606597900E+02  0.486603622437E+02  0.000000000000E+00
  0.672649307251E+02  0.482646369934E+02  0.000000000000E+00
  0.147088602250E+05  0.486603622437E+02  0.276648337781E+04
  0.147090376271E+05  0.482646369934E+02  0.276659167207E+04
  0.680002975464E+02  0.490000000000E+02  0.000000000000E+00
  0.676606597900E+02  0.486603622437E+02  0.000000000000E+00
  0.147087079682E+05  0.490000000000E+02  0.276639043336E+04
  0.147088602250E+05  0.486603622437E+02  0.276648337781E+04
POLYGONS                  78                 312
3                   0                   3                   1
3                   0                   2                   3
3                   4                   7                   5
3                   4                   6                   7
3                   8                  11                   9
3                   8                  10                  11
3                  12                  15                  13
3                  12                  14                  15
3                  16                  19                  17
3                  16                  18                  19
3                  20                  23                  21
3                  20                  22                  23
3                  24                  27                  25
3                  24                  26                  27
3                  28                  31                  29
3                  28                  30                  31
3                  32                  35                  33
3                  32                  34                  35
3                  36                  39                  37
3                  36                  38                  39
3                  40                  43                  41
3                  40                  42                  43
3                  44                  47                  45
3                  44                  46                  47
3                  48                  51                  49
3                  48                  50                  51
3                  52                  55                  53
3                  52                  54                  55
3                  56                  59                  57
3                  56                  58                  59
3                  60                  63                  61
3                  60                  62                  63
3                  64                  67                  65
3                  64                  66                  67
3                  68                  71                  69
3                  68                  70                  71
3                  72                  75                  73
3                  72                  74                  75
3                  76                  79                  77
3                  76                  78                  79
3                  80                  83                  81
3                  80                  82                  83
3                  84                  87                  85
3                  84                  86                  87
3                  88                  91                  89
3                  88                  90                  91
3                  92                  95                  93
3                  92                  94                  95
3                  96                  99                  97
3                  96                  98                  99
3                 100                 103                 101
3                 100                 102                 103
3                 104                 107                 105
3                 104                 106                 107
3                 108                 111                 109
3                 108                 110                 111
3                 112                 115                 113
3                 112                 114                 115
3                 116                 119                 117
3                 116                 118                 119
3                 120                 123                 121
3                 120                 122                 123
3                 124                 127                 125
3                 124                 126                 127
3                 128                 131                 129
3                 128                 130                 131
3                 132                 135                 133
3                 132                 134                 135
3                 136                 139                 137
3                 136                 138                 139
3                 140                 143                 141
3                 140                 142                 143
3                 144                 147                 145
3                 144                 146                 147
3                 148                 151                 149
3                 148                 150                 151
3                 152                 155                 153
3                 152                 154                 155
POINT_DATA                 156
SCALARS mu float 1
LOOKUP_TABLE default
 -0.174138893473E+01
  0.113531462213E-03
 -0.174138893473E+01
  0.113531462213E-03
 -0.263154991828E+01
 -0.174138893473E+01
 -0.263154991828E+01
 -0.174138893473E+01
 -0.320694649650E+01
 -0.263154991828E+01
 -0.320694649650E+01
 -0.263154991828E+01
 -0.363139470252E+01
 -0.320694649650E+01
 -0.363139470252E+01
 -0.320694649650E+01
 -0.397292559506E+01
 -0.363139470252E+01
 -0.397292559506E+01
 -0.363139470252E+01
 -0.426248855068E+01
 -0.397292559506E+01
 -0.426248855068E+01
 -0.397292559506E+01
 -0.452174759013E+01
 -0.426248855068E+01
 -0.452174759013E+01
 -0.426248855068E+01
 -0.475853629931E+01
 -0.452174759013E+01
 -0.475853629931E+01
 -0.452174759013E+01
 -0.497708421753E+01
 -0.475853629931E+01
 -0.497708421753E+01
 -0.475853629931E+01
 -0.518138634220E+01
 -0.497708421753E+01
 -0.518138634220E+01
 -0.497708421753E+01
 -0.537319949894E+01
 -0.518138634220E+01
 -0.537319949894E+01
 -0.518138634220E+01
 -0.555398289571E+01
 -0.537319949894E+01
 -0.555398289571E+01
 -0.537319949894E+01
 -0.572298655532E+01
 -0.555398289571E+01
 -0.572298655532E+01
 -0.555398289571E+01
 -0.587889509890E+01
 -0.572298655532E+01
 -0.587889509890E+01
 -0.572298655532E+01
 -0.602069262918E+01
 -0.587889509890E+01
 -0.602069262918E+01
 -0.587889509890E+01
 -0.614841027685E+01
 -0.602069262918E+01
 -0.614841027685E+01
 -0.602069262918E+01
 -0.625888217779E+01
 -0.614841027685E+01
 -0.625888217779E+01
 -0.614841027685E+01
 -0.635095010997E+01
 -0.625888217779E+01
 -0.635095010997E+01
 -0.625888217779E+01
 -0.642326443536E+01
 -0.635095010997E+01
 -0.642326443536E+01
 -0.635095010997E+01
 -0.647314569234E+01
 -0.642326443536E+01
 -0.647314569234E+01
 -0.642326443536E+01
 -0.649800125198E+01
 -0.647314569234E+01
 -0.649800125198E+01
 -0.647314569234E+01
 -0.649624850271E+01
 -0.649800125198E+01
 -0.649624850271E+01
 -0.649800125198E+01
 -0.646449967346E+01
 -0.649624850271E+01
 -0.646449967346E+01
 -0.649624850271E+01
 -0.639966462593E+01
 -0.646449967346E+01
 -0.639966462593E+01
 -0.646449967346E+01
 -0.629882895350E+01
 -0.639966462593E+01
 -0.629882895350E+01
 -0.639966462593E+01
 -0.616068675699E+01
 -0.629882895350E+01
 -0.616068675699E+01
 -0.629882895350E+01
 -0.598298875349E+01
 -0.616068675699E+01
 -0.598298875349E+01
 -0.616068675699E+01
 -0.576661787548E+01
 -0.598298875349E+01
 -0.576661787548E+01
 -0.598298875349E+01
 -0.551003110073E+01
 -0.576661787548E+01
 -0.551003110073E+01
 -0.576661787548E+01
 -0.521860844560E+01
 -0.551003110073E+01
 -0.521860844560E+01
 -0.551003110073E+01
 -0.489428404069E+01
 -0.521860844560E+01
 -0.489428404069E+01
 -0.521860844560E+01
 -0.453572295697E+01
 -0.489428404069E+01
 -0.453572295697E+01
 -0.489428404069E+01
 -0.414758886685E+01
 -0.453572295697E+01
 -0.414758886685E+01
 -0.453572295697E+01
 -0.372411964701E+01
 -0.414758886685E+01
 -0.372411964701E+01
 -0.414758886685E+01
 -0.326020913856E+01
 -0.372411964701E+01
 -0.326020913856E+01
 -0.372411964701E+01
 -0.273671625777E+01
 -0.326020913856E+01
 -0.273671625777E+01
 -0.326020913856E+01
 -0.211468898900E+01
 -0.273671625777E+01
 -0.211468898900E+01
 -0.273671625777E+01
 -0.128833779446E+01
 -0.211468898900E+01
 -0.128833779446E+01
 -0.211468898900E+01
  0.000000000000E+00
 -0.128833779446E+01
  0.000000000000E+00
 -0.128833779446E+01
