# vtk DataFile Version 3.0
MachLine results file. Generated by MachLine, USU AeroLab (c) 2022.
ASCII
DATASET POLYDATA
POINTS                 482 float
  0.236813288641E+00  0.000000000000E+00  0.686565968816E-16
  0.624814081843E+00  0.000000000000E+00 -0.216428737068E+00
  0.624814081843E+00  0.000000000000E+00  0.216428737068E+00
  0.936286588147E+00  0.579506026584E+00 -0.561895002135E-17
  0.134949075789E+01  0.639768029252E+00 -0.218865761583E+00
  0.134949075789E+01  0.639768029252E+00  0.218865761583E+00
  0.166333682055E+01  0.000000000000E+00 -0.417572791145E+00
  0.166333682055E+01  0.000000000000E+00  0.417572791145E+00
  0.201092498640E+01  0.156702214196E+01 -0.279641648794E-16
  0.240530328697E+01  0.164611001899E+01 -0.173337958184E+00
  0.240530328697E+01  0.164611001899E+01  0.173337958184E+00
  0.240761478271E+01  0.684598059678E+00 -0.420944840504E+00
  0.240761478271E+01  0.684598059678E+00  0.420944840504E+00
  0.344986477255E+01  0.289573058939E+01  0.174541604789E-16
  0.345037803883E+01  0.170398970512E+01 -0.366807975171E+00
  0.345037803883E+01  0.170398970512E+01  0.366807975171E+00
  0.347800745605E+01  0.000000000000E+00 -0.567847677909E+00
  0.347800745605E+01  0.000000000000E+00  0.567847677909E+00
  0.382075010340E+01  0.299831190111E+01 -0.115133872484E+00
  0.382075010340E+01  0.299831190111E+01  0.115133872484E+00
  0.422430015314E+01  0.716137624114E+00 -0.571459768044E+00
  0.422430015314E+01  0.716137624114E+00  0.571459768044E+00
  0.484917759257E+01  0.307283909445E+01 -0.297433607780E+00
  0.484917759257E+01  0.307283909445E+01  0.297433607780E+00
  0.534018405594E+01  0.465304866619E+01 -0.173147533833E-15
  0.526047475105E+01  0.174211864828E+01 -0.516294363350E+00
  0.526047475105E+01  0.174211864828E+01  0.516294363350E+00
  0.568323099534E+01  0.478346862540E+01 -0.439725145123E-01
  0.568323099534E+01  0.478346862540E+01  0.439725145123E-01
  0.612417134702E+01  0.000000000000E+00 -0.595279552601E+00
  0.612417134702E+01  0.000000000000E+00  0.595279552601E+00
  0.669135356720E+01  0.487830145179E+01 -0.212393034855E+00
  0.669135356720E+01  0.487830145179E+01  0.212393034855E+00
  0.665084364825E+01  0.311939966149E+01 -0.445466940557E+00
  0.665084364825E+01  0.311939966149E+01  0.445466940557E+00
  0.686955818900E+01  0.759312873477E+00 -0.590921055075E+00
  0.686955818900E+01  0.759312873477E+00  0.590921055075E+00
  0.776249866534E+01  0.692475051734E+01  0.171518464496E-15
  0.807478710201E+01  0.708592944887E+01  0.380216172375E-01
  0.807478710201E+01  0.708592944887E+01 -0.380216172375E-01
  0.790049533303E+01  0.179053183560E+01 -0.535989223717E+00
  0.790049533303E+01  0.179053183560E+01  0.535989223717E+00
  0.848270467544E+01  0.493517742996E+01 -0.358426458783E+00
  0.848270467544E+01  0.493517742996E+01  0.358426458783E+00
  0.905956171061E+01  0.720411070487E+01 -0.114183193516E+00
  0.905956171061E+01  0.720411070487E+01  0.114183193516E+00
  0.928414007832E+01  0.317453791780E+01 -0.465426284732E+00
  0.928414007832E+01  0.317453791780E+01  0.465426284732E+00
  0.936918949172E+01  0.000000000000E+00 -0.545743690960E+00
  0.936918949172E+01  0.000000000000E+00  0.545743690960E+00
  0.101159225602E+02  0.794960532146E+00 -0.454736260094E+00
  0.101159225602E+02  0.794960532146E+00  0.454736260094E+00
  0.107698779598E+02  0.977579734077E+01 -0.266148844492E-15
  0.110513600465E+02  0.996778311833E+01  0.125191640434E+00
  0.110513600465E+02  0.996778311833E+01 -0.125191640434E+00
  0.108390257876E+02  0.727287612994E+01 -0.257653312483E+00
  0.108390257876E+02  0.727287612994E+01  0.257653312483E+00
  0.111077391158E+02  0.499858060283E+01 -0.378608094034E+00
  0.111077391158E+02  0.499858060283E+01  0.378608094034E+00
  0.111445459163E+02  0.182849472198E+01 -0.419868581828E+00
  0.111445459163E+02  0.182849472198E+01  0.419868581828E+00
  0.120113534448E+02  0.101107474954E+02 -0.959230672239E-02
  0.120113534448E+02  0.101107474954E+02  0.959230672239E-02
  0.125250361739E+02  0.321565675889E+01 -0.372497616769E+00
  0.125250361739E+02  0.321565675889E+01  0.372497616769E+00
  0.126243136587E+02  0.000000000000E+00 -0.233171846172E+00
  0.126243136587E+02  0.000000000000E+00  0.233171846172E+00
  0.133819915766E+02  0.800835563401E+00 -0.246449036529E+00
  0.133819915766E+02  0.800835563401E+00  0.246449036529E+00
  0.134544920274E+02  0.734584847698E+01 -0.277940113121E+00
  0.134544920274E+02  0.734584847698E+01  0.277940113121E+00
  0.137781778782E+02  0.101921535121E+02 -0.150102654710E+00
  0.137781778782E+02  0.101921535121E+02  0.150102654710E+00
  0.143607290970E+02  0.132235146632E+02  0.358200537065E-15
  0.146155825426E+02  0.134421291046E+02  0.207904533946E+00
  0.146155825426E+02  0.134421291046E+02 -0.207904533946E+00
  0.143444079225E+02  0.504392766285E+01 -0.309313034721E+00
  0.143444079225E+02  0.504392766285E+01  0.309313034721E+00
  0.144109693642E+02  0.183401626208E+01 -0.225306739425E+00
  0.144109693642E+02  0.183401626208E+01  0.225306739425E+00
  0.153052613066E+02  0.000000000000E+00 -0.328042146203E-01
  0.153052613066E+02  0.000000000000E+00  0.328042146203E-01
  0.155520869150E+02  0.136085835290E+02  0.897721388398E-01
  0.155520869150E+02  0.136085835290E+02 -0.897721388398E-01
  0.157913137049E+02  0.322132611731E+01 -0.190270033220E+00
  0.157913137049E+02  0.322132611731E+01  0.190270033220E+00
  0.160648925436E+02  0.794659927807E+00 -0.502216371963E-01
  0.160648925436E+02  0.794659927807E+00  0.502216371963E-01
  0.163834337554E+02  0.102753390791E+02 -0.170340803960E+00
  0.163834337554E+02  0.102753390791E+02  0.170340803960E+00
  0.166857394972E+02  0.739662069831E+01 -0.228636182819E+00
  0.166857394972E+02  0.739662069831E+01  0.228636182819E+00
  0.170930631623E+02  0.182864877122E+01 -0.230723664070E-01
  0.170930631623E+02  0.182864877122E+01  0.230723664070E-01
  0.171723477555E+02  0.000000000000E+00  0.680462145376E-01
  0.171723477555E+02  0.000000000000E+00 -0.680462145376E-01
  0.173069204312E+02  0.137019833079E+02 -0.477608182868E-01
  0.173069204312E+02  0.137019833079E+02  0.477608182868E-01
  0.176096460679E+02  0.505063830948E+01 -0.135052453148E+00
  0.176096460679E+02  0.505063830948E+01  0.135052453148E+00
  0.184540795969E+02  0.172099332601E+02  0.254723380449E-15
  0.179308784442E+02  0.785350094203E+00  0.626997710838E-01
  0.179308784442E+02  0.785350094203E+00 -0.626997710838E-01
  0.186912126312E+02  0.174462690303E+02  0.273695681491E+00
  0.186912126312E+02  0.174462690303E+02 -0.273695681491E+00
  0.183249181351E+02  0.000000000000E+00  0.118153062387E+00
  0.183249181351E+02  0.000000000000E+00 -0.118153062387E+00
  0.184720186926E+02  0.321734839001E+01  0.223902251239E-01
  0.184720186926E+02  0.321734839001E+01 -0.223902251239E-01
  0.189576725578E+02  0.182071733764E+01  0.102578694882E+00
  0.189576725578E+02  0.182071733764E+01 -0.102578694882E+00
  0.188391380017E+02  0.129494027695E-02 -0.282518883299E-01
  0.190812628765E+02  0.779575073234E+00  0.132909556662E+00
  0.190812628765E+02  0.779575073234E+00 -0.132909556662E+00
  0.196090470060E+02  0.176313934661E+02  0.168873366163E+00
  0.196090470060E+02  0.176313934661E+02 -0.168873366163E+00
  0.196083004081E+02  0.103324949922E+02 -0.134101768364E+00
  0.196083004081E+02  0.103324949922E+02  0.134101768364E+00
  0.196157783120E+02  0.900019067971E+00 -0.151596691548E-01
  0.199024602820E+02  0.137948877555E+02 -0.678259770345E-01
  0.199024602820E+02  0.137948877555E+02  0.678259770345E-01
  0.199489762945E+02  0.740533366320E+01 -0.577859476918E-01
  0.199489762945E+02  0.740533366320E+01  0.577859476918E-01
  0.201067723114E+02  0.181622699691E+01  0.185052878217E+00
  0.201067723114E+02  0.181622699691E+01 -0.185052878217E+00
  0.202885132768E+02  0.504850029612E+01  0.907700212596E-01
  0.202885132768E+02  0.504850029612E+01 -0.907700212596E-01
  0.203349619247E+02  0.321108312517E+01  0.163389223979E+00
  0.203349619247E+02  0.321108312517E+01 -0.163389223979E+00
  0.206041595611E+02  0.197379950391E+01 -0.197146145061E-01
  0.213543437461E+02  0.177343329519E+02  0.338022472306E-01
  0.213543437461E+02  0.177343329519E+02 -0.338022472306E-01
  0.214831075765E+02  0.320754691663E+01  0.255166254059E+00
  0.214831075765E+02  0.320754691663E+01 -0.255166254059E+00
  0.219333557261E+02  0.341226066736E+01 -0.255424664644E-01
  0.221500231178E+02  0.504367034355E+01  0.244899927977E+00
  0.221500231178E+02  0.504367034355E+01 -0.244899927977E+00
  0.228810637673E+02  0.215867975191E+02  0.611503964226E-16
  0.226259884161E+02  0.740505455059E+01  0.179783442099E+00
  0.226259884161E+02  0.740505455059E+01 -0.179783442099E+00
  0.231130862555E+02  0.218282457318E+02  0.310411856421E+00
  0.231130862555E+02  0.218282457318E+02 -0.310411856421E+00
  0.228690046211E+02  0.103437443612E+02  0.346636415255E-01
  0.228690046211E+02  0.103437443612E+02 -0.346636415255E-01
  0.231207299943E+02  0.138586444364E+02 -0.366729847416E-01
  0.231207299943E+02  0.138586444364E+02  0.366729847416E-01
  0.232975862701E+02  0.504071661379E+01  0.342632245164E+00
  0.232975862701E+02  0.504071661379E+01 -0.342632245164E+00
  0.240205100458E+02  0.220237825143E+02  0.213046333828E+00
  0.240205100458E+02  0.220237825143E+02 -0.213046333828E+00
  0.239421415810E+02  0.178349832500E+02  0.139455486876E-01
  0.239421415810E+02  0.178349832500E+02 -0.139455486876E-01
  0.236910036873E+02  0.530226143951E+01 -0.326018791185E-01
  0.244865050967E+02  0.740121775905E+01  0.342870631782E+00
  0.244865050967E+02  0.740121775905E+01 -0.342870631782E+00
  0.255444234464E+02  0.103450604481E+02  0.280423095882E+00
  0.255444234464E+02  0.103450604481E+02 -0.280423095882E+00
  0.257604847986E+02  0.221320459064E+02  0.793855525672E-01
  0.257604847986E+02  0.221320459064E+02 -0.793855525672E-01
  0.256337481291E+02  0.739858606553E+01  0.444224248897E+00
  0.256337481291E+02  0.739858606553E+01 -0.444224248897E+00
[...]
POINT_DATA                 482
SCALARS BC_type int 1
LOOKUP_TABLE default
           2
           2
           2
           2
           2
           2
           2
           2
           2
           2
           2
           2
           2
           2
           2
           2
           2
           2
           2
           2
           2
           2
           2
           2
           2
           2
           2
           2
           2
           2
           2
           2
           2
           2
           2
           2
           2
           2
           2
           2
           2
           2
           2
           2
           2
           2
           2
           2
           2
           2
           2
           2
           2
           2
           2
           2
           2
           2
           2
           2
           2
           2
           2
           2
           2
           2
           2
           2
           2
           2
           2
           2
           2
           2
           2
           2
           2
           2
           2
           2
           2
           2
           2
           2
           2
           2
           2
           2
           2
           2
           2
           2
           2
           2
           2
           2
           2
           2
           2
           2
           2
           2
           2
           2
           2
           2
           2
           2
           2
           2
           2
           2
           2
           2
           2
           2
           2
           2
           2
           2
           2
           2
           2
           2
           2
           2
           2
           2
           2
           2
           2
           2
           2
           2
           2
           2
           2
           2
           2
           2
           2
           2
           2
           2
           2
           2
           2
           2
           2
           2
           2
           2
           2
           2
           2
           2
           2
           2
           2
           2
           2
           2
           2
           2
           2
           2
           2
           2
           2
           2
           2
           2
           2
           2
           2
           2
           2
           2
           2
           2
           2
           2
           2
           2
           2
           2
           2
           2
           2
           2
           2
           2
           2
           2
           2
           2
           2
           2
           2
           2
           2
           2
           2
           2
           2
           2
           2
           2
           2
           2
           2
           2
           2
           2
           2
           2
           2
           2
           2
           2
           2
           2
           2
           2
           2
           2
           2
           2
           2
           2
           2
           2
           2
           2
           2
           2
           2
           2
           2
           2
           2
           2
           2
           2
           2
           2
           2
           2
           2
           2
           2
           2
           2
           2
           2
           2
           2
           2
           2
           2
           2
           2
           2
           2
           2
           2
           2
           2
           2
           2
           2
           2
           2
           2
           2
           2
           2
           2
           2
           2
           2
           2
           2
           2
           2
           2
           2
           2
           2
           2
           2
           2
           2
           2
           2
           2
           2
           2
           2
           2
           2
           2
           2
           2
           2
           2
           2
           2
           2
           2
           2
           2
           2
           2
           2
           2
           2
           2
           2
           2
           2
           2
           2
           2
           2
           2
           2
           2
           2
           2
           2
           2
           2
           2
           2
           2
           2
           2
           2
           2
           2
           2
           2
           2
           2
           2
           2
           2
           2
           2
           2
           2
           2
           2
           2
           2
           2
           2
           2
           2
           2
           2
           2
           2
           2
           2
           2
           2
           2
           2
           2
           2
           2
           2
           2
           2
           2
           2
           2
           2
           2
           2
           2
           2
           2
           2
           2
           2
           2
           2
           2
           2
           2
           2
           2
           2
           2
           2
           2
           2
           2
           2
           2
           2
           2
           2
           2
           2
           2
           2
           2
           2
           2
           2
           2
           2
           2
           2
           2
           2
           2
           2
           2
           2
           2
           2
           2
           2
           2
           2
           2
           2
           2
           2
           2
           2
           2
           2
           2
           2
           2
           2
           2
           2
           2
           2
           2
           2
           2
           2
           2
           2
           2
           2
           2
           2
           2
           2
           2
           2
           2
           2
           2
           2
           2
           2
           2
           2
           2
           2
           2
           2
           2
           2
           2
           2
           2
           2
           2
           2
           2
           2
SCALARS residual float 1
LOOKUP_TABLE default
 -0.169017161378E-09
 -0.108034692303E-10
 -0.508548758660E-11
  0.140651823521E-08
 -0.493723728567E-09
 -0.431875868401E-09
 -0.115278897539E-09
 -0.721298576423E-10
 -0.524327115059E-08
  0.225997087711E-08
  0.241475195395E-08
  0.286494383772E-09
  0.389904108999E-09
  0.192333446947E-07
 -0.117387433107E-08
 -0.920574727559E-09
  0.476649830716E-10
  0.933337851450E-10
 -0.107078257372E-07
 -0.103493529302E-07
 -0.317085024903E-09
 -0.181508141850E-10
  0.341118333580E-08
  0.388906506998E-08
 -0.537008872925E-07
  0.899058605341E-10
  0.516336307044E-09
  0.322757740534E-07
  0.367796451073E-07
 -0.212611261929E-09
  0.138335565225E-09
 -0.115781615406E-07
 -0.105073700851E-07
 -0.146553880143E-08
 -0.328808980044E-09
 -0.170954805867E-09
  0.330464544618E-09
  0.230602053009E-07
 -0.171271032912E-07
 -0.200281133900E-07
 -0.704805103169E-09
  0.522194731900E-09
  0.253702125974E-08
  0.331702842971E-08
  0.445639081192E-08
  0.820561929515E-08
 -0.740820738088E-09
  0.118884280198E-08
 -0.149695367213E-09
  0.155102597432E-09
 -0.920913123537E-09
  0.913614073283E-09
  0.926685430613E-07
 -0.550422072365E-07
 -0.553381767077E-07
 -0.936888611136E-08
  0.516151033025E-08
 -0.333273675324E-08
  0.195300842165E-08
 -0.137483802121E-08
  0.137137590173E-08
  0.125753055968E-06
 -0.105238456172E-06
 -0.243790942989E-08
  0.243078268625E-08
 -0.968340074792E-09
  0.967888880155E-09
 -0.251747245272E-08
  0.251680454255E-08
  0.471036543104E-10
  0.106228803531E-08
  0.562427029394E-07
 -0.621125924027E-07
  0.107298783192E-06
 -0.364294017174E-07
 -0.817935799091E-07
 -0.390831367270E-08
  0.410760314651E-08
 -0.424114432462E-08
  0.425187529629E-08
 -0.164485705056E-07
  0.164493716426E-07
 -0.106934079369E-06
  0.126054237271E-06
 -0.629348129166E-08
  0.626431884143E-08
 -0.187548199193E-07
  0.187570705634E-07
 -0.821516188410E-07
  0.833497288966E-07
 -0.107945581362E-07
  0.105535526984E-07
 -0.990094477515E-07
  0.990123396605E-07
  0.256217802530E-08
 -0.256271093235E-08
 -0.232852032411E-05
  0.231999408840E-05
 -0.925281895547E-08
  0.926143073343E-08
  0.697157567231E-07
  0.685726675442E-08
 -0.685745860096E-08
 -0.322936841712E-07
 -0.455694006973E-07
  0.248785880785E-09
 -0.249414711107E-09
  0.142217650989E-07
 -0.142215554888E-07
  0.455302640034E-08
 -0.455495907659E-08
  0.180154557938E-08
 -0.187063520229E-08
  0.155003014868E-07
  0.688472567845E-08
 -0.137829303526E-08
  0.114189901979E-08
 -0.152160009037E-06
  0.560897795765E-06
 -0.218389857309E-07
  0.218746585290E-07
 -0.160536117733E-08
  0.160499169510E-08
  0.267999666903E-08
 -0.268255817559E-08
 -0.794816656935E-09
  0.796717358753E-09
  0.619075883890E-07
 -0.771584964809E-07
  0.660397603269E-07
  0.365851349216E-09
 -0.354652485157E-08
 -0.829274426906E-10
  0.820286061298E-10
 -0.256085108674E-07
  0.573557201733E-09
  0.163594719993E-07
  0.165805147390E-07
 -0.354201077357E-07
  0.354593510110E-07
  0.138917840431E-05
 -0.138960166751E-05
  0.112621023618E-11
 -0.111910480882E-11
 -0.721886195265E-08
 -0.624231688562E-08
 -0.138071420963E-07
  0.168714215931E-07
  0.370384611870E-09
  0.154951607101E-09
 -0.154102508532E-09
 -0.361500340773E-08
  0.360978447134E-08
  0.603532868126E-08
  0.322717852441E-09
 -0.326036087017E-09
 -0.993299664742E-09
 -0.193274978244E-07
  0.193970883799E-07
 -0.692306656447E-08
 -0.700466529224E-08
  0.651084874903E-08
  0.448764936323E-08
  0.560675061934E-09
 -0.564284619031E-09
 -0.128445165615E-08
 -0.121898580119E-08
 -0.658793197772E-08
  0.417790957385E-08
  0.465135485683E-09
 -0.458808102621E-09
 -0.152469681325E-08
  0.152039092427E-08
 -0.129595534304E-08
 -0.507185404786E-09
  0.131341693077E-08
 -0.286218337919E-08
  0.290574320161E-08
  0.397974986299E-09
 -0.401115585191E-09
 -0.307833047941E-08
  0.355920448669E-08
  0.856842063968E-08
  0.868930172260E-08
  0.106560094082E-09
 -0.964490709521E-10
 -0.354368978606E-08
 -0.329894334072E-08
 -0.414200229670E-09
 -0.129738708665E-08
  0.128970611968E-08
  0.155878865371E-09
 -0.151224810452E-09
  0.118760823398E-08
  0.189903914816E-08
 -0.475537831335E-09
  0.756870122132E-10
 -0.755875362302E-10
 -0.196439344791E-07
  0.133112223466E-07
  0.137681936963E-07
 -0.870478800152E-09
  0.849013304105E-09
 -0.796802623881E-10
  0.914042175282E-10
 -0.466008742706E-08
 -0.571589708898E-08
  0.715445480637E-09
 -0.279597855979E-08
  0.194318516833E-08
  0.682476297698E-10
 -0.829771806821E-10
  0.186439095273E-07
 -0.148427972135E-07
 -0.228416752179E-07
  0.154761821136E-07
 -0.244511966230E-09
  0.241136888235E-09
  0.103597130874E-10
 -0.179198877959E-10
 -0.455729320947E-08
 -0.728468307898E-08
 -0.130067689952E-08
  0.148276058098E-08
 -0.140175870911E-09
  0.162202695719E-09
  0.143806744290E-08
  0.682099710048E-08
 -0.776431363647E-08
 -0.144766332255E-07
  0.876880790202E-10
 -0.930882038119E-10
  0.109164233209E-07
  0.879215633631E-08
  0.382553366762E-08
 -0.283016277081E-09
 -0.750229389723E-08
 -0.468645566798E-09
  0.438653557921E-09
  0.227089458349E-10
 -0.255795384874E-10
  0.299326075037E-08
  0.998668525654E-08
 -0.148959315993E-07
 -0.808040567790E-08
  0.826397439369E-08
  0.116330056699E-09
 -0.935592936457E-09
 -0.111933928792E-08
  0.292169488603E-08
 -0.249571030508E-09
  0.266048516551E-09
 -0.400342514695E-08
  0.662521415506E-08
  0.207869277347E-08
 -0.378911124699E-09
 -0.405198363751E-08
  0.481156092746E-08
  0.982609549283E-10
 -0.108585140879E-09
  0.624282847639E-10
  0.989079751434E-08
 -0.105957624896E-07
  0.889846774044E-08
 -0.997218307930E-08
 -0.618430107124E-08
  0.573686520511E-08
 -0.616453377233E-08
 -0.149768197844E-08
  0.146802392464E-08
  0.920535825344E-08
 -0.905087915726E-08
 -0.139834810398E-10
  0.507540676153E-10
 -0.558486590307E-10
 -0.722281612298E-08
  0.725556503767E-08
 -0.205686419008E-07
  0.209085371239E-07
 -0.613908923697E-11
 -0.263611781293E-07
  0.271062390311E-07
  0.581361092600E-08
 -0.567786884176E-08
 -0.140950362493E-09
  0.149533718741E-09
 -0.364413210718E-08
  0.343757733390E-08
  0.490560836397E-08
 -0.463440130716E-08
  0.395055010927E-07
 -0.396976886918E-07
 -0.164498459299E-08
  0.137985267656E-08
  0.967688151832E-10
 -0.155095705168E-07
  0.161037760904E-07
  0.135471367457E-08
 -0.248220999310E-09
  0.253116638760E-09
 -0.649499014571E-07
  0.645776765396E-07
  0.805460373954E-07
 -0.816246767954E-07
  0.617242790213E-07
 -0.608611046005E-07
  0.377445985578E-08
 -0.371621666773E-08
 -0.470865515467E-07
  0.194580849211E-07
 -0.182674710913E-07
 -0.494992491440E-09
 -0.953061629616E-08
  0.950757339524E-08
 -0.212158688839E-06
  0.213833942553E-06
  0.701472089304E-07
 -0.715492731729E-07
  0.733280103304E-09
 -0.732192972919E-09
  0.524669957258E-06
 -0.525396963269E-06
 -0.696242253184E-06
  0.693749058200E-06
  0.576649199502E-06
 -0.571364239477E-06
 -0.252655972588E-06
  0.257201861587E-06
 -0.281473987229E-06
  0.274750874496E-06
  0.733270155706E-08
 -0.755230189498E-08
  0.299661451209E-08
 -0.118727427889E-08
  0.117970699876E-08
 -0.159297286473E-08
  0.159252522280E-08
  0.503560215748E-08
  0.349522153442E-07
 -0.349322064608E-07
  0.870439869516E-06
 -0.883857332212E-06
 -0.285032738390E-05
  0.288015108652E-05
 -0.110484421612E-08
  0.257110599478E-08
  0.510727782910E-05
 -0.513653976952E-05
 -0.541888348238E-05
  0.542978555274E-05
  0.135976563342E-08
  0.316627238561E-05
 -0.315903809422E-05
 -0.558303980824E-08
  0.689225743145E-08
 -0.162007722793E-07
  0.189422451058E-07
 -0.190501836528E-07
 -0.167855063182E-08
  0.168733294004E-08
  0.393703913915E-08
 -0.393455223957E-08
  0.758937019896E-07
 -0.281414358483E-07
 -0.111806528480E-07
 -0.534420742326E-06
  0.307184478743E-06
  0.249487968063E-07
 -0.244520776960E-07
  0.104231604325E-05
 -0.663778948251E-06
  0.689575330171E-08
 -0.690283741278E-08
 -0.853385081712E-06
  0.619212570996E-06
  0.224481112809E-06
 -0.409840218651E-06
 -0.254140459788E-07
  0.230048264882E-06
  0.211941113548E-07
 -0.229388277262E-07
 -0.178382748572E-07
  0.178332513201E-07
  0.694020840797E-07
  0.167422641084E-06
 -0.166430545789E-06
 -0.229456667000E-06
  0.229601702983E-06
 -0.985454562397E-08
  0.986990755791E-08
 -0.110287575694E-05
  0.110793040164E-05
  0.155615217068E-05
 -0.160483919132E-05
  0.232440001469E-06
 -0.179670465172E-06
 -0.167335831236E-05
  0.171105536850E-05
  0.716748047580E-07
 -0.716675430112E-07
  0.522704281991E-05
 -0.522708507589E-05
 -0.549373261549E-06
 -0.575055452146E-07
  0.574967558009E-07
  0.472885822944E-06
 -0.472303682386E-06
 -0.621237319365E-07
  0.621161930781E-07
 -0.335039317179E-06
  0.326485398716E-06
 -0.305371052889E-06
  0.305342602758E-06
  0.448717877077E-06
 -0.438675890280E-06
  0.237164080374E-06
 -0.234362858009E-06
 -0.859010995669E-06
  0.450057768830E-10
  0.224533126669E-05
 -0.150211846517E-06
  0.150288201439E-06
 -0.193966485540E-06
  0.193975211005E-06
  0.303705962779E-05
 -0.303694382353E-05
  0.733403112463E-05
 -0.811785809418E-04
  0.811781429348E-04
  0.121929136625E-03
 -0.121929282429E-03
 -0.631737846390E-04
  0.631737294157E-04
  0.554678081244E-09
  0.113884581765E-06
 -0.113852422601E-06
  0.610761077269E-06
 -0.610723347449E-06
  0.474840967968E-05
 -0.474827797348E-05
 -0.218819890705E-04
  0.218817543924E-04
  0.324559648277E-04
 -0.129375621327E-09
  0.385114162782E-11
 -0.180087056378E-08
  0.152160417599E-06
 -0.619066220509E-07
  0.354700802063E-08
 -0.372338604393E-09
  0.991043691556E-09
  0.129611521515E-08
  0.415067091808E-09
 -0.143375444850E-08
 -0.207884198744E-08
 -0.135254651923E-08
 -0.503535346752E-08
  0.111807167968E-07
 -0.694066244478E-07
  0.549372408898E-06
 -0.224533490467E-05
 -0.733403648212E-05
  0.245727487567E-04
  0.187000637197E-08
 -0.558854608812E-06
 -0.363701957440E-09
 -0.579277070756E-09
  0.172431313672E-08
  0.418954471115E-08
 -0.125939969564E-07
  0.414239309521E-09
  0.161345070637E-07
  0.356465079676E-09
  0.603225913665E-08
  0.459786591023E-07
 -0.135831612624E-08
  0.253713210441E-07
 -0.504921899847E-07
  0.853876990448E-06
 -0.245727523094E-04
 -0.324557703237E-04
 -0.715743908586E-09
