# vtk DataFile Version 3.0
MachLine results file. Generated by MachLine, USU AeroLab (c) 2022.
ASCII
DATASET POLYDATA
POINTS                 302 float
  0.000000000000E+00  0.000000000000E+00  0.000000000000E+00
  0.982612796544E+04  0.000000000000E+00  0.185666615386E+04
  0.473465979099E+00  0.000000000000E+00 -0.436293870211E+00
  0.982622388355E+04  0.000000000000E+00  0.185615852158E+04
  0.473465979099E+00  0.000000000000E+00  0.436293870211E+00
  0.982606469005E+04  0.000000000000E+00  0.185700102939E+04
  0.757896304131E+00  0.757896304131E+00  0.000000000000E+00
  0.982615409171E+04  0.757896304131E+00  0.185652788447E+04
  0.123136246204E+01  0.757896304131E+00 -0.436293989420E+00
  0.982625000985E+04  0.757896304131E+00  0.185602025205E+04
  0.123136246204E+01  0.757896304131E+00  0.436293989420E+00
  0.982609081630E+04  0.757896304131E+00  0.185686276009E+04
  0.157641971111E+01  0.000000000000E+00 -0.760520398617E+00
  0.982632105604E+04  0.000000000000E+00  0.185564425071E+04
  0.157641971111E+01  0.000000000000E+00  0.760520398617E+00
  0.982604355980E+04  0.000000000000E+00  0.185711285805E+04
  0.233431649208E+01  0.757896304131E+00  0.760520577431E+00
  0.982606968606E+04  0.757896304131E+00  0.185697458875E+04
  0.317279767990E+01  0.317279767990E+01  0.000000000000E+00
  0.982623733841E+04  0.317279767990E+01  0.185608731375E+04
  0.364626431465E+01  0.317279767990E+01 -0.436294317245E+00
  0.982633325663E+04  0.317279767990E+01  0.185557968092E+04
  0.364626431465E+01  0.317279767990E+01  0.436294317245E+00
  0.982617406296E+04  0.317279767990E+01  0.185642218960E+04
  0.547008323669E+01  0.499661636353E+01  0.436294585466E+00
  0.982623693377E+04  0.499661636353E+01  0.185608945526E+04
  0.659744548798E+01  0.317279767990E+01  0.102349019051E+01
  0.982616866928E+04  0.317279767990E+01  0.185645073485E+04
  0.687097454071E+01  0.757896304131E+00 -0.114008152485E+01
  0.982657281694E+04  0.757896304131E+00  0.185431184378E+04
  0.687097454071E+01  0.757896304131E+00  0.114008152485E+01
  0.982615682766E+04  0.757896304131E+00  0.185651340484E+04
  0.781709194183E+01  0.734362459183E+01 -0.436294913292E+00
  0.982647703389E+04  0.734362459183E+01  0.185481876126E+04
  0.781709194183E+01  0.734362459183E+01  0.436294913292E+00
  0.982631784001E+04  0.734362459183E+01  0.185566127109E+04
  0.790205335617E+01  0.178897356987E+01 -0.114008200169E+01
  0.982660836047E+04  0.178897356987E+01  0.185412373496E+04
  0.790205335617E+01  0.178897356987E+01  0.114008200169E+01
  0.982619237102E+04  0.178897356987E+01  0.185632529694E+04
  0.842126560211E+01  0.499661636353E+01 -0.102349078655E+01
  0.982660498809E+04  0.499661636353E+01  0.185414158278E+04
  0.842126560211E+01  0.499661636353E+01  0.102349078655E+01
  0.982623154007E+04  0.499661636353E+01  0.185611800062E+04
  0.118492631912E+02  0.102728376389E+02  0.760522902012E+00
  0.982639768575E+04  0.102728376389E+02  0.185523869942E+04
  0.125678949356E+02  0.317279767990E+01 -0.980746865273E+00
  0.982674013295E+04  0.317279767990E+01  0.185342634884E+04
  0.134249305725E+02  0.757896304131E+00  0.678052842617E+00
  0.982646704801E+04  0.757896304131E+00  0.185487161005E+04
  0.134567155838E+02  0.734362459183E+01 -0.114008402824E+01
  0.982679984167E+04  0.734362459183E+01  0.185311034935E+04
  0.142655897141E+02  0.137921218872E+02 -0.436295837164E+00
  0.982669932727E+04  0.137921218872E+02  0.185364230680E+04
  0.142655897141E+02  0.137921218872E+02  0.436295837164E+00
  0.982654013305E+04  0.137921218872E+02  0.185448481841E+04
  0.158398418427E+02  0.317279767990E+01 -0.678053379059E+00
  0.982679770089E+04  0.317279767990E+01  0.185312167912E+04
  0.167387351990E+02  0.734362459183E+01 -0.980748176575E+00
  0.982688391078E+04  0.734362459183E+01  0.185266542618E+04
  0.167387351990E+02  0.734362459183E+01  0.980748176575E+00
  0.982652605854E+04  0.734362459183E+01  0.185455930565E+04
  0.171327381134E+02  0.178897356987E+01 -0.393031388521E+00
  0.982679027078E+04  0.178897356987E+01  0.185316100189E+04
  0.172004318237E+02  0.000000000000E+00 -0.192506864667E+00
  0.982675602095E+04  0.000000000000E+00  0.185334226398E+04
  0.172004318237E+02  0.000000000000E+00  0.192506864667E+00
  0.982668577966E+04  0.000000000000E+00  0.185371400548E+04
  0.172167816162E+02  0.137921218872E+02 -0.102349364758E+01
  0.982690818845E+04  0.137921218872E+02  0.185253694022E+04
  0.172167816162E+02  0.137921218872E+02  0.102349364758E+01
  0.982653473938E+04  0.137921218872E+02  0.185451336358E+04
  0.176636676788E+02  0.499661636353E+01 -0.678053736687E+00
  0.982686057205E+04  0.499661636353E+01  0.185278894292E+04
  0.176636676788E+02  0.499661636353E+01  0.678053736687E+00
  0.982661316598E+04  0.499661636353E+01  0.185409830253E+04
  0.190000000000E+02  0.000000000000E+00  0.000000000000E+00
  0.982678293519E+04  0.000000000000E+00  0.185319982440E+04
  0.197579002380E+02  0.757896304131E+00  0.000000000000E+00
  0.982680906159E+04  0.757896304131E+00  0.185306155430E+04
  0.199052257538E+02  0.137921218872E+02 -0.114008641243E+01
  0.982702213574E+04  0.137921218872E+02  0.185193389122E+04
  0.201340255737E+02  0.178897356987E+01  0.698661133647E-01
  0.982680928116E+04  0.178897356987E+01  0.185306039228E+04
  0.203403968811E+02  0.499661636353E+01 -0.393031775951E+00
  0.982690084556E+04  0.499661636353E+01  0.185257580140E+04
  0.207889842987E+02  0.178897356987E+01  0.000000000000E+00
  0.982684460522E+04  0.178897356987E+01  0.185287344499E+04
  0.212566699982E+02  0.178320064545E+02 -0.102349495888E+01
  0.982704745210E+04  0.178320064545E+02  0.185179990821E+04
  0.212566699982E+02  0.178320064545E+02  0.102349495888E+01
  0.982667400255E+04  0.178320064545E+02  0.185377633410E+04
  0.221728172302E+02  0.317279767990E+01  0.000000000000E+00
  0.982689230883E+04  0.317279767990E+01  0.185262098073E+04
  0.227074012756E+02  0.222339305878E+02 -0.436297029257E+00
  0.982699033439E+04  0.222339305878E+02  0.185210219512E+04
  0.233416862488E+02  0.499661636353E+01 -0.698661878705E-01
  0.982694534847E+04  0.499661636353E+01  0.185234027639E+04
  0.233416862488E+02  0.499661636353E+01  0.698661878705E-01
  0.982691985592E+04  0.499661636353E+01  0.185247519190E+04
  0.238103618622E+02  0.222339305878E+02 -0.760525882244E+00
  0.982708750754E+04  0.222339305878E+02  0.185158792076E+04
  0.239451179504E+02  0.178320064545E+02 -0.114008784294E+01
  0.982716139954E+04  0.178320064545E+02  0.185119685841E+04
  0.239451179504E+02  0.178320064545E+02  0.114008784294E+01
  0.982674540795E+04  0.178320064545E+02  0.185339843167E+04
  0.239966468811E+02  0.499661636353E+01  0.000000000000E+00
  0.982695518006E+04  0.499661636353E+01  0.185228824418E+04
  0.245440979004E+02  0.734362459183E+01 -0.192507326603E+00
  0.982700917257E+04  0.734362459183E+01  0.185200249690E+04
  0.245440979004E+02  0.734362459183E+01  0.192507326603E+00
  0.982693893111E+04  0.734362459183E+01  0.185237423929E+04
  0.256166458130E+02  0.102728376389E+02 -0.393032461405E+00
  0.982708272902E+04  0.102728376389E+02  0.185161321037E+04
  0.263436698914E+02  0.734362459183E+01  0.000000000000E+00
  0.982703608685E+04  0.734362459183E+01  0.185186005708E+04
  0.283470516205E+02  0.222339305878E+02  0.114008951187E+01
  0.982689715151E+04  0.222339305878E+02  0.185259535158E+04
  0.286179389954E+02  0.102728376389E+02 -0.698663070798E-01
  0.982712723196E+04  0.102728376389E+02  0.185137768521E+04
  0.292729015350E+02  0.102728376389E+02  0.000000000000E+00
  0.982713706359E+04  0.102728376389E+02  0.185132565277E+04
  0.301907424927E+02  0.267660694122E+02 -0.102349793911E+01
  0.982735542881E+04  0.267660694122E+02  0.185016998751E+04
  0.301907424927E+02  0.267660694122E+02  0.102349793911E+01
  0.982698197817E+04  0.267660694122E+02  0.185214641916E+04
  0.311679935455E+02  0.311679935455E+02  0.000000000000E+00
  0.982720239138E+04  0.311679935455E+02  0.185097991523E+04
  0.316290874481E+02  0.222339305878E+02 -0.980752885342E+00
  0.982739721323E+04  0.222339305878E+02  0.184994884971E+04
  0.327922058105E+02  0.137921218872E+02  0.000000000000E+00
  0.982725838137E+04  0.137921218872E+02  0.185068359655E+04
  0.328791961670E+02  0.267660694122E+02 -0.114009118080E+01
  0.982746937652E+04  0.267660694122E+02  0.184956693632E+04
  0.349010543823E+02  0.222339305878E+02 -0.678057551384E+00
  0.982745478153E+04  0.222339305878E+02  0.184964417812E+04
  0.349010543823E+02  0.222339305878E+02  0.678057551384E+00
  0.982720737407E+04  0.222339305878E+02  0.185095354510E+04
  0.350325355530E+02  0.178320064545E+02 -0.192507982254E+00
  0.982737073107E+04  0.178320064545E+02  0.185008900257E+04
  0.352078781128E+02  0.352078781128E+02  0.000000000000E+00
  0.982734165465E+04  0.352078781128E+02  0.185024288518E+04
  0.356813507080E+02  0.352078781128E+02 -0.436298847198E+00
  0.982743757390E+04  0.352078781128E+02  0.184973524689E+04
  0.356813507080E+02  0.352078781128E+02  0.436298847198E+00
  0.982727837858E+04  0.352078781128E+02  0.185057776432E+04
  0.361612358093E+02  0.267660694122E+02 -0.980754315853E+00
  0.982755344613E+04  0.267660694122E+02  0.184912201047E+04
  0.361612358093E+02  0.267660694122E+02  0.980754315853E+00
  0.982719559165E+04  0.267660694122E+02  0.185101590180E+04
  0.361771507263E+02  0.178320064545E+02 -0.698664784431E-01
  0.982738781383E+04  0.178320064545E+02  0.184999859461E+04
  0.368321151733E+02  0.178320064545E+02  0.000000000000E+00
  0.982739764550E+04  0.178320064545E+02  0.184994656198E+04
  0.403036003113E+02  0.387271614075E+02  0.760529935360E+00
  0.982737856500E+04  0.387271614075E+02  0.185004754269E+04
  0.405631752014E+02  0.311679935455E+02 -0.980755746365E+00
  0.982770519045E+04  0.311679935455E+02  0.184831892635E+04
  0.412340698242E+02  0.222339305878E+02  0.000000000000E+00
  0.982754939009E+04  0.222339305878E+02  0.184914347645E+04
  0.413210258484E+02  0.352078781128E+02 -0.114009428024E+01
  0.982776038461E+04  0.352078781128E+02  0.184802681949E+04
  0.413210258484E+02  0.352078781128E+02  0.114009428024E+01
  0.982734439068E+04  0.352078781128E+02  0.185022840518E+04
  0.421298484802E+02  0.416563758850E+02  0.436299771070E+00
  0.982750067162E+04  0.416563758850E+02  0.184940131164E+04
  0.421518478394E+02  0.387271614075E+02 -0.102350187302E+01
  0.982776775385E+04  0.387271614075E+02  0.184798781889E+04
  0.444768562317E+02  0.440033836365E+02 -0.436300098896E+00
  0.982774077361E+04  0.440033836365E+02  0.184813060779E+04
  0.450810661316E+02  0.416563758850E+02 -0.102350282669E+01
  0.982786873031E+04  0.416563758850E+02  0.184745341609E+04
  0.450810661316E+02  0.416563758850E+02  0.102350282669E+01
  0.982749527789E+04  0.416563758850E+02  0.184942985718E+04
  0.451112670898E+02  0.267660694122E+02 -0.698666796088E-01
  0.982769579155E+04  0.267660694122E+02  0.184836866859E+04
  0.455798263550E+02  0.440033836365E+02 -0.760531246662E+00
  0.982783794750E+04  0.440033836365E+02  0.184761632948E+04
  0.455798263550E+02  0.440033836365E+02  0.760531246662E+00
  0.982756044731E+04  0.440033836365E+02  0.184908495776E+04
  0.457662315369E+02  0.267660694122E+02  0.000000000000E+00
  0.982770562318E+04  0.267660694122E+02  0.184831663616E+04
  0.463006744385E+02  0.458272018433E+02 -0.436300337315E+00
  0.982780364448E+04  0.458272018433E+02  0.184779787310E+04
  0.463006744385E+02  0.458272018433E+02  0.436300337315E+00
  0.982764444862E+04  0.458272018433E+02  0.184864039341E+04
  0.487155761719E+02  0.482421035767E+02 -0.436300694942E+00
  0.982788689126E+04  0.482421035767E+02  0.184735730197E+04
  0.487155761719E+02  0.482421035767E+02  0.436300694942E+00
  0.982772769527E+04  0.482421035767E+02  0.184819982296E+04
  0.492518959045E+02  0.458272018433E+02  0.102350425720E+01
  0.982763905486E+04  0.458272018433E+02  0.184866893908E+04
  0.494734725952E+02  0.490000000000E+02 -0.436300784349E+00
  0.982791301755E+04  0.490000000000E+02  0.184721903248E+04
  0.496433029175E+02  0.491698265076E+02  0.402014136314E+00
  0.982776593113E+04  0.491698265076E+02  0.184799746536E+04
  0.497819862366E+02  0.493085098267E+02 -0.308511257172E+00
  0.982790033895E+04  0.493085098267E+02  0.184728613210E+04
  0.501681861877E+02  0.311679935455E+02  0.000000000000E+00
  0.982785736777E+04  0.311679935455E+02  0.184751355063E+04
  0.505764465332E+02  0.490000000000E+02  0.760532438755E+00
  0.982773269104E+04  0.490000000000E+02  0.184817338356E+04
  0.508724784851E+02  0.492960319519E+02 -0.700766086578E+00
  0.982800949284E+04  0.492960319519E+02  0.184670845146E+04
  0.508724784851E+02  0.492960319519E+02  0.700766086578E+00
  0.982775379956E+04  0.492960319519E+02  0.184806166989E+04
  0.510515899658E+02  0.416563758850E+02  0.980759024620E+00
  0.982770889245E+04  0.416563758850E+02  0.184829933407E+04
  0.511142234802E+02  0.495377769470E+02 -0.537777721882E+00
  0.982798809096E+04  0.495377769470E+02  0.184682171771E+04
  0.512772102356E+02  0.497007675171E+02  0.296033591032E+00
  0.982784159026E+04  0.497007675171E+02  0.184759705076E+04
  0.513369789124E+02  0.497605323792E+02 -0.666689309570E-15
  0.982789765850E+04  0.497605323792E+02  0.184730031796E+04
  0.533986053467E+02  0.440033836365E+02 -0.980759799480E+00
  0.982814765532E+04  0.440033836365E+02  0.184597724719E+04
  0.533986053467E+02  0.440033836365E+02  0.980759799480E+00
  0.982778979884E+04  0.440033836365E+02  0.184787114911E+04
  0.540711097717E+02  0.387271614075E+02  0.393036067486E+00
  0.982792020484E+04  0.387271614075E+02  0.184718099482E+04
  0.542080955505E+02  0.352078781128E+02  0.000000000000E+00
  0.982799663190E+04  0.352078781128E+02  0.184677651606E+04
  0.551131744385E+02  0.490000000000E+02 -0.114009940624E+01
  0.982823582976E+04  0.490000000000E+02  0.184551059713E+04
  0.551131744385E+02  0.490000000000E+02  0.114009940624E+01
  0.982781983396E+04  0.490000000000E+02  0.184771219272E+04
  0.561636810303E+02  0.500505065918E+02 -0.443778187037E+00
  0.982814500720E+04  0.500505065918E+02  0.184599126197E+04
  0.566062583923E+02  0.472110252380E+02  0.980760812759E+00
  0.982790037316E+04  0.472110252380E+02  0.184728595102E+04
  0.570003395081E+02  0.416563758850E+02 -0.393036454916E+00
  0.982816459133E+04  0.416563758850E+02  0.184588761590E+04
  0.570003395081E+02  0.416563758850E+02  0.393036454916E+00
  0.982802118145E+04  0.416563758850E+02  0.184664659123E+04
  0.570724334717E+02  0.387271614075E+02  0.698669478297E-01
  0.982808262520E+04  0.387271614075E+02  0.184632140934E+04
  0.576373367310E+02  0.482421035767E+02 -0.980761110783E+00
  0.982829377349E+04  0.482421035767E+02  0.184520393859E+04
  0.576373367310E+02  0.482421035767E+02  0.980761110783E+00
  0.982793591653E+04  0.482421035767E+02  0.184709784304E+04
  0.577274017334E+02  0.387271614075E+02  0.000000000000E+00
  0.982811794974E+04  0.387271614075E+02  0.184613445950E+04
  0.583952369690E+02  0.490000000000E+02 -0.980761349201E+00
  0.982831989994E+04  0.490000000000E+02  0.184506566826E+04
  0.583952369690E+02  0.490000000000E+02  0.980761349201E+00
  0.982796204290E+04  0.490000000000E+02  0.184695957317E+04
  0.606566314697E+02  0.416563758850E+02  0.000000000000E+00
  0.982821892642E+04  0.416563758850E+02  0.184560005554E+04
  0.609093322754E+02  0.482421035767E+02 -0.678063273430E+00
  0.982835134232E+04  0.482421035767E+02  0.184489926419E+04
  0.609093322754E+02  0.482421035767E+02  0.678063273430E+00
  0.982810393277E+04  0.482421035767E+02  0.184620864222E+04
  0.616672325134E+02  0.490000000000E+02 -0.678063392639E+00
  0.982837746875E+04  0.490000000000E+02  0.184476099398E+04
  0.616672325134E+02  0.490000000000E+02  0.678063392639E+00
  0.982813005916E+04  0.490000000000E+02  0.184607037224E+04
  0.622920112610E+02  0.496247787476E+02 -0.263932913542E+00
  0.982832345288E+04  0.496247787476E+02  0.184504686488E+04
  0.622920112610E+02  0.496247787476E+02  0.263932913542E+00
  0.982822714989E+04  0.496247787476E+02  0.184555653407E+04
  0.630036544800E+02  0.440033836365E+02  0.000000000000E+00
  0.982829983321E+04  0.440033836365E+02  0.184517186843E+04
  0.635860977173E+02  0.482421035767E+02 -0.393037289381E+00
  0.982839161634E+04  0.482421035767E+02  0.184468611995E+04
  0.644117202759E+02  0.472110252380E+02 -0.192509815097E+00
  0.982838349337E+04  0.472110252380E+02  0.184472910957E+04
  0.644117202759E+02  0.472110252380E+02  0.192509815097E+00
  0.982831325101E+04  0.472110252380E+02  0.184510085677E+04
  0.644969863892E+02  0.491529884338E+02 -0.362150579691E+00
  0.982841738166E+04  0.491529884338E+02  0.184454976087E+04
  0.646219177246E+02  0.492779197693E+02 -0.277919411659E+00
  0.982840632130E+04  0.492779197693E+02  0.184460829614E+04
  0.646219177246E+02  0.492779197693E+02  0.277919411659E+00
  0.982830491496E+04  0.492779197693E+02  0.184514497404E+04
  0.647061538696E+02  0.493621520996E+02 -0.152987897396E+00
  0.982838643280E+04  0.493621520996E+02  0.184471355310E+04
  0.647061538696E+02  0.493621520996E+02  0.152987897396E+00
  0.982833061106E+04  0.493621520996E+02  0.184500898126E+04
  0.647370376587E+02  0.493930358887E+02  0.394993830268E-15
  0.982835958656E+04  0.493930358887E+02  0.184485563279E+04
  0.648274841309E+02  0.458272018433E+02  0.000000000000E+00
  0.982836270444E+04  0.458272018433E+02  0.184483913188E+04
  0.662113189697E+02  0.472110252380E+02  0.000000000000E+00
  0.982841040812E+04  0.472110252380E+02  0.184458666728E+04
  0.672424011230E+02  0.482421035767E+02  0.000000000000E+00
  0.982844595168E+04  0.482421035767E+02  0.184439855831E+04
  0.673453292847E+02  0.490000000000E+02  0.698671787977E-01
  0.982843675337E+04  0.490000000000E+02  0.184444723897E+04
  0.673725280762E+02  0.490271949768E+02 -0.643766745925E-01
  0.982846218220E+04  0.490271949768E+02  0.184431266068E+04
  0.674097061157E+02  0.490643768311E+02  0.271954610944E-01
  0.982844675754E+04  0.490643768311E+02  0.184439429343E+04
  0.674151992798E+02  0.490698661804E+02 -0.374155926411E-16
  0.982845190839E+04  0.490698661804E+02  0.184436703329E+04
  0.680002975464E+02  0.490000000000E+02  0.000000000000E+00
  0.982847207795E+04  0.490000000000E+02  0.184426028890E+04
  0.221728172302E+02  0.317279767990E+01  0.000000000000E+00
  0.982689230883E+04  0.317279767990E+01  0.185262098073E+04
  0.239966468811E+02  0.499661636353E+01  0.000000000000E+00
  0.982695518006E+04  0.499661636353E+01  0.185228824418E+04
  0.577274017334E+02  0.387271614075E+02  0.000000000000E+00
  0.982811794974E+04  0.387271614075E+02  0.184613445950E+04
POLYGONS                  38                 152
3                  78                  79                  77
3                  78                  77                  76
3                  86                  87                  79
3                  86                  79                  78
3                  92                  93                  87
3                  92                  87                  86
3                 106                 107                  93
3                 106                  93                  92
3                 114                 115                 107
3                 114                 107                 106
3                 120                 121                 115
3                 120                 115                 114
3                 130                 131                 121
3                 130                 121                 120
3                 152                 153                 131
3                 152                 131                 130
3                 158                 159                 153
3                 158                 153                 152
3                 180                 181                 159
3                 180                 159                 158
3                 198                 199                 181
3                 198                 181                 180
3                 220                 221                 199
3                 220                 199                 198
3                 240                 241                 221
3                 240                 221                 220
3                 246                 247                 241
3                 246                 241                 240
3                 260                 261                 247
3                 260                 247                 246
3                 280                 281                 261
3                 280                 261                 260
3                 282                 283                 281
3                 282                 281                 280
3                 284                 285                 283
3                 284                 283                 282
3                 294                 295                 285
3                 294                 285                 284
CELL_DATA                  38
NORMALS normals float
  0.182546855363E+00 -0.182547802874E+00 -0.966101933164E+00
  0.182546855363E+00 -0.182547802874E+00 -0.966101933164E+00
  0.182546846848E+00 -0.182548049861E+00 -0.966101888104E+00
  0.182546846848E+00 -0.182548049861E+00 -0.966101888104E+00
  0.182546848159E+00 -0.182548011841E+00 -0.966101895040E+00
  0.182546848159E+00 -0.182548011841E+00 -0.966101895040E+00
  0.182546850357E+00 -0.182547948076E+00 -0.966101906673E+00
  0.182546850357E+00 -0.182547948076E+00 -0.966101906673E+00
  0.182546848624E+00 -0.182547998346E+00 -0.966101897502E+00
  0.182546848624E+00 -0.182547998346E+00 -0.966101897502E+00
  0.182546848317E+00 -0.182548007242E+00 -0.966101895879E+00
  0.182546848317E+00 -0.182548007242E+00 -0.966101895879E+00
  0.182546852320E+00 -0.182547891140E+00 -0.966101917061E+00
  0.182546852320E+00 -0.182547891140E+00 -0.966101917061E+00
  0.182546849601E+00 -0.182547970014E+00 -0.966101902671E+00
  0.182546849601E+00 -0.182547970014E+00 -0.966101902671E+00
  0.182546844764E+00 -0.182548110322E+00 -0.966101877073E+00
  0.182546844764E+00 -0.182548110322E+00 -0.966101877073E+00
  0.182546856216E+00 -0.182547778118E+00 -0.966101937680E+00
  0.182546856216E+00 -0.182547778118E+00 -0.966101937680E+00
  0.182546844764E+00 -0.182548110318E+00 -0.966101877074E+00
  0.182546844764E+00 -0.182548110318E+00 -0.966101877074E+00
  0.182546849601E+00 -0.182547970014E+00 -0.966101902671E+00
  0.182546849601E+00 -0.182547970014E+00 -0.966101902671E+00
  0.182546847375E+00 -0.182548034596E+00 -0.966101890889E+00
  0.182546847375E+00 -0.182548034596E+00 -0.966101890889E+00
  0.182546855249E+00 -0.182547806168E+00 -0.966101932563E+00
  0.182546855249E+00 -0.182547806168E+00 -0.966101932563E+00
  0.182546847388E+00 -0.182548034196E+00 -0.966101890962E+00
  0.182546847388E+00 -0.182548034196E+00 -0.966101890962E+00
  0.182546848767E+00 -0.182547994212E+00 -0.966101898256E+00
  0.182546848767E+00 -0.182547994212E+00 -0.966101898256E+00
  0.182546836630E+00 -0.182548346277E+00 -0.966101834026E+00
  0.182546836630E+00 -0.182548346277E+00 -0.966101834026E+00
  0.182546864432E+00 -0.182547539786E+00 -0.966101981162E+00
  0.182546864432E+00 -0.182547539786E+00 -0.966101981161E+00
  0.182546886936E+00 -0.182546886960E+00 -0.966102100262E+00
  0.182546886936E+00 -0.182546886960E+00 -0.966102100262E+00
POINT_DATA                 302
SCALARS mu float 1
LOOKUP_TABLE default
  0.000000000000E+00
  0.000000000000E+00
  0.000000000000E+00
  0.000000000000E+00
  0.000000000000E+00
  0.000000000000E+00
  0.000000000000E+00
  0.000000000000E+00
  0.000000000000E+00
  0.000000000000E+00
  0.000000000000E+00
  0.000000000000E+00
  0.000000000000E+00
  0.000000000000E+00
  0.000000000000E+00
  0.000000000000E+00
  0.000000000000E+00
  0.000000000000E+00
  0.000000000000E+00
  0.000000000000E+00
  0.000000000000E+00
  0.000000000000E+00
  0.000000000000E+00
  0.000000000000E+00
  0.000000000000E+00
  0.000000000000E+00
  0.000000000000E+00
  0.000000000000E+00
  0.000000000000E+00
  0.000000000000E+00
  0.000000000000E+00
  0.000000000000E+00
  0.000000000000E+00
  0.000000000000E+00
  0.000000000000E+00
  0.000000000000E+00
  0.000000000000E+00
  0.000000000000E+00
  0.000000000000E+00
  0.000000000000E+00
  0.000000000000E+00
  0.000000000000E+00
  0.000000000000E+00
  0.000000000000E+00
  0.000000000000E+00
  0.000000000000E+00
  0.000000000000E+00
  0.000000000000E+00
  0.000000000000E+00
  0.000000000000E+00
  0.000000000000E+00
  0.000000000000E+00
  0.000000000000E+00
  0.000000000000E+00
  0.000000000000E+00
  0.000000000000E+00
  0.000000000000E+00
  0.000000000000E+00
  0.000000000000E+00
  0.000000000000E+00
  0.000000000000E+00
  0.000000000000E+00
  0.000000000000E+00
  0.000000000000E+00
  0.000000000000E+00
  0.000000000000E+00
  0.000000000000E+00
  0.000000000000E+00
  0.000000000000E+00
  0.000000000000E+00
  0.000000000000E+00
  0.000000000000E+00
  0.000000000000E+00
  0.000000000000E+00
  0.000000000000E+00
  0.000000000000E+00
 -0.571985804154E+01
 -0.571985804154E+01
 -0.575134697711E+01
 -0.575134697711E+01
  0.000000000000E+00
  0.000000000000E+00
  0.000000000000E+00
  0.000000000000E+00
  0.000000000000E+00
  0.000000000000E+00
 -0.581220470418E+01
 -0.581220470418E+01
  0.000000000000E+00
  0.000000000000E+00
  0.000000000000E+00
  0.000000000000E+00
 -0.590077193919E+01
 -0.590077193919E+01
  0.000000000000E+00
  0.000000000000E+00
  0.000000000000E+00
  0.000000000000E+00
  0.000000000000E+00
  0.000000000000E+00
  0.000000000000E+00
  0.000000000000E+00
  0.000000000000E+00
  0.000000000000E+00
  0.000000000000E+00
  0.000000000000E+00
 -0.601422724693E+01
 -0.601422724693E+01
  0.000000000000E+00
  0.000000000000E+00
  0.000000000000E+00
  0.000000000000E+00
  0.000000000000E+00
  0.000000000000E+00
 -0.614423325282E+01
 -0.614423325282E+01
  0.000000000000E+00
  0.000000000000E+00
  0.000000000000E+00
  0.000000000000E+00
 -0.628125206524E+01
 -0.628125206524E+01
  0.000000000000E+00
  0.000000000000E+00
  0.000000000000E+00
  0.000000000000E+00
  0.000000000000E+00
  0.000000000000E+00
  0.000000000000E+00
  0.000000000000E+00
 -0.641069029676E+01
 -0.641069029676E+01
  0.000000000000E+00
  0.000000000000E+00
  0.000000000000E+00
  0.000000000000E+00
  0.000000000000E+00
  0.000000000000E+00
  0.000000000000E+00
  0.000000000000E+00
  0.000000000000E+00
  0.000000000000E+00
  0.000000000000E+00
  0.000000000000E+00
  0.000000000000E+00
  0.000000000000E+00
  0.000000000000E+00
  0.000000000000E+00
  0.000000000000E+00
  0.000000000000E+00
  0.000000000000E+00
  0.000000000000E+00
 -0.651465451734E+01
 -0.651465451734E+01
  0.000000000000E+00
  0.000000000000E+00
  0.000000000000E+00
  0.000000000000E+00
 -0.657362502668E+01
 -0.657362502668E+01
  0.000000000000E+00
  0.000000000000E+00
  0.000000000000E+00
  0.000000000000E+00
  0.000000000000E+00
  0.000000000000E+00
  0.000000000000E+00
  0.000000000000E+00
  0.000000000000E+00
  0.000000000000E+00
  0.000000000000E+00
  0.000000000000E+00
  0.000000000000E+00
  0.000000000000E+00
  0.000000000000E+00
  0.000000000000E+00
  0.000000000000E+00
  0.000000000000E+00
  0.000000000000E+00
  0.000000000000E+00
 -0.656416709980E+01
 -0.656416709980E+01
  0.000000000000E+00
  0.000000000000E+00
  0.000000000000E+00
  0.000000000000E+00
  0.000000000000E+00
  0.000000000000E+00
  0.000000000000E+00
  0.000000000000E+00
  0.000000000000E+00
  0.000000000000E+00
  0.000000000000E+00
  0.000000000000E+00
  0.000000000000E+00
  0.000000000000E+00
  0.000000000000E+00
  0.000000000000E+00
 -0.646031436844E+01
 -0.646031436844E+01
  0.000000000000E+00
  0.000000000000E+00
  0.000000000000E+00
  0.000000000000E+00
  0.000000000000E+00
  0.000000000000E+00
  0.000000000000E+00
  0.000000000000E+00
  0.000000000000E+00
  0.000000000000E+00
  0.000000000000E+00
  0.000000000000E+00
  0.000000000000E+00
  0.000000000000E+00
  0.000000000000E+00
  0.000000000000E+00
  0.000000000000E+00
  0.000000000000E+00
  0.000000000000E+00
  0.000000000000E+00
 -0.623383721688E+01
 -0.623383721688E+01
  0.000000000000E+00
  0.000000000000E+00
  0.000000000000E+00
  0.000000000000E+00
  0.000000000000E+00
  0.000000000000E+00
  0.000000000000E+00
  0.000000000000E+00
  0.000000000000E+00
  0.000000000000E+00
  0.000000000000E+00
  0.000000000000E+00
  0.000000000000E+00
  0.000000000000E+00
  0.000000000000E+00
  0.000000000000E+00
  0.000000000000E+00
  0.000000000000E+00
 -0.586168993449E+01
 -0.586168993449E+01
  0.000000000000E+00
  0.000000000000E+00
  0.000000000000E+00
  0.000000000000E+00
 -0.533568011198E+01
 -0.533568011198E+01
  0.000000000000E+00
  0.000000000000E+00
  0.000000000000E+00
  0.000000000000E+00
  0.000000000000E+00
  0.000000000000E+00
  0.000000000000E+00
  0.000000000000E+00
  0.000000000000E+00
  0.000000000000E+00
  0.000000000000E+00
  0.000000000000E+00
 -0.466407342010E+01
 -0.466407342010E+01
  0.000000000000E+00
  0.000000000000E+00
  0.000000000000E+00
  0.000000000000E+00
  0.000000000000E+00
  0.000000000000E+00
  0.000000000000E+00
  0.000000000000E+00
  0.000000000000E+00
  0.000000000000E+00
  0.000000000000E+00
  0.000000000000E+00
  0.000000000000E+00
  0.000000000000E+00
  0.000000000000E+00
  0.000000000000E+00
  0.000000000000E+00
  0.000000000000E+00
 -0.385627088876E+01
 -0.385627088876E+01
 -0.289599050413E+01
 -0.289599050413E+01
 -0.169098615663E+01
 -0.169098615663E+01
  0.000000000000E+00
  0.000000000000E+00
  0.000000000000E+00
  0.000000000000E+00
  0.000000000000E+00
  0.000000000000E+00
  0.000000000000E+00
  0.000000000000E+00
  0.000000000000E+00
  0.000000000000E+00
  0.590077193919E+01
  0.590077193919E+01
  0.601422724693E+01
  0.601422724693E+01
  0.586168993449E+01
  0.586168993449E+01
