# vtk DataFile Version 3.0
MachLine results file. Generated by MachLine, USU AeroLab (c) 2022.
ASCII
DATASET POLYDATA
POINTS                1848 float
  0.000000000000E+00  0.000000000000E+00  0.000000000000E+00
  0.147665724158E+00  0.000000000000E+00 -0.234920635819E+00
  0.147665724158E+00  0.000000000000E+00  0.234920635819E+00
  0.339639574289E+00  0.339639574289E+00  0.000000000000E+00
  0.473465979099E+00  0.000000000000E+00 -0.436293870211E+00
  0.473465979099E+00  0.000000000000E+00  0.436293870211E+00
  0.487305283546E+00  0.339639574289E+00 -0.234920650721E+00
  0.487305283546E+00  0.339639574289E+00  0.234920650721E+00
  0.735364913940E+00  0.735364913940E+00  0.000000000000E+00
  0.813105583191E+00  0.339639574289E+00 -0.436293929815E+00
  0.813105583191E+00  0.339639574289E+00  0.436293929815E+00
  0.883030653000E+00  0.735364913940E+00 -0.234920680523E+00
  0.883030653000E+00  0.735364913940E+00  0.234920680523E+00
  0.944064557552E+00  0.000000000000E+00 -0.604293465614E+00
  0.944064557552E+00  0.000000000000E+00  0.604293465614E+00
  0.119528055191E+01  0.119528055191E+01  0.000000000000E+00
  0.120883107185E+01  0.735364913940E+00 -0.436293989420E+00
  0.120883107185E+01  0.735364913940E+00  0.436293989420E+00
  0.128370416164E+01  0.339639574289E+00 -0.604293525219E+00
  0.128370416164E+01  0.339639574289E+00  0.604293525219E+00
  0.134294629097E+01  0.119528055191E+01 -0.234920725226E+00
  0.134294629097E+01  0.119528055191E+01  0.234920725226E+00
  0.157641971111E+01  0.000000000000E+00 -0.760520398617E+00
  0.157641971111E+01  0.000000000000E+00  0.760520398617E+00
  0.166874670982E+01  0.119528055191E+01 -0.436294049025E+00
  0.166874670982E+01  0.119528055191E+01  0.436294049025E+00
  0.167942965031E+01  0.735364913940E+00 -0.604293584824E+00
  0.167942965031E+01  0.735364913940E+00  0.604293584824E+00
  0.172824025154E+01  0.172824025154E+01  0.000000000000E+00
  0.187590610981E+01  0.172824025154E+01 -0.234920769930E+00
  0.187590610981E+01  0.172824025154E+01  0.234920769930E+00
  0.191605937481E+01  0.339639574289E+00 -0.760520458221E+00
  0.191605937481E+01  0.339639574289E+00  0.760520458221E+00
  0.213934540749E+01  0.119528055191E+01 -0.604293704033E+00
  0.213934540749E+01  0.119528055191E+01  0.604293704033E+00
  0.220170640945E+01  0.172824025154E+01 -0.436294138432E+00
  0.220170640945E+01  0.172824025154E+01  0.436294138432E+00
  0.231178498268E+01  0.735364913940E+00 -0.760520577431E+00
  0.231178498268E+01  0.735364913940E+00  0.760520577431E+00
  0.234375929832E+01  0.234375929832E+01  0.000000000000E+00
  0.239635515213E+01  0.000000000000E+00 -0.902061045170E+00
  0.239635515213E+01  0.000000000000E+00  0.902061045170E+00
  0.249142503738E+01  0.234375929832E+01 -0.234920814633E+00
  0.249142503738E+01  0.234375929832E+01  0.234920814633E+00
  0.267230534554E+01  0.172824025154E+01 -0.604293823242E+00
  0.267230534554E+01  0.172824025154E+01  0.604293823242E+00
  0.273599505424E+01  0.339639574289E+00 -0.902061164379E+00
  0.273599505424E+01  0.339639574289E+00  0.902061164379E+00
  0.277170085907E+01  0.119528055191E+01 -0.760520696640E+00
  0.277170085907E+01  0.119528055191E+01  0.760520696640E+00
  0.281722569466E+01  0.234375929832E+01 -0.436294227839E+00
  0.281722569466E+01  0.234375929832E+01  0.436294227839E+00
  0.305185556412E+01  0.305185556412E+01  0.000000000000E+00
  0.313172078133E+01  0.735364913940E+00 -0.902061283588E+00
  0.313172078133E+01  0.735364913940E+00  0.902061283588E+00
  0.319952154160E+01  0.305185556412E+01 -0.234920859337E+00
  0.319952154160E+01  0.305185556412E+01  0.234920859337E+00
  0.328782463074E+01  0.234375929832E+01 -0.604293942451E+00
  0.328782463074E+01  0.234375929832E+01  0.604293942451E+00
  0.330466079712E+01  0.172824025154E+01 -0.760520815849E+00
  0.330466079712E+01  0.172824025154E+01  0.760520815849E+00
  0.342464399338E+01  0.000000000000E+00 -0.102348911762E+01
  0.342464399338E+01  0.000000000000E+00  0.102348911762E+01
  0.352532196045E+01  0.305185556412E+01 -0.436294317245E+00
  0.352532196045E+01  0.305185556412E+01  0.436294317245E+00
  0.359163665771E+01  0.119528055191E+01 -0.902061402798E+00
  0.359163665771E+01  0.119528055191E+01  0.902061402798E+00
  0.376428389549E+01  0.339639574289E+00 -0.102348923683E+01
  0.376428389549E+01  0.339639574289E+00  0.102348923683E+01
  0.386280250549E+01  0.386280250549E+01  0.000000000000E+00
  0.392018008232E+01  0.234375929832E+01 -0.760520994663E+00
  0.392018008232E+01  0.234375929832E+01  0.760520994663E+00
  0.399592113495E+01  0.305185556412E+01 -0.604294061661E+00
  0.399592113495E+01  0.305185556412E+01  0.604294061661E+00
  0.401046848297E+01  0.386280250549E+01 -0.234920918941E+00
  0.401046848297E+01  0.386280250549E+01  0.234920918941E+00
  0.412459707260E+01  0.172824025154E+01 -0.902061522007E+00
  0.412459707260E+01  0.172824025154E+01  0.902061522007E+00
  0.416000986099E+01  0.735364913940E+00 -0.102348935604E+01
  0.416000986099E+01  0.735364913940E+00  0.102348935604E+01
  0.433626890182E+01  0.386280250549E+01 -0.436294436455E+00
  0.433626890182E+01  0.386280250549E+01  0.436294436455E+00
  0.461992597580E+01  0.119528055191E+01 -0.102348947525E+01
  0.461992597580E+01  0.119528055191E+01  0.102348947525E+01
  0.462827682495E+01  0.305185556412E+01 -0.760521173477E+00
  0.462827682495E+01  0.305185556412E+01  0.760521173477E+00
  0.466872262955E+01  0.000000000000E+00 -0.111146688461E+01
  0.466872262955E+01  0.000000000000E+00  0.111146688461E+01
  0.474011659622E+01  0.234375929832E+01 -0.902061700821E+00
  0.474011659622E+01  0.234375929832E+01  0.902061700821E+00
  0.478677463531E+01  0.478677463531E+01  0.000000000000E+00
  0.480686807632E+01  0.386280250549E+01 -0.604294240475E+00
  0.480686807632E+01  0.386280250549E+01  0.604294240475E+00
  0.493444061279E+01  0.478677463531E+01 -0.234920993447E+00
  0.493444061279E+01  0.478677463531E+01  0.234920993447E+00
  0.500836277008E+01  0.339639574289E+00 -0.111146700382E+01
  0.500836277008E+01  0.339639574289E+00  0.111146700382E+01
  0.515288639069E+01  0.172824025154E+01 -0.102348971367E+01
  0.515288639069E+01  0.172824025154E+01  0.102348971367E+01
  0.526024150848E+01  0.478677463531E+01 -0.436294555664E+00
  0.526024150848E+01  0.478677463531E+01  0.436294555664E+00
  0.540408849716E+01  0.735364913940E+00 -0.111146712303E+01
  0.540408849716E+01  0.735364913940E+00  0.111146712303E+01
  0.543922424316E+01  0.386280250549E+01 -0.760521352291E+00
  0.543922424316E+01  0.386280250549E+01  0.760521352291E+00
  0.544821310043E+01  0.305185556412E+01 -0.902061939240E+00
  0.544821310043E+01  0.305185556412E+01  0.902061939240E+00
  0.573084068298E+01  0.478677463531E+01 -0.604294419289E+00
  0.573084068298E+01  0.478677463531E+01  0.604294419289E+00
  0.576840591431E+01  0.234375929832E+01 -0.102348983288E+01
  0.576840591431E+01  0.234375929832E+01  0.102348983288E+01
  0.583337688446E+01  0.583337688446E+01  0.000000000000E+00
  0.586400508881E+01  0.119528055191E+01 -0.111146736145E+01
  0.586400508881E+01  0.119528055191E+01  0.111146736145E+01
  0.598104286194E+01  0.583337688446E+01 -0.234921067953E+00
  0.598104286194E+01  0.583337688446E+01  0.234921067953E+00
  0.611307668686E+01  0.000000000000E+00 -0.114008128643E+01
  0.611307668686E+01  0.000000000000E+00  0.114008128643E+01
  0.625916051865E+01  0.386280250549E+01 -0.902062177658E+00
  0.625916051865E+01  0.386280250549E+01  0.902062177658E+00
  0.630684375763E+01  0.583337688446E+01 -0.436294704676E+00
  0.630684375763E+01  0.583337688446E+01  0.436294704676E+00
  0.636319684982E+01  0.478677463531E+01 -0.760521590710E+00
  0.636319684982E+01  0.478677463531E+01  0.760521590710E+00
  0.639696550369E+01  0.172824025154E+01 -0.111146748066E+01
  0.639696550369E+01  0.172824025154E+01  0.111146748066E+01
  0.645271682739E+01  0.339639574289E+00 -0.114008140564E+01
  0.645271682739E+01  0.339639574289E+00  0.114008140564E+01
  0.647650289536E+01  0.305185556412E+01 -0.102349007130E+01
  0.647650289536E+01  0.305185556412E+01  0.102349007130E+01
  0.677744340897E+01  0.583337688446E+01 -0.604294598103E+00
  0.677744340897E+01  0.583337688446E+01  0.604294598103E+00
  0.684844303131E+01  0.735364913940E+00 -0.114008152485E+01
  0.684844303131E+01  0.735364913940E+00  0.114008152485E+01
  0.701104879379E+01  0.701104879379E+01  0.000000000000E+00
  0.701248550415E+01  0.234375929832E+01 -0.111146771908E+01
  0.701248550415E+01  0.234375929832E+01  0.111146771908E+01
  0.715871477127E+01  0.701104879379E+01 -0.234921157360E+00
  0.715871477127E+01  0.701104879379E+01  0.234921157360E+00
  0.718313360214E+01  0.478677463531E+01 -0.902062416077E+00
  0.718313360214E+01  0.478677463531E+01  0.902062416077E+00
  0.728745079041E+01  0.386280250549E+01 -0.102349042892E+01
  0.728745079041E+01  0.386280250549E+01  0.102349042892E+01
  0.730835962296E+01  0.119528055191E+01 -0.114008176327E+01
  0.730835962296E+01  0.119528055191E+01  0.114008176327E+01
  0.740979957581E+01  0.583337688446E+01 -0.760521829128E+00
  0.740979957581E+01  0.583337688446E+01  0.760521829128E+00
  0.748451566696E+01  0.701104879379E+01 -0.436294883490E+00
  0.748451566696E+01  0.701104879379E+01  0.436294883490E+00
  0.771254587173E+01  0.000000000000E+00 -0.108925735950E+01
  0.771254587173E+01  0.000000000000E+00  0.108925735950E+01
  0.772058296204E+01  0.305185556412E+01 -0.111146795750E+01
  0.772058296204E+01  0.305185556412E+01  0.111146795750E+01
  0.784132003784E+01  0.172824025154E+01 -0.114008188248E+01
  0.784132003784E+01  0.172824025154E+01  0.114008188248E+01
  0.795511531830E+01  0.701104879379E+01 -0.604294836521E+00
  0.795511531830E+01  0.701104879379E+01  0.604294836521E+00
  0.805218601227E+01  0.339639574289E+00 -0.108925747871E+01
  0.805218601227E+01  0.339639574289E+00  0.108925747871E+01
  0.821142387390E+01  0.478677463531E+01 -0.102349066734E+01
  0.821142387390E+01  0.478677463531E+01  0.102349066734E+01
[...]
CELL_DATA                3576
SCALARS C_p_inc float 1
LOOKUP_TABLE default
  0.164267275758E+00
  0.119451799019E+00
  0.839350395366E-01
  0.484554090847E-01
  0.347426681076E-01
  0.125535272699E-01
 -0.197581059530E-02
 -0.167785572681E-01
 -0.334876484415E-01
 -0.447898480249E-01
 -0.640803685334E-01
 -0.734975335860E-01
 -0.960459117788E-01
 -0.104644395207E+00
 -0.130925261925E+00
 -0.139248069480E+00
 -0.168771690646E+00
 -0.176945940744E+00
 -0.205046121496E+00
 -0.211891327012E+00
 -0.239922524588E+00
 -0.234847851811E+00
 -0.253630341520E+00
 -0.253116295438E+00
 -0.226984536922E+00
 -0.238884913782E+00
 -0.173607830871E+00
 -0.193145677273E+00
 -0.114873565906E+00
 -0.140255676400E+00
 -0.494243655427E-01
 -0.867003473804E-01
  0.373246105548E-01
 -0.216657843783E-01
  0.159938292846E+00
  0.679619139680E-01
  0.382242761889E+00
  0.270501859811E+00
  0.670061022698E+00
  0.660434420686E+00
  0.660434384534E+00
  0.670060997919E+00
  0.270501794516E+00
  0.382242714702E+00
  0.679618485147E-01
  0.159938237695E+00
 -0.216658491733E-01
  0.373245519061E-01
 -0.867004149614E-01
 -0.494244287653E-01
 -0.140255749830E+00
 -0.114873635491E+00
 -0.193145760255E+00
 -0.173607909902E+00
 -0.238885010476E+00
 -0.226984629435E+00
 -0.253116409165E+00
 -0.253630451046E+00
 -0.234847986713E+00
 -0.239922654584E+00
 -0.211891484527E+00
 -0.205046285447E+00
 -0.176946136248E+00
 -0.168771895799E+00
 -0.139248318636E+00
 -0.130925526381E+00
 -0.104644722130E+00
 -0.960462650042E-01
 -0.734979764729E-01
 -0.640808594644E-01
 -0.447904696800E-01
 -0.334883651041E-01
 -0.167794696804E-01
 -0.197692723605E-02
  0.125520778873E-01
  0.347407647127E-01
  0.484525780426E-01
  0.839317920316E-01
  0.119440882171E+00
  0.164264552449E+00
  0.164522279775E+00
  0.161399387090E+00
  0.964031408586E-01
  0.833987191777E-01
  0.541962653873E-01
  0.346234697015E-01
  0.147259774716E-01
 -0.200901354577E-02
 -0.205556855774E-01
 -0.334897241215E-01
 -0.535544759521E-01
 -0.640604420086E-01
 -0.868903939809E-01
 -0.960023688405E-01
 -0.122603858412E+00
 -0.130856681059E+00
 -0.161322360149E+00
 -0.168698386807E+00
 -0.199394322555E+00
 -0.205073674494E+00
 -0.235539690398E+00
 -0.231945024990E+00
 -0.253967444104E+00
 -0.255931810214E+00
 -0.239088365418E+00
 -0.250910956989E+00
 -0.192601033660E+00
 -0.212020770781E+00
 -0.139189852639E+00
 -0.164597328884E+00
 -0.848317524040E-01
 -0.117807462290E+00
 -0.189898181885E-01
 -0.607635406221E-01
  0.687133655412E-01
  0.208591204555E-01
  0.241080554566E+00
  0.204869085312E+00
  0.531310051428E+00
  0.529466037919E+00
  0.529465999089E+00
  0.531310016717E+00
  0.204869013317E+00
  0.241080494541E+00
  0.208590469036E-01
  0.687133025088E-01
 -0.607636123751E-01
 -0.189898820280E-01
 -0.117807535713E+00
 -0.848318195638E-01
 -0.164597407555E+00
 -0.139189925807E+00
 -0.212020858919E+00
 -0.192601116398E+00
 -0.250911059051E+00
 -0.239088461869E+00
 -0.255931929569E+00
 -0.253967557657E+00
 -0.231945166342E+00
 -0.235539825143E+00
 -0.205073838786E+00
 -0.199394494623E+00
 -0.168698592253E+00
 -0.161322577065E+00
 -0.130856945740E+00
 -0.122604141629E+00
 -0.960027221944E-01
 -0.868907790617E-01
 -0.640609328784E-01
 -0.535550237974E-01
 -0.334904402360E-01
 -0.205565027296E-01
 -0.201012799038E-02
  0.147247268953E-01
  0.346215766590E-01
  0.541944657195E-01
  0.833955261636E-01
  0.964006484285E-01
  0.161396630614E+00
  0.164516827073E+00
  0.163969643171E+00
  0.162907945268E+00
  0.100220481651E+00
  0.956226836623E-01
  0.640578590819E-01
  0.538483741536E-01
  0.287439425084E-01
  0.146151603083E-01
 -0.703951141088E-02
 -0.205765119450E-01
 -0.420633560015E-01
 -0.535296065620E-01
 -0.770431926913E-01
 -0.868284239099E-01
 -0.113945027774E+00
 -0.122506820174E+00
 -0.153877185730E+00
 -0.161220364321E+00
 -0.193942265134E+00
 -0.199421888263E+00
 -0.232974124193E+00
 -0.229675673977E+00
 -0.256764187429E+00
 -0.259001855091E+00
 -0.250613747458E+00
 -0.261265055850E+00
 -0.210656138060E+00
 -0.228894427275E+00
 -0.162624148557E+00
 -0.186474015028E+00
 -0.115415927066E+00
 -0.144330626556E+00
 -0.588639267766E-01
 -0.919174646637E-01
  0.193049902314E-01
 -0.147171573451E-01
  0.188189298938E+00
  0.164457004291E+00
  0.483987212501E+00
  0.482299835105E+00
  0.482299790557E+00
  0.483987171449E+00
  0.164456922891E+00
  0.188189228689E+00
 -0.147172396946E-01
  0.193049185706E-01
 -0.919175439935E-01
 -0.588639972622E-01
 -0.144330706667E+00
 -0.115415999629E+00
 -0.186474099795E+00
 -0.162624226568E+00
 -0.228894521543E+00
 -0.210656225580E+00
 -0.261265164115E+00
 -0.250613848899E+00
 -0.259001981170E+00
 -0.256764306236E+00
 -0.229675823146E+00
 -0.232974265080E+00
 -0.199422061008E+00
 -0.193942447020E+00
 -0.161220581796E+00
 -0.153877417020E+00
 -0.122507103796E+00
 -0.113945332870E+00
 -0.868288091717E-01
 -0.770436126778E-01
 -0.535301540900E-01
 -0.420639557199E-01
 -0.205773272990E-01
 -0.704037192024E-02
  0.146139165381E-01
  0.287427868816E-01
  0.538465946134E-01
  0.640564472305E-01
  0.956202280348E-01
  0.100218952694E+00
  0.162902761689E+00
  0.163969269397E+00
  0.163762631813E+00
  0.162849634830E+00
  0.102191112646E+00
  0.995668665171E-01
  0.690033545529E-01
  0.636434621809E-01
  0.377283794962E-01
  0.285414326623E-01
  0.469974909106E-02
 -0.709563037895E-02
 -0.303787737159E-01
 -0.420391498882E-01
 -0.666461124353E-01
 -0.769679123853E-01
 -0.104902604101E+00
 -0.113833845575E+00
 -0.146291303025E+00
 -0.153776662511E+00
 -0.188483641937E+00
 -0.194006602456E+00
 -0.230891593753E+00
 -0.227515066405E+00
 -0.259906089129E+00
 -0.261839355215E+00
 -0.261053756182E+00
 -0.270346219897E+00
 -0.227549447499E+00
 -0.243914474891E+00
 -0.184525750383E+00
 -0.206013620391E+00
 -0.142210254408E+00
 -0.167409128609E+00
 -0.905523157331E-01
 -0.117787612411E+00
 -0.161536036303E-01
 -0.426552180365E-01
  0.153503634285E+00
  0.135602817147E+00
  0.455396941623E+00
  0.453738624985E+00
  0.453738574126E+00
  0.455396894408E+00
  0.135602725292E+00
  0.153503553708E+00
 -0.426553102003E-01
 -0.161536845173E-01
 -0.117787700233E+00
 -0.905523938372E-01
 -0.167409216339E+00
 -0.142210333525E+00
 -0.206013712356E+00
 -0.184525834298E+00
 -0.243914576165E+00
 -0.227549540948E+00
 -0.270346335665E+00
 -0.261053863601E+00
 -0.261839489230E+00
 -0.259906214418E+00
 -0.227515224897E+00
 -0.230891742252E+00
 -0.194006785319E+00
 -0.188483835545E+00
 -0.153776894639E+00
 -0.146291550496E+00
 -0.113834151284E+00
 -0.104902932288E+00
 -0.769683325697E-01
 -0.666465619740E-01
 -0.420397487761E-01
 -0.303793886502E-01
 -0.709648728755E-02
  0.469895917595E-02
  0.285402860709E-01
  0.377274692592E-01
  0.636420645187E-01
  0.690023744326E-01
  0.995653423459E-01
  0.102189877454E+00
  0.162849023234E+00
  0.163759958519E+00
  0.163878199455E+00
  0.162948062960E+00
  0.103649754576E+00
  0.101681656442E+00
  0.720912621290E-01
  0.686400202267E-01
  0.433038719940E-01
  0.374994329208E-01
  0.132935122700E-01
  0.460372807831E-02
 -0.199005706627E-01
 -0.303679026180E-01
 -0.562383363635E-01
 -0.665666851478E-01
 -0.955919523380E-01
 -0.104787116793E+00
 -0.138517965069E+00
 -0.146202585525E+00
 -0.182902329433E+00
 -0.188585762104E+00
 -0.228877847809E+00
 -0.225189714120E+00
 -0.262874147405E+00
 -0.264149905523E+00
 -0.270363401190E+00
 -0.278092830708E+00
 -0.242838975958E+00
 -0.256762304294E+00
 -0.204340862215E+00
 -0.222918712497E+00
 -0.165646410847E+00
 -0.187279014123E+00
 -0.116744254133E+00
 -0.139565773262E+00
 -0.437538405370E-01
 -0.653769849669E-01
  0.128074593269E+00
  0.113602917513E+00
  0.436100501097E+00
  0.434486131176E+00
  0.434486073336E+00
  0.436100447376E+00
  0.113602813983E+00
  0.128074501712E+00
 -0.653770880365E-01
 -0.437539315562E-01
 -0.139565870664E+00
 -0.116744340835E+00
 -0.187279110486E+00
 -0.165646497554E+00
 -0.222918812618E+00
 -0.204340953238E+00
 -0.256762413831E+00
 -0.242839076286E+00
 -0.278092955042E+00
 -0.270363515954E+00
 -0.264150048901E+00
 -0.262874280479E+00
 -0.225189883279E+00
 -0.228878005536E+00
 -0.188585957018E+00
 -0.182902536180E+00
 -0.146202834101E+00
 -0.138518229267E+00
 -0.104787445737E+00
 -0.955922992430E-01
 -0.665671347246E-01
 -0.562387922999E-01
 -0.303685159569E-01
 -0.199011373926E-01
  0.460294244566E-02
  0.132928762245E-01
  0.374985286955E-01
  0.433032060054E-01
  0.686390435915E-01
  0.720905318448E-01
  0.101680424165E+00
  0.103648799665E+00
  0.162945510034E+00
  0.163876482104E+00
  0.164227516894E+00
  0.163279536286E+00
  0.104922207897E+00
  0.103261196814E+00
  0.743682602800E-01
  0.717999256472E-01
  0.470904185366E-01
  0.430990407759E-01
  0.192463535362E-01
  0.131821189706E-01
 -0.116230603255E-01
 -0.199108406537E-01
 -0.467315416231E-01
 -0.561657703982E-01
 -0.863844411426E-01
 -0.954786153887E-01
 -0.130619670458E+00
 -0.138441049852E+00
 -0.177119778945E+00
 -0.183027484969E+00
 -0.226658240664E+00
 -0.222490386073E+00
 -0.265326078726E+00
 -0.265665082283E+00
 -0.278378418635E+00
 -0.284346884148E+00
 -0.256065568376E+00
 -0.267358559402E+00
 -0.221646049663E+00
 -0.237062850548E+00
 -0.185905217839E+00
 -0.204002490373E+00
 -0.138755460354E+00
 -0.157789149778E+00
 -0.661446973279E-01
 -0.840680059564E-01
  0.108376456688E+00
  0.963232252284E-01
  0.422517418678E+00
  0.420981363420E+00
  0.420981297819E+00
  0.422517357861E+00
  0.963231086873E-01
  0.108376353116E+00
 -0.840681213293E-01
 -0.661447995105E-01
 -0.157789257834E+00
 -0.138755556767E+00
 -0.204002596551E+00
 -0.185905313217E+00
 -0.237062959882E+00
 -0.221646148819E+00
 -0.267358678254E+00
 -0.256065676902E+00
 -0.284347018239E+00
 -0.278378541902E+00
 -0.265665236122E+00
 -0.265326221123E+00
 -0.222490566979E+00
 -0.226658409119E+00
 -0.183027693288E+00
 -0.177119998996E+00
 -0.138441315347E+00
 -0.130619948034E+00
 -0.954789630341E-01
 -0.863847920336E-01
 -0.561662259636E-01
 -0.467319659958E-01
 -0.199114053693E-01
 -0.116235250419E-01
  0.131814859861E-01
  0.192459056881E-01
  0.430983778675E-01
  0.470900694782E-01
  0.717992020537E-01
  0.743682240395E-01
  0.103260268490E+00
  0.104923125194E+00
  0.163277918418E+00
  0.164231705660E+00
  0.164736550744E+00
  0.163790412456E+00
  0.106096478807E+00
  0.104631897810E+00
  0.762110420885E-01
  0.741448898775E-01
  0.498976028731E-01
  0.469251137754E-01
  0.234788047523E-01
  0.191437926401E-01
 -0.551228545169E-02
 -0.116487004160E-01
 -0.388891349220E-01
 -0.466759851460E-01
 -0.779028936877E-01
 -0.862800733338E-01
 -0.122845088060E+00
 -0.130550366138E+00
 -0.171151840148E+00
 -0.177247950024E+00
 -0.224019227018E+00
 -0.219306111724E+00
 -0.266975971345E+00
 -0.266214507279E+00
 -0.284912020820E+00
 -0.289007256482E+00
 -0.267065863759E+00
 -0.275713782412E+00
 -0.236226973576E+00
 -0.248448773654E+00
 -0.203020000280E+00
 -0.217636662889E+00
 -0.157179127334E+00
 -0.172706627646E+00
 -0.845585794194E-01
 -0.992842759169E-01
  0.927751713742E-01
  0.827407624351E-01
  0.412936085041E+00
  0.411525327489E+00
  0.411525253262E+00
  0.412936016381E+00
  0.827406313947E-01
  0.927750545279E-01
 -0.992844049200E-01
 -0.845586941268E-01
 -0.172706747715E+00
 -0.157179234549E+00
 -0.217636779837E+00
 -0.203020105562E+00
 -0.248448893433E+00
 -0.236227081986E+00
 -0.275713911375E+00
 -0.267065981642E+00
 -0.289007401218E+00
 -0.284912153911E+00
 -0.266214672451E+00
 -0.266976124335E+00
 -0.219306303795E+00
 -0.224019407589E+00
 -0.177248171869E+00
 -0.171152070898E+00
 -0.130550645054E+00
 -0.122845369292E+00
 -0.862804246782E-01
 -0.779032253536E-01
 -0.466764087067E-01
 -0.388894943634E-01
 -0.116491635024E-01
 -0.551262581467E-02
  0.191433457530E-01
  0.234785472614E-01
  0.469247622786E-01
  0.498974973902E-01
  0.741448364475E-01
  0.762111126577E-01
  0.104632733431E+00
  0.106096660221E+00
  0.163794191661E+00
  0.164736568281E+00
  0.165331335998E+00
  0.164422197764E+00
  0.107189559764E+00
  0.105884559090E+00
  0.777692502951E-01
  0.760455405550E-01
  0.520997929766E-01
  0.497718464985E-01
  0.266213024181E-01
  0.233953909635E-01
 -0.104637792167E-02
 -0.554214613640E-02
 -0.328706225345E-01
 -0.388534167230E-01
 -0.707329272655E-01
 -0.778156245192E-01
 -0.115633114427E+00
 -0.122780951085E+00
 -0.165173508891E+00
 -0.171264511530E+00
 -0.220835183413E+00
 -0.215656028864E+00
 -0.267625397848E+00
 -0.265746081620E+00
 -0.289826046727E+00
 -0.292046777365E+00
 -0.275797509078E+00
 -0.281885820789E+00
 -0.248029009945E+00
 -0.257187316290E+00
 -0.217023665097E+00
 -0.228309443919E+00
 -0.172284747807E+00
 -0.184502319998E+00
 -0.995636756804E-01
 -0.111328216441E+00
  0.804707155060E-01
  0.723122777433E-01
  0.406401813840E+00
  0.405167473962E+00
  0.405167390225E+00
  0.406401736503E+00
  0.723121306512E-01
  0.804705839445E-01
 -0.111328360454E+00
 -0.995638042237E-01
 -0.184502453189E+00
 -0.172284867195E+00
 -0.228309572643E+00
 -0.217023781281E+00
 -0.257187447053E+00
 -0.248029128929E+00
 -0.281885960620E+00
 -0.275797637242E+00
 -0.292046932966E+00
 -0.289826190718E+00
 -0.265746257227E+00
 -0.267625562671E+00
 -0.215656229756E+00
 -0.220835375967E+00
 -0.171264744103E+00
 -0.165173743332E+00
 -0.122781233402E+00
 -0.115633384687E+00
 -0.778159561327E-01
 -0.707332198326E-01
 -0.388537751828E-01
 -0.328709124561E-01
 -0.554248580973E-02
 -0.104664437811E-02
  0.233951312049E-01
  0.266210315204E-01
  0.497717297751E-01
  0.520993935449E-01
  0.760455816494E-01
  0.777684510783E-01
  0.105884690152E+00
  0.107187724791E+00
  0.164422194590E+00
  0.165326502561E+00
  0.165954201437E+00
  0.165110127180E+00
  0.108192498721E+00
  0.107038876046E+00
  0.791072752370E-01
  0.776505148856E-01
  0.538816809961E-01
  0.520082360827E-01
  0.290349782534E-01
  0.265583728535E-01
  0.226617074969E-02
 -0.107314936205E-02
 -0.283929781614E-01
 -0.328503834176E-01
 -0.650933660131E-01
 -0.706678251214E-01
 -0.109433331996E+00
 -0.115576524061E+00
 -0.159520029558E+00
 -0.165259462345E+00
 -0.217107877744E+00
 -0.211719770442E+00
 -0.267192082456E+00
 -0.264351220341E+00
 -0.293058433802E+00
 -0.293549085589E+00
 -0.282284709161E+00
 -0.286006726960E+00
 -0.257128026745E+00
 -0.263463586141E+00
 -0.228022992534E+00
 -0.236229045779E+00
 -0.184257151111E+00
 -0.193400668683E+00
 -0.111462323176E+00
 -0.120457986425E+00
  0.710160736468E-01
  0.646535010328E-01
  0.402270291483E+00
  0.401254258800E+00
  0.401254164736E+00
  0.402270204626E+00
  0.646533366468E-01
  0.710159258725E-01
 -0.120458146437E+00
 -0.111462466916E+00
 -0.193400815691E+00
 -0.184257283805E+00
 -0.236229186853E+00
 -0.228023120689E+00
 -0.263463728177E+00
 -0.257128156947E+00
 -0.286006877389E+00
 -0.282284848509E+00
 -0.293549251070E+00
 -0.293058589201E+00
 -0.264351403606E+00
 -0.267192258589E+00
 -0.211719974288E+00
 -0.217108080345E+00
 -0.165259698370E+00
 -0.159520257893E+00
 -0.115576794881E+00
 -0.109433578798E+00
 -0.706681171924E-01
 -0.650936195903E-01
 -0.328506725031E-01
 -0.283932378717E-01
 -0.107341586891E-02
  0.226586952029E-02
  0.265581002284E-01
  0.290345606322E-01
  0.520078362901E-01
  0.538810690074E-01
  0.776497306382E-01
  0.791064089161E-01
  0.107037112949E+00
  0.108191303658E+00
  0.165105592922E+00
  0.165952540635E+00
  0.166569627087E+00
  0.165802938137E+00
  0.109098436599E+00
  0.108088490632E+00
  0.802566910220E-01
  0.790247763945E-01
  0.553436039025E-01
  0.538175022124E-01
  0.309285945959E-01
  0.289899890046E-01
  0.476766211058E-02
  0.224518979098E-02
 -0.250759042321E-01
 -0.283823202758E-01
 -0.608421866903E-01
 -0.650493159802E-01
 -0.104466770000E+00
 -0.109388676916E+00
 -0.154557736724E+00
 -0.159578388373E+00
 -0.213010881629E+00
 -0.207814296374E+00
 -0.265744628801E+00
 -0.262277577296E+00
 -0.294664037038E+00
 -0.293734619892E+00
 -0.286634021938E+00
 -0.288310986769E+00
 -0.263687234401E+00
 -0.267542553379E+00
 -0.236210073656E+00
 -0.241680707924E+00
 -0.193312567292E+00
 -0.199695486391E+00
 -0.120503912950E+00
 -0.126972906643E+00
  0.640746246705E-01
  0.593955604549E-01
  0.400018529306E+00
  0.399242491753E+00
  0.399242386881E+00
  0.400018432219E+00
  0.593953783266E-01
  0.640744595306E-01
 -0.126973082890E+00
 -0.120504072854E+00
 -0.199695647461E+00
 -0.193312714006E+00
 -0.241680861062E+00
 -0.236210214414E+00
 -0.267542705785E+00
 -0.263687376234E+00
 -0.288311146184E+00
 -0.286634172440E+00
 -0.293734792078E+00
 -0.294664203216E+00
 -0.262277763348E+00
 -0.265744813823E+00
 -0.207814495453E+00
 -0.213011088546E+00
 -0.159578617824E+00
 -0.154557950172E+00
 -0.109388923779E+00
 -0.104466991603E+00
 -0.650495690051E-01
 -0.608424181990E-01
 -0.283825795265E-01
 -0.250761631133E-01
  0.224488905030E-02
  0.476735330845E-02
  0.289895744201E-01
  0.309282347966E-01
  0.538169008040E-01
  0.553432171968E-01
  0.790239325111E-01
  0.802563159994E-01
  0.108087324995E+00
  0.109098140580E+00
  0.165801264678E+00
  0.166569582066E+00
  0.167149926653E+00
  0.166469177321E+00
  0.109901714167E+00
  0.109028847453E+00
  0.812387933790E-01
  0.802011983366E-01
  0.565476450857E-01
  0.553001654612E-01
  0.324318203608E-01
  0.308977826535E-01
  0.668373677527E-02
  0.475252356149E-02
 -0.226030555618E-01
 -0.250704990327E-01
 -0.576909367306E-01
 -0.608143132662E-01
 -0.100675937557E+00
 -0.104435661197E+00
 -0.150501857474E+00
 -0.154595188817E+00
 -0.208880733789E+00
 -0.204273062185E+00
 -0.263526814922E+00
 -0.259884565046E+00
 -0.294847686384E+00
 -0.292954843620E+00
 -0.289063446020E+00
 -0.289148429474E+00
 -0.267957652473E+00
 -0.269782845286E+00
 -0.241858639078E+00
 -0.245032523291E+00
 -0.199734445030E+00
 -0.203755158336E+00
 -0.126973845799E+00
 -0.131236890253E+00
  0.593129394464E-01
  0.561403333021E-01
  0.399177657638E+00
  0.398639406355E+00
  0.398639290851E+00
  0.399177549999E+00
  0.561401336633E-01
  0.593127565572E-01
 -0.131237082024E+00
 -0.126974022082E+00
 -0.203755331893E+00
 -0.199734606029E+00
 -0.245032686693E+00
 -0.241858792240E+00
 -0.269783005716E+00
 -0.267957805177E+00
 -0.289148594399E+00
 -0.289063606263E+00
 -0.292955017608E+00
 -0.294847860354E+00
 -0.259884747247E+00
 -0.263527003975E+00
 -0.204273249804E+00
 -0.208880936870E+00
 -0.154595402868E+00
 -0.150502051786E+00
 -0.104435882730E+00
 -0.100676137184E+00
 -0.608145446010E-01
 -0.576911459478E-01
 -0.250707577627E-01
 -0.226032767559E-01
  0.475221570298E-02
  0.668351272528E-02
  0.308974252806E-01
  0.324316105896E-01
  0.552997813952E-01
  0.565474627812E-01
  0.802008216931E-01
  0.812386524690E-01
  0.109028535732E+00
  0.109901642295E+00
  0.166469070564E+00
  0.167150026526E+00
  0.167678070611E+00
  0.167085307389E+00
  0.110601498701E+00
  0.109856561690E+00
  0.820708442115E-01
  0.812025797930E-01
  0.575385611994E-01
  0.565191374352E-01
  0.336315470046E-01
  0.324114331230E-01
  0.816610691047E-02
  0.667340347542E-02
 -0.207430447903E-01
 -0.226003571069E-01
 -0.553597165654E-01
 -0.576740075980E-01
 -0.978524701475E-01
 -0.100656402474E+00
 -0.147355104467E+00
 -0.150526330367E+00
 -0.205094070723E+00
 -0.201303419330E+00
 -0.260922605637E+00
 -0.257527167092E+00
 -0.293967815543E+00
 -0.291628558598E+00
 -0.289921160005E+00
 -0.288956021181E+00
 -0.270293510796E+00
 -0.270628016819E+00
 -0.245331128298E+00
 -0.246731175050E+00
 -0.203882793582E+00
 -0.206018398388E+00
 -0.131221058060E+00
 -0.133678413005E+00
  0.563673082527E-01
  0.544577247754E-01
  0.399318841678E+00
  0.398994001136E+00
  0.398993876315E+00
  0.399318723897E+00
  0.544575099920E-01
  0.563671079893E-01
 -0.133678617961E+00
 -0.131221249974E+00
 -0.206018581340E+00
 -0.203882967324E+00
 -0.246731345342E+00
 -0.245331292129E+00
 -0.270628181154E+00
 -0.270293672113E+00
 -0.288956186325E+00
 -0.289921326608E+00
 -0.291628728301E+00
 -0.293967992368E+00
 -0.257527339003E+00
 -0.260922791776E+00
 -0.201303590473E+00
 -0.205094262700E+00
 -0.150526525044E+00
 -0.147355276870E+00
 -0.100656602207E+00
 -0.978526409827E-01
 -0.576742169062E-01
 -0.553598840024E-01
 -0.226005781915E-01
 -0.207432030447E-01