# vtk DataFile Version 3.0
MachLine results file. Generated by MachLine, USU AeroLab (c) 2022.
ASCII
DATASET POLYDATA
POINTS                1848 float
  0.000000000000E+00  0.000000000000E+00  0.000000000000E+00
  0.147665724158E+00  0.000000000000E+00 -0.234920635819E+00
  0.147665724158E+00  0.000000000000E+00  0.234920635819E+00
  0.339639574289E+00  0.339639574289E+00  0.000000000000E+00
  0.473465979099E+00  0.000000000000E+00 -0.436293870211E+00
  0.473465979099E+00  0.000000000000E+00  0.436293870211E+00
  0.487305283546E+00  0.339639574289E+00 -0.234920650721E+00
  0.487305283546E+00  0.339639574289E+00  0.234920650721E+00
  0.735364913940E+00  0.735364913940E+00  0.000000000000E+00
  0.813105583191E+00  0.339639574289E+00 -0.436293929815E+00
  0.813105583191E+00  0.339639574289E+00  0.436293929815E+00
  0.883030653000E+00  0.735364913940E+00 -0.234920680523E+00
  0.883030653000E+00  0.735364913940E+00  0.234920680523E+00
  0.944064557552E+00  0.000000000000E+00 -0.604293465614E+00
  0.944064557552E+00  0.000000000000E+00  0.604293465614E+00
  0.119528055191E+01  0.119528055191E+01  0.000000000000E+00
  0.120883107185E+01  0.735364913940E+00 -0.436293989420E+00
  0.120883107185E+01  0.735364913940E+00  0.436293989420E+00
  0.128370416164E+01  0.339639574289E+00 -0.604293525219E+00
  0.128370416164E+01  0.339639574289E+00  0.604293525219E+00
  0.134294629097E+01  0.119528055191E+01 -0.234920725226E+00
  0.134294629097E+01  0.119528055191E+01  0.234920725226E+00
  0.157641971111E+01  0.000000000000E+00 -0.760520398617E+00
  0.157641971111E+01  0.000000000000E+00  0.760520398617E+00
  0.166874670982E+01  0.119528055191E+01 -0.436294049025E+00
  0.166874670982E+01  0.119528055191E+01  0.436294049025E+00
  0.167942965031E+01  0.735364913940E+00 -0.604293584824E+00
  0.167942965031E+01  0.735364913940E+00  0.604293584824E+00
  0.172824025154E+01  0.172824025154E+01  0.000000000000E+00
  0.187590610981E+01  0.172824025154E+01 -0.234920769930E+00
  0.187590610981E+01  0.172824025154E+01  0.234920769930E+00
  0.191605937481E+01  0.339639574289E+00 -0.760520458221E+00
  0.191605937481E+01  0.339639574289E+00  0.760520458221E+00
  0.213934540749E+01  0.119528055191E+01 -0.604293704033E+00
  0.213934540749E+01  0.119528055191E+01  0.604293704033E+00
  0.220170640945E+01  0.172824025154E+01 -0.436294138432E+00
  0.220170640945E+01  0.172824025154E+01  0.436294138432E+00
  0.231178498268E+01  0.735364913940E+00 -0.760520577431E+00
  0.231178498268E+01  0.735364913940E+00  0.760520577431E+00
  0.234375929832E+01  0.234375929832E+01  0.000000000000E+00
  0.239635515213E+01  0.000000000000E+00 -0.902061045170E+00
  0.239635515213E+01  0.000000000000E+00  0.902061045170E+00
  0.249142503738E+01  0.234375929832E+01 -0.234920814633E+00
  0.249142503738E+01  0.234375929832E+01  0.234920814633E+00
  0.267230534554E+01  0.172824025154E+01 -0.604293823242E+00
  0.267230534554E+01  0.172824025154E+01  0.604293823242E+00
  0.273599505424E+01  0.339639574289E+00 -0.902061164379E+00
  0.273599505424E+01  0.339639574289E+00  0.902061164379E+00
  0.277170085907E+01  0.119528055191E+01 -0.760520696640E+00
  0.277170085907E+01  0.119528055191E+01  0.760520696640E+00
  0.281722569466E+01  0.234375929832E+01 -0.436294227839E+00
  0.281722569466E+01  0.234375929832E+01  0.436294227839E+00
  0.305185556412E+01  0.305185556412E+01  0.000000000000E+00
  0.313172078133E+01  0.735364913940E+00 -0.902061283588E+00
  0.313172078133E+01  0.735364913940E+00  0.902061283588E+00
  0.319952154160E+01  0.305185556412E+01 -0.234920859337E+00
  0.319952154160E+01  0.305185556412E+01  0.234920859337E+00
  0.328782463074E+01  0.234375929832E+01 -0.604293942451E+00
  0.328782463074E+01  0.234375929832E+01  0.604293942451E+00
  0.330466079712E+01  0.172824025154E+01 -0.760520815849E+00
  0.330466079712E+01  0.172824025154E+01  0.760520815849E+00
  0.342464399338E+01  0.000000000000E+00 -0.102348911762E+01
  0.342464399338E+01  0.000000000000E+00  0.102348911762E+01
  0.352532196045E+01  0.305185556412E+01 -0.436294317245E+00
  0.352532196045E+01  0.305185556412E+01  0.436294317245E+00
  0.359163665771E+01  0.119528055191E+01 -0.902061402798E+00
  0.359163665771E+01  0.119528055191E+01  0.902061402798E+00
  0.376428389549E+01  0.339639574289E+00 -0.102348923683E+01
  0.376428389549E+01  0.339639574289E+00  0.102348923683E+01
  0.386280250549E+01  0.386280250549E+01  0.000000000000E+00
  0.392018008232E+01  0.234375929832E+01 -0.760520994663E+00
  0.392018008232E+01  0.234375929832E+01  0.760520994663E+00
  0.399592113495E+01  0.305185556412E+01 -0.604294061661E+00
  0.399592113495E+01  0.305185556412E+01  0.604294061661E+00
  0.401046848297E+01  0.386280250549E+01 -0.234920918941E+00
  0.401046848297E+01  0.386280250549E+01  0.234920918941E+00
  0.412459707260E+01  0.172824025154E+01 -0.902061522007E+00
  0.412459707260E+01  0.172824025154E+01  0.902061522007E+00
  0.416000986099E+01  0.735364913940E+00 -0.102348935604E+01
  0.416000986099E+01  0.735364913940E+00  0.102348935604E+01
  0.433626890182E+01  0.386280250549E+01 -0.436294436455E+00
  0.433626890182E+01  0.386280250549E+01  0.436294436455E+00
  0.461992597580E+01  0.119528055191E+01 -0.102348947525E+01
  0.461992597580E+01  0.119528055191E+01  0.102348947525E+01
  0.462827682495E+01  0.305185556412E+01 -0.760521173477E+00
  0.462827682495E+01  0.305185556412E+01  0.760521173477E+00
  0.466872262955E+01  0.000000000000E+00 -0.111146688461E+01
  0.466872262955E+01  0.000000000000E+00  0.111146688461E+01
  0.474011659622E+01  0.234375929832E+01 -0.902061700821E+00
  0.474011659622E+01  0.234375929832E+01  0.902061700821E+00
  0.478677463531E+01  0.478677463531E+01  0.000000000000E+00
  0.480686807632E+01  0.386280250549E+01 -0.604294240475E+00
  0.480686807632E+01  0.386280250549E+01  0.604294240475E+00
  0.493444061279E+01  0.478677463531E+01 -0.234920993447E+00
  0.493444061279E+01  0.478677463531E+01  0.234920993447E+00
  0.500836277008E+01  0.339639574289E+00 -0.111146700382E+01
  0.500836277008E+01  0.339639574289E+00  0.111146700382E+01
  0.515288639069E+01  0.172824025154E+01 -0.102348971367E+01
  0.515288639069E+01  0.172824025154E+01  0.102348971367E+01
  0.526024150848E+01  0.478677463531E+01 -0.436294555664E+00
  0.526024150848E+01  0.478677463531E+01  0.436294555664E+00
  0.540408849716E+01  0.735364913940E+00 -0.111146712303E+01
  0.540408849716E+01  0.735364913940E+00  0.111146712303E+01
  0.543922424316E+01  0.386280250549E+01 -0.760521352291E+00
  0.543922424316E+01  0.386280250549E+01  0.760521352291E+00
  0.544821310043E+01  0.305185556412E+01 -0.902061939240E+00
  0.544821310043E+01  0.305185556412E+01  0.902061939240E+00
  0.573084068298E+01  0.478677463531E+01 -0.604294419289E+00
  0.573084068298E+01  0.478677463531E+01  0.604294419289E+00
  0.576840591431E+01  0.234375929832E+01 -0.102348983288E+01
  0.576840591431E+01  0.234375929832E+01  0.102348983288E+01
  0.583337688446E+01  0.583337688446E+01  0.000000000000E+00
  0.586400508881E+01  0.119528055191E+01 -0.111146736145E+01
  0.586400508881E+01  0.119528055191E+01  0.111146736145E+01
  0.598104286194E+01  0.583337688446E+01 -0.234921067953E+00
  0.598104286194E+01  0.583337688446E+01  0.234921067953E+00
  0.611307668686E+01  0.000000000000E+00 -0.114008128643E+01
  0.611307668686E+01  0.000000000000E+00  0.114008128643E+01
  0.625916051865E+01  0.386280250549E+01 -0.902062177658E+00
  0.625916051865E+01  0.386280250549E+01  0.902062177658E+00
  0.630684375763E+01  0.583337688446E+01 -0.436294704676E+00
  0.630684375763E+01  0.583337688446E+01  0.436294704676E+00
  0.636319684982E+01  0.478677463531E+01 -0.760521590710E+00
  0.636319684982E+01  0.478677463531E+01  0.760521590710E+00
  0.639696550369E+01  0.172824025154E+01 -0.111146748066E+01
  0.639696550369E+01  0.172824025154E+01  0.111146748066E+01
  0.645271682739E+01  0.339639574289E+00 -0.114008140564E+01
  0.645271682739E+01  0.339639574289E+00  0.114008140564E+01
  0.647650289536E+01  0.305185556412E+01 -0.102349007130E+01
  0.647650289536E+01  0.305185556412E+01  0.102349007130E+01
  0.677744340897E+01  0.583337688446E+01 -0.604294598103E+00
  0.677744340897E+01  0.583337688446E+01  0.604294598103E+00
  0.684844303131E+01  0.735364913940E+00 -0.114008152485E+01
  0.684844303131E+01  0.735364913940E+00  0.114008152485E+01
  0.701104879379E+01  0.701104879379E+01  0.000000000000E+00
  0.701248550415E+01  0.234375929832E+01 -0.111146771908E+01
  0.701248550415E+01  0.234375929832E+01  0.111146771908E+01
  0.715871477127E+01  0.701104879379E+01 -0.234921157360E+00
  0.715871477127E+01  0.701104879379E+01  0.234921157360E+00
  0.718313360214E+01  0.478677463531E+01 -0.902062416077E+00
  0.718313360214E+01  0.478677463531E+01  0.902062416077E+00
  0.728745079041E+01  0.386280250549E+01 -0.102349042892E+01
  0.728745079041E+01  0.386280250549E+01  0.102349042892E+01
  0.730835962296E+01  0.119528055191E+01 -0.114008176327E+01
  0.730835962296E+01  0.119528055191E+01  0.114008176327E+01
  0.740979957581E+01  0.583337688446E+01 -0.760521829128E+00
  0.740979957581E+01  0.583337688446E+01  0.760521829128E+00
  0.748451566696E+01  0.701104879379E+01 -0.436294883490E+00
  0.748451566696E+01  0.701104879379E+01  0.436294883490E+00
  0.771254587173E+01  0.000000000000E+00 -0.108925735950E+01
  0.771254587173E+01  0.000000000000E+00  0.108925735950E+01
  0.772058296204E+01  0.305185556412E+01 -0.111146795750E+01
  0.772058296204E+01  0.305185556412E+01  0.111146795750E+01
  0.784132003784E+01  0.172824025154E+01 -0.114008188248E+01
  0.784132003784E+01  0.172824025154E+01  0.114008188248E+01
  0.795511531830E+01  0.701104879379E+01 -0.604294836521E+00
  0.795511531830E+01  0.701104879379E+01  0.604294836521E+00
  0.805218601227E+01  0.339639574289E+00 -0.108925747871E+01
  0.805218601227E+01  0.339639574289E+00  0.108925747871E+01
  0.821142387390E+01  0.478677463531E+01 -0.102349066734E+01
  0.821142387390E+01  0.478677463531E+01  0.102349066734E+01
[...]
CELL_DATA                3576
SCALARS C_p_inc float 1
LOOKUP_TABLE default
  0.164265946624E+00
  0.119446474766E+00
  0.839334538746E-01
  0.484540275594E-01
  0.347417388717E-01
  0.125528196000E-01
 -0.197635580156E-02
 -0.167790028763E-01
 -0.334879986160E-01
 -0.447901516373E-01
 -0.640806083085E-01
 -0.734977499551E-01
 -0.960460841928E-01
 -0.104644554832E+00
 -0.130925391099E+00
 -0.139248191106E+00
 -0.168771790792E+00
 -0.176946036225E+00
 -0.205046201575E+00
 -0.211891403878E+00
 -0.239922588057E+00
 -0.234847917654E+00
 -0.253630394964E+00
 -0.253116350904E+00
 -0.226984582016E+00
 -0.238884960966E+00
 -0.173607869403E+00
 -0.193145717706E+00
 -0.114873599811E+00
 -0.140255712198E+00
 -0.494243963526E-01
 -0.867003803144E-01
  0.373245819821E-01
 -0.216658159538E-01
  0.159938265996E+00
  0.679618821046E-01
  0.382242738915E+00
  0.270501828019E+00
  0.670061010634E+00
  0.660434403086E+00
  0.660434402135E+00
  0.670061009983E+00
  0.270501826304E+00
  0.382242737676E+00
  0.679618803892E-01
  0.159938264546E+00
 -0.216658176060E-01
  0.373245804722E-01
 -0.867003820438E-01
 -0.494243979675E-01
 -0.140255714043E+00
 -0.114873601573E+00
 -0.193145719774E+00
 -0.173607871377E+00
 -0.238884963341E+00
 -0.226984584293E+00
 -0.253116353661E+00
 -0.253630397629E+00
 -0.234847920884E+00
 -0.239922591176E+00
 -0.211891407614E+00
 -0.205046205457E+00
 -0.176946040817E+00
 -0.168771795601E+00
 -0.139248196913E+00
 -0.130925397255E+00
 -0.104644562416E+00
 -0.960460923809E-01
 -0.734977602126E-01
 -0.640806196772E-01
 -0.447901660544E-01
 -0.334880152531E-01
 -0.167790241276E-01
 -0.197638187511E-02
  0.125527855431E-01
  0.347416940364E-01
  0.484539598985E-01
  0.839333773097E-01
  0.119446206157E+00
  0.164265889625E+00
  0.164519610428E+00
  0.161398041783E+00
  0.964019231482E-01
  0.833971601028E-01
  0.541953863933E-01
  0.346225455138E-01
  0.147253665316E-01
 -0.200955767981E-02
 -0.205560846868E-01
 -0.334900740289E-01
 -0.535547434589E-01
 -0.640606817542E-01
 -0.868905820649E-01
 -0.960025413186E-01
 -0.122603996787E+00
 -0.130856810345E+00
 -0.161322466023E+00
 -0.168698487096E+00
 -0.199394406611E+00
 -0.205073754744E+00
 -0.235539756167E+00
 -0.231945093971E+00
 -0.253967499486E+00
 -0.255931868434E+00
 -0.239088412483E+00
 -0.250911006743E+00
 -0.192601073974E+00
 -0.212020813774E+00
 -0.139189888309E+00
 -0.164597367242E+00
 -0.848317851326E-01
 -0.117807498072E+00
 -0.189898492975E-01
 -0.607635755851E-01
  0.687133348556E-01
  0.208590846590E-01
  0.241080525338E+00
  0.204869050247E+00
  0.531310034527E+00
  0.529466019012E+00
  0.529466017993E+00
  0.531310033616E+00
  0.204869048363E+00
  0.241080523763E+00
  0.208590827518E-01
  0.687133332051E-01
 -0.607635774159E-01
 -0.189898509264E-01
 -0.117807499951E+00
 -0.848317868511E-01
 -0.164597369212E+00
 -0.139189890148E+00
 -0.212020815962E+00
 -0.192601076035E+00
 -0.250911009242E+00
 -0.239088414853E+00
 -0.255931871318E+00
 -0.253967502240E+00
 -0.231945097347E+00
 -0.235539759394E+00
 -0.205073758633E+00
 -0.199394410675E+00
 -0.168698491912E+00
 -0.161322471099E+00
 -0.130856816506E+00
 -0.122604003370E+00
 -0.960025495097E-01
 -0.868905909836E-01
 -0.640606931215E-01
 -0.535547561422E-01
 -0.334900906530E-01
 -0.205561036479E-01
 -0.200958370102E-02
  0.147253374462E-01
  0.346225009285E-01
  0.541953447982E-01
  0.833970848556E-01
  0.964018666497E-01
  0.161397983514E+00
  0.164519485659E+00
  0.163969460316E+00
  0.162905407816E+00
  0.100219733880E+00
  0.956214839553E-01
  0.640571693125E-01
  0.538475049931E-01
  0.287433778056E-01
  0.146145526941E-01
 -0.703993176290E-02
 -0.205769101750E-01
 -0.420636488162E-01
 -0.535298739148E-01
 -0.770433978293E-01
 -0.868286120845E-01
 -0.113945176787E+00
 -0.122506958745E+00
 -0.153877298718E+00
 -0.161220470468E+00
 -0.193942353944E+00
 -0.199421972648E+00
 -0.232974192947E+00
 -0.229675746741E+00
 -0.256764245376E+00
 -0.259001916601E+00
 -0.250613796912E+00
 -0.261265108680E+00
 -0.210656180753E+00
 -0.228894473251E+00
 -0.162624186593E+00
 -0.186474056330E+00
 -0.115415962428E+00
 -0.144330665590E+00
 -0.588639611217E-01
 -0.919175033433E-01
  0.193049553542E-01
 -0.147171974357E-01
  0.188189264723E+00
  0.164456964640E+00
  0.483987192512E+00
  0.482299813412E+00
  0.482299812248E+00
  0.483987191439E+00
  0.164456962532E+00
  0.188189262890E+00
 -0.147171995887E-01
  0.193049534963E-01
 -0.919175053543E-01
 -0.588639629196E-01
 -0.144330667621E+00
 -0.115415964285E+00
 -0.186474058459E+00
 -0.162624188547E+00
 -0.228894475575E+00
 -0.210656182927E+00
 -0.261265111332E+00
 -0.250613799397E+00
 -0.259001919638E+00
 -0.256764248248E+00
 -0.229675750293E+00
 -0.232974196313E+00
 -0.199421976728E+00
 -0.193942358230E+00
 -0.161220475556E+00
 -0.153877304118E+00
 -0.122506965337E+00
 -0.113945183867E+00
 -0.868286210073E-01
 -0.770434075444E-01
 -0.535298865906E-01
 -0.420636626773E-01
 -0.205769290937E-01
 -0.703995162774E-02
  0.146145237701E-01
  0.287433513259E-01
  0.538474638701E-01
  0.640571374995E-01
  0.956214282676E-01
  0.100219700511E+00
  0.162905289405E+00
  0.163969457070E+00
  0.163761325252E+00
  0.162849335512E+00
  0.102190507588E+00
  0.995661210920E-01
  0.690028755194E-01
  0.636427793321E-01
  0.377279344143E-01
  0.285408723699E-01
  0.469936319906E-02
 -0.709604897468E-02
 -0.303790741438E-01
 -0.420394422974E-01
 -0.666463320621E-01
 -0.769681176198E-01
 -0.104902764457E+00
 -0.113833994888E+00
 -0.146291423821E+00
 -0.153776775909E+00
 -0.188483736435E+00
 -0.194006691733E+00
 -0.230891666184E+00
 -0.227515143810E+00
 -0.259906150259E+00
 -0.261839420592E+00
 -0.261053808598E+00
 -0.270346276351E+00
 -0.227549493071E+00
 -0.243914524289E+00
 -0.184525791270E+00
 -0.206013665226E+00
 -0.142210292960E+00
 -0.167409171379E+00
 -0.905523538151E-01
 -0.117787655193E+00
 -0.161536430101E-01
 -0.426552629142E-01
  0.153503595031E+00
  0.135602772397E+00
  0.455396918617E+00
  0.453738600201E+00
  0.453738598872E+00
  0.455396917384E+00
  0.135602770014E+00
  0.153503592942E+00
 -0.426552652862E-01
 -0.161536451238E-01
 -0.117787657420E+00
 -0.905523557956E-01
 -0.167409173596E+00
 -0.142210294965E+00
 -0.206013667517E+00
 -0.184525793378E+00
 -0.243914526791E+00
 -0.227549495375E+00
 -0.270346279167E+00
 -0.261053811229E+00
 -0.261839423816E+00
 -0.259906153280E+00
 -0.227515147574E+00
 -0.230891669722E+00
 -0.194006696042E+00
 -0.188483740986E+00
 -0.153776781329E+00
 -0.146291429588E+00
 -0.113834001983E+00
 -0.104902772060E+00
 -0.769681273393E-01
 -0.666463424395E-01
 -0.420394561389E-01
 -0.303790882898E-01
 -0.709606875513E-02
  0.469934517035E-02
  0.285408460988E-01
  0.377279139951E-01
  0.636427478334E-01
  0.690028542158E-01
  0.995660877930E-01
  0.102190481840E+00
  0.162849326518E+00
  0.163761269780E+00
  0.163877356932E+00
  0.162946815327E+00
  0.103649287263E+00
  0.101681052859E+00
  0.720909045543E-01
  0.686395429230E-01
  0.433035465040E-01
  0.374989907838E-01
  0.132932014774E-01
  0.460334427849E-02
 -0.199008476139E-01
 -0.303682022679E-01
 -0.562385590829E-01
 -0.665669047927E-01
 -0.955921217675E-01
 -0.104787277514E+00
 -0.138518094150E+00
 -0.146202706856E+00
 -0.182902430361E+00
 -0.188585857243E+00
 -0.228877924840E+00
 -0.225189796671E+00
 -0.262874212313E+00
 -0.264149975506E+00
 -0.270363457155E+00
 -0.278092891368E+00
 -0.242839024897E+00
 -0.256762357735E+00
 -0.204340906591E+00
 -0.222918761320E+00
 -0.165646453118E+00
 -0.187279061075E+00
 -0.116744296370E+00
 -0.139565820728E+00
 -0.437538848572E-01
 -0.653770351489E-01
  0.128074548666E+00
  0.113602867055E+00
  0.436100474925E+00
  0.434486103011E+00
  0.434486101513E+00
  0.436100473529E+00
  0.113602864385E+00
  0.128074546296E+00
 -0.653770378065E-01
 -0.437538871989E-01
 -0.139565823187E+00
 -0.116744298568E+00
 -0.187279063509E+00
 -0.165646455310E+00
 -0.222918763810E+00
 -0.204340908859E+00
 -0.256762360421E+00
 -0.242839027376E+00
 -0.278092894387E+00
 -0.270363459949E+00
 -0.264149978943E+00
 -0.262874215516E+00
 -0.225189800678E+00
 -0.228877928587E+00
 -0.188585861824E+00
 -0.182902435208E+00
 -0.146202712648E+00
 -0.138518100293E+00
 -0.104787285133E+00
 -0.955921297844E-01
 -0.665669151706E-01
 -0.562385695666E-01
 -0.303682163765E-01
 -0.199008605481E-01
  0.460332634807E-02
  0.132931871543E-01
  0.374989704950E-01
  0.433035318078E-01
  0.686395216685E-01
  0.720908888201E-01
  0.101681027086E+00
  0.103649267301E+00
  0.162946762373E+00
  0.163877322916E+00
  0.164229575449E+00
  0.163278742781E+00
  0.104922658302E+00
  0.103260742561E+00
  0.743682432230E-01
  0.717995713691E-01
  0.470902483380E-01
  0.430987167844E-01
  0.192461344284E-01
  0.131818096768E-01
 -0.116232873949E-01
 -0.199111166206E-01
 -0.467317489470E-01
 -0.561659929369E-01
 -0.863846125628E-01
 -0.954787851837E-01
 -0.130619805933E+00
 -0.138441179568E+00
 -0.177119886463E+00
 -0.183027586663E+00
 -0.226658322874E+00
 -0.222490474418E+00
 -0.265326148236E+00
 -0.265665157309E+00
 -0.278378478769E+00
 -0.284346949613E+00
 -0.256065621322E+00
 -0.267358617353E+00
 -0.221646098010E+00
 -0.237062903823E+00
 -0.185905264308E+00
 -0.204002542179E+00
 -0.138755507337E+00
 -0.157789202413E+00
 -0.661447470792E-01
 -0.840680621981E-01
  0.108376406209E+00
  0.963231684689E-01
  0.422517389068E+00
  0.420981331454E+00
  0.420981329767E+00
  0.422517387499E+00
  0.963231654680E-01
  0.108376403539E+00
 -0.840680651364E-01
 -0.661447497130E-01
 -0.157789205160E+00
 -0.138755509771E+00
 -0.204002544841E+00
 -0.185905266718E+00
 -0.237062906541E+00
 -0.221646100478E+00
 -0.267358620256E+00
 -0.256065623986E+00
 -0.284346952859E+00
 -0.278378481763E+00
 -0.265665160988E+00
 -0.265326151653E+00
 -0.222490478689E+00
 -0.226658326866E+00
 -0.183027591547E+00
 -0.177119891609E+00
 -0.138441185740E+00
 -0.130619812370E+00
 -0.954787932172E-01
 -0.863846206442E-01
 -0.561660034115E-01
 -0.467317586511E-01
 -0.199111295082E-01
 -0.116232979302E-01
  0.131817954211E-01
  0.192461243307E-01
  0.430987021458E-01
  0.470902402657E-01
  0.717995557473E-01
  0.743682411664E-01
  0.103260723077E+00
  0.104922674177E+00
  0.163278710477E+00
  0.164229652570E+00
  0.164736557720E+00
  0.163792269995E+00
  0.106096569110E+00
  0.104632308153E+00
  0.762110770828E-01
  0.741448643821E-01
  0.498975516424E-01
  0.469249423870E-01
  0.234786789504E-01
  0.191435740052E-01
 -0.551245174453E-02
 -0.116489266895E-01
 -0.388893104867E-01
 -0.466761920723E-01
 -0.779030558090E-01
 -0.862802449749E-01
 -0.122845225381E+00
 -0.130550502268E+00
 -0.171151952846E+00
 -0.177248058428E+00
 -0.224019315193E+00
 -0.219306205446E+00
 -0.266976045948E+00
 -0.266214587963E+00
 -0.284912085799E+00
 -0.289007327046E+00
 -0.267065921232E+00
 -0.275713845393E+00
 -0.236227026408E+00
 -0.248448832020E+00
 -0.203020051651E+00
 -0.217636719918E+00
 -0.157179179561E+00
 -0.172706686127E+00
 -0.845586353377E-01
 -0.992843388114E-01
  0.927751144645E-01
  0.827406985900E-01
  0.412936051561E+00
  0.411525291294E+00
  0.411525289393E+00
  0.412936049799E+00
  0.827406952267E-01
  0.927751114564E-01
 -0.992843420857E-01
 -0.845586382587E-01
 -0.172706689152E+00
 -0.157179182285E+00
 -0.217636722857E+00
 -0.203020054291E+00
 -0.248448834968E+00
 -0.236227029105E+00
 -0.275713848550E+00
 -0.267065924113E+00
 -0.289007330539E+00
 -0.284912089022E+00
 -0.266214591895E+00
 -0.266976049609E+00
 -0.219306209974E+00
 -0.224019319459E+00
 -0.177248063615E+00
 -0.171151958228E+00
 -0.130550508735E+00
 -0.122845231882E+00
 -0.862802530661E-01
 -0.779030634135E-01
 -0.466762017571E-01
 -0.388893186668E-01
 -0.116489371875E-01
 -0.551245948003E-02
  0.191435639282E-01
  0.234786729266E-01
  0.469249342641E-01
  0.498975486096E-01
  0.741448619875E-01
  0.762110773882E-01
  0.104632322460E+00
  0.106096571243E+00
  0.163792339355E+00
  0.164736555614E+00
  0.165328965488E+00
  0.164422194688E+00
  0.107188659621E+00
  0.105884624666E+00
  0.777688582151E-01
  0.760455611003E-01
  0.520995971970E-01
  0.497717897611E-01
  0.266211699013E-01
  0.233952640474E-01
 -0.104650819450E-02
 -0.554231209208E-02
 -0.328707641556E-01
 -0.388535918089E-01
 -0.707330701715E-01
 -0.778157866148E-01
 -0.115633246538E+00
 -0.122781088938E+00
 -0.165173623341E+00
 -0.171264625113E+00
 -0.220835277377E+00
 -0.215656126976E+00
 -0.267625478364E+00
 -0.265746167338E+00
 -0.289826116934E+00
 -0.292046853245E+00
 -0.275797571665E+00
 -0.281885889072E+00
 -0.248029067921E+00
 -0.257187380041E+00
 -0.217023721755E+00
 -0.228309506658E+00
 -0.172284805957E+00
 -0.184502384982E+00
 -0.995637383492E-01
 -0.111328286617E+00
  0.804706514135E-01
  0.723122061388E-01
  0.406401776132E+00
  0.405167433149E+00
  0.405167431009E+00
  0.406401774153E+00
  0.723122023937E-01
  0.804706480390E-01
 -0.111328290255E+00
 -0.995637416114E-01
 -0.184502388320E+00
 -0.172284808965E+00
 -0.228309509886E+00
 -0.217023724675E+00
 -0.257187383262E+00
 -0.248029070851E+00
 -0.281885892482E+00
 -0.275797574803E+00
 -0.292046856990E+00
 -0.289826120410E+00
 -0.265746171509E+00
 -0.267625482289E+00
 -0.215656131697E+00
 -0.220835281917E+00
 -0.171264630535E+00
 -0.165173628793E+00
 -0.122781095463E+00
 -0.115633252759E+00
 -0.778157942173E-01
 -0.707330768412E-01
 -0.388535999663E-01
 -0.328707707071E-01
 -0.554231981131E-02
 -0.104651415454E-02
  0.233952579801E-01
  0.266211640368E-01
  0.497717865119E-01
  0.520995891232E-01
  0.760455608473E-01
  0.777688429286E-01
  0.105884625866E+00
  0.107188625430E+00
  0.164422192310E+00
  0.165328876378E+00
  0.165953386048E+00
  0.165107903379E+00
  0.108191911627E+00
  0.107038011193E+00
  0.791068498202E-01
  0.776501301554E-01
  0.538813806454E-01
  0.520080401290E-01
  0.290347735301E-01
  0.265582394891E-01
  0.226602315879E-02
 -0.107327965945E-02
 -0.283931051094E-01
 -0.328505246304E-01
 -0.650934898978E-01
 -0.706679677855E-01
 -0.109433452616E+00
 -0.115576656451E+00
 -0.159520141083E+00
 -0.165259577568E+00
 -0.217107976689E+00
 -0.211719869957E+00
 -0.267192168430E+00
 -0.264351309810E+00
 -0.293058509584E+00
 -0.293549166307E+00
 -0.282284777211E+00
 -0.286006800411E+00
 -0.257128090221E+00
 -0.263463655390E+00
 -0.228023054996E+00
 -0.236229114603E+00
 -0.184257215852E+00
 -0.193400740213E+00
 -0.111462393220E+00
 -0.120458064537E+00
  0.710160017099E-01
  0.646534209890E-01
  0.402270249160E+00
  0.401254213010E+00
  0.401254210619E+00
  0.402270246946E+00
  0.646534168242E-01
  0.710159979498E-01
 -0.120458068577E+00
 -0.111462396851E+00
 -0.193400743893E+00
 -0.184257219178E+00
 -0.236229118122E+00
 -0.228023058210E+00
 -0.263463658880E+00
 -0.257128093429E+00
 -0.286006804070E+00
 -0.282284780610E+00
 -0.293549170279E+00
 -0.293058513325E+00
 -0.264351314159E+00
 -0.267192172614E+00
 -0.211719874736E+00
 -0.217107981451E+00
 -0.165259583055E+00
 -0.159520146373E+00
 -0.115576662683E+00
 -0.109433458263E+00
 -0.706679744431E-01
 -0.650934956061E-01
 -0.328505311626E-01
 -0.283931107935E-01
 -0.107328561950E-02
  0.226601689217E-02
  0.265582335894E-01
  0.290347653391E-01
  0.520080320420E-01
  0.538813691748E-01
  0.776501151380E-01
  0.791068341502E-01
  0.107037978321E+00
  0.108191890867E+00
  0.165107819755E+00
  0.165953359234E+00
  0.166569607072E+00
  0.165802116678E+00
  0.109098290818E+00
  0.108087918035E+00
  0.802565067342E-01
  0.790243620122E-01
  0.553434141874E-01
  0.538172070621E-01
  0.309284180486E-01
  0.289897857760E-01
  0.476751091315E-02
  0.224504243891E-02
 -0.250760311005E-01
 -0.283824469994E-01
 -0.608422998062E-01
 -0.650494395938E-01
 -0.104466878256E+00
 -0.109388797560E+00
 -0.154557841026E+00
 -0.159578500440E+00
 -0.213010982638E+00
 -0.207814393653E+00
 -0.265744719131E+00
 -0.262277668080E+00
 -0.294664118091E+00
 -0.293734703885E+00
 -0.286634095422E+00
 -0.288311064577E+00
 -0.263687303547E+00
 -0.267542627728E+00
 -0.236210142321E+00
 -0.241680782547E+00
 -0.193312638679E+00
 -0.199695564913E+00
 -0.120503991009E+00
 -0.126972992511E+00
  0.640745442488E-01
  0.593954717078E-01
  0.400018482046E+00
  0.399242440554E+00
  0.399242437899E+00
  0.400018479581E+00
  0.593954670791E-01
  0.640745400637E-01
 -0.126972996973E+00
 -0.120503995046E+00
 -0.199695568912E+00
 -0.193312642352E+00
 -0.241680786347E+00
 -0.236210145833E+00
 -0.267542631470E+00
 -0.263687307032E+00
 -0.288311068446E+00
 -0.286634099083E+00
 -0.293734708018E+00
 -0.294664122079E+00
 -0.262277672484E+00
 -0.265744723520E+00
 -0.207814398311E+00
 -0.213010987489E+00
 -0.159578505754E+00
 -0.154557845947E+00
 -0.109388803206E+00
 -0.104466883268E+00
 -0.650494452883E-01
 -0.608423048819E-01
 -0.283824526724E-01
 -0.250760365164E-01
  0.224503618042E-02
  0.476750477472E-02
  0.289897776348E-01
  0.309284111980E-01
  0.538171957713E-01
  0.553434070892E-01
  0.790243467198E-01
  0.802565001217E-01
  0.108087897729E+00
  0.109098286014E+00
  0.165802089356E+00
  0.166569607560E+00
  0.167149977140E+00
  0.166469127020E+00
  0.109901679599E+00
  0.109028693992E+00
  0.812387244919E-01
  0.802010132635E-01
  0.565475554216E-01
  0.552999770537E-01
  0.324317177883E-01
  0.308976073005E-01
  0.668362705154E-02
  0.475237282788E-02
 -0.226031639529E-01
 -0.250706258282E-01
 -0.576910390934E-01
 -0.608144262989E-01
 -0.100676035125E+00
 -0.104435769423E+00
 -0.150501952456E+00
 -0.154595293426E+00
 -0.208880833026E+00
 -0.204273153793E+00
 -0.263526907171E+00
 -0.259884653898E+00
 -0.294847771243E+00
 -0.292954928609E+00
 -0.289063524240E+00
 -0.289148509988E+00
 -0.267957726972E+00
 -0.269782923476E+00
 -0.241858713716E+00
 -0.245032602926E+00
 -0.199734523517E+00
 -0.203755242940E+00
 -0.126973931684E+00
 -0.131236983676E+00
  0.593128503325E-01
  0.561402358929E-01
  0.399177605059E+00
  0.398639350007E+00
  0.398639347087E+00
  0.399177602336E+00
  0.561402308528E-01
  0.593128456856E-01
 -0.131236988524E+00
 -0.126973936147E+00
 -0.203755247271E+00
 -0.199734527514E+00
 -0.245032606978E+00
 -0.241858717517E+00
 -0.269782927413E+00
 -0.267957730721E+00
 -0.289148513991E+00
 -0.289063528129E+00
 -0.292954932789E+00
 -0.294847775416E+00
 -0.259884658211E+00
 -0.263526911645E+00
 -0.204273158173E+00
 -0.208880837777E+00
 -0.154595298358E+00
 -0.150501956908E+00
 -0.104435774430E+00
 -0.100676039573E+00
 -0.608144313675E-01
 -0.576910435835E-01
 -0.250706312396E-01
 -0.226031685160E-01
  0.475236670432E-02
  0.668362256802E-02
  0.308976004851E-01
  0.324317136506E-01
  0.552999699832E-01
  0.565475517756E-01
  0.802010065838E-01
  0.812387214144E-01
  0.109028688841E+00
  0.109901677165E+00
  0.166469126290E+00
  0.167149975836E+00
  0.167677606917E+00
  0.167085336398E+00
  0.110601292486E+00
  0.109856517703E+00
  0.820707269099E-01
  0.812025064432E-01
  0.575384794616E-01
  0.565190460524E-01
  0.336314757488E-01
  0.324113302128E-01
  0.816603440200E-02
  0.667329386259E-02
 -0.207431220955E-01
 -0.226004654446E-01
 -0.553597986041E-01
 -0.576741100100E-01
 -0.978525536559E-01
 -0.100656500098E+00
 -0.147355188665E+00
 -0.150526425527E+00
 -0.205094164463E+00
 -0.201303502885E+00
 -0.260922696421E+00
 -0.257527251052E+00
 -0.293967901928E+00
 -0.291628641376E+00
 -0.289921241337E+00
 -0.288956101636E+00
 -0.270293589412E+00
 -0.270628097000E+00
 -0.245331208141E+00
 -0.246731258016E+00
 -0.203882878275E+00
 -0.206018487743E+00
 -0.131221151552E+00
 -0.133678512991E+00
  0.563672105459E-01
  0.544576202084E-01
  0.399318784233E+00
  0.398993940468E+00
  0.398993937295E+00
  0.399318781251E+00
  0.544576148046E-01
  0.563672054891E-01
 -0.133678518134E+00
 -0.131221156404E+00
 -0.206018492344E+00
 -0.203882882610E+00
 -0.246731262242E+00
 -0.245331212202E+00
 -0.270628101044E+00
 -0.270293593369E+00
 -0.288956105669E+00
 -0.289921245378E+00
 -0.291628645469E+00
 -0.293967906172E+00
 -0.257527255135E+00
 -0.260922700822E+00
 -0.201303506884E+00
 -0.205094168941E+00
 -0.150526429983E+00
 -0.147355192606E+00
 -0.100656504544E+00
 -0.978525574591E-01
 -0.576741144981E-01
 -0.553598022320E-01
 -0.226004700047E-01
 -0.207431254579E-01