# vtk DataFile Version 3.0
MachLine results file. Generated by MachLine, USU AeroLab (c) 2022.
ASCII
DATASET POLYDATA
POINTS                  36 float
  0.209237651825E+02  0.192375373840E+01  0.000000000000E+00
  0.190000000000E+02  0.000000000000E+00  0.000000000000E+00
  0.149895381174E+05  0.192375373840E+01  0.000000000000E+00
  0.149905000000E+05  0.000000000000E+00  0.000000000000E+00
  0.244703655243E+02  0.547033166885E+01  0.000000000000E+00
  0.209237651825E+02  0.192375373840E+01  0.000000000000E+00
  0.149877648172E+05  0.547033166885E+01  0.000000000000E+00
  0.149895381174E+05  0.192375373840E+01  0.000000000000E+00
  0.303820724487E+02  0.113820018768E+02  0.000000000000E+00
  0.244703655243E+02  0.547033166885E+01  0.000000000000E+00
  0.149848089638E+05  0.113820018768E+02  0.000000000000E+00
  0.149877648172E+05  0.547033166885E+01  0.000000000000E+00
  0.387563171387E+02  0.197561950684E+02  0.000000000000E+00
  0.303820724487E+02  0.113820018768E+02  0.000000000000E+00
  0.149806218414E+05  0.197561950684E+02  0.000000000000E+00
  0.149848089638E+05  0.113820018768E+02  0.000000000000E+00
  0.482439842224E+02  0.292438049316E+02  0.000000000000E+00
  0.387563171387E+02  0.197561950684E+02  0.000000000000E+00
  0.149758780079E+05  0.292438049316E+02  0.000000000000E+00
  0.149806218414E+05  0.197561950684E+02  0.000000000000E+00
  0.566182289124E+02  0.376179962158E+02  0.000000000000E+00
  0.482439842224E+02  0.292438049316E+02  0.000000000000E+00
  0.149716908855E+05  0.376179962158E+02  0.000000000000E+00
  0.149758780079E+05  0.292438049316E+02  0.000000000000E+00
  0.625299339294E+02  0.435296669006E+02  0.000000000000E+00
  0.566182289124E+02  0.376179962158E+02  0.000000000000E+00
  0.149687350330E+05  0.435296669006E+02  0.000000000000E+00
  0.149716908855E+05  0.376179962158E+02  0.000000000000E+00
  0.660765380859E+02  0.470762481689E+02  0.000000000000E+00
  0.625299339294E+02  0.435296669006E+02  0.000000000000E+00
  0.149669617310E+05  0.470762481689E+02  0.000000000000E+00
  0.149687350330E+05  0.435296669006E+02  0.000000000000E+00
  0.680002975464E+02  0.490000000000E+02  0.000000000000E+00
  0.660765380859E+02  0.470762481689E+02  0.000000000000E+00
  0.149659998512E+05  0.490000000000E+02  0.000000000000E+00
  0.149669617310E+05  0.470762481689E+02  0.000000000000E+00
POLYGONS                  18                  72
3                   0                   3                   1
3                   0                   2                   3
3                   4                   7                   5
3                   4                   6                   7
3                   8                  11                   9
3                   8                  10                  11
3                  12                  15                  13
3                  12                  14                  15
3                  16                  19                  17
3                  16                  18                  19
3                  20                  23                  21
3                  20                  22                  23
3                  24                  27                  25
3                  24                  26                  27
3                  28                  31                  29
3                  28                  30                  31
3                  32                  35                  33
3                  32                  34                  35
POINT_DATA                  36
SCALARS mu float 1
LOOKUP_TABLE default
  0.249666527452E-07
  0.690818069415E-09
  0.249666527452E-07
  0.690818069415E-09
 -0.744944372855E-08
  0.249666527452E-07
 -0.744944372855E-08
  0.249666527452E-07
  0.434147295891E-08
 -0.744944372855E-08
  0.434147295891E-08
 -0.744944372855E-08
 -0.265936250798E-08
  0.434147295891E-08
 -0.265936250798E-08
  0.434147295891E-08
  0.176441972144E-09
 -0.265936250798E-08
  0.176441972144E-09
 -0.265936250798E-08
 -0.226555130212E-08
  0.176441972144E-09
 -0.226555130212E-08
  0.176441972144E-09
 -0.275531419902E-08
 -0.226555130212E-08
 -0.275531419902E-08
 -0.226555130212E-08
  0.228682779380E-07
 -0.275531419902E-08
  0.228682779380E-07
 -0.275531419902E-08
  0.000000000000E+00
  0.228682779380E-07
  0.000000000000E+00
  0.228682779380E-07
