# vtk DataFile Version 3.0
MachLine results file. Generated by MachLine, USU AeroLab (c) 2022.
ASCII
DATASET POLYDATA
POINTS                 316 float
  0.000000000000E+00  0.000000000000E+00  0.000000000000E+00
  0.100000000000E+05  0.000000000000E+00  0.000000000000E+00
  0.473465979099E+00  0.000000000000E+00 -0.436293870211E+00
  0.100000000000E+05  0.000000000000E+00 -0.436293870211E+00
  0.473465979099E+00  0.000000000000E+00  0.436293870211E+00
  0.100000000000E+05  0.000000000000E+00  0.436293870211E+00
  0.757896304131E+00  0.757896304131E+00  0.000000000000E+00
  0.100000000000E+05  0.757896304131E+00  0.000000000000E+00
  0.123136246204E+01  0.757896304131E+00 -0.436293989420E+00
  0.100000000000E+05  0.757896304131E+00 -0.436293989420E+00
  0.123136246204E+01  0.757896304131E+00  0.436293989420E+00
  0.100000000000E+05  0.757896304131E+00  0.436293989420E+00
  0.157641971111E+01  0.000000000000E+00 -0.760520398617E+00
  0.100000000000E+05  0.000000000000E+00 -0.760520398617E+00
  0.157641971111E+01  0.000000000000E+00  0.760520398617E+00
  0.100000000000E+05  0.000000000000E+00  0.760520398617E+00
  0.342464399338E+01  0.000000000000E+00 -0.102348911762E+01
  0.100000000000E+05  0.000000000000E+00 -0.102348911762E+01
  0.474921894073E+01  0.317279767990E+01 -0.760521173477E+00
  0.100000000000E+05  0.317279767990E+01 -0.760521173477E+00
  0.474921894073E+01  0.317279767990E+01  0.760521173477E+00
  0.100000000000E+05  0.317279767990E+01  0.760521173477E+00
  0.499661636353E+01  0.499661636353E+01  0.000000000000E+00
  0.100000000000E+05  0.499661636353E+01  0.000000000000E+00
  0.521361970901E+01  0.178897356987E+01  0.102348971367E+01
  0.100000000000E+05  0.178897356987E+01  0.102348971367E+01
  0.547008323669E+01  0.499661636353E+01 -0.436294585466E+00
  0.100000000000E+05  0.499661636353E+01 -0.436294585466E+00
  0.547008323669E+01  0.499661636353E+01  0.436294585466E+00
  0.100000000000E+05  0.499661636353E+01  0.436294585466E+00
  0.611307668686E+01  0.000000000000E+00 -0.114008128643E+01
  0.100000000000E+05  0.000000000000E+00 -0.114008128643E+01
  0.611307668686E+01  0.000000000000E+00  0.114008128643E+01
  0.100000000000E+05  0.000000000000E+00  0.114008128643E+01
  0.657303857803E+01  0.499661636353E+01 -0.760521650314E+00
  0.100000000000E+05  0.499661636353E+01 -0.760521650314E+00
  0.101529865265E+02  0.757896304131E+00 -0.980746090412E+00
  0.100000000000E+05  0.757896304131E+00 -0.980746090412E+00
  0.101529865265E+02  0.757896304131E+00  0.980746090412E+00
  0.100000000000E+05  0.757896304131E+00  0.980746090412E+00
  0.107682771683E+02  0.734362459183E+01  0.102349150181E+01
  0.100000000000E+05  0.734362459183E+01  0.102349150181E+01
  0.111097030640E+02  0.499661636353E+01 -0.114008307457E+01
  0.100000000000E+05  0.499661636353E+01 -0.114008307457E+01
  0.118492631912E+02  0.102728376389E+02  0.760522902012E+00
  0.100000000000E+05  0.102728376389E+02  0.760522902012E+00
  0.125678949356E+02  0.317279767990E+01 -0.980746865273E+00
  0.100000000000E+05  0.317279767990E+01 -0.980746865273E+00
  0.136974935532E+02  0.102728376389E+02  0.102349245548E+01
  0.100000000000E+05  0.102728376389E+02  0.102349245548E+01
  0.144560117722E+02  0.178897356987E+01 -0.678053081036E+00
  0.100000000000E+05  0.178897356987E+01 -0.678053081036E+00
  0.144560117722E+02  0.178897356987E+01  0.678053081036E+00
  0.100000000000E+05  0.178897356987E+01  0.678053081036E+00
  0.153437566757E+02  0.000000000000E+00 -0.393031150103E+00
  0.100000000000E+05  0.000000000000E+00 -0.393031150103E+00
  0.153685483932E+02  0.137921218872E+02 -0.760523796082E+00
  0.100000000000E+05  0.137921218872E+02 -0.760523796082E+00
  0.153685483932E+02  0.137921218872E+02  0.760523796082E+00
  0.100000000000E+05  0.137921218872E+02  0.760523796082E+00
  0.158398418427E+02  0.317279767990E+01 -0.678053379059E+00
  0.100000000000E+05  0.317279767990E+01 -0.678053379059E+00
  0.158398418427E+02  0.317279767990E+01  0.678053379059E+00
  0.100000000000E+05  0.317279767990E+01  0.678053379059E+00
  0.161016559601E+02  0.757896304131E+00 -0.393031239510E+00
  0.100000000000E+05  0.757896304131E+00 -0.393031239510E+00
  0.161016559601E+02  0.757896304131E+00  0.393031239510E+00
  0.100000000000E+05  0.757896304131E+00  0.393031239510E+00
  0.183450412750E+02  0.000000000000E+00  0.698660761118E-01
  0.100000000000E+05  0.000000000000E+00  0.698660761118E-01
  0.185165691376E+02  0.317279767990E+01 -0.393031567335E+00
  0.100000000000E+05  0.317279767990E+01 -0.393031567335E+00
  0.190000000000E+02  0.000000000000E+00  0.000000000000E+00
  0.100000000000E+05  0.000000000000E+00  0.000000000000E+00
  0.191029415131E+02  0.757896304131E+00 -0.698660910130E-01
  0.100000000000E+05  0.757896304131E+00 -0.698660910130E-01
  0.191029415131E+02  0.757896304131E+00  0.698660910130E-01
  0.100000000000E+05  0.757896304131E+00  0.698660910130E-01
  0.197579002380E+02  0.757896304131E+00  0.000000000000E+00
  0.100000000000E+05  0.757896304131E+00  0.000000000000E+00
  0.199052257538E+02  0.137921218872E+02 -0.114008641243E+01
  0.100000000000E+05  0.137921218872E+02 -0.114008641243E+01
  0.203732471466E+02  0.317279767990E+01  0.192507073283E+00
  0.100000000000E+05  0.317279767990E+01  0.192507073283E+00
  0.207889842987E+02  0.178897356987E+01  0.000000000000E+00
  0.100000000000E+05  0.178897356987E+01  0.000000000000E+00
  0.221728172302E+02  0.317279767990E+01  0.000000000000E+00
  0.100000000000E+05  0.317279767990E+01  0.000000000000E+00
  0.221970767975E+02  0.499661636353E+01 -0.192507177591E+00
  0.100000000000E+05  0.499661636353E+01 -0.192507177591E+00
  0.221970767975E+02  0.499661636353E+01  0.192507177591E+00
  0.100000000000E+05  0.499661636353E+01  0.192507177591E+00
  0.226874179840E+02  0.734362459183E+01 -0.393032073975E+00
  0.100000000000E+05  0.734362459183E+01 -0.393032073975E+00
  0.226874179840E+02  0.734362459183E+01  0.393032073975E+00
  0.100000000000E+05  0.734362459183E+01  0.393032073975E+00
  0.227074012756E+02  0.222339305878E+02 -0.436297029257E+00
  0.100000000000E+05  0.222339305878E+02 -0.436297029257E+00
  0.227074012756E+02  0.222339305878E+02  0.436297029257E+00
  0.100000000000E+05  0.222339305878E+02  0.436297029257E+00
  0.229399108887E+02  0.102728376389E+02 -0.678054928780E+00
  0.100000000000E+05  0.102728376389E+02 -0.678054928780E+00
  0.229399108887E+02  0.102728376389E+02  0.678054928780E+00
  0.100000000000E+05  0.102728376389E+02  0.678054928780E+00
  0.239966468811E+02  0.499661636353E+01  0.000000000000E+00
  0.100000000000E+05  0.499661636353E+01  0.000000000000E+00
  0.263436698914E+02  0.734362459183E+01  0.000000000000E+00
  0.100000000000E+05  0.734362459183E+01  0.000000000000E+00
  0.264592094421E+02  0.137921218872E+02 -0.678055703640E+00
  0.100000000000E+05  0.137921218872E+02 -0.678055703640E+00
  0.264592094421E+02  0.137921218872E+02  0.678055703640E+00
  0.100000000000E+05  0.137921218872E+02  0.678055703640E+00
  0.272395381927E+02  0.267660694122E+02  0.436297655106E+00
  0.100000000000E+05  0.267660694122E+02  0.436297655106E+00
  0.274733276367E+02  0.102728376389E+02 -0.192507505417E+00
  0.100000000000E+05  0.102728376389E+02 -0.192507505417E+00
  0.283470516205E+02  0.222339305878E+02  0.114008951187E+01
  0.100000000000E+05  0.222339305878E+02  0.114008951187E+01
  0.286179389954E+02  0.102728376389E+02 -0.698663070798E-01
  0.100000000000E+05  0.102728376389E+02 -0.698663070798E-01
  0.292729015350E+02  0.102728376389E+02  0.000000000000E+00
  0.100000000000E+05  0.102728376389E+02  0.000000000000E+00
  0.309926300049E+02  0.137921218872E+02 -0.192507728934E+00
  0.100000000000E+05  0.137921218872E+02 -0.192507728934E+00
  0.316414642334E+02  0.311679935455E+02  0.436298280954E+00
  0.100000000000E+05  0.311679935455E+02  0.436298280954E+00
  0.321372451782E+02  0.137921218872E+02 -0.698663890362E-01
  0.100000000000E+05  0.137921218872E+02 -0.698663890362E-01
  0.321372451782E+02  0.137921218872E+02  0.698663890362E-01
  0.100000000000E+05  0.137921218872E+02  0.698663890362E-01
  0.327444305420E+02  0.311679935455E+02  0.760528087616E+00
  0.100000000000E+05  0.311679935455E+02  0.760528087616E+00
  0.327922058105E+02  0.137921218872E+02  0.000000000000E+00
  0.100000000000E+05  0.137921218872E+02  0.000000000000E+00
  0.328791961670E+02  0.267660694122E+02 -0.114009118080E+01
  0.100000000000E+05  0.267660694122E+02 -0.114009118080E+01
  0.328791961670E+02  0.267660694122E+02  0.114009118080E+01
  0.100000000000E+05  0.267660694122E+02  0.114009118080E+01
  0.331758499146E+02  0.178320064545E+02 -0.393033415079E+00
  0.100000000000E+05  0.178320064545E+02 -0.393033415079E+00
  0.331758499146E+02  0.178320064545E+02  0.393033415079E+00
  0.100000000000E+05  0.178320064545E+02  0.393033415079E+00
  0.368321151733E+02  0.178320064545E+02  0.000000000000E+00
  0.100000000000E+05  0.178320064545E+02  0.000000000000E+00
  0.375777969360E+02  0.222339305878E+02 -0.393033981323E+00
  0.100000000000E+05  0.222339305878E+02 -0.393033981323E+00
  0.375777969360E+02  0.222339305878E+02  0.393033981323E+00
  0.100000000000E+05  0.222339305878E+02  0.393033981323E+00
  0.392006340027E+02  0.387271614075E+02  0.436299353838E+00
  0.100000000000E+05  0.387271614075E+02  0.436299353838E+00
  0.394332084656E+02  0.267660694122E+02 -0.678058564663E+00
  0.100000000000E+05  0.267660694122E+02 -0.678058564663E+00
  0.403036003113E+02  0.387271614075E+02  0.760529935360E+00
  0.100000000000E+05  0.387271614075E+02  0.760529935360E+00
  0.405631752014E+02  0.311679935455E+02 -0.980755746365E+00
  0.100000000000E+05  0.311679935455E+02 -0.980755746365E+00
  0.412340698242E+02  0.222339305878E+02  0.000000000000E+00
  0.100000000000E+05  0.222339305878E+02  0.000000000000E+00
  0.421099586487E+02  0.267660694122E+02  0.393034547567E+00
  0.100000000000E+05  0.267660694122E+02  0.393034547567E+00
  0.432328147888E+02  0.416563758850E+02  0.760530650616E+00
[...]
CELL_DATA                  38
NORMALS normals float
  0.000000000000E+00  0.000000000000E+00 -0.100000000000E+01
 -0.000000000000E+00 -0.000000000000E+00 -0.100000000000E+01
  0.000000000000E+00  0.000000000000E+00 -0.100000000000E+01
 -0.000000000000E+00 -0.000000000000E+00 -0.100000000000E+01
  0.000000000000E+00  0.000000000000E+00 -0.100000000000E+01
 -0.000000000000E+00 -0.000000000000E+00 -0.100000000000E+01
  0.000000000000E+00  0.000000000000E+00 -0.100000000000E+01
 -0.000000000000E+00 -0.000000000000E+00 -0.100000000000E+01
  0.000000000000E+00  0.000000000000E+00 -0.100000000000E+01
 -0.000000000000E+00 -0.000000000000E+00 -0.100000000000E+01
  0.000000000000E+00  0.000000000000E+00 -0.100000000000E+01
 -0.000000000000E+00 -0.000000000000E+00 -0.100000000000E+01
  0.000000000000E+00  0.000000000000E+00 -0.100000000000E+01
 -0.000000000000E+00 -0.000000000000E+00 -0.100000000000E+01
  0.000000000000E+00  0.000000000000E+00 -0.100000000000E+01
 -0.000000000000E+00 -0.000000000000E+00 -0.100000000000E+01
  0.000000000000E+00  0.000000000000E+00 -0.100000000000E+01
 -0.000000000000E+00 -0.000000000000E+00 -0.100000000000E+01
  0.000000000000E+00  0.000000000000E+00 -0.100000000000E+01
 -0.000000000000E+00 -0.000000000000E+00 -0.100000000000E+01
  0.000000000000E+00  0.000000000000E+00 -0.100000000000E+01
 -0.000000000000E+00 -0.000000000000E+00 -0.100000000000E+01
  0.000000000000E+00  0.000000000000E+00 -0.100000000000E+01
 -0.000000000000E+00 -0.000000000000E+00 -0.100000000000E+01
  0.000000000000E+00  0.000000000000E+00 -0.100000000000E+01
 -0.000000000000E+00 -0.000000000000E+00 -0.100000000000E+01
  0.000000000000E+00  0.000000000000E+00 -0.100000000000E+01
 -0.000000000000E+00 -0.000000000000E+00 -0.100000000000E+01
  0.000000000000E+00  0.000000000000E+00 -0.100000000000E+01
 -0.000000000000E+00 -0.000000000000E+00 -0.100000000000E+01
  0.000000000000E+00  0.000000000000E+00 -0.100000000000E+01
 -0.000000000000E+00 -0.000000000000E+00 -0.100000000000E+01
  0.000000000000E+00  0.000000000000E+00 -0.100000000000E+01
 -0.000000000000E+00 -0.000000000000E+00 -0.100000000000E+01
  0.000000000000E+00  0.000000000000E+00 -0.100000000000E+01
 -0.000000000000E+00 -0.000000000000E+00 -0.100000000000E+01
  0.000000000000E+00  0.000000000000E+00 -0.100000000000E+01
 -0.000000000000E+00 -0.000000000000E+00 -0.100000000000E+01
POINT_DATA                 316
SCALARS mu float 1
LOOKUP_TABLE default
  0.000000000000E+00
  0.000000000000E+00
  0.000000000000E+00
  0.000000000000E+00
  0.000000000000E+00
  0.000000000000E+00
  0.000000000000E+00
  0.000000000000E+00
  0.000000000000E+00
  0.000000000000E+00
  0.000000000000E+00
  0.000000000000E+00
  0.000000000000E+00
  0.000000000000E+00
  0.000000000000E+00
  0.000000000000E+00
  0.000000000000E+00
  0.000000000000E+00
  0.000000000000E+00
  0.000000000000E+00
  0.000000000000E+00
  0.000000000000E+00
  0.000000000000E+00
  0.000000000000E+00
  0.000000000000E+00
  0.000000000000E+00
  0.000000000000E+00
  0.000000000000E+00
  0.000000000000E+00
  0.000000000000E+00
  0.000000000000E+00
  0.000000000000E+00
  0.000000000000E+00
  0.000000000000E+00
  0.000000000000E+00
  0.000000000000E+00
  0.000000000000E+00
  0.000000000000E+00
  0.000000000000E+00
  0.000000000000E+00
  0.000000000000E+00
  0.000000000000E+00
  0.000000000000E+00
  0.000000000000E+00
  0.000000000000E+00
  0.000000000000E+00
  0.000000000000E+00
  0.000000000000E+00
  0.000000000000E+00
  0.000000000000E+00
  0.000000000000E+00
  0.000000000000E+00
  0.000000000000E+00
  0.000000000000E+00
  0.000000000000E+00
  0.000000000000E+00
  0.000000000000E+00
  0.000000000000E+00
  0.000000000000E+00
  0.000000000000E+00
  0.000000000000E+00
  0.000000000000E+00
  0.000000000000E+00
  0.000000000000E+00
  0.000000000000E+00
  0.000000000000E+00
  0.000000000000E+00
  0.000000000000E+00
  0.000000000000E+00
  0.000000000000E+00
  0.000000000000E+00
  0.000000000000E+00
 -0.969262656803E-07
 -0.969262656803E-07
  0.000000000000E+00
  0.000000000000E+00
  0.000000000000E+00
  0.000000000000E+00
 -0.451020020220E-07
 -0.451020020220E-07
  0.000000000000E+00
  0.000000000000E+00
  0.000000000000E+00
  0.000000000000E+00
 -0.978781206085E-08
 -0.978781206085E-08
  0.629175767042E-08
  0.629175767042E-08
  0.000000000000E+00
  0.000000000000E+00
  0.000000000000E+00
  0.000000000000E+00
  0.000000000000E+00
  0.000000000000E+00
  0.000000000000E+00
  0.000000000000E+00
  0.000000000000E+00
  0.000000000000E+00
  0.000000000000E+00
  0.000000000000E+00
  0.000000000000E+00
  0.000000000000E+00
  0.000000000000E+00
  0.000000000000E+00
  0.135281554847E-07
  0.135281554847E-07
  0.938736227640E-08
  0.938736227640E-08
  0.000000000000E+00
  0.000000000000E+00
  0.000000000000E+00
  0.000000000000E+00
  0.000000000000E+00
  0.000000000000E+00
  0.000000000000E+00
  0.000000000000E+00
  0.000000000000E+00
  0.000000000000E+00
  0.000000000000E+00
  0.000000000000E+00
  0.103019874298E-07
  0.103019874298E-07
  0.000000000000E+00
  0.000000000000E+00
  0.000000000000E+00
  0.000000000000E+00
  0.000000000000E+00
  0.000000000000E+00
  0.000000000000E+00
  0.000000000000E+00
  0.000000000000E+00
  0.000000000000E+00
  0.230628804943E-08
  0.230628804943E-08
  0.000000000000E+00
  0.000000000000E+00
  0.000000000000E+00
  0.000000000000E+00
  0.000000000000E+00
  0.000000000000E+00
  0.000000000000E+00
  0.000000000000E+00
  0.361274704597E-08
  0.361274704597E-08
  0.000000000000E+00
  0.000000000000E+00
  0.000000000000E+00
  0.000000000000E+00
  0.000000000000E+00
  0.000000000000E+00
  0.000000000000E+00
  0.000000000000E+00
  0.000000000000E+00
  0.000000000000E+00
  0.000000000000E+00
  0.000000000000E+00
  0.157369658971E-07
  0.157369658971E-07
  0.000000000000E+00
  0.000000000000E+00
  0.000000000000E+00
  0.000000000000E+00
  0.000000000000E+00
  0.000000000000E+00
  0.000000000000E+00
  0.000000000000E+00
  0.000000000000E+00
  0.000000000000E+00
  0.000000000000E+00
  0.000000000000E+00
  0.000000000000E+00
  0.000000000000E+00
  0.000000000000E+00
  0.000000000000E+00
  0.000000000000E+00
  0.000000000000E+00
  0.000000000000E+00
  0.000000000000E+00
 -0.102775248312E-07
 -0.102775248312E-07
  0.000000000000E+00
  0.000000000000E+00
  0.000000000000E+00
  0.000000000000E+00
  0.000000000000E+00
  0.000000000000E+00
  0.000000000000E+00
  0.000000000000E+00
  0.000000000000E+00
  0.000000000000E+00
  0.000000000000E+00
  0.000000000000E+00
  0.000000000000E+00
  0.000000000000E+00
  0.000000000000E+00
  0.000000000000E+00
  0.000000000000E+00
  0.000000000000E+00
  0.000000000000E+00
  0.000000000000E+00
  0.000000000000E+00
  0.000000000000E+00
  0.000000000000E+00
  0.000000000000E+00
 -0.295851802501E-07
 -0.295851802501E-07
  0.000000000000E+00
  0.000000000000E+00
  0.000000000000E+00
  0.000000000000E+00
  0.000000000000E+00
  0.000000000000E+00
  0.000000000000E+00
  0.000000000000E+00
  0.000000000000E+00
  0.000000000000E+00
  0.000000000000E+00
  0.000000000000E+00
  0.000000000000E+00
  0.000000000000E+00
  0.000000000000E+00
  0.000000000000E+00
 -0.378190653239E-07
 -0.378190653239E-07
  0.000000000000E+00
  0.000000000000E+00
  0.000000000000E+00
  0.000000000000E+00
  0.000000000000E+00
  0.000000000000E+00
  0.000000000000E+00
  0.000000000000E+00
  0.000000000000E+00
  0.000000000000E+00
  0.000000000000E+00
  0.000000000000E+00
  0.000000000000E+00
  0.000000000000E+00
  0.000000000000E+00
  0.000000000000E+00
 -0.492659377183E-07
 -0.492659377183E-07
  0.000000000000E+00
  0.000000000000E+00
  0.000000000000E+00
  0.000000000000E+00
  0.000000000000E+00
  0.000000000000E+00
  0.000000000000E+00
  0.000000000000E+00
 -0.366236808103E-07
 -0.366236808103E-07
  0.000000000000E+00
  0.000000000000E+00
  0.000000000000E+00
  0.000000000000E+00
  0.000000000000E+00
  0.000000000000E+00
  0.000000000000E+00
  0.000000000000E+00
  0.000000000000E+00
  0.000000000000E+00
  0.000000000000E+00
  0.000000000000E+00
 -0.250132488611E-07
 -0.250132488611E-07
  0.000000000000E+00
  0.000000000000E+00
  0.000000000000E+00
  0.000000000000E+00
  0.000000000000E+00
  0.000000000000E+00
  0.000000000000E+00
  0.000000000000E+00
  0.000000000000E+00
  0.000000000000E+00
  0.000000000000E+00
  0.000000000000E+00
 -0.122291203275E-07
 -0.122291203275E-07
 -0.354233048450E-08
 -0.354233048450E-08
  0.000000000000E+00
  0.000000000000E+00
  0.000000000000E+00
  0.000000000000E+00
  0.000000000000E+00
  0.000000000000E+00
  0.829847301986E-10
  0.829847301986E-10
  0.000000000000E+00
  0.000000000000E+00
  0.000000000000E+00
  0.000000000000E+00
  0.000000000000E+00
  0.000000000000E+00
  0.451020020220E-07
  0.451020020220E-07
 -0.230628804943E-08
 -0.230628804943E-08
 -0.361274704597E-08
 -0.361274704597E-08
 -0.157369658971E-07
 -0.157369658971E-07
  0.295851802501E-07
  0.295851802501E-07
  0.378190653239E-07
  0.378190653239E-07
  0.492659377183E-07
  0.492659377183E-07
  0.366236808103E-07
  0.366236808103E-07
  0.250132488611E-07
  0.250132488611E-07
  0.122291203275E-07
  0.122291203275E-07
