# vtk DataFile Version 3.0
MachLine results file. Generated by MachLine, USU AeroLab (c) 2022.
ASCII
DATASET POLYDATA
POINTS                 144 float
  0.312930634121E-04  0.000000000000E+00  0.424659676379E-20
  0.113539630578E+01  0.000000000000E+00 -0.658089923452E+00
  0.113539630578E+01  0.000000000000E+00  0.658089923452E+00
  0.192378249374E+01  0.192372498306E+01 -0.238022826724E-19
  0.305914835645E+01  0.192374081896E+01 -0.658086193634E+00
  0.305914835645E+01  0.192374081896E+01  0.658086193634E+00
  0.423028596857E+01  0.000000000000E+00 -0.108742034072E+01
  0.423028596857E+01  0.000000000000E+00  0.108742034072E+01
  0.547037632114E+01  0.547028701656E+01  0.264007203219E-19
  0.615404028205E+01  0.192375045511E+01 -0.108741647537E+01
  0.615404028205E+01  0.192375045511E+01  0.108741647537E+01
  0.660573385881E+01  0.547031260802E+01 -0.658068469811E+00
  0.660573385881E+01  0.547031260802E+01  0.658068469811E+00
  0.939508647016E+01  0.000000000000E+00 -0.980702500737E+00
  0.939508647016E+01  0.000000000000E+00  0.980702500737E+00
  0.970062414602E+01  0.547032722042E+01 -0.108739780002E+01
  0.970062414602E+01  0.547032722042E+01  0.108739780002E+01
  0.113188445158E+02  0.192375687882E+01 -0.980693094219E+00
  0.113188445158E+02  0.192375687882E+01  0.980693094219E+00
  0.113820643673E+02  0.113819393863E+02  0.295580653686E-19
  0.125174139439E+02  0.113819753230E+02 -0.658047284008E+00
  0.125174139439E+02  0.113819753230E+02  0.658047284008E+00
  0.145401992062E+02  0.000000000000E+00 -0.479574161980E+00
  0.145401992062E+02  0.000000000000E+00  0.479574161980E+00
  0.148654325708E+02  0.547033565208E+01 -0.980679907908E+00
  0.148654325708E+02  0.547033565208E+01  0.980679907908E+00
  0.156123048447E+02  0.113819959977E+02 -0.108737528443E+01
  0.156123048447E+02  0.113819959977E+02  0.108737528443E+01
  0.164639622288E+02  0.192375787923E+01 -0.479572980793E+00
  0.164639622288E+02  0.192375787923E+01  0.479572980793E+00
  0.176505079449E+02  0.000000000000E+00 -0.144172424982E+00
  0.176505079449E+02  0.000000000000E+00  0.144172424982E+00
  0.189999786025E+02  0.178704649362E-06 -0.622148110504E-05
  0.195742705951E+02  0.192375720641E+01 -0.144166632792E+00
  0.195742705951E+02  0.192375720641E+01  0.144166632792E+00
  0.197562681851E+02  0.197561219516E+02  0.864606909228E-20
  0.200105551723E+02  0.547033748596E+01 -0.479557181615E+00
  0.200105551723E+02  0.547033748596E+01  0.479557181615E+00
  0.207771191273E+02  0.113820071544E+02 -0.980659764437E+00
  0.207771191273E+02  0.113820071544E+02  0.980659764437E+00
  0.208916146114E+02  0.197561629460E+02 -0.658032293237E+00
  0.208916146114E+02  0.197561629460E+02  0.658032293237E+00
  0.209237408808E+02  0.192377804024E+01 -0.259659391675E-05
  0.231208669354E+02  0.547033723104E+01 -0.144147288307E+00
  0.231208669354E+02  0.547033723104E+01  0.144147288307E+00
  0.239865086400E+02  0.197561881221E+02 -0.108735995859E+01
  0.239865086400E+02  0.197561881221E+02  0.108735995859E+01
  0.244703254153E+02  0.547037177807E+01 -0.428557256804E-05
  0.259222501778E+02  0.113820100762E+02 -0.479534889879E+00
  0.259222501778E+02  0.113820100762E+02  0.479534889879E+00
  0.290325693319E+02  0.113820100595E+02 -0.144123159709E+00
  0.290325693319E+02  0.113820100595E+02  0.144123159709E+00
  0.291513358854E+02  0.197562015750E+02 -0.980641566995E+00
  0.291513358854E+02  0.197562015750E+02  0.980641566995E+00
  0.292438739780E+02  0.292437358852E+02 -0.517101468354E-19
  0.303792302038E+02  0.292437728021E+02 -0.658034298369E+00
  0.303792302038E+02  0.292437728021E+02  0.658034298369E+00
  0.303820145622E+02  0.113820597637E+02 -0.618507161363E-05
  0.334741318570E+02  0.292437979831E+02 -0.108736325854E+01
  0.334741318570E+02  0.292437979831E+02  0.108736325854E+01
  0.342964796805E+02  0.197562051036E+02 -0.479518310694E+00
  0.342964796805E+02  0.197562051036E+02  0.479518310694E+00
  0.374068082499E+02  0.197562052085E+02 -0.144105313513E+00
  0.374068082499E+02  0.197562052085E+02  0.144105313513E+00
  0.376180497188E+02  0.376179427128E+02  0.569406666915E-19
  0.386389740370E+02  0.292438117601E+02 -0.980639078250E+00
  0.386389740370E+02  0.292438117601E+02  0.980639078250E+00
  0.387534178424E+02  0.376179696393E+02 -0.658052759194E+00
  0.387534178424E+02  0.376179696393E+02  0.658052759194E+00
  0.387562486579E+02  0.197562635496E+02 -0.731705144577E-05
  0.418483373371E+02  0.376179903301E+02 -0.108738447037E+01
  0.418483373371E+02  0.376179903301E+02  0.108738447037E+01
  0.435297029672E+02  0.435296308340E+02 -0.298542324942E-19
  0.437841353047E+02  0.292438149822E+02 -0.479519620833E+00
  0.437841353047E+02  0.292438149822E+02  0.479519620833E+00
  0.446650848654E+02  0.435296478006E+02 -0.658076458318E+00
  0.446650848654E+02  0.435296478006E+02  0.658076458318E+00
  0.468944715132E+02  0.292438150774E+02 -0.144105707172E+00
  0.468944715132E+02  0.292438150774E+02  0.144105707172E+00
  0.470131928898E+02  0.376180021786E+02 -0.980656468792E+00
  0.470131928898E+02  0.376180021786E+02  0.980656468792E+00
  0.470762711240E+02  0.470762252138E+02  0.904813519556E-21
  0.477600142238E+02  0.435296624425E+02 -0.108741098466E+01
  0.477600142238E+02  0.435296624425E+02  0.108741098466E+01
  0.482116561870E+02  0.470762352009E+02 -0.658095644395E+00
  0.482116561870E+02  0.470762352009E+02  0.658095644395E+00
  0.482439197986E+02  0.292438693558E+02 -0.688357516856E-05
  0.490000125074E+02  0.489999848466E+02  0.705049352008E-21
  0.501354065848E+02  0.489999880996E+02 -0.658110463363E+00
  0.501354065848E+02  0.489999880996E+02  0.658110463363E+00
  0.506007779673E+02  0.494653528978E+02 -0.465358463063E+00
  0.506007779673E+02  0.494653528978E+02  0.465358463063E+00
  0.507935369829E+02  0.496581168526E+02 -0.771256526820E-15
  0.513065943267E+02  0.470762448761E+02 -0.108743228644E+01
  0.513065943267E+02  0.470762448761E+02  0.108743228644E+01
  0.521583703386E+02  0.376180044784E+02 -0.479538356774E+00
  0.521583703386E+02  0.376180044784E+02  0.479538356774E+00
  0.529248840674E+02  0.435296714441E+02 -0.980682430110E+00
  0.529248840674E+02  0.435296714441E+02  0.980682430110E+00
  0.532303489278E+02  0.489999897291E+02 -0.108744768281E+01
  0.532303489278E+02  0.489999897291E+02  0.108744768281E+01
  0.539993225358E+02  0.497689442159E+02 -0.768945953654E+00
  0.539993225358E+02  0.497689442159E+02  0.768945953654E+00
  0.543178416669E+02  0.500874571240E+02 -0.157374803890E-15
  0.552687143289E+02  0.376180044211E+02 -0.144124171041E+00
  0.552687143289E+02  0.376180044211E+02  0.144124171041E+00
  0.564714741318E+02  0.470762515457E+02 -0.980703384050E+00
  0.564714741318E+02  0.470762515457E+02  0.980703384050E+00
  0.566181799779E+02  0.376180451506E+02 -0.522856387849E-05
  0.580700700039E+02  0.435296728856E+02 -0.479561446547E+00
  0.580700700039E+02  0.435296728856E+02  0.479561446547E+00
  0.583952342332E+02  0.489999935886E+02 -0.980715660722E+00
  0.583952342332E+02  0.489999935886E+02  0.980715660722E+00
  0.590887386007E+02  0.496934769143E+02 -0.693473294588E+00
  0.590887386007E+02  0.496934769143E+02  0.693473294588E+00
  0.593759962870E+02  0.499807195163E+02 -0.214909537502E-19
  0.611804219244E+02  0.435296725276E+02 -0.144148458102E+00
  0.611804219244E+02  0.435296725276E+02  0.144148458102E+00
  0.616166681578E+02  0.470762525270E+02 -0.479577866536E+00
  0.616166681578E+02  0.470762525270E+02  0.479577866536E+00
  0.625299023373E+02  0.435296984929E+02 -0.337557255592E-05
  0.635404285640E+02  0.489999966712E+02 -0.479587400370E+00
  0.635404285640E+02  0.489999966712E+02  0.479587400370E+00
  0.638795744101E+02  0.493391226778E+02 -0.339121160129E+00
  0.638795744101E+02  0.493391226778E+02  0.339121160129E+00
  0.640200547759E+02  0.494795968034E+02  0.296955773617E-15
  0.647270242582E+02  0.470762518038E+02 -0.144167179153E+00
  0.647270242582E+02  0.470762518038E+02  0.144167179153E+00
  0.660765193728E+02  0.470762668821E+02 -0.199945523920E-05
  0.666507849833E+02  0.489999978859E+02 -0.144179063955E+00
  0.666507849833E+02  0.489999978859E+02  0.144179063955E+00
  0.667527523943E+02  0.491019565510E+02 -0.101953782213E+00
  0.667527523943E+02  0.491019565510E+02  0.101953782213E+00
  0.667949891471E+02  0.491441877799E+02 -0.260470437772E-16
  0.680002811301E+02  0.489999964562E+02 -0.816265379839E-19
  0.189999786025E+02  0.178704649362E-06  0.622148110504E-05
  0.209237408808E+02  0.192377804024E+01  0.259659391675E-05
  0.244703254153E+02  0.547037177807E+01  0.428557256804E-05
  0.303820145622E+02  0.113820597637E+02  0.618507161363E-05
  0.387562486579E+02  0.197562635496E+02  0.731705144577E-05
  0.482439197986E+02  0.292438693558E+02  0.688357516856E-05
  0.566181799779E+02  0.376180451506E+02  0.522856387849E-05
  0.625299023373E+02  0.435296984929E+02  0.337557255592E-05
  0.660765193728E+02  0.470762668821E+02  0.199945523920E-05
VERTICES                 144                 288
1                   0
1                   1
1                   2
1                   3
1                   4
1                   5
1                   6
1                   7
1                   8
1                   9
1                  10
1                  11
1                  12
1                  13
1                  14
1                  15
1                  16
1                  17
1                  18
1                  19
1                  20
1                  21
1                  22
1                  23
1                  24
1                  25
1                  26
1                  27
1                  28
1                  29
1                  30
1                  31
1                  32
1                  33
1                  34
1                  35
1                  36
1                  37
1                  38
1                  39
1                  40
1                  41
1                  42
1                  43
1                  44
1                  45
1                  46
1                  47
1                  48
1                  49
1                  50
1                  51
1                  52
1                  53
1                  54
1                  55
1                  56
1                  57
1                  58
1                  59
1                  60
1                  61
1                  62
1                  63
1                  64
1                  65
1                  66
1                  67
1                  68
1                  69
1                  70
1                  71
1                  72
1                  73
1                  74
1                  75
1                  76
1                  77
1                  78
1                  79
1                  80
1                  81
1                  82
1                  83
1                  84
1                  85
1                  86
1                  87
1                  88
1                  89
1                  90
1                  91
1                  92
1                  93
1                  94
1                  95
1                  96
1                  97
1                  98
1                  99
1                 100
1                 101
1                 102
1                 103
1                 104
1                 105
1                 106
1                 107
1                 108
1                 109
1                 110
1                 111
1                 112
1                 113
1                 114
1                 115
1                 116
1                 117
1                 118
1                 119
1                 120
1                 121
1                 122
1                 123
1                 124
1                 125
1                 126
1                 127
1                 128
1                 129
1                 130
1                 131
1                 132
1                 133
1                 134
1                 135
1                 136
1                 137
1                 138
1                 139
1                 140
1                 141
1                 142
1                 143
POINT_DATA                 144
SCALARS BC_type int 1
LOOKUP_TABLE default
           2
           2
           2
           2
           2
           2
           2
           2
           2
           2
           2
           2
           2
           2
           2
           2
           2
           2
           2
           2
           2
           2
           2
           2
           2
           2
           2
           2
           2
           2
           2
           2
           2
           2
           2
           2
           2
           2
           2
           2
           2
           2
           2
           2
           2
           2
           2
           2
           2
           2
           2
           2
           2
           2
           2
           2
           2
           2
           2
           2
           2
           2
           2
           2
           2
           2
           2
           2
           2
           2
           2
           2
           2
           2
           2
           2
           2
           2
           2
           2
           2
           2
           2
           2
           2
           2
           2
           2
           2
           2
           2
           2
           2
           2
           2
           2
           2
           2
           2
           2
           2
           2
           2
           2
           2
           2
           2
           2
           2
           2
           2
           2
           2
           2
           2
           2
           2
           2
           2
           2
           2
           2
           2
           2
           2
           2
           2
           2
           2
           2
           2
           2
           2
           2
           2
           2
           2
           2
           2
           2
           2
           2
           2
           2
SCALARS residual float 1
LOOKUP_TABLE default
  0.602470818459E-15
 -0.122124532709E-13
  0.754951656745E-14
 -0.173194791842E-13
 -0.222044604925E-13
  0.275335310107E-13
 -0.239808173319E-13
  0.524025267623E-13
  0.204281036531E-13
 -0.257571741713E-13
  0.506261699229E-13
 -0.506261699229E-13
  0.355271367880E-14
  0.142108547152E-13
 -0.888178419700E-14
 -0.444089209850E-13
  0.355271367880E-13
  0.142108547152E-13
 -0.213162820728E-13
  0.177635683940E-13
 -0.230926389122E-13
  0.355271367880E-14
 -0.195399252334E-13
 -0.355271367880E-13
 -0.195399252334E-13
 -0.177635683940E-13
  0.106581410364E-13
  0.479616346638E-13
  0.390798504668E-13
  0.355271367880E-14
  0.106581410364E-13
  0.177635683940E-13
 -0.603961325396E-13
  0.355271367880E-13
  0.106581410364E-13
  0.106581410364E-12
 -0.675015598972E-13
  0.710542735760E-14
  0.817124146124E-13
  0.142108547152E-13
  0.248689957516E-13
  0.000000000000E+00
 -0.426325641456E-13
 -0.142108547152E-13
 -0.177635683940E-13
  0.284217094304E-13
 -0.390798504668E-13
  0.390798504668E-13
 -0.461852778244E-13
  0.355271367880E-13
 -0.461852778244E-13
  0.355271367880E-14
 -0.248689957516E-13
  0.355271367880E-14
  0.568434188608E-13
  0.213162820728E-13
  0.142108547152E-13
  0.355271367880E-13
  0.213162820728E-13
  0.355271367880E-13
  0.142108547152E-12
  0.142108547152E-13
  0.710542735760E-13
 -0.710542735760E-13
  0.142108547152E-13
  0.710542735760E-14
  0.710542735760E-13
  0.142108547152E-13
  0.142108547152E-13
  0.142108547152E-13
 -0.852651282912E-13
 -0.213162820728E-13
  0.497379915032E-13
  0.213162820728E-13
 -0.284217094304E-13
  0.284217094304E-13
 -0.426325641456E-13
  0.710542735760E-13
  0.639488462184E-13
 -0.426325641456E-13
  0.710542735760E-14
 -0.710542735760E-14
  0.106581410364E-12
 -0.710542735760E-14
  0.284217094304E-13
 -0.142108547152E-13
 -0.213162820728E-13
  0.355271367880E-13
 -0.710542735760E-14
 -0.497379915032E-13
  0.426325641456E-13
 -0.213162820728E-13
 -0.213162820728E-13
  0.568434188608E-13
 -0.710542735760E-14
  0.142108547152E-13
  0.213162820728E-13
  0.710542735760E-14
  0.284217094304E-13
 -0.710542735760E-14
 -0.142108547152E-13
 -0.142108547152E-13
 -0.142108547152E-13
  0.284217094304E-13
  0.213162820728E-13
  0.000000000000E+00
  0.213162820728E-13
  0.142108547152E-13
  0.355271367880E-13
  0.568434188608E-13
 -0.213162820728E-13
 -0.497379915032E-13
  0.284217094304E-13
 -0.710542735760E-14
  0.355271367880E-13
 -0.710542735760E-14
  0.710542735760E-14
  0.000000000000E+00
 -0.710542735760E-13
  0.142108547152E-13
  0.284217094304E-13
  0.710542735760E-13
  0.426325641456E-13
  0.426325641456E-13
 -0.142108547152E-13
 -0.284217094304E-13
 -0.284217094304E-13
 -0.319744231092E-13
 -0.319744231092E-13
  0.177635683940E-13
 -0.568434188608E-13
  0.710542735760E-14
 -0.710542735760E-14
  0.142108547152E-13
  0.127897692437E-12
 -0.319744231092E-13
  0.710542735760E-14
 -0.603961325396E-13
 -0.710542735760E-14
  0.426325641456E-13
  0.497379915032E-13
  0.568434188608E-13
 -0.994759830064E-13
  0.390798504668E-13
