# vtk DataFile Version 3.0
MachLine results file. Generated by MachLine, USU AeroLab (c) 2022.
ASCII
DATASET POLYDATA
POINTS                1848 float
  0.559710450636E-05  0.000000000000E+00 -0.120211578351E-21
  0.147669420356E+00  0.000000000000E+00 -0.234916154167E+00
  0.147669420356E+00  0.000000000000E+00  0.234916154167E+00
  0.339643488108E+00  0.339635660470E+00  0.560392593885E-22
  0.473468632512E+00  0.000000000000E+00 -0.436287762525E+00
  0.473468632512E+00  0.000000000000E+00  0.436287762525E+00
  0.487308608206E+00  0.339636249629E+00 -0.234917183841E+00
  0.487308608206E+00  0.339636249629E+00  0.234917183841E+00
  0.735369269503E+00  0.735360558377E+00  0.000000000000E+00
  0.813108237056E+00  0.339636920424E+00 -0.436288359745E+00
  0.813108237056E+00  0.339636920424E+00  0.436288359745E+00
  0.883034320569E+00  0.735361246371E+00 -0.234916856065E+00
  0.883034320569E+00  0.735361246371E+00  0.234916856065E+00
  0.944066647098E+00  0.000000000000E+00 -0.604286064991E+00
  0.944066647098E+00  0.000000000000E+00  0.604286064991E+00
  0.119528541420E+01  0.119527568962E+01  0.139239588662E-21
  0.120883396323E+01  0.735362022563E+00 -0.436287920848E+00
  0.120883396323E+01  0.735362022563E+00  0.436287920848E+00
  0.128370629013E+01  0.339637445796E+00 -0.604286441728E+00
  0.128370629013E+01  0.339637445796E+00  0.604286441728E+00
  0.134295035247E+01  0.119527649041E+01 -0.234916489990E+00
  0.134295035247E+01  0.119527649041E+01  0.234916489990E+00
  0.157642143906E+01  0.000000000000E+00 -0.760511625665E+00
  0.157642143906E+01  0.000000000000E+00  0.760511625665E+00
  0.166874987392E+01  0.119527738781E+01 -0.436287408051E+00
  0.166874987392E+01  0.119527738781E+01  0.436287408051E+00
  0.167943194385E+01  0.735362620399E+00 -0.604285952066E+00
  0.167943194385E+01  0.735362620399E+00  0.604285952066E+00
  0.172824569053E+01  0.172823481255E+01  0.389385905703E-21
  0.187591062046E+01  0.172823574089E+01 -0.234916066324E+00
  0.187591062046E+01  0.172823574089E+01  0.234916066324E+00
  0.191606115975E+01  0.339637789350E+00 -0.760511930360E+00
  0.191606115975E+01  0.339637789350E+00  0.760511930360E+00
  0.213934789061E+01  0.119527806879E+01 -0.604285440358E+00
  0.213934789061E+01  0.119527806879E+01  0.604285440358E+00
  0.220170988446E+01  0.172823677653E+01 -0.436286844900E+00
  0.220170988446E+01  0.172823677653E+01  0.436286844900E+00
  0.231178688624E+01  0.735363010380E+00 -0.760511482838E+00
  0.231178688624E+01  0.735363010380E+00  0.760511482838E+00
  0.234376538790E+01  0.234375320874E+01  0.697539761548E-21
  0.239635655070E+01  0.000000000000E+00 -0.902050767795E+00
  0.239635655070E+01  0.000000000000E+00  0.902050767795E+00
  0.249143005586E+01  0.234375427984E+01 -0.234915581477E+00
  0.249143005586E+01  0.234375427984E+01  0.234915581477E+00
  0.267230804490E+01  0.172823755218E+01 -0.604284839933E+00
  0.267230804490E+01  0.172823755218E+01  0.604284839933E+00
  0.273599651581E+01  0.339638112717E+00 -0.902051094889E+00
  0.273599651581E+01  0.339638112717E+00  0.902051094889E+00
  0.277170289895E+01  0.119527851203E+01 -0.760510950761E+00
  0.277170289895E+01  0.119527851203E+01  0.760510950761E+00
  0.281722952122E+01  0.234375547176E+01 -0.436286196457E+00
  0.281722952122E+01  0.234375547176E+01  0.436286196457E+00
  0.305186238041E+01  0.305184874783E+01  0.487988659489E-21
  0.313172232612E+01  0.735363369156E+00 -0.902050640810E+00
  0.313172232612E+01  0.735363369156E+00  0.902050640810E+00
  0.319952712879E+01  0.305184997693E+01 -0.234915033141E+00
  0.319952712879E+01  0.305184997693E+01  0.234915033141E+00
  0.328782757476E+01  0.234375635430E+01 -0.604284144956E+00
  0.328782757476E+01  0.234375635430E+01  0.604284144956E+00
  0.330466299259E+01  0.172823805608E+01 -0.760510326632E+00
  0.330466299259E+01  0.172823805608E+01  0.760510326632E+00
  0.342464501736E+01  0.000000000000E+00 -0.102347726804E+01
  0.342464501736E+01  0.000000000000E+00  0.102347726804E+01
  0.352532618079E+01  0.305185134378E+01 -0.436285459385E+00
  0.352532618079E+01  0.305185134378E+01  0.436285459385E+00
  0.359163829815E+01  0.119527891148E+01 -0.902050101036E+00
  0.359163829815E+01  0.119527891148E+01  0.902050101036E+00
  0.376428499675E+01  0.339638473036E+00 -0.102347755842E+01
  0.376428499675E+01  0.339638473036E+00  0.102347755842E+01
  0.386281012443E+01  0.386279488655E+01 -0.327271132968E-21
  0.392018245394E+01  0.234375692670E+01 -0.760509663821E+00
  0.392018245394E+01  0.234375692670E+01  0.760509663821E+00
  0.399592435318E+01  0.305185234589E+01 -0.604283351599E+00
  0.399592435318E+01  0.305185234589E+01  0.604283351599E+00
  0.401047470017E+01  0.386279628829E+01 -0.234914435781E+00
  0.401047470017E+01  0.386279628829E+01  0.234914435781E+00
  0.412459882225E+01  0.172823850189E+01 -0.902049467796E+00
  0.412459882225E+01  0.172823850189E+01  0.902049467796E+00
  0.416001101646E+01  0.735363758474E+00 -0.102347710272E+01
  0.416001101646E+01  0.735363758474E+00  0.102347710272E+01
  0.433627355849E+01  0.386279784882E+01 -0.436284662791E+00
  0.433627355849E+01  0.386279784882E+01  0.436284662791E+00
  0.461992719359E+01  0.119527933413E+01 -0.102347656107E+01
  0.461992719359E+01  0.119527933413E+01  0.102347656107E+01
  0.462827939417E+01  0.305185299490E+01 -0.760508898570E+00
  0.462827939417E+01  0.305185299490E+01  0.760508898570E+00
  0.466872311975E+01  0.000000000000E+00 -0.111145353779E+01
  0.466872311975E+01  0.000000000000E+00  0.111145353779E+01
  0.474011846960E+01  0.234375742494E+01 -0.902048794181E+00
  0.474011846960E+01  0.234375742494E+01  0.902048794181E+00
  0.478678312943E+01  0.478676614119E+01 -0.851350047090E-21
  0.480687159859E+01  0.386279898322E+01 -0.604282518577E+00
  0.480687159859E+01  0.386279898322E+01  0.604282518577E+00
  0.493444751927E+01  0.478676772883E+01 -0.234913791519E+00
  0.493444751927E+01  0.478676772883E+01  0.234913791519E+00
  0.500836336858E+01  0.339638975791E+00 -0.111145376435E+01
  0.500836336858E+01  0.339638975791E+00  0.111145376435E+01
  0.515288767965E+01  0.172823896258E+01 -0.102347604475E+01
  0.515288767965E+01  0.172823896258E+01  0.102347604475E+01
  0.526024664267E+01  0.478676950112E+01 -0.436283779756E+00
  0.526024664267E+01  0.478676950112E+01  0.436283779756E+00
  0.540408912163E+01  0.735364289471E+00 -0.111145330904E+01
  0.540408912163E+01  0.735364289471E+00  0.111145330904E+01
  0.543922703165E+01  0.386279971700E+01 -0.760508029793E+00
  0.543922703165E+01  0.386279971700E+01  0.760508029793E+00
  0.544821511269E+01  0.305185355186E+01 -0.902048075774E+00
  0.544821511269E+01  0.305185355186E+01  0.902048075774E+00
  0.573084453819E+01  0.478677078010E+01 -0.604281589405E+00
  0.573084453819E+01  0.478677078010E+01  0.604281589405E+00
  0.576840728392E+01  0.234375792871E+01 -0.102347530863E+01
  0.576840728392E+01  0.234375792871E+01  0.102347530863E+01
  0.583338631872E+01  0.583336745020E+01  0.405247960184E-21
  0.586400574314E+01  0.119527989759E+01 -0.111145288712E+01
  0.586400574314E+01  0.119527989759E+01  0.111145288712E+01
  0.598105051178E+01  0.583336923462E+01 -0.234913090871E+00
  0.598105051178E+01  0.583336923462E+01  0.234913090871E+00
  0.611307647464E+01  0.000000000000E+00 -0.114006672374E+01
  0.611307647464E+01  0.000000000000E+00  0.114006672374E+01
  0.625916268514E+01  0.386280033901E+01 -0.902047251677E+00
  0.625916268514E+01  0.386280033901E+01  0.902047251677E+00
  0.630684940695E+01  0.583337123515E+01 -0.436282847598E+00
  0.630684940695E+01  0.583337123515E+01  0.436282847598E+00
  0.636319987860E+01  0.478677160653E+01 -0.760507120199E+00
  0.636319987860E+01  0.478677160653E+01  0.760507120199E+00
  0.639696619211E+01  0.172823956313E+01 -0.111145225217E+01
  0.639696619211E+01  0.172823956313E+01  0.111145225217E+01
  0.645271674047E+01  0.339639661210E+00 -0.114006685712E+01
  0.645271674047E+01  0.339639661210E+00  0.114006685712E+01
  0.647650435555E+01  0.305185410393E+01 -0.102347458652E+01
  0.647650435555E+01  0.305185410393E+01  0.102347458652E+01
  0.677744762352E+01  0.583337266991E+01 -0.604280572342E+00
  0.677744762352E+01  0.583337266991E+01  0.604280572342E+00
  0.684844294097E+01  0.735365004281E+00 -0.114006640392E+01
  0.684844294097E+01  0.735365004281E+00  0.114006640392E+01
  0.701105922061E+01  0.701103836697E+01  0.895766047527E-21
  0.701248623121E+01  0.234375857127E+01 -0.111145163580E+01
  0.701248623121E+01  0.234375857127E+01  0.111145163580E+01
  0.715872320950E+01  0.701104035556E+01 -0.234912358162E+00
  0.715872320950E+01  0.701104035556E+01  0.234912358162E+00
  0.718313593776E+01  0.478677229970E+01 -0.902046324878E+00
  0.718313593776E+01  0.478677229970E+01  0.902046324878E+00
  0.728745235124E+01  0.386280094467E+01 -0.102347387693E+01
  0.728745235124E+01  0.386280094467E+01  0.102347387693E+01
  0.730835952869E+01  0.119528064618E+01 -0.114006598452E+01
  0.730835952869E+01  0.119528064618E+01  0.114006598452E+01
  0.740980286412E+01  0.583337359616E+01 -0.760506118674E+00
  0.740980286412E+01  0.583337359616E+01  0.760506118674E+00
  0.748452186274E+01  0.701104259801E+01 -0.436281879461E+00
  0.748452186274E+01  0.701104259801E+01  0.436281879461E+00
  0.771254505256E+01  0.000000000000E+00 -0.108924206628E+01
  0.771254505256E+01  0.000000000000E+00  0.108924206628E+01
  0.772058373250E+01  0.305185479366E+01 -0.111145091404E+01
  0.772058373250E+01  0.305185479366E+01  0.111145091404E+01
  0.784131993909E+01  0.172824035030E+01 -0.114006535249E+01
  0.784131993909E+01  0.172824035030E+01  0.114006535249E+01
  0.795511991424E+01  0.701104419785E+01 -0.604279541528E+00
  0.795511991424E+01  0.701104419785E+01  0.604279541528E+00
  0.805218527188E+01  0.339640314685E+00 -0.108924208871E+01
  0.805218527188E+01  0.339640314685E+00  0.108924208871E+01
  0.821142554516E+01  0.478677296405E+01 -0.102347294427E+01
  0.821142554516E+01  0.478677296405E+01  0.102347294427E+01
[...]
POINT_DATA                1848
SCALARS phi float 1
LOOKUP_TABLE default
 -0.559710450736E-05
 -0.147669420356E+00
 -0.147669420356E+00
 -0.339643488108E+00
 -0.473468632512E+00
 -0.473468632512E+00
 -0.487308608206E+00
 -0.487308608206E+00
 -0.735369269503E+00
 -0.813108237056E+00
 -0.813108237056E+00
 -0.883034320569E+00
 -0.883034320569E+00
 -0.944066647098E+00
 -0.944066647098E+00
 -0.119528541420E+01
 -0.120883396323E+01
 -0.120883396323E+01
 -0.128370629013E+01
 -0.128370629013E+01
 -0.134295035247E+01
 -0.134295035247E+01
 -0.157642143906E+01
 -0.157642143906E+01
 -0.166874987392E+01
 -0.166874987392E+01
 -0.167943194385E+01
 -0.167943194385E+01
 -0.172824569053E+01
 -0.187591062046E+01
 -0.187591062046E+01
 -0.191606115975E+01
 -0.191606115975E+01
 -0.213934789061E+01
 -0.213934789061E+01
 -0.220170988446E+01
 -0.220170988446E+01
 -0.231178688624E+01
 -0.231178688624E+01
 -0.234376538790E+01
 -0.239635655070E+01
 -0.239635655070E+01
 -0.249143005586E+01
 -0.249143005586E+01
 -0.267230804490E+01
 -0.267230804490E+01
 -0.273599651581E+01
 -0.273599651581E+01
 -0.277170289895E+01
 -0.277170289895E+01
 -0.281722952122E+01
 -0.281722952122E+01
 -0.305186238041E+01
 -0.313172232612E+01
 -0.313172232612E+01
 -0.319952712879E+01
 -0.319952712879E+01
 -0.328782757476E+01
 -0.328782757476E+01
 -0.330466299259E+01
 -0.330466299259E+01
 -0.342464501736E+01
 -0.342464501736E+01
 -0.352532618079E+01
 -0.352532618079E+01
 -0.359163829815E+01
 -0.359163829815E+01
 -0.376428499675E+01
 -0.376428499675E+01
 -0.386281012443E+01
 -0.392018245394E+01
 -0.392018245394E+01
 -0.399592435318E+01
 -0.399592435318E+01
 -0.401047470017E+01
 -0.401047470017E+01
 -0.412459882225E+01
 -0.412459882225E+01
 -0.416001101646E+01
 -0.416001101646E+01
 -0.433627355849E+01
 -0.433627355849E+01
 -0.461992719359E+01
 -0.461992719359E+01
 -0.462827939417E+01
 -0.462827939417E+01
 -0.466872311975E+01
 -0.466872311975E+01
 -0.474011846960E+01
 -0.474011846960E+01
 -0.478678312943E+01
 -0.480687159859E+01
 -0.480687159859E+01
 -0.493444751927E+01
 -0.493444751927E+01
 -0.500836336858E+01
 -0.500836336858E+01
 -0.515288767965E+01
 -0.515288767965E+01
 -0.526024664267E+01
 -0.526024664267E+01
 -0.540408912163E+01
 -0.540408912163E+01
 -0.543922703165E+01
 -0.543922703165E+01
 -0.544821511269E+01
 -0.544821511269E+01
 -0.573084453819E+01
 -0.573084453819E+01
 -0.576840728392E+01
 -0.576840728392E+01
 -0.583338631872E+01
 -0.586400574314E+01
 -0.586400574314E+01
 -0.598105051178E+01
 -0.598105051178E+01
 -0.611307647464E+01
 -0.611307647464E+01
 -0.625916268514E+01
 -0.625916268514E+01
 -0.630684940695E+01
 -0.630684940695E+01
 -0.636319987860E+01
 -0.636319987860E+01
 -0.639696619211E+01
 -0.639696619211E+01
 -0.645271674047E+01
 -0.645271674047E+01
 -0.647650435555E+01
 -0.647650435555E+01
 -0.677744762352E+01
 -0.677744762352E+01
 -0.684844294097E+01
 -0.684844294097E+01
 -0.701105922061E+01
 -0.701248623121E+01
 -0.701248623121E+01
 -0.715872320950E+01
 -0.715872320950E+01
 -0.718313593776E+01
 -0.718313593776E+01
 -0.728745235124E+01
 -0.728745235124E+01
 -0.730835952869E+01
 -0.730835952869E+01
 -0.740980286412E+01
 -0.740980286412E+01
 -0.748452186274E+01
 -0.748452186274E+01
 -0.771254505256E+01
 -0.771254505256E+01
 -0.772058373250E+01
 -0.772058373250E+01
 -0.784131993909E+01
 -0.784131993909E+01
 -0.795511991424E+01
 -0.795511991424E+01
 -0.805218527188E+01
 -0.805218527188E+01
 -0.821142554516E+01
 -0.821142554516E+01
 -0.822973980022E+01
 -0.822973980022E+01
 -0.832636643409E+01
 -0.844791240210E+01
 -0.844791240210E+01
 -0.845684041130E+01
 -0.845684041130E+01
 -0.847403021615E+01
 -0.847403021615E+01
 -0.853153119896E+01
 -0.853153119896E+01
 -0.858747552591E+01
 -0.858747552591E+01
 -0.879982957157E+01
 -0.879982957157E+01
 -0.890782848545E+01
 -0.890782848545E+01
 -0.916493786346E+01
 -0.916493786346E+01
 -0.925802982109E+01
 -0.925802982109E+01
 -0.927042697466E+01
 -0.927042697466E+01
 -0.939508730214E+01
 -0.939508730214E+01
 -0.940741238065E+01
 -0.940741238065E+01
 -0.944078934126E+01
 -0.944078934126E+01
 -0.945550528909E+01
 -0.945550528909E+01
 -0.973472773602E+01
 -0.973472773602E+01
 -0.978321180085E+01
 -0.990278343008E+01
 -0.990278343008E+01
 -0.993087537932E+01
 -0.993087537932E+01
 -0.997588622900E+01
 -0.997588622900E+01
 -0.100563097779E+02
 -0.100563097779E+02
 -0.101304539130E+02
 -0.101304539130E+02
 -0.102566735256E+02
 -0.102566735256E+02
 -0.104357023343E+02
 -0.104357023343E+02
 -0.105021095029E+02
 -0.105021095029E+02
 -0.105903709500E+02
 -0.105903709500E+02
 -0.107227202003E+02
 -0.107227202003E+02
 -0.107272717080E+02
 -0.107272717080E+02
 -0.107644081436E+02
 -0.107644081436E+02
 -0.108998602592E+02
 -0.108998602592E+02
 -0.110748737175E+02
 -0.110748737175E+02
 -0.111233318049E+02
 -0.111233318049E+02
 -0.113596280519E+02
 -0.113596280519E+02
 -0.113820153846E+02
 -0.114145143185E+02
 -0.114145143185E+02
 -0.115296797234E+02
 -0.115296797234E+02
 -0.115753574184E+02
 -0.115753574184E+02
 -0.116797829037E+02
 -0.116797829037E+02
 -0.117388531929E+02
 -0.117388531929E+02
 -0.117510100839E+02
 -0.117510100839E+02
 -0.118102414604E+02
 -0.118102414604E+02
 -0.118554776172E+02
 -0.118554776172E+02
 -0.119464653618E+02
 -0.119464653618E+02
 -0.121795647361E+02
 -0.121795647361E+02
 -0.122701585092E+02
 -0.122701585092E+02
 -0.123260756274E+02
 -0.123260756274E+02
 -0.124469515546E+02
 -0.124469515546E+02
 -0.124993313997E+02
 -0.124993313997E+02
 -0.126670300635E+02
 -0.126670300635E+02
 -0.128031203294E+02
 -0.128031203294E+02
 -0.129584318609E+02
 -0.129584318609E+02
 -0.129950915381E+02
 -0.129950915381E+02
 -0.130066706951E+02
 -0.130066706951E+02
 -0.131189557780E+02
 -0.131241386936E+02
 -0.131241386936E+02
 -0.132078564558E+02
 -0.132078564558E+02
 -0.132579008226E+02
 -0.132579008226E+02
 -0.132666189874E+02
 -0.132666189874E+02
 -0.134023978345E+02
 -0.134023978345E+02
 -0.134186417284E+02
 -0.134186417284E+02
 -0.135459364493E+02
 -0.135459364493E+02
 -0.135924175936E+02
 -0.135924175936E+02
 -0.137783694139E+02
 -0.137783694139E+02
 -0.138623148799E+02
 -0.138623148799E+02
 -0.140630154394E+02
 -0.140630154394E+02
 -0.141038110621E+02
 -0.141038110621E+02
 -0.141267400994E+02
 -0.141267400994E+02
 -0.141818757473E+02
 -0.141818757473E+02
 -0.143952766958E+02
 -0.143952766958E+02
 -0.144394482097E+02
 -0.144394482097E+02
 -0.144434517094E+02
 -0.144434517094E+02
 -0.144519378401E+02
 -0.144519378401E+02
 -0.146953715674E+02
 -0.146953715674E+02
 -0.147236106786E+02
 -0.147236106786E+02
 -0.148066610632E+02
 -0.148066610632E+02
 -0.148391788463E+02
 -0.148391788463E+02
 -0.149376903274E+02
 -0.149376903274E+02
 -0.149853545069E+02
 -0.150107990426E+02
 -0.150107990426E+02
 -0.151330185201E+02
 -0.151330185201E+02
 -0.152284807827E+02
 -0.152284807827E+02
 -0.152990968419E+02
 -0.152990968419E+02
 -0.153437556564E+02
 -0.153437556564E+02
 -0.154588169054E+02
 -0.154588169054E+02
 -0.155153099929E+02
 -0.155153099929E+02
 -0.156833963073E+02
 -0.156833963073E+02
 -0.157188974059E+02
 -0.157188974059E+02
 -0.158320586530E+02
 -0.158320586530E+02
 -0.158616652548E+02
 -0.158616652548E+02
 -0.158962944384E+02
 -0.158962944384E+02
 -0.159294146004E+02
 -0.159294146004E+02
 -0.160389201359E+02
 -0.160389201359E+02
 -0.160507423782E+02
 -0.160507423782E+02
 -0.160791234411E+02
 -0.160791234411E+02
 -0.163731223061E+02
 -0.163731223061E+02
 -0.164061569004E+02
 -0.164061569004E+02
 -0.164475809935E+02
 -0.164475809935E+02
 -0.165298485780E+02
 -0.165298485780E+02
 -0.165390423857E+02
 -0.165390423857E+02
 -0.165436025286E+02
 -0.165436025286E+02
 -0.165617725394E+02
 -0.165617725394E+02
 -0.167127619982E+02
 -0.167127619982E+02
 -0.169082721956E+02
 -0.169082721956E+02
 -0.169673432018E+02
 -0.170720032367E+02
 -0.170720032367E+02
 -0.171084910345E+02
 -0.171084910345E+02
 -0.171150070980E+02
 -0.171150070980E+02
 -0.171556803020E+02
 -0.171556803020E+02
 -0.172004311081E+02
 -0.172004311081E+02
 -0.173817099368E+02
 -0.173817099368E+02
 -0.174408052919E+02
 -0.174408052919E+02
 -0.174538234935E+02
 -0.174538234935E+02
 -0.174951017648E+02
 -0.174951017648E+02
 -0.174957682120E+02
 -0.174957682120E+02
 -0.175400726968E+02
 -0.175400726968E+02
 -0.175684080651E+02
 -0.175684080651E+02
 -0.176875255687E+02
 -0.176875255687E+02
 -0.177214663345E+02
 -0.177214663345E+02
 -0.177876847308E+02
 -0.177876847308E+02
 -0.178481916212E+02
 -0.178481916212E+02
 -0.179114047639E+02
 -0.179114047639E+02
 -0.179357998186E+02
 -0.179357998186E+02
 -0.179666314636E+02
 -0.179666314636E+02
 -0.180859473532E+02
 -0.180859473532E+02
 -0.181013708145E+02
 -0.181013708145E+02
 -0.181878331950E+02
 -0.181878331950E+02
 -0.183450407696E+02
 -0.183450407696E+02
 -0.183956267742E+02
 -0.183956267742E+02
 -0.183957187474E+02
 -0.183957187474E+02
 -0.184100024108E+02
 -0.184100024108E+02
 -0.185004294671E+02
 -0.185004294671E+02
 -0.185437616657E+02
 -0.185437616657E+02
 -0.185835622151E+02
 -0.185835622151E+02
 -0.186846823284E+02
 -0.186846823284E+02
 -0.187168931357E+02
 -0.187168931357E+02
 -0.187201552672E+02
 -0.187201552672E+02
 -0.188906063673E+02
 -0.188906063673E+02
 -0.189286814861E+02
 -0.189286814861E+02
 -0.189999960329E+02
 -0.190434792263E+02
 -0.190434792263E+02
 -0.190458883951E+02
 -0.190597987219E+02
 -0.190597987219E+02
 -0.190804094323E+02
 -0.190804094323E+02
 -0.190945745254E+02
 -0.190945745254E+02
 -0.191783143835E+02
 -0.191783143835E+02
 -0.191935503062E+02
 -0.191935503062E+02
 -0.192065760165E+02
 -0.192065760165E+02
 -0.192320440480E+02
 -0.192320440480E+02
 -0.193396384563E+02
 -0.193636989987E+02
 -0.193636989987E+02
 -0.194012586844E+02
 -0.194012586844E+02
 -0.194249924217E+02
 -0.194249924217E+02
 -0.194555258199E+02
 -0.194555258199E+02
 -0.195193502547E+02
 -0.195193502547E+02
 -0.195403283427E+02
 -0.195403283427E+02
 -0.195442037956E+02
 -0.195442037956E+02
 -0.195764419549E+02
 -0.195764419549E+02
 -0.196540864596E+02
 -0.196540864596E+02
 -0.196781065169E+02
 -0.196781065169E+02
 -0.197353651871E+02
 -0.199154447255E+02
 -0.199154447255E+02
 -0.199372142354E+02
 -0.199372142354E+02
 -0.199899477152E+02
 -0.199899477152E+02
 -0.200732910643E+02
 -0.200732910643E+02
 -0.201305528150E+02
 -0.201305528150E+02
 -0.201919642553E+02
 -0.201919642553E+02
 -0.201952836682E+02
 -0.202359435592E+02
 -0.202359435592E+02
 -0.202523030706E+02
 -0.202523030706E+02
 -0.203919933266E+02
 -0.203919933266E+02
 -0.204484074432E+02
 -0.204484074432E+02
 -0.206223064576E+02
 -0.206223064576E+02
 -0.206888133590E+02
 -0.206888133590E+02
 -0.207282459006E+02
 -0.207771225745E+02
 -0.207771225745E+02
 -0.208315186590E+02
 -0.208315186590E+02
 -0.208581067201E+02
 -0.208581067201E+02
 -0.209000654300E+02
 -0.209000654300E+02
 -0.209934178323E+02
 -0.209934178323E+02
 -0.210632541986E+02
 -0.210632541986E+02
 -0.210639297350E+02
 -0.210639297350E+02
 -0.210984457129E+02
 -0.210984457129E+02
 -0.211148912723E+02
 -0.211148912723E+02
 -0.211599203465E+02
 -0.211599203465E+02
 -0.211771606710E+02
 -0.211771606710E+02
 -0.211972616870E+02
 -0.213437676439E+02
 -0.213449235638E+02
 -0.213449235638E+02
 -0.213969126218E+02
 -0.213969126218E+02
 -0.214422456466E+02
 -0.214422456466E+02
 -0.216360773226E+02
 -0.216360773226E+02
 -0.216707234058E+02
 -0.216707234058E+02
 -0.217110165517E+02
 -0.217110165517E+02
 -0.217720289957E+02
 -0.217720289957E+02
 -0.219872328852E+02
 -0.219872328852E+02
 -0.220518681986E+02
 -0.221413227009E+02
 -0.221413227009E+02
 -0.222065281929E+02
 -0.222065281929E+02
 -0.222078656476E+02
 -0.222078656476E+02
 -0.223548376972E+02
 -0.223548376972E+02
 -0.224302025753E+02
 -0.224302025753E+02
 -0.224502677594E+02
 -0.224502677594E+02
 -0.224569168035E+02
 -0.224569168035E+02
 -0.224705380244E+02
 -0.224705380244E+02
 -0.225140666771E+02
 -0.225140666771E+02
 -0.225829820198E+02
 -0.225829820198E+02
 -0.226349952337E+02
 -0.226349952337E+02
 -0.226979221791E+02
 -0.226979221791E+02
 -0.227736794894E+02
 -0.227736794894E+02
 -0.228628186379E+02
 -0.230338407252E+02
 -0.230338407252E+02
 -0.230804365206E+02
 -0.230804365206E+02
 -0.231318424196E+02
 -0.231318424196E+02
 -0.233842071183E+02
 -0.233842071183E+02
 -0.233939667192E+02
 -0.235069587906E+02
 -0.235069587906E+02
 -0.235416305145E+02
 -0.235416305145E+02
 -0.235936186425E+02
 -0.235936186425E+02
 -0.236701508979E+02
 -0.236701508979E+02
 -0.236816030701E+02
 -0.236816030701E+02
 -0.237146238858E+02
 -0.237146238858E+02
 -0.237867965777E+02
 -0.238674303017E+02
 -0.238674303017E+02
 -0.238870543983E+02
 -0.238870543983E+02
 -0.240490778273E+02
 -0.240490778273E+02
 -0.241784502542E+02
 -0.241784502542E+02
 -0.241938608910E+02
 -0.241938608910E+02
 -0.242115177384E+02
 -0.242115177384E+02
 -0.243380295596E+02
 -0.243380295596E+02
 -0.243804701665E+02
 -0.243804701665E+02
 -0.245535685315E+02
 -0.245535685315E+02
 -0.246219148054E+02
 -0.246219148054E+02
 -0.246799148488E+02
 -0.246799148488E+02
 -0.246995203126E+02
 -0.246995203126E+02
 -0.248334036186E+02
 -0.248592800807E+02
 -0.248592800807E+02
 -0.249703863242E+02
 -0.249703863242E+02
 -0.251270027128E+02
 -0.251270027128E+02
 -0.251589849469E+02
 -0.251589849469E+02
 -0.253561291707E+02
 -0.253561291707E+02
 -0.254858644558E+02
 -0.254858644558E+02
 -0.255268309291E+02
 -0.255268309291E+02
 -0.256060676455E+02
 -0.257312455400E+02
 -0.257312455400E+02
 -0.257537314973E+02
 -0.257537314973E+02
 -0.257860238076E+02
 -0.257860238076E+02
 -0.257903273662E+02
 -0.257903273662E+02
 -0.258660006373E+02
 -0.258660006373E+02
 -0.260110816984E+02
 -0.260602662739E+02
 -0.260602662739E+02
 -0.260795293771E+02
 -0.260795293771E+02
 -0.261563721225E+02
 -0.261563721225E+02
 -0.261745951768E+02
 -0.261745951768E+02
 -0.263624647152E+02
 -0.263624647152E+02
 -0.265501305422E+02
 -0.265501305422E+02
 -0.266714442659E+02
 -0.266714442659E+02
 -0.267258127636E+02
 -0.267258127636E+02
 -0.267584632389E+02
 -0.267584632389E+02
 -0.268186235138E+02
 -0.268186235138E+02
 -0.269836827362E+02
 -0.269836827362E+02
 -0.270465606347E+02
 -0.270465606347E+02
 -0.271824892143E+02
 -0.271824892143E+02
 -0.272228104270E+02
 -0.272228104270E+02
 -0.273103616676E+02
 -0.273103616676E+02
 -0.273263959289E+02
 -0.276314469826E+02
 -0.276314469826E+02
 -0.276524291772E+02
 -0.276524291772E+02
 -0.277551821693E+02
 -0.277551821693E+02
 -0.278027722330E+02
 -0.279504380902E+02
 -0.279504380902E+02
 -0.280024283489E+02
 -0.280024283489E+02
 -0.280422608111E+02
 -0.280422608111E+02
 -0.280627093305E+02
 -0.280627093305E+02
 -0.281282960710E+02
 -0.281282960710E+02
 -0.282762360249E+02
 -0.282762360249E+02
 -0.284410149879E+02
 -0.284410149879E+02
 -0.284627606365E+02
 -0.284627606365E+02
 -0.285034124396E+02
 -0.285034124396E+02
 -0.285824946884E+02
 -0.285824946884E+02
 -0.287468372274E+02
 -0.287468372274E+02
 -0.287832468621E+02
 -0.289098418416E+02
 -0.289098418416E+02
 -0.290307244964E+02
 -0.290307244964E+02
 -0.290892176962E+02
 -0.290892176962E+02
 -0.292302589339E+02
 -0.292302589339E+02
 -0.293791959232E+02
 -0.293791959232E+02
 -0.294921300390E+02
 -0.294921300390E+02
 -0.295070722522E+02
 -0.295070722522E+02
 -0.296344256105E+02
 -0.296344256105E+02
 -0.297271080218E+02
 -0.297271080218E+02
 -0.299541446598E+02
 -0.301018087444E+02
 -0.301018087444E+02
 -0.301022262976E+02
 -0.301022262976E+02
 -0.301208129831E+02
 -0.301208129831E+02
 -0.301991369837E+02
 -0.301991369837E+02
 -0.302748122205E+02
 -0.302748122205E+02
 -0.303194444640E+02
 -0.303194444640E+02
 -0.303291679012E+02
 -0.303291679012E+02
 -0.303820598661E+02
 -0.304276086929E+02
 -0.304276086929E+02
 -0.305923935713E+02
 -0.305923935713E+02
 -0.308982099681E+02
 -0.308982099681E+02
 -0.309672087090E+02
 -0.309672087090E+02
 -0.310712141230E+02
 -0.310712141230E+02
 -0.311065524133E+02
 -0.311065524133E+02
 -0.312274331465E+02
 -0.312274331465E+02
 -0.313585392086E+02
 -0.313585392086E+02
 -0.314640577965E+02
 -0.314640577965E+02
 -0.315305687106E+02
 -0.315305687106E+02
 -0.317129777735E+02
 -0.317129777735E+02
 -0.317191770496E+02
 -0.317191770496E+02
 -0.318391741649E+02
 -0.318391741649E+02
 -0.320326886133E+02
 -0.321190088340E+02
 -0.321803528623E+02
 -0.321803528623E+02
 -0.321858536327E+02
 -0.321858536327E+02
 -0.322721915626E+02
 -0.322721915626E+02
 -0.323111662318E+02
 -0.323111662318E+02
 -0.323505098069E+02
 -0.323505098069E+02
 -0.324715208857E+02
 -0.324715208857E+02
 -0.325061548710E+02
 -0.325061548710E+02
 -0.327891060375E+02
 -0.327891060375E+02
 -0.328336159699E+02
 -0.328336159699E+02
 -0.329767524357E+02
 -0.329767524357E+02
 -0.331497662809E+02
 -0.331497662809E+02
 -0.333186591180E+02
 -0.333186591180E+02
 -0.333304650572E+02
 -0.333304650572E+02
 -0.333405356301E+02
 -0.333405356301E+02
 -0.333788098141E+02
 -0.333788098141E+02
 -0.336091131521E+02
 -0.336091131521E+02
 -0.337055833329E+02
 -0.337055833329E+02
 -0.338643582541E+02
 -0.338643582541E+02
 -0.339158857307E+02
 -0.339158857307E+02
 -0.339854172736E+02
 -0.340146748017E+02
 -0.341623392371E+02
 -0.341623392371E+02
 -0.341678519608E+02
 -0.341678519608E+02
 -0.343897183871E+02
 -0.343897183871E+02
 -0.344290581145E+02
 -0.344290581145E+02
 -0.344689078443E+02
 -0.344689078443E+02
 -0.344881414371E+02
 -0.344881414371E+02
 -0.346228994901E+02
 -0.346228994901E+02
 -0.348156142978E+02
 -0.348156142978E+02
 -0.349587429470E+02
 -0.349587429470E+02
 -0.350012146441E+02
 -0.350012146441E+02
 -0.353011486655E+02
 -0.353011486655E+02
 -0.353124671998E+02
 -0.353124671998E+02
 -0.354190915990E+02
 -0.354190915990E+02
 -0.354573543497E+02
 -0.354573543497E+02
 -0.355153716268E+02
 -0.355153716268E+02
 -0.355911037470E+02
 -0.355911037470E+02
 -0.356875854754E+02
 -0.356875854754E+02
 -0.358810717377E+02
 -0.359674149835E+02
 -0.360287363735E+02
 -0.360287363735E+02
 -0.360610745326E+02
 -0.360610745326E+02
 -0.360672643659E+02
 -0.360672643659E+02
 -0.362464079292E+02
 -0.362464079292E+02
 -0.363545387945E+02
 -0.363545387945E+02
 -0.364110449591E+02
 -0.364110449591E+02
 -0.365411007700E+02
 -0.365411007700E+02
 -0.366810126416E+02
 -0.366810126416E+02
 -0.367014440677E+02
 -0.367014440677E+02
 -0.368251404549E+02
 -0.368251404549E+02
 -0.368941702662E+02
 -0.368941702662E+02
 -0.371979271552E+02
 -0.371979271552E+02
 -0.373910231681E+02
 -0.373910231681E+02
 -0.374393450624E+02
 -0.374393450624E+02
 -0.374575013515E+02
 -0.374575013515E+02
 -0.374978649423E+02
 -0.374978649423E+02
 -0.375704739810E+02
 -0.375704739810E+02
 -0.376180092199E+02
 -0.376667464725E+02
 -0.376667464725E+02
 -0.377656778774E+02
 -0.377656778774E+02
 -0.377661414438E+02
 -0.377661414438E+02
 -0.380459704738E+02
 -0.380914767249E+02
 -0.380914767249E+02
 -0.381458128024E+02
 -0.381458128024E+02
 -0.382731831446E+02
 -0.382731831446E+02
 -0.382774464525E+02
 -0.382774464525E+02
 -0.383977903110E+02
 -0.383977903110E+02
 -0.385620785500E+02
 -0.385620785500E+02
 -0.386834348331E+02
 -0.386834348331E+02
 -0.387378208605E+02
 -0.387378208605E+02
 -0.388777289769E+02
 -0.388777289769E+02
 -0.390455564626E+02
 -0.390455564626E+02
 -0.391944395518E+02
 -0.391944395518E+02
 -0.392168126631E+02
 -0.393057466175E+02
 -0.393057466175E+02
 -0.393493058256E+02
 -0.393493058256E+02
 -0.393644777127E+02
 -0.393644777127E+02
 -0.395424093645E+02
 -0.395424093645E+02
 -0.396902806275E+02
 -0.396902806275E+02
 -0.397099773689E+02
 -0.397099773689E+02
 -0.397452987600E+02
 -0.397452987600E+02
 -0.397671940712E+02
 -0.397671940712E+02
 -0.399175276402E+02
 -0.399175276402E+02
 -0.400143847341E+02
 -0.400143847341E+02
 -0.401278036231E+02
 -0.401278036231E+02
 -0.401608826248E+02
 -0.401608826248E+02
 -0.401973563566E+02
 -0.404698994830E+02
 -0.404698994830E+02
 -0.405498364491E+02
 -0.405498364491E+02
 -0.405945104012E+02
 -0.405945104012E+02
 -0.406736559582E+02
 -0.407932437369E+02
 -0.407932437369E+02
 -0.408213212093E+02
 -0.408213212093E+02
 -0.409499294725E+02
 -0.409499294725E+02
 -0.410291076605E+02
 -0.410291076605E+02
 -0.410426849664E+02
 -0.410426849664E+02
 -0.411471243795E+02
 -0.411471243795E+02