# vtk DataFile Version 3.0
MachLine results file. Generated by MachLine, USU AeroLab (c) 2022.
ASCII
DATASET POLYDATA
POINTS                 160 float
  0.190000000000E+02  0.000000000000E+00  0.000000000000E+00
  0.100000000000E+05  0.000000000000E+00  0.000000000000E+00
  0.191611385345E+02  0.161138445139E+00  0.000000000000E+00
  0.100000000000E+05  0.161138445139E+00  0.000000000000E+00
  0.193350086212E+02  0.335006117821E+00  0.000000000000E+00
  0.100000000000E+05  0.335006117821E+00  0.000000000000E+00
  0.195225105286E+02  0.522506594658E+00  0.000000000000E+00
  0.100000000000E+05  0.522506594658E+00  0.000000000000E+00
  0.197245941162E+02  0.724590361118E+00  0.000000000000E+00
  0.100000000000E+05  0.724590361118E+00  0.000000000000E+00
  0.199422607422E+02  0.942254066467E+00  0.000000000000E+00
  0.100000000000E+05  0.942254066467E+00  0.000000000000E+00
  0.201765460968E+02  0.117653930187E+01  0.000000000000E+00
  0.100000000000E+05  0.117653930187E+01  0.000000000000E+00
  0.204285392761E+02  0.142853081226E+01  0.000000000000E+00
  0.100000000000E+05  0.142853081226E+01  0.000000000000E+00
  0.206993637085E+02  0.169935321808E+01  0.000000000000E+00
  0.100000000000E+05  0.169935321808E+01  0.000000000000E+00
  0.209901790619E+02  0.199016737938E+01  0.000000000000E+00
  0.100000000000E+05  0.199016737938E+01  0.000000000000E+00
  0.213021793365E+02  0.230216526985E+01  0.000000000000E+00
  0.100000000000E+05  0.230216526985E+01  0.000000000000E+00
  0.216365795135E+02  0.263656377792E+01  0.000000000000E+00
  0.100000000000E+05  0.263656377792E+01  0.000000000000E+00
  0.219946155548E+02  0.299459671974E+01  0.000000000000E+00
  0.100000000000E+05  0.299459671974E+01  0.000000000000E+00
  0.223775272369E+02  0.337750577927E+01  0.000000000000E+00
  0.100000000000E+05  0.337750577927E+01  0.000000000000E+00
  0.227865524292E+02  0.378652930260E+01  0.000000000000E+00
  0.100000000000E+05  0.378652930260E+01  0.000000000000E+00
  0.232229156494E+02  0.422288990021E+01  0.000000000000E+00
  0.100000000000E+05  0.422288990021E+01  0.000000000000E+00
  0.236878089905E+02  0.468778085709E+01  0.000000000000E+00
  0.100000000000E+05  0.468778085709E+01  0.000000000000E+00
  0.241823806763E+02  0.518234777451E+01  0.000000000000E+00
  0.100000000000E+05  0.518234777451E+01  0.000000000000E+00
  0.247077083588E+02  0.570767307281E+01  0.000000000000E+00
  0.100000000000E+05  0.570767307281E+01  0.000000000000E+00
  0.252647914886E+02  0.626475334167E+01  0.000000000000E+00
  0.100000000000E+05  0.626475334167E+01  0.000000000000E+00
  0.258545246124E+02  0.685448169708E+01  0.000000000000E+00
  0.100000000000E+05  0.685448169708E+01  0.000000000000E+00
  0.264776668549E+02  0.747762155533E+01  0.000000000000E+00
  0.100000000000E+05  0.747762155533E+01  0.000000000000E+00
  0.271348342896E+02  0.813478469849E+01  0.000000000000E+00
  0.100000000000E+05  0.813478469849E+01  0.000000000000E+00
  0.278264636993E+02  0.882640838623E+01  0.000000000000E+00
  0.100000000000E+05  0.882640838623E+01  0.000000000000E+00
  0.285527858734E+02  0.955272769928E+01  0.000000000000E+00
  0.100000000000E+05  0.955272769928E+01  0.000000000000E+00
  0.293138179779E+02  0.103137550354E+02  0.000000000000E+00
  0.100000000000E+05  0.103137550354E+02  0.000000000000E+00
  0.301093215942E+02  0.111092538834E+02  0.000000000000E+00
  0.100000000000E+05  0.111092538834E+02  0.000000000000E+00
  0.309387969971E+02  0.119387235641E+02  0.000000000000E+00
  0.100000000000E+05  0.119387235641E+02  0.000000000000E+00
  0.318014545441E+02  0.128013763428E+02  0.000000000000E+00
  0.100000000000E+05  0.128013763428E+02  0.000000000000E+00
  0.326962089539E+02  0.136961250305E+02  0.000000000000E+00
  0.100000000000E+05  0.136961250305E+02  0.000000000000E+00
  0.336216621399E+02  0.146215744019E+02  0.000000000000E+00
  0.100000000000E+05  0.146215744019E+02  0.000000000000E+00
  0.345761108398E+02  0.155760145187E+02  0.000000000000E+00
  0.100000000000E+05  0.155760145187E+02  0.000000000000E+00
  0.355575256348E+02  0.165574264526E+02  0.000000000000E+00
  0.100000000000E+05  0.165574264526E+02  0.000000000000E+00
  0.365635871887E+02  0.175634803772E+02  0.000000000000E+00
  0.100000000000E+05  0.175634803772E+02  0.000000000000E+00
  0.375916786194E+02  0.185915622711E+02  0.000000000000E+00
  0.100000000000E+05  0.185915622711E+02  0.000000000000E+00
  0.386389083862E+02  0.196387882233E+02  0.000000000000E+00
  0.100000000000E+05  0.196387882233E+02  0.000000000000E+00
  0.397021560669E+02  0.207020301819E+02  0.000000000000E+00
  0.100000000000E+05  0.207020301819E+02  0.000000000000E+00
  0.407780914307E+02  0.217779560089E+02  0.000000000000E+00
  0.100000000000E+05  0.217779560089E+02  0.000000000000E+00
  0.418632049561E+02  0.228630657196E+02  0.000000000000E+00
  0.100000000000E+05  0.228630657196E+02  0.000000000000E+00
  0.429538803101E+02  0.239537334442E+02  0.000000000000E+00
  0.100000000000E+05  0.239537334442E+02  0.000000000000E+00
  0.440464210510E+02  0.250462665558E+02  0.000000000000E+00
  0.100000000000E+05  0.250462665558E+02  0.000000000000E+00
  0.451370964050E+02  0.261369342804E+02  0.000000000000E+00
  0.100000000000E+05  0.261369342804E+02  0.000000000000E+00
  0.462222099304E+02  0.272220439911E+02  0.000000000000E+00
  0.100000000000E+05  0.272220439911E+02  0.000000000000E+00
  0.472981452942E+02  0.282979698181E+02  0.000000000000E+00
  0.100000000000E+05  0.282979698181E+02  0.000000000000E+00
  0.483613929749E+02  0.293612117767E+02  0.000000000000E+00
  0.100000000000E+05  0.293612117767E+02  0.000000000000E+00
  0.494086227417E+02  0.304084377289E+02  0.000000000000E+00
  0.100000000000E+05  0.304084377289E+02  0.000000000000E+00
  0.504367141724E+02  0.314365196228E+02  0.000000000000E+00
  0.100000000000E+05  0.314365196228E+02  0.000000000000E+00
  0.514427719116E+02  0.324425735474E+02  0.000000000000E+00
  0.100000000000E+05  0.324425735474E+02  0.000000000000E+00
  0.524241905212E+02  0.334239845276E+02  0.000000000000E+00
  0.100000000000E+05  0.334239845276E+02  0.000000000000E+00
  0.533786354065E+02  0.343784255981E+02  0.000000000000E+00
  0.100000000000E+05  0.343784255981E+02  0.000000000000E+00
  0.543040924072E+02  0.353038749695E+02  0.000000000000E+00
  0.100000000000E+05  0.353038749695E+02  0.000000000000E+00
  0.551988449097E+02  0.361986236572E+02  0.000000000000E+00
  0.100000000000E+05  0.361986236572E+02  0.000000000000E+00
  0.560615043640E+02  0.370612754822E+02  0.000000000000E+00
  0.100000000000E+05  0.370612754822E+02  0.000000000000E+00
  0.568909797668E+02  0.378907470703E+02  0.000000000000E+00
  0.100000000000E+05  0.378907470703E+02  0.000000000000E+00
  0.576864814758E+02  0.386862449646E+02  0.000000000000E+00
  0.100000000000E+05  0.386862449646E+02  0.000000000000E+00
  0.584475135803E+02  0.394472732544E+02  0.000000000000E+00
  0.100000000000E+05  0.394472732544E+02  0.000000000000E+00
  0.591738395691E+02  0.401735916138E+02  0.000000000000E+00
  0.100000000000E+05  0.401735916138E+02  0.000000000000E+00
  0.598654670715E+02  0.408652153015E+02  0.000000000000E+00
  0.100000000000E+05  0.408652153015E+02  0.000000000000E+00
  0.605226325989E+02  0.415223770142E+02  0.000000000000E+00
  0.100000000000E+05  0.415223770142E+02  0.000000000000E+00
  0.611457786560E+02  0.421455192566E+02  0.000000000000E+00
  0.100000000000E+05  0.421455192566E+02  0.000000000000E+00
  0.617355079651E+02  0.427352447510E+02  0.000000000000E+00
  0.100000000000E+05  0.427352447510E+02  0.000000000000E+00
  0.622925949097E+02  0.432923278809E+02  0.000000000000E+00
  0.100000000000E+05  0.432923278809E+02  0.000000000000E+00
  0.628179206848E+02  0.438176536560E+02  0.000000000000E+00
  0.100000000000E+05  0.438176536560E+02  0.000000000000E+00
  0.633124923706E+02  0.443122177124E+02  0.000000000000E+00
  0.100000000000E+05  0.443122177124E+02  0.000000000000E+00
  0.637773857117E+02  0.447771110535E+02  0.000000000000E+00
  0.100000000000E+05  0.447771110535E+02  0.000000000000E+00
  0.642137451172E+02  0.452134704590E+02  0.000000000000E+00
  0.100000000000E+05  0.452134704590E+02  0.000000000000E+00
  0.646227722168E+02  0.456224937439E+02  0.000000000000E+00
  0.100000000000E+05  0.456224937439E+02  0.000000000000E+00
  0.650056838989E+02  0.460054016113E+02  0.000000000000E+00
  0.100000000000E+05  0.460054016113E+02  0.000000000000E+00
  0.653637237549E+02  0.463634376526E+02  0.000000000000E+00
  0.100000000000E+05  0.463634376526E+02  0.000000000000E+00
  0.656981201172E+02  0.466978340149E+02  0.000000000000E+00
  0.100000000000E+05  0.466978340149E+02  0.000000000000E+00
  0.660101242065E+02  0.470098342896E+02  0.000000000000E+00
  0.100000000000E+05  0.470098342896E+02  0.000000000000E+00
  0.663009338379E+02  0.473006477356E+02  0.000000000000E+00
  0.100000000000E+05  0.473006477356E+02  0.000000000000E+00
  0.665717620850E+02  0.475714683533E+02  0.000000000000E+00
  0.100000000000E+05  0.475714683533E+02  0.000000000000E+00
  0.668237533569E+02  0.478234596252E+02  0.000000000000E+00
  0.100000000000E+05  0.478234596252E+02  0.000000000000E+00
  0.670580444336E+02  0.480577468872E+02  0.000000000000E+00
  0.100000000000E+05  0.480577468872E+02  0.000000000000E+00
  0.672757034302E+02  0.482754096985E+02  0.000000000000E+00
  0.100000000000E+05  0.482754096985E+02  0.000000000000E+00
  0.674777908325E+02  0.484774932861E+02  0.000000000000E+00
  0.100000000000E+05  0.484774932861E+02  0.000000000000E+00
  0.676652908325E+02  0.486649932861E+02  0.000000000000E+00
  0.100000000000E+05  0.486649932861E+02  0.000000000000E+00
  0.678391647339E+02  0.488388633728E+02  0.000000000000E+00
  0.100000000000E+05  0.488388633728E+02  0.000000000000E+00
  0.680002975464E+02  0.490000000000E+02  0.000000000000E+00
  0.100000000000E+05  0.490000000000E+02  0.000000000000E+00
POLYGONS                 158                 632
3                   2                   3                   1
3                   2                   1                   0
3                   4                   5                   3
3                   4                   3                   2
3                   6                   7                   5
3                   6                   5                   4
3                   8                   9                   7
3                   8                   7                   6
3                  10                  11                   9
3                  10                   9                   8
3                  12                  13                  11
3                  12                  11                  10
3                  14                  15                  13
3                  14                  13                  12
3                  16                  17                  15
3                  16                  15                  14
3                  18                  19                  17
3                  18                  17                  16
3                  20                  21                  19
3                  20                  19                  18
3                  22                  23                  21
3                  22                  21                  20
3                  24                  25                  23
3                  24                  23                  22
3                  26                  27                  25
3                  26                  25                  24
3                  28                  29                  27
3                  28                  27                  26
3                  30                  31                  29
3                  30                  29                  28
3                  32                  33                  31
3                  32                  31                  30
3                  34                  35                  33
3                  34                  33                  32
3                  36                  37                  35
3                  36                  35                  34
3                  38                  39                  37
3                  38                  37                  36
3                  40                  41                  39
3                  40                  39                  38
3                  42                  43                  41
3                  42                  41                  40
3                  44                  45                  43
3                  44                  43                  42
3                  46                  47                  45
3                  46                  45                  44
3                  48                  49                  47
3                  48                  47                  46
3                  50                  51                  49
3                  50                  49                  48
3                  52                  53                  51
3                  52                  51                  50
3                  54                  55                  53
3                  54                  53                  52
3                  56                  57                  55
3                  56                  55                  54
3                  58                  59                  57
3                  58                  57                  56
3                  60                  61                  59
3                  60                  59                  58
3                  62                  63                  61
3                  62                  61                  60
3                  64                  65                  63
3                  64                  63                  62
3                  66                  67                  65
3                  66                  65                  64
3                  68                  69                  67
3                  68                  67                  66
3                  70                  71                  69
3                  70                  69                  68
3                  72                  73                  71
3                  72                  71                  70
3                  74                  75                  73
3                  74                  73                  72
3                  76                  77                  75
3                  76                  75                  74
3                  78                  79                  77
3                  78                  77                  76
3                  80                  81                  79
3                  80                  79                  78
3                  82                  83                  81
3                  82                  81                  80
3                  84                  85                  83
3                  84                  83                  82
3                  86                  87                  85
3                  86                  85                  84
3                  88                  89                  87
3                  88                  87                  86
3                  90                  91                  89
3                  90                  89                  88
3                  92                  93                  91
3                  92                  91                  90
3                  94                  95                  93
3                  94                  93                  92
3                  96                  97                  95
3                  96                  95                  94
3                  98                  99                  97
3                  98                  97                  96
3                 100                 101                  99
3                 100                  99                  98
3                 102                 103                 101
3                 102                 101                 100
3                 104                 105                 103
3                 104                 103                 102
3                 106                 107                 105
3                 106                 105                 104
3                 108                 109                 107
3                 108                 107                 106
3                 110                 111                 109
3                 110                 109                 108
3                 112                 113                 111
3                 112                 111                 110
3                 114                 115                 113
3                 114                 113                 112
3                 116                 117                 115
3                 116                 115                 114
3                 118                 119                 117
3                 118                 117                 116
3                 120                 121                 119
3                 120                 119                 118
3                 122                 123                 121
3                 122                 121                 120
3                 124                 125                 123
3                 124                 123                 122
3                 126                 127                 125
3                 126                 125                 124
3                 128                 129                 127
3                 128                 127                 126
3                 130                 131                 129
3                 130                 129                 128
3                 132                 133                 131
3                 132                 131                 130
3                 134                 135                 133
3                 134                 133                 132
3                 136                 137                 135
3                 136                 135                 134
3                 138                 139                 137
3                 138                 137                 136
3                 140                 141                 139
3                 140                 139                 138
3                 142                 143                 141
3                 142                 141                 140
3                 144                 145                 143
3                 144                 143                 142
3                 146                 147                 145
3                 146                 145                 144
3                 148                 149                 147
3                 148                 147                 146
3                 150                 151                 149
3                 150                 149                 148
3                 152                 153                 151
3                 152                 151                 150
3                 154                 155                 153
3                 154                 153                 152
3                 156                 157                 155
3                 156                 155                 154
3                 158                 159                 157
3                 158                 157                 156
CELL_DATA                 158
NORMALS normals float
  0.000000000000E+00  0.000000000000E+00 -0.100000000000E+01
 -0.000000000000E+00 -0.000000000000E+00 -0.100000000000E+01
  0.000000000000E+00  0.000000000000E+00 -0.100000000000E+01
 -0.000000000000E+00 -0.000000000000E+00 -0.100000000000E+01
  0.000000000000E+00  0.000000000000E+00 -0.100000000000E+01
 -0.000000000000E+00 -0.000000000000E+00 -0.100000000000E+01
  0.000000000000E+00  0.000000000000E+00 -0.100000000000E+01
 -0.000000000000E+00 -0.000000000000E+00 -0.100000000000E+01
  0.000000000000E+00  0.000000000000E+00 -0.100000000000E+01
 -0.000000000000E+00 -0.000000000000E+00 -0.100000000000E+01
  0.000000000000E+00  0.000000000000E+00 -0.100000000000E+01
 -0.000000000000E+00 -0.000000000000E+00 -0.100000000000E+01
  0.000000000000E+00  0.000000000000E+00 -0.100000000000E+01
 -0.000000000000E+00 -0.000000000000E+00 -0.100000000000E+01
  0.000000000000E+00  0.000000000000E+00 -0.100000000000E+01
 -0.000000000000E+00 -0.000000000000E+00 -0.100000000000E+01
  0.000000000000E+00  0.000000000000E+00 -0.100000000000E+01
 -0.000000000000E+00 -0.000000000000E+00 -0.100000000000E+01
  0.000000000000E+00  0.000000000000E+00 -0.100000000000E+01
 -0.000000000000E+00 -0.000000000000E+00 -0.100000000000E+01
  0.000000000000E+00  0.000000000000E+00 -0.100000000000E+01
 -0.000000000000E+00 -0.000000000000E+00 -0.100000000000E+01
  0.000000000000E+00  0.000000000000E+00 -0.100000000000E+01
 -0.000000000000E+00 -0.000000000000E+00 -0.100000000000E+01
  0.000000000000E+00  0.000000000000E+00 -0.100000000000E+01
 -0.000000000000E+00 -0.000000000000E+00 -0.100000000000E+01
  0.000000000000E+00  0.000000000000E+00 -0.100000000000E+01
 -0.000000000000E+00 -0.000000000000E+00 -0.100000000000E+01
  0.000000000000E+00  0.000000000000E+00 -0.100000000000E+01
 -0.000000000000E+00 -0.000000000000E+00 -0.100000000000E+01
  0.000000000000E+00  0.000000000000E+00 -0.100000000000E+01
 -0.000000000000E+00 -0.000000000000E+00 -0.100000000000E+01
  0.000000000000E+00  0.000000000000E+00 -0.100000000000E+01
 -0.000000000000E+00 -0.000000000000E+00 -0.100000000000E+01
  0.000000000000E+00  0.000000000000E+00 -0.100000000000E+01
 -0.000000000000E+00 -0.000000000000E+00 -0.100000000000E+01
  0.000000000000E+00  0.000000000000E+00 -0.100000000000E+01
 -0.000000000000E+00 -0.000000000000E+00 -0.100000000000E+01
  0.000000000000E+00  0.000000000000E+00 -0.100000000000E+01
 -0.000000000000E+00 -0.000000000000E+00 -0.100000000000E+01
  0.000000000000E+00  0.000000000000E+00 -0.100000000000E+01
 -0.000000000000E+00 -0.000000000000E+00 -0.100000000000E+01
  0.000000000000E+00  0.000000000000E+00 -0.100000000000E+01
 -0.000000000000E+00 -0.000000000000E+00 -0.100000000000E+01
  0.000000000000E+00  0.000000000000E+00 -0.100000000000E+01
 -0.000000000000E+00 -0.000000000000E+00 -0.100000000000E+01
  0.000000000000E+00  0.000000000000E+00 -0.100000000000E+01
 -0.000000000000E+00 -0.000000000000E+00 -0.100000000000E+01
  0.000000000000E+00  0.000000000000E+00 -0.100000000000E+01
 -0.000000000000E+00 -0.000000000000E+00 -0.100000000000E+01
  0.000000000000E+00  0.000000000000E+00 -0.100000000000E+01
 -0.000000000000E+00 -0.000000000000E+00 -0.100000000000E+01
  0.000000000000E+00  0.000000000000E+00 -0.100000000000E+01
 -0.000000000000E+00 -0.000000000000E+00 -0.100000000000E+01
  0.000000000000E+00  0.000000000000E+00 -0.100000000000E+01
 -0.000000000000E+00 -0.000000000000E+00 -0.100000000000E+01
  0.000000000000E+00  0.000000000000E+00 -0.100000000000E+01
 -0.000000000000E+00 -0.000000000000E+00 -0.100000000000E+01
  0.000000000000E+00  0.000000000000E+00 -0.100000000000E+01
 -0.000000000000E+00 -0.000000000000E+00 -0.100000000000E+01
  0.000000000000E+00  0.000000000000E+00 -0.100000000000E+01
 -0.000000000000E+00 -0.000000000000E+00 -0.100000000000E+01
  0.000000000000E+00  0.000000000000E+00 -0.100000000000E+01
 -0.000000000000E+00 -0.000000000000E+00 -0.100000000000E+01
  0.000000000000E+00  0.000000000000E+00 -0.100000000000E+01
 -0.000000000000E+00 -0.000000000000E+00 -0.100000000000E+01
  0.000000000000E+00  0.000000000000E+00 -0.100000000000E+01
 -0.000000000000E+00 -0.000000000000E+00 -0.100000000000E+01
  0.000000000000E+00  0.000000000000E+00 -0.100000000000E+01
 -0.000000000000E+00 -0.000000000000E+00 -0.100000000000E+01
  0.000000000000E+00  0.000000000000E+00 -0.100000000000E+01
 -0.000000000000E+00 -0.000000000000E+00 -0.100000000000E+01
  0.000000000000E+00  0.000000000000E+00 -0.100000000000E+01
 -0.000000000000E+00 -0.000000000000E+00 -0.100000000000E+01
  0.000000000000E+00  0.000000000000E+00 -0.100000000000E+01
 -0.000000000000E+00 -0.000000000000E+00 -0.100000000000E+01
  0.000000000000E+00  0.000000000000E+00 -0.100000000000E+01
 -0.000000000000E+00 -0.000000000000E+00 -0.100000000000E+01
  0.000000000000E+00  0.000000000000E+00 -0.100000000000E+01
 -0.000000000000E+00 -0.000000000000E+00 -0.100000000000E+01
  0.000000000000E+00  0.000000000000E+00 -0.100000000000E+01
 -0.000000000000E+00 -0.000000000000E+00 -0.100000000000E+01
  0.000000000000E+00  0.000000000000E+00 -0.100000000000E+01
 -0.000000000000E+00 -0.000000000000E+00 -0.100000000000E+01
  0.000000000000E+00  0.000000000000E+00 -0.100000000000E+01
 -0.000000000000E+00 -0.000000000000E+00 -0.100000000000E+01
  0.000000000000E+00  0.000000000000E+00 -0.100000000000E+01
 -0.000000000000E+00 -0.000000000000E+00 -0.100000000000E+01
  0.000000000000E+00  0.000000000000E+00 -0.100000000000E+01
 -0.000000000000E+00 -0.000000000000E+00 -0.100000000000E+01
  0.000000000000E+00  0.000000000000E+00 -0.100000000000E+01
 -0.000000000000E+00 -0.000000000000E+00 -0.100000000000E+01
  0.000000000000E+00  0.000000000000E+00 -0.100000000000E+01
 -0.000000000000E+00 -0.000000000000E+00 -0.100000000000E+01
  0.000000000000E+00  0.000000000000E+00 -0.100000000000E+01
 -0.000000000000E+00 -0.000000000000E+00 -0.100000000000E+01
  0.000000000000E+00  0.000000000000E+00 -0.100000000000E+01
 -0.000000000000E+00 -0.000000000000E+00 -0.100000000000E+01
  0.000000000000E+00  0.000000000000E+00 -0.100000000000E+01
 -0.000000000000E+00 -0.000000000000E+00 -0.100000000000E+01
  0.000000000000E+00  0.000000000000E+00 -0.100000000000E+01
 -0.000000000000E+00 -0.000000000000E+00 -0.100000000000E+01
  0.000000000000E+00  0.000000000000E+00 -0.100000000000E+01
 -0.000000000000E+00 -0.000000000000E+00 -0.100000000000E+01
  0.000000000000E+00  0.000000000000E+00 -0.100000000000E+01
 -0.000000000000E+00 -0.000000000000E+00 -0.100000000000E+01
  0.000000000000E+00  0.000000000000E+00 -0.100000000000E+01
 -0.000000000000E+00 -0.000000000000E+00 -0.100000000000E+01
  0.000000000000E+00  0.000000000000E+00 -0.100000000000E+01
 -0.000000000000E+00 -0.000000000000E+00 -0.100000000000E+01
  0.000000000000E+00  0.000000000000E+00 -0.100000000000E+01
 -0.000000000000E+00 -0.000000000000E+00 -0.100000000000E+01
  0.000000000000E+00  0.000000000000E+00 -0.100000000000E+01
 -0.000000000000E+00 -0.000000000000E+00 -0.100000000000E+01
  0.000000000000E+00  0.000000000000E+00 -0.100000000000E+01
 -0.000000000000E+00 -0.000000000000E+00 -0.100000000000E+01
  0.000000000000E+00  0.000000000000E+00 -0.100000000000E+01
 -0.000000000000E+00 -0.000000000000E+00 -0.100000000000E+01
  0.000000000000E+00  0.000000000000E+00 -0.100000000000E+01
 -0.000000000000E+00 -0.000000000000E+00 -0.100000000000E+01
  0.000000000000E+00  0.000000000000E+00 -0.100000000000E+01
 -0.000000000000E+00 -0.000000000000E+00 -0.100000000000E+01
  0.000000000000E+00  0.000000000000E+00 -0.100000000000E+01
 -0.000000000000E+00 -0.000000000000E+00 -0.100000000000E+01
  0.000000000000E+00  0.000000000000E+00 -0.100000000000E+01
 -0.000000000000E+00 -0.000000000000E+00 -0.100000000000E+01
  0.000000000000E+00  0.000000000000E+00 -0.100000000000E+01
 -0.000000000000E+00 -0.000000000000E+00 -0.100000000000E+01
  0.000000000000E+00  0.000000000000E+00 -0.100000000000E+01
 -0.000000000000E+00 -0.000000000000E+00 -0.100000000000E+01
  0.000000000000E+00  0.000000000000E+00 -0.100000000000E+01
 -0.000000000000E+00 -0.000000000000E+00 -0.100000000000E+01
  0.000000000000E+00  0.000000000000E+00 -0.100000000000E+01
 -0.000000000000E+00 -0.000000000000E+00 -0.100000000000E+01
  0.000000000000E+00  0.000000000000E+00 -0.100000000000E+01
 -0.000000000000E+00 -0.000000000000E+00 -0.100000000000E+01
  0.000000000000E+00  0.000000000000E+00 -0.100000000000E+01
 -0.000000000000E+00 -0.000000000000E+00 -0.100000000000E+01
  0.000000000000E+00  0.000000000000E+00 -0.100000000000E+01
 -0.000000000000E+00 -0.000000000000E+00 -0.100000000000E+01
  0.000000000000E+00  0.000000000000E+00 -0.100000000000E+01
 -0.000000000000E+00 -0.000000000000E+00 -0.100000000000E+01
  0.000000000000E+00  0.000000000000E+00 -0.100000000000E+01
 -0.000000000000E+00 -0.000000000000E+00 -0.100000000000E+01
  0.000000000000E+00  0.000000000000E+00 -0.100000000000E+01
 -0.000000000000E+00 -0.000000000000E+00 -0.100000000000E+01
  0.000000000000E+00  0.000000000000E+00 -0.100000000000E+01
 -0.000000000000E+00 -0.000000000000E+00 -0.100000000000E+01
  0.000000000000E+00  0.000000000000E+00 -0.100000000000E+01
 -0.000000000000E+00 -0.000000000000E+00 -0.100000000000E+01
  0.000000000000E+00  0.000000000000E+00 -0.100000000000E+01
 -0.000000000000E+00 -0.000000000000E+00 -0.100000000000E+01
  0.000000000000E+00  0.000000000000E+00 -0.100000000000E+01
 -0.000000000000E+00 -0.000000000000E+00 -0.100000000000E+01
  0.000000000000E+00  0.000000000000E+00 -0.100000000000E+01
 -0.000000000000E+00 -0.000000000000E+00 -0.100000000000E+01
  0.000000000000E+00  0.000000000000E+00 -0.100000000000E+01
 -0.000000000000E+00 -0.000000000000E+00 -0.100000000000E+01
POINT_DATA                 160
SCALARS mu float 1
LOOKUP_TABLE default
 -0.142295677819E-05
 -0.142295677819E-05
 -0.546379741451E-06
 -0.546379741451E-06
 -0.593030023310E-06
 -0.593030023310E-06
 -0.276893935336E-06
 -0.276893935336E-06
 -0.160975012875E-06
 -0.160975012875E-06
 -0.105734934408E-05
 -0.105734934408E-05
  0.114883810909E-06
  0.114883810909E-06
 -0.792443831443E-06
 -0.792443831443E-06
 -0.147097897596E-05
 -0.147097897596E-05
 -0.134690424503E-05
 -0.134690424503E-05
 -0.820632234166E-06
 -0.820632234166E-06
  0.518327968990E-06