# vtk DataFile Version 3.0
MachLine results file. Generated by MachLine, USU AeroLab (c) 2022.
ASCII
DATASET POLYDATA
POINTS                  76 float
  0.197579002380E+02  0.757896304131E+00  0.000000000000E+00
  0.190000000000E+02  0.000000000000E+00  0.000000000000E+00
  0.149901210499E+05  0.757896304131E+00  0.000000000000E+00
  0.149905000000E+05  0.000000000000E+00  0.000000000000E+00
  0.207889842987E+02  0.178897356987E+01  0.000000000000E+00
  0.197579002380E+02  0.757896304131E+00  0.000000000000E+00
  0.149896055079E+05  0.178897356987E+01  0.000000000000E+00
  0.149901210499E+05  0.757896304131E+00  0.000000000000E+00
  0.221728172302E+02  0.317279767990E+01  0.000000000000E+00
  0.207889842987E+02  0.178897356987E+01  0.000000000000E+00
  0.149889135914E+05  0.317279767990E+01  0.000000000000E+00
  0.149896055079E+05  0.178897356987E+01  0.000000000000E+00
  0.239966468811E+02  0.499661636353E+01  0.000000000000E+00
  0.221728172302E+02  0.317279767990E+01  0.000000000000E+00
  0.149880016766E+05  0.499661636353E+01  0.000000000000E+00
  0.149889135914E+05  0.317279767990E+01  0.000000000000E+00
  0.263436698914E+02  0.734362459183E+01  0.000000000000E+00
  0.239966468811E+02  0.499661636353E+01  0.000000000000E+00
  0.149868281651E+05  0.734362459183E+01  0.000000000000E+00
  0.149880016766E+05  0.499661636353E+01  0.000000000000E+00
  0.292729015350E+02  0.102728376389E+02  0.000000000000E+00
  0.263436698914E+02  0.734362459183E+01  0.000000000000E+00
  0.149853635492E+05  0.102728376389E+02  0.000000000000E+00
  0.149868281651E+05  0.734362459183E+01  0.000000000000E+00
  0.327922058105E+02  0.137921218872E+02  0.000000000000E+00
  0.292729015350E+02  0.102728376389E+02  0.000000000000E+00
  0.149836038971E+05  0.137921218872E+02  0.000000000000E+00
  0.149853635492E+05  0.102728376389E+02  0.000000000000E+00
  0.368321151733E+02  0.178320064545E+02  0.000000000000E+00
  0.327922058105E+02  0.137921218872E+02  0.000000000000E+00
  0.149815839424E+05  0.178320064545E+02  0.000000000000E+00
  0.149836038971E+05  0.137921218872E+02  0.000000000000E+00
  0.412340698242E+02  0.222339305878E+02  0.000000000000E+00
  0.368321151733E+02  0.178320064545E+02  0.000000000000E+00
  0.149793829651E+05  0.222339305878E+02  0.000000000000E+00
  0.149815839424E+05  0.178320064545E+02  0.000000000000E+00
  0.457662315369E+02  0.267660694122E+02  0.000000000000E+00
  0.412340698242E+02  0.222339305878E+02  0.000000000000E+00
  0.149771168842E+05  0.267660694122E+02  0.000000000000E+00
  0.149793829651E+05  0.222339305878E+02  0.000000000000E+00
  0.501681861877E+02  0.311679935455E+02  0.000000000000E+00
  0.457662315369E+02  0.267660694122E+02  0.000000000000E+00
  0.149749159069E+05  0.311679935455E+02  0.000000000000E+00
  0.149771168842E+05  0.267660694122E+02  0.000000000000E+00
  0.542080955505E+02  0.352078781128E+02  0.000000000000E+00
  0.501681861877E+02  0.311679935455E+02  0.000000000000E+00
  0.149728959522E+05  0.352078781128E+02  0.000000000000E+00
  0.149749159069E+05  0.311679935455E+02  0.000000000000E+00
  0.577274017334E+02  0.387271614075E+02  0.000000000000E+00
  0.542080955505E+02  0.352078781128E+02  0.000000000000E+00
  0.149711362991E+05  0.387271614075E+02  0.000000000000E+00
  0.149728959522E+05  0.352078781128E+02  0.000000000000E+00
  0.606566314697E+02  0.416563758850E+02  0.000000000000E+00
  0.577274017334E+02  0.387271614075E+02  0.000000000000E+00
  0.149696716843E+05  0.416563758850E+02  0.000000000000E+00
  0.149711362991E+05  0.387271614075E+02  0.000000000000E+00
  0.630036544800E+02  0.440033836365E+02  0.000000000000E+00
  0.606566314697E+02  0.416563758850E+02  0.000000000000E+00
  0.149684981728E+05  0.440033836365E+02  0.000000000000E+00
  0.149696716843E+05  0.416563758850E+02  0.000000000000E+00
  0.648274841309E+02  0.458272018433E+02  0.000000000000E+00
  0.630036544800E+02  0.440033836365E+02  0.000000000000E+00
  0.149675862579E+05  0.458272018433E+02  0.000000000000E+00
  0.149684981728E+05  0.440033836365E+02  0.000000000000E+00
  0.662113189697E+02  0.472110252380E+02  0.000000000000E+00
  0.648274841309E+02  0.458272018433E+02  0.000000000000E+00
  0.149668943405E+05  0.472110252380E+02  0.000000000000E+00
  0.149675862579E+05  0.458272018433E+02  0.000000000000E+00
  0.672424011230E+02  0.482421035767E+02  0.000000000000E+00
  0.662113189697E+02  0.472110252380E+02  0.000000000000E+00
  0.149663787994E+05  0.482421035767E+02  0.000000000000E+00
  0.149668943405E+05  0.472110252380E+02  0.000000000000E+00
  0.680002975464E+02  0.490000000000E+02  0.000000000000E+00
  0.672424011230E+02  0.482421035767E+02  0.000000000000E+00
  0.149659998512E+05  0.490000000000E+02  0.000000000000E+00
  0.149663787994E+05  0.482421035767E+02  0.000000000000E+00
POLYGONS                  38                 152
3                   0                   3                   1
3                   0                   2                   3
3                   4                   7                   5
3                   4                   6                   7
3                   8                  11                   9
3                   8                  10                  11
3                  12                  15                  13
3                  12                  14                  15
3                  16                  19                  17
3                  16                  18                  19
3                  20                  23                  21
3                  20                  22                  23
3                  24                  27                  25
3                  24                  26                  27
3                  28                  31                  29
3                  28                  30                  31
3                  32                  35                  33
3                  32                  34                  35
3                  36                  39                  37
3                  36                  38                  39
3                  40                  43                  41
3                  40                  42                  43
3                  44                  47                  45
3                  44                  46                  47
3                  48                  51                  49
3                  48                  50                  51
3                  52                  55                  53
3                  52                  54                  55
3                  56                  59                  57
3                  56                  58                  59
3                  60                  63                  61
3                  60                  62                  63
3                  64                  67                  65
3                  64                  66                  67
3                  68                  71                  69
3                  68                  70                  71
3                  72                  75                  73
3                  72                  74                  75
POINT_DATA                  76
SCALARS mu float 1
LOOKUP_TABLE default
 -0.311607184500E-09
 -0.112780895734E-10
 -0.311607184500E-09
 -0.112780895734E-10
 -0.216757900517E-08
 -0.311607184500E-09
 -0.216757900517E-08
 -0.311607184500E-09
  0.163519509044E-08
 -0.216757900517E-08
  0.163519509044E-08
 -0.216757900517E-08
 -0.158170365694E-09
  0.163519509044E-08
 -0.158170365694E-09
  0.163519509044E-08
  0.889670559445E-10
 -0.158170365694E-09
  0.889670559445E-10
 -0.158170365694E-09
 -0.836095637169E-10
  0.889670559445E-10
 -0.836095637169E-10
  0.889670559445E-10
  0.599129634793E-10
 -0.836095637169E-10
  0.599129634793E-10
 -0.836095637169E-10
 -0.405719902119E-10
  0.599129634793E-10
 -0.405719902119E-10
  0.599129634793E-10
  0.122952314996E-09
 -0.405719902119E-10
  0.122952314996E-09
 -0.405719902119E-10
 -0.117125864563E-09
  0.122952314996E-09
 -0.117125864563E-09
  0.122952314996E-09
 -0.775912667450E-11
 -0.117125864563E-09
 -0.775912667450E-11
 -0.117125864563E-09
 -0.103383968053E-09
 -0.775912667450E-11
 -0.103383968053E-09
 -0.775912667450E-11
 -0.101607611214E-10
 -0.103383968053E-09
 -0.101607611214E-10
 -0.103383968053E-09
  0.163140612131E-10
 -0.101607611214E-10
  0.163140612131E-10
 -0.101607611214E-10
 -0.162881264032E-09
  0.163140612131E-10
 -0.162881264032E-09
  0.163140612131E-10
  0.142546419113E-08
 -0.162881264032E-09
  0.142546419113E-08
 -0.162881264032E-09
 -0.130320643166E-09
  0.142546419113E-08
 -0.130320643166E-09
  0.142546419113E-08
 -0.107397202243E-08
 -0.130320643166E-09
 -0.107397202243E-08
 -0.130320643166E-09
  0.000000000000E+00
 -0.107397202243E-08
  0.000000000000E+00
 -0.107397202243E-08
