# vtk DataFile Version 3.0
MachLine results file. Generated by MachLine, USU AeroLab (c) 2022.
ASCII
DATASET POLYDATA
POINTS                 144 float
  0.000000000000E+00  0.000000000000E+00  0.000000000000E+00
  0.113538098335E+01  0.000000000000E+00 -0.658124566078E+00
  0.113538098335E+01  0.000000000000E+00  0.658124566078E+00
  0.192375373840E+01  0.192375373840E+01  0.000000000000E+00
  0.305913543701E+01  0.192375373840E+01 -0.658124983311E+00
  0.305913543701E+01  0.192375373840E+01  0.658124983311E+00
  0.423028087616E+01  0.000000000000E+00 -0.108747220039E+01
  0.423028087616E+01  0.000000000000E+00  0.108747220039E+01
  0.547033166885E+01  0.547033166885E+01  0.000000000000E+00
  0.615403699875E+01  0.192375373840E+01 -0.108747279644E+01
  0.615403699875E+01  0.192375373840E+01  0.108747279644E+01
  0.660571479797E+01  0.547033166885E+01 -0.658125698566E+00
  0.660571479797E+01  0.547033166885E+01  0.658125698566E+00
  0.939508819580E+01  0.000000000000E+00 -0.980745851994E+00
  0.939508819580E+01  0.000000000000E+00  0.980745851994E+00
  0.970061969757E+01  0.547033166885E+01 -0.108747410774E+01
  0.970061969757E+01  0.547033166885E+01  0.108747410774E+01
  0.113188476562E+02  0.192375373840E+01 -0.980746448040E+00
  0.113188476562E+02  0.192375373840E+01  0.980746448040E+00
  0.113820018768E+02  0.113820018768E+02  0.000000000000E+00
  0.125173873901E+02  0.113820018768E+02 -0.658127009869E+00
  0.125173873901E+02  0.113820018768E+02  0.658127009869E+00
  0.145402030945E+02  0.000000000000E+00 -0.479613035917E+00
  0.145402030945E+02  0.000000000000E+00  0.479613035917E+00
  0.148654365540E+02  0.547033166885E+01 -0.980747580528E+00
  0.148654365540E+02  0.547033166885E+01  0.980747580528E+00
  0.156122989655E+02  0.113820018768E+02 -0.108747613430E+01
  0.156122989655E+02  0.113820018768E+02  0.108747613430E+01
  0.164639663696E+02  0.192375373840E+01 -0.479613333941E+00
  0.164639663696E+02  0.192375373840E+01  0.479613333941E+00
  0.176505107880E+02  0.000000000000E+00 -0.144198849797E+00
  0.176505107880E+02  0.000000000000E+00  0.144198849797E+00
  0.190000000000E+02  0.000000000000E+00  0.000000000000E+00
  0.195742740631E+02  0.192375373840E+01 -0.144198939204E+00
  0.195742740631E+02  0.192375373840E+01  0.144198939204E+00
  0.197561950684E+02  0.197561950684E+02  0.000000000000E+00
  0.200105609894E+02  0.547033166885E+01 -0.479613870382E+00
  0.200105609894E+02  0.547033166885E+01  0.479613870382E+00
  0.207771244049E+02  0.113820018768E+02 -0.980749428272E+00
  0.207771244049E+02  0.113820018768E+02  0.980749428272E+00
  0.208915824890E+02  0.197561950684E+02 -0.658128738403E+00
  0.208915824890E+02  0.197561950684E+02  0.658128738403E+00
  0.209237651825E+02  0.192375373840E+01  0.000000000000E+00
  0.231208724976E+02  0.547033166885E+01 -0.144199103117E+00
  0.231208724976E+02  0.547033166885E+01  0.144199103117E+00
  0.239865016937E+02  0.197561950684E+02 -0.108747911453E+01
  0.239865016937E+02  0.197561950684E+02  0.108747911453E+01
  0.244703655243E+02  0.547033166885E+01  0.000000000000E+00
  0.259222583771E+02  0.113820018768E+02 -0.479614794254E+00
  0.259222583771E+02  0.113820018768E+02  0.479614794254E+00
  0.290325775146E+02  0.113820018768E+02 -0.144199386239E+00
  0.290325775146E+02  0.113820018768E+02  0.144199386239E+00
  0.291513423920E+02  0.197561950684E+02 -0.980752110481E+00
  0.291513423920E+02  0.197561950684E+02  0.980752110481E+00
  0.292438049316E+02  0.292438049316E+02  0.000000000000E+00
  0.303791980743E+02  0.292438049316E+02 -0.658130764961E+00
  0.303791980743E+02  0.292438049316E+02  0.658130764961E+00
  0.303820724487E+02  0.113820018768E+02  0.000000000000E+00
  0.334741249084E+02  0.292438049316E+02 -0.108748245239E+01
  0.334741249084E+02  0.292438049316E+02  0.108748245239E+01
  0.342964897156E+02  0.197561950684E+02 -0.479616105556E+00
  0.342964897156E+02  0.197561950684E+02  0.479616105556E+00
  0.374068183899E+02  0.197561950684E+02 -0.144199773669E+00
  0.374068183899E+02  0.197561950684E+02  0.144199773669E+00
  0.376179962158E+02  0.376179962158E+02  0.000000000000E+00
  0.386389808655E+02  0.292438049316E+02 -0.980755090714E+00
  0.386389808655E+02  0.292438049316E+02  0.980755090714E+00
  0.387533912659E+02  0.376179962158E+02 -0.658132553101E+00
  0.387533912659E+02  0.376179962158E+02  0.658132553101E+00
  0.387563171387E+02  0.197561950684E+02  0.000000000000E+00
  0.418483314514E+02  0.376179962158E+02 -0.108748543262E+01
  0.418483314514E+02  0.376179962158E+02  0.108748543262E+01
  0.435296669006E+02  0.435296669006E+02  0.000000000000E+00
  0.437841453552E+02  0.292438049316E+02 -0.479617565870E+00
  0.437841453552E+02  0.292438049316E+02  0.479617565870E+00
  0.446650657654E+02  0.435296669006E+02 -0.658133804798E+00
  0.446650657654E+02  0.435296669006E+02  0.658133804798E+00
  0.468944816589E+02  0.292438049316E+02 -0.144200220704E+00
  0.468944816589E+02  0.292438049316E+02  0.144200220704E+00
  0.470131988525E+02  0.376179962158E+02 -0.980757772923E+00
  0.470131988525E+02  0.376179962158E+02  0.980757772923E+00
  0.470762481689E+02  0.470762481689E+02  0.000000000000E+00
  0.477600097656E+02  0.435296669006E+02 -0.108748745918E+01
  0.477600097656E+02  0.435296669006E+02  0.108748745918E+01
  0.482116432190E+02  0.470762481689E+02 -0.658134579659E+00
  0.482116432190E+02  0.470762481689E+02  0.658134579659E+00
  0.482439842224E+02  0.292438049316E+02  0.000000000000E+00
  0.490000000000E+02  0.490000000000E+02  0.000000000000E+00
  0.501353988647E+02  0.490000000000E+02 -0.658134996891E+00
  0.501353988647E+02  0.490000000000E+02  0.658134996891E+00
  0.506007728577E+02  0.494653701782E+02 -0.465371757746E+00
  0.506007728577E+02  0.494653701782E+02  0.465371757746E+00
  0.507935333252E+02  0.496581344604E+02 -0.771266485397E-15
  0.513065910339E+02  0.470762481689E+02 -0.108748877048E+01
  0.513065910339E+02  0.470762481689E+02  0.108748877048E+01
  0.521583786011E+02  0.376179962158E+02 -0.479618877172E+00
  0.521583786011E+02  0.376179962158E+02  0.479618877172E+00
  0.529248886108E+02  0.435296669006E+02 -0.980759620667E+00
  0.529248886108E+02  0.435296669006E+02  0.980759620667E+00
  0.532303466797E+02  0.490000000000E+02 -0.108748936653E+01
  0.532303466797E+02  0.490000000000E+02  0.108748936653E+01
  0.539993209839E+02  0.497689704895E+02 -0.768971264362E+00
  0.539993209839E+02  0.497689704895E+02  0.768971264362E+00
  0.543178405762E+02  0.500874900818E+02 -0.157378642191E-15
  0.552687225342E+02  0.376179962158E+02 -0.144200608134E+00
  0.552687225342E+02  0.376179962158E+02  0.144200608134E+00
  0.564714775085E+02  0.470762481689E+02 -0.980760753155E+00
  0.564714775085E+02  0.470762481689E+02  0.980760753155E+00
  0.566182289124E+02  0.376179962158E+02  0.000000000000E+00
  0.580700759888E+02  0.435296669006E+02 -0.479619771242E+00
  0.580700759888E+02  0.435296669006E+02  0.479619771242E+00
  0.583952369690E+02  0.490000000000E+02 -0.980761349201E+00
  0.583952369690E+02  0.490000000000E+02  0.980761349201E+00
  0.590887413025E+02  0.496935043335E+02 -0.693503141403E+00
  0.590887413025E+02  0.496935043335E+02  0.693503141403E+00
  0.593759994507E+02  0.499807624817E+02  0.000000000000E+00
  0.611804275513E+02  0.435296669006E+02 -0.144200876355E+00
  0.611804275513E+02  0.435296669006E+02  0.144200876355E+00
  0.616166725159E+02  0.470762481689E+02 -0.479620337486E+00
  0.616166725159E+02  0.470762481689E+02  0.479620337486E+00
  0.625299339294E+02  0.435296669006E+02  0.000000000000E+00
  0.635404319763E+02  0.490000000000E+02 -0.479620635509E+00
  0.635404319763E+02  0.490000000000E+02  0.479620635509E+00
  0.638795776367E+02  0.493391418457E+02 -0.339143037796E+00
  0.638795776367E+02  0.493391418457E+02  0.339143037796E+00
  0.640200576782E+02  0.494796218872E+02  0.296956834055E-15
  0.647270278931E+02  0.470762481689E+02 -0.144201040268E+00
  0.647270278931E+02  0.470762481689E+02  0.144201040268E+00
  0.660765380859E+02  0.470762481689E+02  0.000000000000E+00
  0.666507873535E+02  0.490000000000E+02 -0.144201144576E+00
  0.666507873535E+02  0.490000000000E+02  0.144201144576E+00
  0.667527542114E+02  0.491019668579E+02 -0.101965606213E+00
  0.667527542114E+02  0.491019668579E+02  0.101965606213E+00
  0.667949905396E+02  0.491441993713E+02 -0.260488604752E-16
  0.680002975464E+02  0.490000000000E+02  0.000000000000E+00
  0.190000000000E+02  0.000000000000E+00  0.000000000000E+00
  0.209237651825E+02  0.192375373840E+01  0.000000000000E+00
  0.244703655243E+02  0.547033166885E+01  0.000000000000E+00
  0.303820724487E+02  0.113820018768E+02  0.000000000000E+00
  0.387563171387E+02  0.197561950684E+02  0.000000000000E+00
  0.482439842224E+02  0.292438049316E+02  0.000000000000E+00
  0.566182289124E+02  0.376179962158E+02  0.000000000000E+00
  0.625299339294E+02  0.435296669006E+02  0.000000000000E+00
  0.660765380859E+02  0.470762481689E+02  0.000000000000E+00
POLYGONS                 256                1024
3                  32                  33                  42
3                  32                  30                  33
3                  30                  28                  33
3                  30                  22                  28
3                  22                  17                  28
3                  22                  13                  17
3                  13                   6                  17
3                  17                   6                   9
3                   6                   1                   9
3                   9                   1                   4
3                   1                   0                   4
3                   4                   0                   3
3                   0                   5                   3
3                   0                   2                   5
3                   2                  10                   5
3                   2                   7                  10
[...]
CELL_DATA                 256
SCALARS C_p_inc float 1
LOOKUP_TABLE default
  0.991815613307E-01
  0.433769429287E-01
 -0.181012419911E-01
 -0.665148512966E-01
 -0.144646472665E+00
 -0.181229213044E+00
 -0.222807398835E+00
 -0.231905200650E+00
 -0.946188219533E-01
 -0.220250097423E+00
  0.368002145334E+00
  0.239429296689E+00
  0.239429101582E+00
  0.368002053728E+00
 -0.220250321341E+00
 -0.946189785319E-01
 -0.231905488675E+00
 -0.222807632671E+00
 -0.181229657800E+00
 -0.144647028198E+00
 -0.665160044319E-01
 -0.181024750165E-01
  0.433707575874E-01
  0.991809019879E-01
  0.105773930681E+00
  0.970150835600E-01
  0.704442376946E-02
 -0.180526532410E-01
 -0.113859619914E+00
 -0.144704062557E+00
 -0.236350782213E+00
 -0.237265624520E+00
 -0.212272487148E+00
 -0.263238210593E+00
  0.199645151884E+00
  0.161875165888E+00
  0.161874877869E+00
  0.199644967368E+00
 -0.263238521168E+00
 -0.212272703750E+00
 -0.237265975770E+00
 -0.236351071926E+00
 -0.144704630695E+00
 -0.113860084991E+00
 -0.180538740067E-01
  0.704413175867E-02
  0.970143918495E-01
  0.105774124221E+00
  0.109257206127E+00
  0.105276598919E+00
  0.144525349892E-01
  0.695741468010E-02
 -0.994960003877E-01
 -0.113919222288E+00
 -0.241152966862E+00
 -0.228586559832E+00
 -0.263150882549E+00
 -0.271857278377E+00
  0.158234273163E+00
  0.148702990264E+00
  0.148702617609E+00
  0.158233983030E+00
 -0.271857625518E+00
 -0.263151194141E+00
 -0.228586841645E+00
 -0.241153335051E+00
 -0.113919689998E+00
 -0.994962163020E-01
  0.695712061678E-02
  0.144524121756E-01
  0.105276745762E+00
  0.109257125481E+00
  0.110903525729E+00
  0.109178151961E+00
  0.170018726122E-01
  0.144355573415E-01
 -0.954992145338E-01
 -0.995151771197E-01
 -0.230606674338E+00
 -0.224841712090E+00
 -0.273351609078E+00
 -0.269095077518E+00
  0.150575174345E+00
  0.151829715929E+00
  0.151829375683E+00
  0.150574801194E+00
 -0.269095355924E+00
 -0.273351963818E+00
 -0.224841895254E+00
 -0.230606970694E+00
 -0.995153875672E-01
 -0.954993507239E-01
  0.144354320600E-01
  0.170017313428E-01
  0.109178062837E+00
  0.110903233795E+00
  0.112137187117E+00
  0.110863732313E+00
  0.183512792389E-01
  0.169901735570E-01
 -0.940860323745E-01
 -0.954800248201E-01
 -0.225302775958E+00
 -0.223676088535E+00
 -0.269643827116E+00
 -0.267859063536E+00
  0.152737484903E+00
  0.153697805238E+00
  0.153697563381E+00
  0.152737147177E+00
 -0.267859243762E+00
 -0.269644110181E+00
 -0.223676176875E+00
 -0.225302965522E+00
 -0.954801594859E-01
 -0.940860340436E-01
  0.169900329613E-01
  0.183514228508E-01
  0.110863451544E+00
  0.112137634546E+00
  0.117430033666E+00
  0.112108837579E+00
  0.228226046971E-01
  0.183189548463E-01
 -0.914910705280E-01
 -0.939752380899E-01
 -0.223526326938E+00
 -0.223384926959E+00
 -0.267741041506E+00
 -0.268151164418E+00
  0.153551077854E+00
  0.153388350876E+00
  0.153388207344E+00
  0.153550839850E+00
 -0.268151253928E+00
 -0.267741224807E+00
 -0.223384939341E+00
 -0.223526419372E+00
 -0.939752369653E-01
 -0.914910006343E-01
  0.183190964273E-01
  0.228227955752E-01
  0.112109270219E+00
  0.117430483778E+00
  0.131706721197E+00
  0.118047670878E+00
  0.389680915678E-01
  0.228509036307E-01
 -0.760053404090E-01
 -0.911684410989E-01
 -0.222623183240E+00
 -0.220275163068E+00
 -0.267158085210E+00
 -0.272145520749E+00
  0.152002048673E+00
  0.149845145972E+00
  0.149845057738E+00
  0.152001908697E+00
 -0.272145566608E+00
 -0.267158175740E+00
 -0.220275155769E+00
 -0.222623195405E+00
 -0.911683683989E-01
 -0.760052948176E-01
  0.228510924034E-01
  0.389681852823E-01
  0.118048111445E+00
  0.131707078234E+00
  0.142037791892E+00
  0.133852288661E+00
  0.561047518512E-01
  0.393382532955E-01
 -0.454605846286E-01
 -0.756910086445E-01
 -0.220574412647E+00
 -0.187013678487E+00
 -0.268656934585E+00
 -0.283033026587E+00
  0.144621662823E+00
  0.136074797054E+00
  0.136074732355E+00
  0.144621578026E+00
 -0.283033058039E+00
 -0.268656979943E+00
 -0.187013680247E+00
 -0.220574402858E+00
 -0.756909626930E-01
 -0.454606299173E-01
  0.393383474524E-01
  0.561043040387E-01
  0.133852623836E+00
  0.142035569716E+00
  0.128077412217E+00
  0.144945064712E+00
  0.636715870293E-01
  0.555290651560E-01
 -0.189839297889E-01
 -0.458992173513E-01
 -0.195050239179E+00
 -0.128195867290E+00
 -0.278588784356E+00
 -0.212435631814E+00
  0.104024723418E+00
  0.691783707381E-01
  0.691783231186E-01
  0.104024667201E+00
 -0.212435650813E+00
 -0.278588816006E+00
 -0.128195875939E+00
 -0.195050240580E+00
 -0.458992672565E-01
 -0.189839853301E-01
  0.555286072486E-01
  0.636714943150E-01
  0.144942842096E+00
  0.128077903630E+00
  0.115144871923E+00
  0.535004641908E-01
  0.535477980606E-01
 -0.145655805866E-01
 -0.210208284133E-01
 -0.138281574693E+00
 -0.104599279644E+00
 -0.212655752137E+00
 -0.170361527711E+00
 -0.464260215136E-01
 -0.464260467724E-01
 -0.170361535144E+00
 -0.212655770034E+00
 -0.104599286015E+00
 -0.138281592022E+00
 -0.210208917018E-01
 -0.145656395787E-01
  0.535476634901E-01
  0.535002643767E-01
  0.115145062239E+00
  0.111830732652E+00
  0.547018329952E-01
  0.529540510047E-01
 -0.913435961835E-02
 -0.140171810629E-01
 -0.105943200430E+00
 -0.968538203230E-01
 -0.171098155154E+00
 -0.157398480535E+00
 -0.876280800508E-01
 -0.876280888156E-01
 -0.157398483193E+00
 -0.171098160739E+00
 -0.968538196418E-01
 -0.105943212706E+00
 -0.140172205717E-01
 -0.913435404811E-02
  0.529539678416E-01
  0.547018586335E-01
  0.111830788995E+00
SCALARS sigma float 1
LOOKUP_TABLE default
  0.000000000000E+00
  0.000000000000E+00
  0.000000000000E+00
  0.000000000000E+00
  0.000000000000E+00
  0.000000000000E+00
  0.000000000000E+00
  0.000000000000E+00
  0.000000000000E+00
  0.000000000000E+00
  0.000000000000E+00
  0.000000000000E+00
  0.000000000000E+00
  0.000000000000E+00
  0.000000000000E+00
  0.000000000000E+00
  0.000000000000E+00
  0.000000000000E+00
  0.000000000000E+00
  0.000000000000E+00
  0.000000000000E+00
  0.000000000000E+00
  0.000000000000E+00
  0.000000000000E+00
  0.000000000000E+00
  0.000000000000E+00
  0.000000000000E+00
  0.000000000000E+00
  0.000000000000E+00
  0.000000000000E+00
  0.000000000000E+00
  0.000000000000E+00
  0.000000000000E+00
  0.000000000000E+00
  0.000000000000E+00
  0.000000000000E+00
  0.000000000000E+00
  0.000000000000E+00
  0.000000000000E+00
  0.000000000000E+00
  0.000000000000E+00
  0.000000000000E+00
  0.000000000000E+00
  0.000000000000E+00
  0.000000000000E+00
  0.000000000000E+00
  0.000000000000E+00
  0.000000000000E+00
  0.000000000000E+00
  0.000000000000E+00
  0.000000000000E+00
  0.000000000000E+00
  0.000000000000E+00
  0.000000000000E+00
  0.000000000000E+00
  0.000000000000E+00
  0.000000000000E+00
  0.000000000000E+00
  0.000000000000E+00
  0.000000000000E+00
  0.000000000000E+00
  0.000000000000E+00
  0.000000000000E+00
  0.000000000000E+00
  0.000000000000E+00
  0.000000000000E+00
  0.000000000000E+00
  0.000000000000E+00
  0.000000000000E+00
  0.000000000000E+00
  0.000000000000E+00
  0.000000000000E+00
  0.000000000000E+00
  0.000000000000E+00
  0.000000000000E+00
  0.000000000000E+00
  0.000000000000E+00
  0.000000000000E+00
  0.000000000000E+00
  0.000000000000E+00
  0.000000000000E+00
  0.000000000000E+00
  0.000000000000E+00
  0.000000000000E+00
  0.000000000000E+00
  0.000000000000E+00
  0.000000000000E+00
  0.000000000000E+00
  0.000000000000E+00
  0.000000000000E+00
  0.000000000000E+00
  0.000000000000E+00
  0.000000000000E+00
  0.000000000000E+00
  0.000000000000E+00
  0.000000000000E+00
  0.000000000000E+00
  0.000000000000E+00
  0.000000000000E+00
  0.000000000000E+00
  0.000000000000E+00
  0.000000000000E+00
  0.000000000000E+00
  0.000000000000E+00
  0.000000000000E+00
  0.000000000000E+00
  0.000000000000E+00
  0.000000000000E+00
  0.000000000000E+00
  0.000000000000E+00
  0.000000000000E+00
  0.000000000000E+00
  0.000000000000E+00
  0.000000000000E+00
  0.000000000000E+00
  0.000000000000E+00
  0.000000000000E+00
  0.000000000000E+00
  0.000000000000E+00
  0.000000000000E+00
  0.000000000000E+00
  0.000000000000E+00
  0.000000000000E+00
  0.000000000000E+00
  0.000000000000E+00
  0.000000000000E+00
  0.000000000000E+00
  0.000000000000E+00
  0.000000000000E+00
  0.000000000000E+00
  0.000000000000E+00
  0.000000000000E+00
  0.000000000000E+00
  0.000000000000E+00
  0.000000000000E+00
  0.000000000000E+00
  0.000000000000E+00
  0.000000000000E+00
  0.000000000000E+00
  0.000000000000E+00
  0.000000000000E+00
  0.000000000000E+00
  0.000000000000E+00
  0.000000000000E+00
  0.000000000000E+00
  0.000000000000E+00
  0.000000000000E+00
  0.000000000000E+00
  0.000000000000E+00
  0.000000000000E+00
  0.000000000000E+00
  0.000000000000E+00
  0.000000000000E+00
  0.000000000000E+00
  0.000000000000E+00
  0.000000000000E+00
  0.000000000000E+00
  0.000000000000E+00
  0.000000000000E+00
  0.000000000000E+00
  0.000000000000E+00
  0.000000000000E+00
  0.000000000000E+00
  0.000000000000E+00
  0.000000000000E+00
  0.000000000000E+00
  0.000000000000E+00
  0.000000000000E+00
  0.000000000000E+00
  0.000000000000E+00
  0.000000000000E+00
  0.000000000000E+00
  0.000000000000E+00
  0.000000000000E+00
  0.000000000000E+00
  0.000000000000E+00
  0.000000000000E+00
  0.000000000000E+00
  0.000000000000E+00
  0.000000000000E+00
  0.000000000000E+00
  0.000000000000E+00
  0.000000000000E+00
  0.000000000000E+00
  0.000000000000E+00
  0.000000000000E+00
  0.000000000000E+00
  0.000000000000E+00
  0.000000000000E+00
  0.000000000000E+00
  0.000000000000E+00
  0.000000000000E+00
  0.000000000000E+00
  0.000000000000E+00
  0.000000000000E+00
  0.000000000000E+00
  0.000000000000E+00
  0.000000000000E+00
  0.000000000000E+00
  0.000000000000E+00
  0.000000000000E+00
  0.000000000000E+00
  0.000000000000E+00
  0.000000000000E+00
  0.000000000000E+00
  0.000000000000E+00
  0.000000000000E+00
  0.000000000000E+00
  0.000000000000E+00
  0.000000000000E+00
  0.000000000000E+00
  0.000000000000E+00
  0.000000000000E+00
  0.000000000000E+00
  0.000000000000E+00
  0.000000000000E+00
  0.000000000000E+00
  0.000000000000E+00
  0.000000000000E+00
  0.000000000000E+00
  0.000000000000E+00
  0.000000000000E+00
  0.000000000000E+00
  0.000000000000E+00
  0.000000000000E+00
  0.000000000000E+00
  0.000000000000E+00
  0.000000000000E+00
  0.000000000000E+00
  0.000000000000E+00
  0.000000000000E+00
  0.000000000000E+00
  0.000000000000E+00
  0.000000000000E+00
  0.000000000000E+00
  0.000000000000E+00
  0.000000000000E+00
  0.000000000000E+00
  0.000000000000E+00
  0.000000000000E+00
  0.000000000000E+00
  0.000000000000E+00
  0.000000000000E+00
  0.000000000000E+00
  0.000000000000E+00
  0.000000000000E+00
  0.000000000000E+00
  0.000000000000E+00
  0.000000000000E+00
  0.000000000000E+00
  0.000000000000E+00
  0.000000000000E+00
  0.000000000000E+00
  0.000000000000E+00
  0.000000000000E+00
  0.000000000000E+00
SCALARS inclination float 1
LOOKUP_TABLE default
  0.100000000000E+01
  0.100000000000E+01
  0.100000000000E+01
  0.100000000000E+01
  0.100000000000E+01
  0.100000000000E+01
  0.100000000000E+01
  0.100000000000E+01
  0.100000000000E+01
  0.100000000000E+01
  0.100000000000E+01
  0.100000000000E+01
  0.100000000000E+01
  0.100000000000E+01
  0.100000000000E+01
  0.100000000000E+01
  0.100000000000E+01
  0.100000000000E+01
  0.100000000000E+01
  0.100000000000E+01
  0.100000000000E+01
  0.100000000000E+01
  0.100000000000E+01
  0.100000000000E+01
  0.100000000000E+01
  0.100000000000E+01
  0.100000000000E+01
  0.100000000000E+01
  0.100000000000E+01
  0.100000000000E+01
  0.100000000000E+01
  0.100000000000E+01
  0.100000000000E+01
  0.100000000000E+01
  0.100000000000E+01
  0.100000000000E+01
  0.100000000000E+01
  0.100000000000E+01
  0.100000000000E+01
  0.100000000000E+01
  0.100000000000E+01
  0.100000000000E+01
  0.100000000000E+01
  0.100000000000E+01
  0.100000000000E+01
  0.100000000000E+01
  0.100000000000E+01
  0.100000000000E+01
  0.100000000000E+01
  0.100000000000E+01
  0.100000000000E+01
  0.100000000000E+01
  0.100000000000E+01
  0.100000000000E+01
  0.100000000000E+01
  0.100000000000E+01
  0.100000000000E+01
  0.100000000000E+01
  0.100000000000E+01
  0.100000000000E+01
  0.100000000000E+01
  0.100000000000E+01
  0.100000000000E+01
  0.100000000000E+01
  0.100000000000E+01
  0.100000000000E+01
  0.100000000000E+01
  0.100000000000E+01
  0.100000000000E+01
  0.100000000000E+01
  0.100000000000E+01
  0.100000000000E+01
  0.100000000000E+01
  0.100000000000E+01
  0.100000000000E+01
  0.100000000000E+01
  0.100000000000E+01
  0.100000000000E+01
  0.100000000000E+01
  0.100000000000E+01
  0.100000000000E+01
  0.100000000000E+01
  0.100000000000E+01
  0.100000000000E+01
  0.100000000000E+01
  0.100000000000E+01
  0.100000000000E+01
  0.100000000000E+01
  0.100000000000E+01
  0.100000000000E+01
  0.100000000000E+01
  0.100000000000E+01
  0.100000000000E+01
  0.100000000000E+01
  0.100000000000E+01
  0.100000000000E+01
  0.100000000000E+01
  0.100000000000E+01
  0.100000000000E+01
  0.100000000000E+01
  0.100000000000E+01
  0.100000000000E+01
  0.100000000000E+01
  0.100000000000E+01
  0.100000000000E+01
  0.100000000000E+01
  0.100000000000E+01
  0.100000000000E+01
  0.100000000000E+01
  0.100000000000E+01
  0.100000000000E+01
  0.100000000000E+01
  0.100000000000E+01
  0.100000000000E+01
  0.100000000000E+01
  0.100000000000E+01
  0.100000000000E+01
  0.100000000000E+01
  0.100000000000E+01
  0.100000000000E+01
  0.100000000000E+01
  0.100000000000E+01
  0.100000000000E+01
  0.100000000000E+01
  0.100000000000E+01
  0.100000000000E+01
  0.100000000000E+01
  0.100000000000E+01
  0.100000000000E+01
  0.100000000000E+01
  0.100000000000E+01
  0.100000000000E+01
  0.100000000000E+01
  0.100000000000E+01
  0.100000000000E+01
  0.100000000000E+01
  0.100000000000E+01
  0.100000000000E+01
  0.100000000000E+01
  0.100000000000E+01
  0.100000000000E+01
  0.100000000000E+01
  0.100000000000E+01
  0.100000000000E+01
  0.100000000000E+01
  0.100000000000E+01
  0.100000000000E+01
  0.100000000000E+01
  0.100000000000E+01
  0.100000000000E+01
  0.100000000000E+01
  0.100000000000E+01
  0.100000000000E+01
  0.100000000000E+01
  0.100000000000E+01
  0.100000000000E+01
  0.100000000000E+01
  0.100000000000E+01
  0.100000000000E+01
  0.100000000000E+01
  0.100000000000E+01
  0.100000000000E+01
  0.100000000000E+01
  0.100000000000E+01
  0.100000000000E+01
  0.100000000000E+01
  0.100000000000E+01
  0.100000000000E+01
  0.100000000000E+01
  0.100000000000E+01
  0.100000000000E+01
  0.100000000000E+01
  0.100000000000E+01
  0.100000000000E+01
  0.100000000000E+01
  0.100000000000E+01
  0.100000000000E+01
  0.100000000000E+01
  0.100000000000E+01
  0.100000000000E+01
  0.100000000000E+01
  0.100000000000E+01
  0.100000000000E+01
  0.100000000000E+01
  0.100000000000E+01
  0.100000000000E+01
  0.100000000000E+01
  0.100000000000E+01
  0.100000000000E+01
  0.100000000000E+01
  0.100000000000E+01
  0.100000000000E+01
  0.100000000000E+01
  0.100000000000E+01
  0.100000000000E+01
  0.100000000000E+01
  0.100000000000E+01
  0.100000000000E+01
  0.100000000000E+01
  0.100000000000E+01
  0.100000000000E+01
  0.100000000000E+01
  0.100000000000E+01
  0.100000000000E+01
  0.100000000000E+01
  0.100000000000E+01
  0.100000000000E+01
  0.100000000000E+01
  0.100000000000E+01
  0.100000000000E+01
  0.100000000000E+01
  0.100000000000E+01
  0.100000000000E+01
  0.100000000000E+01
  0.100000000000E+01
  0.100000000000E+01
  0.100000000000E+01
  0.100000000000E+01
  0.100000000000E+01
  0.100000000000E+01
  0.100000000000E+01
  0.100000000000E+01
  0.100000000000E+01
  0.100000000000E+01
  0.100000000000E+01
  0.100000000000E+01
  0.100000000000E+01
  0.100000000000E+01
  0.100000000000E+01
  0.100000000000E+01
  0.100000000000E+01
  0.100000000000E+01
  0.100000000000E+01
  0.100000000000E+01
  0.100000000000E+01
  0.100000000000E+01
  0.100000000000E+01
  0.100000000000E+01
  0.100000000000E+01
  0.100000000000E+01
  0.100000000000E+01
  0.100000000000E+01
  0.100000000000E+01
  0.100000000000E+01
  0.100000000000E+01
  0.100000000000E+01
  0.100000000000E+01
  0.100000000000E+01
  0.100000000000E+01
  0.100000000000E+01
  0.100000000000E+01
  0.100000000000E+01
  0.100000000000E+01
  0.100000000000E+01
  0.100000000000E+01
  0.100000000000E+01
VECTORS v float
  0.153809676326E+03  0.477865879385E+01  0.159246031548E+02
  0.158524878375E+03  0.341974034156E+01  0.165736633121E+02
  0.163495381459E+03 -0.155078732582E+01  0.177985167593E+02
  0.167371065573E+03  0.867088390866E+00  0.179557135937E+02
  0.173442390871E+03 -0.520426709036E+01  0.174001375073E+02
  0.176316463940E+03 -0.439557341961E+00  0.172159894975E+02
  0.180155321351E+03 -0.427843032455E+01  0.381116812764E+01
  0.180757463597E+03 -0.650041620311E+01  0.386952442360E+01
  0.168936140170E+03  0.532091364305E+01 -0.226979272838E+02
  0.177196289562E+03 -0.171804459291E+02 -0.269653867342E+02
  0.114546222504E+03  0.454696415865E+02 -0.400402997581E+02
  0.126387239252E+03  0.190537804094E+02 -0.622159322245E+02
  0.126387253695E+03  0.190537659667E+02  0.622159489680E+02
  0.114546231826E+03  0.454696385678E+02  0.400403069114E+02
  0.177196304951E+03 -0.171804550154E+02  0.269653901296E+02
  0.168936152259E+03  0.532091354847E+01  0.226979289740E+02
  0.180757484434E+03 -0.650042504586E+01 -0.386952503691E+01
  0.180155338685E+03 -0.427842624160E+01 -0.381116840146E+01
  0.176316496996E+03 -0.439568980937E+00 -0.172159938508E+02
  0.173442433153E+03 -0.520426343355E+01 -0.174001412694E+02
  0.167371155773E+03  0.867044129966E+00 -0.179557280939E+02
  0.163495479659E+03 -0.155082659529E+01 -0.177985315840E+02
  0.158525395698E+03  0.341928194788E+01 -0.165737675719E+02
  0.153809739128E+03  0.477833139292E+01 -0.159246448499E+02
  0.153083472742E+03  0.940402278867E+01  0.153527575472E+02
  0.153856546763E+03  0.893051894725E+01  0.154859644288E+02
  0.161498246469E+03  0.128877514446E+01  0.172769253858E+02
  0.163525421845E+03  0.106238350995E+01  0.175199513565E+02
  0.171037121619E+03 -0.644935164731E+01  0.172871377930E+02
  0.173441040878E+03 -0.534792074628E+01  0.174139978434E+02
  0.180754833739E+03 -0.126617405087E+02  0.399679119322E+01
  0.180812060283E+03 -0.128024282378E+02  0.400088305879E+01
  0.177344430167E+03 -0.933480451357E+01 -0.258975331765E+02
  0.180515903639E+03 -0.154294708391E+02 -0.271830090383E+02
  0.130335090370E+03  0.347513569783E+02 -0.554051925908E+02
  0.133339740539E+03  0.299445902596E+02 -0.599330778842E+02
  0.133339762672E+03  0.299445681271E+02  0.599331035426E+02
  0.130335105640E+03  0.347513458246E+02  0.554052079073E+02
  0.180515924303E+03 -0.154294873870E+02  0.271830142006E+02
  0.177344445605E+03 -0.933481101903E+01  0.258975362207E+02
  0.180812084957E+03 -0.128024439789E+02 -0.400088389393E+01
  0.180754854577E+03 -0.126617468194E+02 -0.399679175423E+01
  0.173441082868E+03 -0.534794820905E+01 -0.174140046081E+02
  0.171037155931E+03 -0.644938262810E+01 -0.172871441525E+02
  0.163525519414E+03  0.106228927171E+01 -0.175199720409E+02
  0.161498269913E+03  0.128868918436E+01 -0.172769371839E+02
  0.153856611821E+03  0.893039137312E+01 -0.154859850125E+02
  0.153083460139E+03  0.940394278124E+01 -0.153527647497E+02
  0.152733642586E+03  0.103489799074E+02  0.152144118372E+02
  0.153091045242E+03  0.100748075815E+02  0.152818900050E+02
  0.160895120611E+03  0.227068634800E+01  0.171059856448E+02
  0.161506268012E+03  0.198655794858E+01  0.172025413709E+02
  0.169929384445E+03 -0.643659721427E+01  0.171780020025E+02
  0.171035989198E+03 -0.656985302788E+01  0.172987643286E+02
  0.180810548442E+03 -0.163444455767E+02  0.407404560703E+01
  0.180015215025E+03 -0.148534022003E+02  0.402679908482E+01
  0.180517300336E+03 -0.153554989769E+02 -0.271729411165E+02
  0.181055595331E+03 -0.161894302447E+02 -0.273632925063E+02
  0.133657620833E+03  0.312085562666E+02 -0.593846782043E+02
  0.134384947491E+03  0.302315601132E+02 -0.603725841135E+02