# vtk DataFile Version 3.0
MachLine results file. Generated by MachLine, USU AeroLab (c) 2022.
ASCII
DATASET POLYDATA
POINTS                 144 float
  0.000000000000E+00  0.000000000000E+00  0.000000000000E+00
  0.113538098335E+01  0.000000000000E+00 -0.658124566078E+00
  0.113538098335E+01  0.000000000000E+00  0.658124566078E+00
  0.192375373840E+01  0.192375373840E+01  0.000000000000E+00
  0.305913543701E+01  0.192375373840E+01 -0.658124983311E+00
  0.305913543701E+01  0.192375373840E+01  0.658124983311E+00
  0.423028087616E+01  0.000000000000E+00 -0.108747220039E+01
  0.423028087616E+01  0.000000000000E+00  0.108747220039E+01
  0.547033166885E+01  0.547033166885E+01  0.000000000000E+00
  0.615403699875E+01  0.192375373840E+01 -0.108747279644E+01
  0.615403699875E+01  0.192375373840E+01  0.108747279644E+01
  0.660571479797E+01  0.547033166885E+01 -0.658125698566E+00
  0.660571479797E+01  0.547033166885E+01  0.658125698566E+00
  0.939508819580E+01  0.000000000000E+00 -0.980745851994E+00
  0.939508819580E+01  0.000000000000E+00  0.980745851994E+00
  0.970061969757E+01  0.547033166885E+01 -0.108747410774E+01
  0.970061969757E+01  0.547033166885E+01  0.108747410774E+01
  0.113188476562E+02  0.192375373840E+01 -0.980746448040E+00
  0.113188476562E+02  0.192375373840E+01  0.980746448040E+00
  0.113820018768E+02  0.113820018768E+02  0.000000000000E+00
  0.125173873901E+02  0.113820018768E+02 -0.658127009869E+00
  0.125173873901E+02  0.113820018768E+02  0.658127009869E+00
  0.145402030945E+02  0.000000000000E+00 -0.479613035917E+00
  0.145402030945E+02  0.000000000000E+00  0.479613035917E+00
  0.148654365540E+02  0.547033166885E+01 -0.980747580528E+00
  0.148654365540E+02  0.547033166885E+01  0.980747580528E+00
  0.156122989655E+02  0.113820018768E+02 -0.108747613430E+01
  0.156122989655E+02  0.113820018768E+02  0.108747613430E+01
  0.164639663696E+02  0.192375373840E+01 -0.479613333941E+00
  0.164639663696E+02  0.192375373840E+01  0.479613333941E+00
  0.176505107880E+02  0.000000000000E+00 -0.144198849797E+00
  0.176505107880E+02  0.000000000000E+00  0.144198849797E+00
  0.190000000000E+02  0.000000000000E+00  0.000000000000E+00
  0.195742740631E+02  0.192375373840E+01 -0.144198939204E+00
  0.195742740631E+02  0.192375373840E+01  0.144198939204E+00
  0.197561950684E+02  0.197561950684E+02  0.000000000000E+00
  0.200105609894E+02  0.547033166885E+01 -0.479613870382E+00
  0.200105609894E+02  0.547033166885E+01  0.479613870382E+00
  0.207771244049E+02  0.113820018768E+02 -0.980749428272E+00
  0.207771244049E+02  0.113820018768E+02  0.980749428272E+00
  0.208915824890E+02  0.197561950684E+02 -0.658128738403E+00
  0.208915824890E+02  0.197561950684E+02  0.658128738403E+00
  0.209237651825E+02  0.192375373840E+01  0.000000000000E+00
  0.231208724976E+02  0.547033166885E+01 -0.144199103117E+00
  0.231208724976E+02  0.547033166885E+01  0.144199103117E+00
  0.239865016937E+02  0.197561950684E+02 -0.108747911453E+01
  0.239865016937E+02  0.197561950684E+02  0.108747911453E+01
  0.244703655243E+02  0.547033166885E+01  0.000000000000E+00
  0.259222583771E+02  0.113820018768E+02 -0.479614794254E+00
  0.259222583771E+02  0.113820018768E+02  0.479614794254E+00
  0.290325775146E+02  0.113820018768E+02 -0.144199386239E+00
  0.290325775146E+02  0.113820018768E+02  0.144199386239E+00
  0.291513423920E+02  0.197561950684E+02 -0.980752110481E+00
  0.291513423920E+02  0.197561950684E+02  0.980752110481E+00
  0.292438049316E+02  0.292438049316E+02  0.000000000000E+00
  0.303791980743E+02  0.292438049316E+02 -0.658130764961E+00
  0.303791980743E+02  0.292438049316E+02  0.658130764961E+00
  0.303820724487E+02  0.113820018768E+02  0.000000000000E+00
  0.334741249084E+02  0.292438049316E+02 -0.108748245239E+01
  0.334741249084E+02  0.292438049316E+02  0.108748245239E+01
  0.342964897156E+02  0.197561950684E+02 -0.479616105556E+00
  0.342964897156E+02  0.197561950684E+02  0.479616105556E+00
  0.374068183899E+02  0.197561950684E+02 -0.144199773669E+00
  0.374068183899E+02  0.197561950684E+02  0.144199773669E+00
  0.376179962158E+02  0.376179962158E+02  0.000000000000E+00
  0.386389808655E+02  0.292438049316E+02 -0.980755090714E+00
  0.386389808655E+02  0.292438049316E+02  0.980755090714E+00
  0.387533912659E+02  0.376179962158E+02 -0.658132553101E+00
  0.387533912659E+02  0.376179962158E+02  0.658132553101E+00
  0.387563171387E+02  0.197561950684E+02  0.000000000000E+00
  0.418483314514E+02  0.376179962158E+02 -0.108748543262E+01
  0.418483314514E+02  0.376179962158E+02  0.108748543262E+01
  0.435296669006E+02  0.435296669006E+02  0.000000000000E+00
  0.437841453552E+02  0.292438049316E+02 -0.479617565870E+00
  0.437841453552E+02  0.292438049316E+02  0.479617565870E+00
  0.446650657654E+02  0.435296669006E+02 -0.658133804798E+00
  0.446650657654E+02  0.435296669006E+02  0.658133804798E+00
  0.468944816589E+02  0.292438049316E+02 -0.144200220704E+00
  0.468944816589E+02  0.292438049316E+02  0.144200220704E+00
  0.470131988525E+02  0.376179962158E+02 -0.980757772923E+00
  0.470131988525E+02  0.376179962158E+02  0.980757772923E+00
  0.470762481689E+02  0.470762481689E+02  0.000000000000E+00
  0.477600097656E+02  0.435296669006E+02 -0.108748745918E+01
  0.477600097656E+02  0.435296669006E+02  0.108748745918E+01
  0.482116432190E+02  0.470762481689E+02 -0.658134579659E+00
  0.482116432190E+02  0.470762481689E+02  0.658134579659E+00
  0.482439842224E+02  0.292438049316E+02  0.000000000000E+00
  0.490000000000E+02  0.490000000000E+02  0.000000000000E+00
  0.501353988647E+02  0.490000000000E+02 -0.658134996891E+00
  0.501353988647E+02  0.490000000000E+02  0.658134996891E+00
  0.506007728577E+02  0.494653701782E+02 -0.465371757746E+00
  0.506007728577E+02  0.494653701782E+02  0.465371757746E+00
  0.507935333252E+02  0.496581344604E+02 -0.771266485397E-15
  0.513065910339E+02  0.470762481689E+02 -0.108748877048E+01
  0.513065910339E+02  0.470762481689E+02  0.108748877048E+01
  0.521583786011E+02  0.376179962158E+02 -0.479618877172E+00
  0.521583786011E+02  0.376179962158E+02  0.479618877172E+00
  0.529248886108E+02  0.435296669006E+02 -0.980759620667E+00
  0.529248886108E+02  0.435296669006E+02  0.980759620667E+00
  0.532303466797E+02  0.490000000000E+02 -0.108748936653E+01
  0.532303466797E+02  0.490000000000E+02  0.108748936653E+01
  0.539993209839E+02  0.497689704895E+02 -0.768971264362E+00
  0.539993209839E+02  0.497689704895E+02  0.768971264362E+00
  0.543178405762E+02  0.500874900818E+02 -0.157378642191E-15
  0.552687225342E+02  0.376179962158E+02 -0.144200608134E+00
  0.552687225342E+02  0.376179962158E+02  0.144200608134E+00
  0.564714775085E+02  0.470762481689E+02 -0.980760753155E+00
  0.564714775085E+02  0.470762481689E+02  0.980760753155E+00
  0.566182289124E+02  0.376179962158E+02  0.000000000000E+00
  0.580700759888E+02  0.435296669006E+02 -0.479619771242E+00
  0.580700759888E+02  0.435296669006E+02  0.479619771242E+00
  0.583952369690E+02  0.490000000000E+02 -0.980761349201E+00
  0.583952369690E+02  0.490000000000E+02  0.980761349201E+00
  0.590887413025E+02  0.496935043335E+02 -0.693503141403E+00
  0.590887413025E+02  0.496935043335E+02  0.693503141403E+00
  0.593759994507E+02  0.499807624817E+02  0.000000000000E+00
  0.611804275513E+02  0.435296669006E+02 -0.144200876355E+00
  0.611804275513E+02  0.435296669006E+02  0.144200876355E+00
  0.616166725159E+02  0.470762481689E+02 -0.479620337486E+00
  0.616166725159E+02  0.470762481689E+02  0.479620337486E+00
  0.625299339294E+02  0.435296669006E+02  0.000000000000E+00
  0.635404319763E+02  0.490000000000E+02 -0.479620635509E+00
  0.635404319763E+02  0.490000000000E+02  0.479620635509E+00
  0.638795776367E+02  0.493391418457E+02 -0.339143037796E+00
  0.638795776367E+02  0.493391418457E+02  0.339143037796E+00
  0.640200576782E+02  0.494796218872E+02  0.296956834055E-15
  0.647270278931E+02  0.470762481689E+02 -0.144201040268E+00
  0.647270278931E+02  0.470762481689E+02  0.144201040268E+00
  0.660765380859E+02  0.470762481689E+02  0.000000000000E+00
  0.666507873535E+02  0.490000000000E+02 -0.144201144576E+00
  0.666507873535E+02  0.490000000000E+02  0.144201144576E+00
  0.667527542114E+02  0.491019668579E+02 -0.101965606213E+00
  0.667527542114E+02  0.491019668579E+02  0.101965606213E+00
  0.667949905396E+02  0.491441993713E+02 -0.260488604752E-16
  0.680002975464E+02  0.490000000000E+02  0.000000000000E+00
  0.190000000000E+02  0.000000000000E+00  0.000000000000E+00
  0.209237651825E+02  0.192375373840E+01  0.000000000000E+00
  0.244703655243E+02  0.547033166885E+01  0.000000000000E+00
  0.303820724487E+02  0.113820018768E+02  0.000000000000E+00
  0.387563171387E+02  0.197561950684E+02  0.000000000000E+00
  0.482439842224E+02  0.292438049316E+02  0.000000000000E+00
  0.566182289124E+02  0.376179962158E+02  0.000000000000E+00
  0.625299339294E+02  0.435296669006E+02  0.000000000000E+00
  0.660765380859E+02  0.470762481689E+02  0.000000000000E+00
POLYGONS                 256                1024
3                  32                  33                  42
3                  32                  30                  33
3                  30                  28                  33
3                  30                  22                  28
3                  22                  17                  28
3                  22                  13                  17
3                  13                   6                  17
3                  17                   6                   9
3                   6                   1                   9
3                   9                   1                   4
3                   1                   0                   4
3                   4                   0                   3
3                   0                   5                   3
3                   0                   2                   5
3                   2                  10                   5
3                   2                   7                  10
[...]
CELL_DATA                 256
SCALARS C_p_inc float 1
LOOKUP_TABLE default
  0.991812408171E-01
  0.433739257321E-01
 -0.181018430297E-01
 -0.665154134787E-01
 -0.144646743435E+00
 -0.181229429800E+00
 -0.222807512757E+00
 -0.231905340976E+00
 -0.946188982141E-01
 -0.220250206491E+00
  0.368002100724E+00
  0.239429201671E+00
  0.239429196595E+00
  0.368002098338E+00
 -0.220250212271E+00
 -0.946189022695E-01
 -0.231905348350E+00
 -0.222807518761E+00
 -0.181229441063E+00
 -0.144646757462E+00
 -0.665154421709E-01
 -0.181018739204E-01
  0.433737745566E-01
  0.991812225179E-01
  0.105774026793E+00
  0.970147472196E-01
  0.704428203266E-02
 -0.180532483002E-01
 -0.113859846462E+00
 -0.144704339473E+00
 -0.236350923364E+00
 -0.237265795636E+00
 -0.212272592653E+00
 -0.263238361862E+00
  0.199645062024E+00
  0.161875025616E+00
  0.161875018140E+00
  0.199645057225E+00
 -0.263238369887E+00
 -0.212272598245E+00
 -0.237265804647E+00
 -0.236350930778E+00
 -0.144704353814E+00
 -0.113859858455E+00
 -0.180532788908E-01
  0.704427351476E-02
  0.970147282018E-01
  0.105774027849E+00
  0.109257166881E+00
  0.105276672183E+00
  0.144524753034E-01
  0.695727193496E-02
 -0.994961054609E-01
 -0.113919450112E+00
 -0.241153146238E+00
 -0.228586697065E+00
 -0.263151034317E+00
 -0.271857447365E+00
  0.158234131861E+00
  0.148702808745E+00
  0.148702799039E+00
  0.158234124329E+00
 -0.271857456428E+00
 -0.263151042363E+00
 -0.228586704452E+00
 -0.241153155667E+00
 -0.113919462183E+00
 -0.994961112587E-01
  0.695726338054E-02
  0.144524719190E-01
  0.105276672244E+00
  0.109257164971E+00
  0.110903381559E+00
  0.109178108592E+00
  0.170018032701E-01
  0.144354964525E-01
 -0.954992809814E-01
 -0.995152795247E-01
 -0.230606818654E+00
 -0.224841801227E+00
 -0.273351781769E+00
 -0.269095213071E+00
  0.150574992588E+00
  0.151829550465E+00
  0.151829541450E+00
  0.150574982864E+00
 -0.269095220484E+00
 -0.273351791022E+00
 -0.224841806080E+00
 -0.230606826415E+00
 -0.995152851930E-01
 -0.954992843275E-01
  0.144354930064E-01
  0.170018006748E-01
  0.109178106439E+00
  0.110903377947E+00
  0.112137409319E+00
  0.110863593713E+00
  0.183513507545E-01
  0.169901045580E-01
 -0.940860325209E-01
 -0.954800905362E-01
 -0.225302868231E+00
 -0.223676131239E+00
 -0.269643964944E+00
 -0.267859151016E+00
  0.152737320675E+00
  0.153697687565E+00
  0.153697680752E+00
  0.152737311713E+00
 -0.267859156251E+00
 -0.269643972464E+00
 -0.223676134183E+00
 -0.225302873215E+00
 -0.954800938210E-01
 -0.940860338326E-01
  0.169901019517E-01
  0.183513512643E-01
  0.110863590133E+00
  0.112137412722E+00
  0.117430256820E+00
  0.112109052464E+00
  0.228226994857E-01
  0.183190253583E-01
 -0.914910355262E-01
 -0.939752368646E-01
 -0.223526371659E+00
 -0.223384932356E+00
 -0.267741130497E+00
 -0.268151207531E+00
  0.153550962066E+00
  0.153388282010E+00
  0.153388277194E+00
  0.153550955332E+00
 -0.268151210986E+00
 -0.267741135788E+00
 -0.223384933918E+00
 -0.223526374665E+00
 -0.939752381251E-01
 -0.914910356696E-01
  0.183190258436E-01
  0.228227007936E-01
  0.112109055706E+00
  0.117430260432E+00
  0.131706898142E+00
  0.118047889303E+00
  0.389681380034E-01
  0.228509973764E-01
 -0.760053177076E-01
 -0.911684047151E-01
 -0.222623188513E+00
 -0.220275158955E+00
 -0.267158128812E+00
 -0.272145542647E+00
  0.152001981559E+00
  0.149845104559E+00
  0.149845101016E+00
  0.152001976830E+00
 -0.272145545032E+00
 -0.267158132294E+00
 -0.220275159804E+00
 -0.222623190102E+00
 -0.911684048162E-01
 -0.760053175805E-01
  0.228509986637E-01
  0.389681389190E-01
  0.118047892833E+00
  0.131706900875E+00
  0.142036684329E+00
  0.133852454730E+00
  0.561045288917E-01
  0.393382999580E-01
 -0.454606072818E-01
 -0.756909857732E-01
 -0.220574407279E+00
 -0.187013679047E+00
 -0.268656956233E+00
 -0.283033041514E+00
  0.144621623072E+00
  0.136074767608E+00
  0.136074764817E+00
  0.144621619648E+00
 -0.283033043214E+00
 -0.268656958618E+00
 -0.187013679506E+00
 -0.220574408174E+00
 -0.756909856325E-01
 -0.454606073957E-01
  0.393383008648E-01
  0.561045271500E-01
  0.133852457360E+00
  0.142036673794E+00
  0.128077656998E+00
  0.144943956884E+00
  0.636715405560E-01
  0.555288372136E-01
 -0.189839577619E-01
 -0.458992422973E-01
 -0.195050239491E+00
 -0.128195871235E+00
 -0.278588799353E+00
 -0.212435641396E+00
  0.104024698118E+00
  0.691783457313E-01
  0.691783436686E-01
  0.104024695691E+00
 -0.212435642345E+00
 -0.278588801085E+00
 -0.128195871432E+00
 -0.195050240133E+00
 -0.458992424588E-01
 -0.189839578276E-01
  0.555288353573E-01
  0.636715407796E-01
  0.144943946329E+00
  0.128077660878E+00
  0.115144963361E+00
  0.535003630757E-01
  0.535477300907E-01
 -0.145656097794E-01
 -0.210208601108E-01
 -0.138281582655E+00
 -0.104599283129E+00
 -0.212655761152E+00
 -0.170361530723E+00
 -0.464260376060E-01
 -0.464260386877E-01
 -0.170361531076E+00
 -0.212655762047E+00
 -0.104599283207E+00
 -0.138281583259E+00
 -0.210208603477E-01
 -0.145656101397E-01
  0.535477296669E-01
  0.535003620897E-01
  0.115144964931E+00
  0.111830757405E+00
  0.547018463021E-01
  0.529540095713E-01
 -0.913435513913E-02
 -0.140171999247E-01
 -0.105943206599E+00
 -0.968538214525E-01
 -0.171098157112E+00
 -0.157398478636E+00
 -0.876280904012E-01
 -0.876280907777E-01
 -0.157398478750E+00
 -0.171098157382E+00
 -0.968538214223E-01
 -0.105943206887E+00
 -0.140172001445E-01
 -0.913435505851E-02
  0.529540091761E-01
  0.547018465102E-01
  0.111830757862E+00
SCALARS sigma float 1
LOOKUP_TABLE default
 -0.105654760477E+00
 -0.105654843088E+00
 -0.106606964792E+00
 -0.106606898775E+00
 -0.964886542673E-01
 -0.964886685135E-01
 -0.206553308267E-01
 -0.206553175055E-01
  0.136132301455E+00
  0.136132285860E+00
  0.448280261843E+00
  0.448280262703E+00
  0.448280262703E+00
  0.448280261843E+00
  0.136132285860E+00
  0.136132301455E+00
 -0.206553175055E-01
 -0.206553308267E-01
 -0.964886685135E-01
 -0.964886542673E-01
 -0.106606898775E+00
 -0.106606964792E+00
 -0.105654843088E+00
 -0.105654760477E+00
 -0.105654731465E+00
 -0.105654760164E+00
 -0.106606951730E+00
 -0.106606963920E+00
 -0.964886618445E-01
 -0.964886544263E-01
 -0.206553174851E-01
 -0.206553272858E-01
  0.136132286186E+00
  0.136132326108E+00
  0.448280257710E+00
  0.448280216285E+00
  0.448280216285E+00
  0.448280257710E+00
  0.136132326108E+00
  0.136132286186E+00
 -0.206553272858E-01
 -0.206553174851E-01
 -0.964886544263E-01
 -0.964886618445E-01
 -0.106606963920E+00
 -0.106606951730E+00
 -0.105654760164E+00
 -0.105654731465E+00
 -0.105654788404E+00
 -0.105654731445E+00
 -0.106606895054E+00
 -0.106606951928E+00
 -0.964886609487E-01
 -0.964886619031E-01
 -0.206553272958E-01
 -0.206553275773E-01
  0.136132325826E+00
  0.136132262096E+00
  0.448280214426E+00
  0.448280187487E+00
  0.448280187487E+00
  0.448280214426E+00
  0.136132262096E+00
  0.136132325826E+00
 -0.206553275773E-01
 -0.206553272958E-01
 -0.964886619031E-01
 -0.964886609487E-01
 -0.106606951928E+00
 -0.106606895054E+00
 -0.105654731445E+00
 -0.105654788404E+00
 -0.105654774016E+00
 -0.105654788503E+00
 -0.106606862826E+00
 -0.106606895447E+00
 -0.964886743022E-01
 -0.964886609062E-01
 -0.206553275743E-01
 -0.206553242316E-01
  0.136132262678E+00
  0.136132321277E+00
  0.448280199048E+00
  0.448280441274E+00
  0.448280441274E+00
  0.448280199048E+00
  0.136132321277E+00
  0.136132262678E+00
 -0.206553242316E-01
 -0.206553275743E-01
 -0.964886609062E-01
 -0.964886743022E-01
 -0.106606895447E+00
 -0.106606862826E+00
 -0.105654788503E+00
 -0.105654774016E+00
 -0.105654802392E+00
 -0.105654774110E+00
 -0.106606922075E+00
 -0.106606862670E+00
 -0.964886453533E-01
 -0.964886742325E-01
 -0.206553242328E-01
 -0.206553324137E-01
  0.136132320945E+00
  0.136132397673E+00
  0.448280420139E+00
  0.448279915642E+00
  0.448279915642E+00
  0.448280420139E+00
  0.136132397673E+00
  0.136132320945E+00
 -0.206553324137E-01
 -0.206553242328E-01
 -0.964886742325E-01
 -0.964886453533E-01
 -0.106606862670E+00
 -0.106606922075E+00
 -0.105654774110E+00
 -0.105654802392E+00
 -0.105654787522E+00
 -0.105654802010E+00
 -0.106606953139E+00
 -0.106606921594E+00
 -0.964886233743E-01
 -0.964886452886E-01
 -0.206553324115E-01
 -0.206553443083E-01
  0.136132397185E+00
  0.136132197077E+00
  0.448279928308E+00
  0.448280193687E+00
  0.448280193687E+00
  0.448279928308E+00
  0.136132197077E+00
  0.136132397185E+00
 -0.206553443083E-01
 -0.206553324115E-01
 -0.964886452886E-01
 -0.964886233743E-01
 -0.106606921594E+00
 -0.106606953139E+00
 -0.105654802010E+00
 -0.105654787522E+00
 -0.105654980338E+00
 -0.105654787694E+00
 -0.106606892128E+00
 -0.106606953661E+00
 -0.964886636557E-01
 -0.964886235387E-01
 -0.206553443144E-01
 -0.206553331677E-01
  0.136132196746E+00
  0.136132270993E+00
  0.448280168463E+00
  0.448279802806E+00
  0.448279802806E+00
  0.448280168463E+00
  0.136132270993E+00
  0.136132196746E+00
 -0.206553331677E-01
 -0.206553443144E-01
 -0.964886235387E-01
 -0.964886636557E-01
 -0.106606953661E+00
 -0.106606892128E+00
 -0.105654787694E+00
 -0.105654980338E+00
 -0.105654805002E+00
 -0.105654980335E+00
 -0.106606889829E+00
 -0.106606892667E+00
 -0.964886303530E-01
 -0.964886642307E-01
 -0.206553331701E-01
 -0.206553372586E-01
  0.136132275495E+00
  0.136132277667E+00
  0.448279933655E+00
  0.448281019270E+00
  0.448281019270E+00
  0.448279933655E+00
  0.136132277667E+00
  0.136132275495E+00
 -0.206553372586E-01
 -0.206553331701E-01
 -0.964886642307E-01
 -0.964886303530E-01
 -0.106606892667E+00
 -0.106606889829E+00
 -0.105654980335E+00
 -0.105654805002E+00
 -0.105654882648E+00
 -0.105654807338E+00
 -0.106606951620E+00
 -0.106606890319E+00
 -0.964886870133E-01
 -0.964886292702E-01
 -0.206553372492E-01
 -0.206553220248E-01
  0.136132271612E+00
  0.136132324512E+00
  0.448280874348E+00
  0.448280288466E+00
  0.448280288466E+00
  0.448280874348E+00
  0.136132324512E+00
  0.136132271612E+00
 -0.206553220248E-01
 -0.206553372492E-01
 -0.964886292702E-01
 -0.964886870133E-01
 -0.106606890319E+00
 -0.106606951620E+00
 -0.105654807338E+00
 -0.105654882648E+00
 -0.101610286279E+00
 -0.102564793005E+00
 -0.102565192756E+00
 -0.924538319223E-01
 -0.924537053004E-01
 -0.192250983091E-01
 -0.192249631426E-01
  0.120519202831E+00
  0.120519444594E+00
  0.380250333610E+00
  0.380250333610E+00
  0.120519444594E+00
  0.120519202831E+00
 -0.192249631426E-01
 -0.192250983091E-01
 -0.924537053004E-01
 -0.924538319223E-01
 -0.102565192756E+00
 -0.102564793005E+00
 -0.101610286279E+00
 -0.107900820304E+00
 -0.108983836399E+00
 -0.108981153368E+00
 -0.976071548827E-01
 -0.976079867512E-01
 -0.194293977144E-01
 -0.194296708736E-01
  0.113745043687E+00
  0.113744817044E+00
  0.334501446767E+00
  0.334501446767E+00
  0.113744817044E+00
  0.113745043687E+00
 -0.194296708736E-01
 -0.194293977144E-01
 -0.976079867512E-01
 -0.976071548827E-01
 -0.108981153368E+00
 -0.108983836399E+00
 -0.107900820304E+00
SCALARS inclination float 1
LOOKUP_TABLE default
  0.100000000000E+01
  0.100000000000E+01
  0.100000000000E+01
  0.100000000000E+01
  0.100000000000E+01
  0.100000000000E+01
  0.100000000000E+01
  0.100000000000E+01
  0.100000000000E+01
  0.100000000000E+01
  0.100000000000E+01
  0.100000000000E+01
  0.100000000000E+01
  0.100000000000E+01
  0.100000000000E+01
  0.100000000000E+01
  0.100000000000E+01
  0.100000000000E+01
  0.100000000000E+01
  0.100000000000E+01
  0.100000000000E+01
  0.100000000000E+01
  0.100000000000E+01
  0.100000000000E+01
  0.100000000000E+01
  0.100000000000E+01
  0.100000000000E+01
  0.100000000000E+01
  0.100000000000E+01
  0.100000000000E+01
  0.100000000000E+01
  0.100000000000E+01
  0.100000000000E+01
  0.100000000000E+01
  0.100000000000E+01
  0.100000000000E+01
  0.100000000000E+01
  0.100000000000E+01
  0.100000000000E+01
  0.100000000000E+01
  0.100000000000E+01
  0.100000000000E+01
  0.100000000000E+01
  0.100000000000E+01
  0.100000000000E+01
  0.100000000000E+01
  0.100000000000E+01
  0.100000000000E+01
  0.100000000000E+01
  0.100000000000E+01
  0.100000000000E+01
  0.100000000000E+01
  0.100000000000E+01
  0.100000000000E+01
  0.100000000000E+01
  0.100000000000E+01
  0.100000000000E+01
  0.100000000000E+01
  0.100000000000E+01
  0.100000000000E+01
  0.100000000000E+01
  0.100000000000E+01
  0.100000000000E+01
  0.100000000000E+01
  0.100000000000E+01
  0.100000000000E+01
  0.100000000000E+01
  0.100000000000E+01
  0.100000000000E+01
  0.100000000000E+01
  0.100000000000E+01
  0.100000000000E+01
  0.100000000000E+01
  0.100000000000E+01
  0.100000000000E+01
  0.100000000000E+01
  0.100000000000E+01
  0.100000000000E+01
  0.100000000000E+01
  0.100000000000E+01
  0.100000000000E+01
  0.100000000000E+01
  0.100000000000E+01
  0.100000000000E+01
  0.100000000000E+01
  0.100000000000E+01
  0.100000000000E+01
  0.100000000000E+01
  0.100000000000E+01
  0.100000000000E+01
  0.100000000000E+01
  0.100000000000E+01
  0.100000000000E+01
  0.100000000000E+01
  0.100000000000E+01
  0.100000000000E+01
  0.100000000000E+01
  0.100000000000E+01
  0.100000000000E+01
  0.100000000000E+01
  0.100000000000E+01
  0.100000000000E+01
  0.100000000000E+01
  0.100000000000E+01
  0.100000000000E+01
  0.100000000000E+01
  0.100000000000E+01
  0.100000000000E+01
  0.100000000000E+01
  0.100000000000E+01
  0.100000000000E+01
  0.100000000000E+01
  0.100000000000E+01
  0.100000000000E+01
  0.100000000000E+01
  0.100000000000E+01
  0.100000000000E+01
  0.100000000000E+01
  0.100000000000E+01
  0.100000000000E+01
  0.100000000000E+01
  0.100000000000E+01
  0.100000000000E+01
  0.100000000000E+01
  0.100000000000E+01
  0.100000000000E+01
  0.100000000000E+01
  0.100000000000E+01
  0.100000000000E+01
  0.100000000000E+01
  0.100000000000E+01
  0.100000000000E+01
  0.100000000000E+01
  0.100000000000E+01
  0.100000000000E+01
  0.100000000000E+01
  0.100000000000E+01
  0.100000000000E+01
  0.100000000000E+01
  0.100000000000E+01
  0.100000000000E+01
  0.100000000000E+01
  0.100000000000E+01
  0.100000000000E+01
  0.100000000000E+01
  0.100000000000E+01
  0.100000000000E+01
  0.100000000000E+01
  0.100000000000E+01
  0.100000000000E+01
  0.100000000000E+01
  0.100000000000E+01
  0.100000000000E+01
  0.100000000000E+01
  0.100000000000E+01
  0.100000000000E+01
  0.100000000000E+01
  0.100000000000E+01
  0.100000000000E+01
  0.100000000000E+01
  0.100000000000E+01
  0.100000000000E+01
  0.100000000000E+01
  0.100000000000E+01
  0.100000000000E+01
  0.100000000000E+01
  0.100000000000E+01
  0.100000000000E+01
  0.100000000000E+01
  0.100000000000E+01
  0.100000000000E+01
  0.100000000000E+01
  0.100000000000E+01
  0.100000000000E+01
  0.100000000000E+01
  0.100000000000E+01
  0.100000000000E+01
  0.100000000000E+01
  0.100000000000E+01
  0.100000000000E+01
  0.100000000000E+01
  0.100000000000E+01
  0.100000000000E+01
  0.100000000000E+01
  0.100000000000E+01
  0.100000000000E+01
  0.100000000000E+01
  0.100000000000E+01
  0.100000000000E+01
  0.100000000000E+01
  0.100000000000E+01
  0.100000000000E+01
  0.100000000000E+01
  0.100000000000E+01
  0.100000000000E+01
  0.100000000000E+01
  0.100000000000E+01
  0.100000000000E+01
  0.100000000000E+01
  0.100000000000E+01
  0.100000000000E+01
  0.100000000000E+01
  0.100000000000E+01
  0.100000000000E+01
  0.100000000000E+01
  0.100000000000E+01
  0.100000000000E+01
  0.100000000000E+01
  0.100000000000E+01
  0.100000000000E+01
  0.100000000000E+01
  0.100000000000E+01
  0.100000000000E+01
  0.100000000000E+01
  0.100000000000E+01
  0.100000000000E+01
  0.100000000000E+01
  0.100000000000E+01
  0.100000000000E+01
  0.100000000000E+01
  0.100000000000E+01
  0.100000000000E+01
  0.100000000000E+01
  0.100000000000E+01
  0.100000000000E+01
  0.100000000000E+01
  0.100000000000E+01
  0.100000000000E+01
  0.100000000000E+01
  0.100000000000E+01
  0.100000000000E+01
  0.100000000000E+01
  0.100000000000E+01
  0.100000000000E+01
  0.100000000000E+01
  0.100000000000E+01
  0.100000000000E+01
  0.100000000000E+01
  0.100000000000E+01
  0.100000000000E+01
  0.100000000000E+01
  0.100000000000E+01
  0.100000000000E+01
  0.100000000000E+01
  0.100000000000E+01
  0.100000000000E+01
  0.100000000000E+01
  0.100000000000E+01
  0.100000000000E+01
  0.100000000000E+01
  0.100000000000E+01
  0.100000000000E+01
  0.100000000000E+01
  0.100000000000E+01
  0.100000000000E+01
  0.100000000000E+01
VECTORS v float
  0.153809706866E+03  0.477849908120E+01  0.159246234842E+02
  0.158525130725E+03  0.341951670339E+01  0.165737141736E+02
  0.163495429326E+03 -0.155080648094E+01  0.177985239870E+02
  0.167371109548E+03  0.867066807015E+00  0.179557206635E+02
  0.173442411480E+03 -0.520426530816E+01  0.174001393410E+02
  0.176316480050E+03 -0.439563017659E+00  0.172159916194E+02
  0.180155329796E+03 -0.427842833504E+01  0.381116826103E+01
  0.180757473749E+03 -0.650042051188E+01  0.386952472242E+01
  0.168936146058E+03  0.532091359827E+01 -0.226979281068E+02
  0.177196297058E+03 -0.171804503551E+02 -0.269653883881E+02
  0.114546227043E+03  0.454696401170E+02 -0.400403032412E+02
  0.126387246286E+03  0.190537733759E+02 -0.622159403786E+02
  0.126387246662E+03  0.190537730001E+02  0.622159408142E+02
  0.114546227286E+03  0.454696400379E+02  0.400403034278E+02
  0.177196297455E+03 -0.171804505888E+02  0.269653884756E+02
  0.168936146371E+03  0.532091359401E+01  0.226979281509E+02
  0.180757474282E+03 -0.650042073652E+01 -0.386952473808E+01
  0.180155330241E+03 -0.427842823319E+01 -0.381116826812E+01
  0.176316480887E+03 -0.439563307945E+00 -0.172159917293E+02
  0.173442412547E+03 -0.520426521651E+01 -0.174001394360E+02
  0.167371111792E+03  0.867065721755E+00 -0.179557210226E+02
  0.163495431787E+03 -0.155080743116E+01 -0.177985243549E+02
  0.158525143368E+03  0.341950557089E+01 -0.165737167141E+02
  0.153809708587E+03  0.477849109640E+01 -0.159246245214E+02
  0.153083466444E+03  0.940398384649E+01  0.153527610354E+02
  0.153856578404E+03  0.893045676760E+01  0.154859744540E+02
  0.161498257848E+03  0.128873322721E+01  0.172769311332E+02
  0.163525469405E+03  0.106233755207E+01  0.175199614414E+02
  0.171037138332E+03 -0.644936675840E+01  0.172871408926E+02
  0.173441061344E+03 -0.534793413775E+01  0.174140011411E+02
  0.180754843891E+03 -0.126617435863E+02  0.399679146661E+01
  0.180812072303E+03 -0.128024359075E+02  0.400088346566E+01
  0.177344437686E+03 -0.933480768287E+01 -0.258975346594E+02
  0.180515913703E+03 -0.154294788989E+02 -0.271830115527E+02
  0.130335097806E+03  0.347513515467E+02 -0.554052000498E+02
  0.133339751318E+03  0.299445794806E+02 -0.599330903805E+02
  0.133339751893E+03  0.299445789061E+02  0.599330910464E+02
  0.130335098204E+03  0.347513512559E+02  0.554052004486E+02
  0.180515914237E+03 -0.154294793265E+02  0.271830116861E+02
  0.177344438085E+03 -0.933480785034E+01  0.258975347379E+02
  0.180812072936E+03 -0.128024363095E+02 -0.400088348705E+01
  0.180754844425E+03 -0.126617437435E+02 -0.399679148088E+01
  0.173441062404E+03 -0.534793482165E+01 -0.174140013110E+02
  0.171037139219E+03 -0.644936752193E+01 -0.172871410533E+02
  0.163525471850E+03  0.106233522985E+01 -0.175199619555E+02
  0.161498258533E+03  0.128873110154E+01 -0.172769314363E+02
  0.153856580179E+03  0.893045355209E+01 -0.154859749873E+02
  0.153083466461E+03  0.940398170800E+01 -0.153527612657E+02
  0.152733646773E+03  0.103489655858E+02  0.152144138149E+02
  0.153091039310E+03  0.100748010227E+02  0.152818900719E+02
  0.160895125529E+03  0.227066893892E+01  0.171059880525E+02
  0.161506279637E+03  0.198653742145E+01  0.172025448381E+02
  0.169929391810E+03 -0.643661348224E+01  0.171780043044E+02
  0.171036005889E+03 -0.656987041888E+01  0.172987676482E+02
  0.180810560460E+03 -0.163444582941E+02  0.407404611817E+01
  0.180015224490E+03 -0.148534101314E+02  0.402679944430E+01
  0.180517310392E+03 -0.153555074991E+02 -0.271729436938E+02
  0.181055606387E+03 -0.161894403157E+02 -0.273632954371E+02
  0.133657631810E+03  0.312085462743E+02 -0.593846903591E+02
  0.134384961338E+03  0.302315462656E+02 -0.603726001667E+02