# vtk DataFile Version 3.0
TriPan results file. Generated by TriPan, USU AeroLab (c) 2021.
ASCII
DATASET POLYDATA
POINTS                 309 float
  0.000000000000E+00  0.000000000000E+00  0.000000000000E+00
  0.420131176710E+00  0.000000000000E+00 -0.412075400352E+00
  0.420131176710E+00  0.000000000000E+00  0.412075400352E+00
  0.928174138069E+00  0.928174138069E+00  0.000000000000E+00
  0.134830534458E+01  0.928174138069E+00 -0.412075400352E+00
  0.134830534458E+01  0.928174138069E+00  0.412075400352E+00
  0.181353092194E+01  0.000000000000E+00 -0.806821227074E+00
  0.181353092194E+01  0.000000000000E+00  0.806821227074E+00
  0.226196575165E+01  0.226196575165E+01  0.000000000000E+00
  0.268209695816E+01  0.226196575165E+01 -0.412075400352E+00
  0.268209695816E+01  0.226196575165E+01  0.412075400352E+00
  0.274170517921E+01  0.928174138069E+00 -0.806821227074E+00
  0.274170517921E+01  0.928174138069E+00  0.806821227074E+00
  0.407549667358E+01  0.226196575165E+01 -0.806821227074E+00
  0.407549667358E+01  0.226196575165E+01  0.806821227074E+00
  0.413893461227E+01  0.413893461227E+01  0.000000000000E+00
  0.455906581879E+01  0.413893461227E+01 -0.412075400352E+00
  0.455906581879E+01  0.413893461227E+01  0.412075400352E+00
  0.479629611969E+01  0.000000000000E+00 -0.111707651615E+01
  0.479629611969E+01  0.000000000000E+00  0.111707651615E+01
  0.572447013855E+01  0.928174138069E+00 -0.111707651615E+01
  0.572447013855E+01  0.928174138069E+00  0.111707651615E+01
  0.595246553421E+01  0.413893461227E+01 -0.806821227074E+00
  0.595246553421E+01  0.413893461227E+01  0.806821227074E+00
  0.670394468307E+01  0.670394468307E+01  0.000000000000E+00
  0.705826187134E+01  0.226196575165E+01 -0.111707651615E+01
  0.705826187134E+01  0.226196575165E+01  0.111707651615E+01
  0.712407588959E+01  0.670394468307E+01 -0.412075400352E+00
  0.712407588959E+01  0.670394468307E+01  0.412075400352E+00
  0.851747608185E+01  0.670394468307E+01 -0.806821227074E+00
  0.851747608185E+01  0.670394468307E+01  0.806821227074E+00
  0.893523120880E+01  0.413893461227E+01 -0.111707651615E+01
  0.893523120880E+01  0.413893461227E+01  0.111707651615E+01
  0.939523696899E+01  0.000000000000E+00 -0.980761349201E+00
  0.939523696899E+01  0.000000000000E+00  0.980761349201E+00
  0.100722141266E+02  0.100722141266E+02  0.000000000000E+00
  0.103234109879E+02  0.928174138069E+00 -0.980761349201E+00
  0.103234109879E+02  0.928174138069E+00  0.980761349201E+00
  0.104923458099E+02  0.100722141266E+02 -0.412075400352E+00
  0.104923458099E+02  0.100722141266E+02  0.412075400352E+00
  0.115002412796E+02  0.670394468307E+01 -0.111707651615E+01
  0.115002412796E+02  0.670394468307E+01  0.111707651615E+01
  0.116572027206E+02  0.226196575165E+01 -0.980761349201E+00
  0.116572027206E+02  0.226196575165E+01  0.980761349201E+00
  0.118857450485E+02  0.100722141266E+02 -0.806821227074E+00
  0.118857450485E+02  0.100722141266E+02  0.806821227074E+00
  0.135341711044E+02  0.413893461227E+01 -0.980761349201E+00
  0.135341711044E+02  0.413893461227E+01  0.980761349201E+00
  0.139772081375E+02  0.000000000000E+00 -0.540150463581E+00
  0.139772081375E+02  0.000000000000E+00  0.540150463581E+00
  0.142710342407E+02  0.142710342407E+02  0.000000000000E+00
  0.146911659241E+02  0.142710342407E+02 -0.412075400352E+00
  0.146911659241E+02  0.142710342407E+02  0.412075400352E+00
  0.148685102463E+02  0.100722141266E+02 -0.111707651615E+01
  0.148685102463E+02  0.100722141266E+02  0.111707651615E+01
  0.149053821564E+02  0.928174138069E+00 -0.540150463581E+00
  0.149053821564E+02  0.928174138069E+00  0.540150463581E+00
  0.160845661163E+02  0.142710342407E+02 -0.806821227074E+00
  0.160845661163E+02  0.142710342407E+02  0.806821227074E+00
  0.160991821289E+02  0.670394468307E+01 -0.980761349201E+00
  0.160991821289E+02  0.670394468307E+01  0.980761349201E+00
  0.162391738892E+02  0.226196575165E+01 -0.540150463581E+00
  0.162391738892E+02  0.226196575165E+01  0.540150463581E+00
  0.169605827332E+02  0.000000000000E+00 -0.218344569206E+00
  0.169605827332E+02  0.000000000000E+00  0.218344569206E+00
  0.178887577057E+02  0.928174138069E+00 -0.218344569206E+00
  0.178887577057E+02  0.928174138069E+00  0.218344569206E+00
  0.181161422729E+02  0.413893461227E+01 -0.540150463581E+00
  0.181161422729E+02  0.413893461227E+01  0.540150463581E+00
  0.184032192230E+02  0.000000000000E+00 -0.636830478907E-01
  0.184032192230E+02  0.000000000000E+00  0.636830478907E-01
  0.190003013611E+02  0.000000000000E+00  0.000000000000E+00
  0.190673313141E+02  0.142710342407E+02 -0.111707651615E+01
  0.190673313141E+02  0.142710342407E+02  0.111707651615E+01
  0.191784667969E+02  0.191784667969E+02  0.000000000000E+00
  0.192225494385E+02  0.226196575165E+01 -0.218344569206E+00
  0.192225494385E+02  0.226196575165E+01  0.218344569206E+00
  0.193313941956E+02  0.928174138069E+00 -0.636830478907E-01
  0.193313941956E+02  0.928174138069E+00  0.636830478907E-01
  0.194674510956E+02  0.100722141266E+02 -0.980761349201E+00
  0.194674510956E+02  0.100722141266E+02  0.980761349201E+00
  0.195985984802E+02  0.191784667969E+02 -0.412075400352E+00
  0.195985984802E+02  0.191784667969E+02  0.412075400352E+00
  0.199284744263E+02  0.928174138069E+00  0.000000000000E+00
  0.206651840210E+02  0.226196575165E+01 -0.636830478907E-01
  0.206651840210E+02  0.226196575165E+01  0.636830478907E-01
  0.206811523438E+02  0.670394468307E+01 -0.540150463581E+00
  0.206811523438E+02  0.670394468307E+01  0.540150463581E+00
  0.209919986725E+02  0.191784667969E+02 -0.806821227074E+00
  0.209919986725E+02  0.191784667969E+02  0.806821227074E+00
  0.210995178223E+02  0.413893461227E+01 -0.218344569206E+00
  0.210995178223E+02  0.413893461227E+01  0.218344569206E+00
  0.212622661591E+02  0.226196575165E+01  0.000000000000E+00
  0.225421543121E+02  0.413893461227E+01 -0.636830478907E-01
  0.225421543121E+02  0.413893461227E+01  0.636830478907E-01
  0.231392364502E+02  0.413893461227E+01  0.000000000000E+00
  0.236645278931E+02  0.670394468307E+01 -0.218344569206E+00
  0.236645278931E+02  0.670394468307E+01  0.218344569206E+00
  0.236662712097E+02  0.142710342407E+02 -0.980761349201E+00
  0.236662712097E+02  0.142710342407E+02  0.980761349201E+00
  0.239747638702E+02  0.191784667969E+02 -0.111707651615E+01
  0.239747638702E+02  0.191784667969E+02  0.111707651615E+01
  0.240494232178E+02  0.100722141266E+02 -0.540150463581E+00
  0.240494232178E+02  0.100722141266E+02  0.540150463581E+00
  0.245000000000E+02  0.245000000000E+02  0.000000000000E+00
  0.249201316833E+02  0.245000000000E+02 -0.412075400352E+00
  0.249201316833E+02  0.245000000000E+02  0.412075400352E+00
  0.251071643829E+02  0.670394468307E+01 -0.636830478907E-01
  0.251071643829E+02  0.670394468307E+01  0.636830478907E-01
  0.257042465210E+02  0.670394468307E+01  0.000000000000E+00
  0.263135318756E+02  0.245000000000E+02 -0.806821227074E+00
  0.263135318756E+02  0.245000000000E+02  0.806821227074E+00
  0.270327968597E+02  0.100722141266E+02 -0.218344569206E+00
  0.270327968597E+02  0.100722141266E+02  0.218344569206E+00
  0.282482414246E+02  0.142710342407E+02 -0.540150463581E+00
  0.282482414246E+02  0.142710342407E+02  0.540150463581E+00
  0.284754333496E+02  0.100722141266E+02 -0.636830478907E-01
  0.284754333496E+02  0.100722141266E+02  0.636830478907E-01
  0.285737037659E+02  0.191784667969E+02 -0.980761349201E+00
  0.285737037659E+02  0.191784667969E+02  0.980761349201E+00
  0.290725154877E+02  0.100722141266E+02  0.000000000000E+00
  0.292962951660E+02  0.245000000000E+02 -0.111707651615E+01
  0.292962951660E+02  0.245000000000E+02  0.111707651615E+01
  0.298215332031E+02  0.298215332031E+02  0.000000000000E+00
  0.302416648865E+02  0.298215332031E+02 -0.412075400352E+00
  0.302416648865E+02  0.298215332031E+02  0.412075400352E+00
  0.312316169739E+02  0.142710342407E+02 -0.218344569206E+00
  0.312316169739E+02  0.142710342407E+02  0.218344569206E+00
  0.316350631714E+02  0.298215332031E+02 -0.806821227074E+00
  0.316350631714E+02  0.298215332031E+02  0.806821227074E+00
  0.326742553711E+02  0.142710342407E+02 -0.636830478907E-01
  0.326742553711E+02  0.142710342407E+02  0.636830478907E-01
  0.331556739807E+02  0.191784667969E+02 -0.540150463581E+00
  0.331556739807E+02  0.191784667969E+02  0.540150463581E+00
  0.332713356018E+02  0.142710342407E+02  0.000000000000E+00
  0.338952369690E+02  0.245000000000E+02 -0.980761349201E+00
  0.338952369690E+02  0.245000000000E+02  0.980761349201E+00
  0.346178283691E+02  0.298215332031E+02 -0.111707651615E+01
  0.346178283691E+02  0.298215332031E+02  0.111707651615E+01
  0.347289657593E+02  0.347289657593E+02  0.000000000000E+00
  0.351490974426E+02  0.347289657593E+02 -0.412075400352E+00
  0.351490974426E+02  0.347289657593E+02  0.412075400352E+00
  0.361390495300E+02  0.191784667969E+02 -0.218344569206E+00
  0.361390495300E+02  0.191784667969E+02  0.218344569206E+00
  0.365424957275E+02  0.347289657593E+02 -0.806821227074E+00
  0.365424957275E+02  0.347289657593E+02  0.806821227074E+00
  0.375816879272E+02  0.191784667969E+02 -0.636830478907E-01
  0.375816879272E+02  0.191784667969E+02  0.636830478907E-01
  0.381787681580E+02  0.191784667969E+02  0.000000000000E+00
  0.384772071838E+02  0.245000000000E+02 -0.540150463581E+00
  0.384772071838E+02  0.245000000000E+02  0.540150463581E+00
  0.389277839661E+02  0.389277839661E+02  0.000000000000E+00
  0.392167701721E+02  0.298215332031E+02 -0.980761349201E+00
  0.392167701721E+02  0.298215332031E+02  0.980761349201E+00
  0.393479156494E+02  0.389277839661E+02 -0.412075400352E+00
  0.393479156494E+02  0.389277839661E+02  0.412075400352E+00
  0.395252609253E+02  0.347289657593E+02 -0.111707651615E+01
  0.395252609253E+02  0.347289657593E+02  0.111707651615E+01
  0.407413177490E+02  0.389277839661E+02 -0.806821227074E+00
  0.407413177490E+02  0.389277839661E+02  0.806821227074E+00
  0.414605827332E+02  0.245000000000E+02 -0.218344569206E+00
[...]
CELL_DATA                 568
SCALARS sigma float 1
LOOKUP_TABLE default
  0.000000000000E+00
  0.000000000000E+00
  0.000000000000E+00
  0.000000000000E+00
  0.000000000000E+00
  0.000000000000E+00
  0.000000000000E+00
  0.000000000000E+00
  0.000000000000E+00
  0.000000000000E+00
  0.000000000000E+00
  0.000000000000E+00
  0.000000000000E+00
  0.000000000000E+00
  0.000000000000E+00
  0.000000000000E+00
  0.000000000000E+00
  0.000000000000E+00
  0.000000000000E+00
  0.000000000000E+00
  0.000000000000E+00
  0.000000000000E+00
  0.000000000000E+00
  0.000000000000E+00
  0.000000000000E+00
  0.000000000000E+00
  0.000000000000E+00
  0.000000000000E+00
  0.000000000000E+00
  0.000000000000E+00
  0.000000000000E+00
  0.000000000000E+00
  0.000000000000E+00
  0.000000000000E+00
  0.000000000000E+00
  0.000000000000E+00
  0.000000000000E+00
  0.000000000000E+00
  0.000000000000E+00
  0.000000000000E+00
  0.000000000000E+00
  0.000000000000E+00
  0.000000000000E+00
  0.000000000000E+00
  0.000000000000E+00
  0.000000000000E+00
  0.000000000000E+00
  0.000000000000E+00
  0.000000000000E+00
  0.000000000000E+00
  0.000000000000E+00
  0.000000000000E+00
  0.000000000000E+00
  0.000000000000E+00
  0.000000000000E+00
  0.000000000000E+00
  0.000000000000E+00
  0.000000000000E+00
  0.000000000000E+00
  0.000000000000E+00
  0.000000000000E+00
  0.000000000000E+00
  0.000000000000E+00
  0.000000000000E+00
  0.000000000000E+00
  0.000000000000E+00
  0.000000000000E+00
  0.000000000000E+00
  0.000000000000E+00
  0.000000000000E+00
  0.000000000000E+00
  0.000000000000E+00
  0.000000000000E+00
  0.000000000000E+00
  0.000000000000E+00
  0.000000000000E+00
  0.000000000000E+00
  0.000000000000E+00
  0.000000000000E+00
  0.000000000000E+00
  0.000000000000E+00
  0.000000000000E+00
  0.000000000000E+00
  0.000000000000E+00
  0.000000000000E+00
  0.000000000000E+00
  0.000000000000E+00
  0.000000000000E+00
  0.000000000000E+00
  0.000000000000E+00
  0.000000000000E+00
  0.000000000000E+00
  0.000000000000E+00
  0.000000000000E+00
  0.000000000000E+00
  0.000000000000E+00
  0.000000000000E+00
  0.000000000000E+00
  0.000000000000E+00
  0.000000000000E+00
  0.000000000000E+00
  0.000000000000E+00
  0.000000000000E+00
  0.000000000000E+00
  0.000000000000E+00
  0.000000000000E+00
  0.000000000000E+00
  0.000000000000E+00
  0.000000000000E+00
  0.000000000000E+00
  0.000000000000E+00
  0.000000000000E+00
  0.000000000000E+00
  0.000000000000E+00
  0.000000000000E+00
  0.000000000000E+00
  0.000000000000E+00
  0.000000000000E+00
  0.000000000000E+00
  0.000000000000E+00
  0.000000000000E+00
  0.000000000000E+00
  0.000000000000E+00
  0.000000000000E+00
  0.000000000000E+00
  0.000000000000E+00
  0.000000000000E+00
  0.000000000000E+00
  0.000000000000E+00
  0.000000000000E+00
  0.000000000000E+00
  0.000000000000E+00
  0.000000000000E+00
  0.000000000000E+00
  0.000000000000E+00
  0.000000000000E+00
  0.000000000000E+00
  0.000000000000E+00
  0.000000000000E+00
  0.000000000000E+00
  0.000000000000E+00
  0.000000000000E+00
  0.000000000000E+00
  0.000000000000E+00
  0.000000000000E+00
  0.000000000000E+00
  0.000000000000E+00
  0.000000000000E+00
  0.000000000000E+00
  0.000000000000E+00
  0.000000000000E+00
  0.000000000000E+00
  0.000000000000E+00
  0.000000000000E+00
  0.000000000000E+00
  0.000000000000E+00
  0.000000000000E+00
  0.000000000000E+00
  0.000000000000E+00
  0.000000000000E+00
  0.000000000000E+00
  0.000000000000E+00
  0.000000000000E+00
  0.000000000000E+00
  0.000000000000E+00
  0.000000000000E+00
  0.000000000000E+00
  0.000000000000E+00
  0.000000000000E+00
  0.000000000000E+00
  0.000000000000E+00
  0.000000000000E+00
  0.000000000000E+00
  0.000000000000E+00
  0.000000000000E+00
  0.000000000000E+00
  0.000000000000E+00
  0.000000000000E+00
  0.000000000000E+00
  0.000000000000E+00
  0.000000000000E+00
  0.000000000000E+00
  0.000000000000E+00
  0.000000000000E+00
  0.000000000000E+00
  0.000000000000E+00
  0.000000000000E+00
  0.000000000000E+00
  0.000000000000E+00
  0.000000000000E+00
  0.000000000000E+00
  0.000000000000E+00
  0.000000000000E+00
  0.000000000000E+00
  0.000000000000E+00
  0.000000000000E+00
  0.000000000000E+00
  0.000000000000E+00
  0.000000000000E+00
  0.000000000000E+00
  0.000000000000E+00
  0.000000000000E+00
  0.000000000000E+00
  0.000000000000E+00
  0.000000000000E+00
  0.000000000000E+00
  0.000000000000E+00
  0.000000000000E+00
  0.000000000000E+00
  0.000000000000E+00
  0.000000000000E+00
  0.000000000000E+00
  0.000000000000E+00
  0.000000000000E+00
  0.000000000000E+00
  0.000000000000E+00
  0.000000000000E+00
  0.000000000000E+00
  0.000000000000E+00
  0.000000000000E+00
  0.000000000000E+00
  0.000000000000E+00
  0.000000000000E+00
  0.000000000000E+00
  0.000000000000E+00
  0.000000000000E+00
  0.000000000000E+00
  0.000000000000E+00
  0.000000000000E+00
  0.000000000000E+00
  0.000000000000E+00
  0.000000000000E+00
  0.000000000000E+00
  0.000000000000E+00
  0.000000000000E+00
  0.000000000000E+00
  0.000000000000E+00
  0.000000000000E+00
  0.000000000000E+00
  0.000000000000E+00
  0.000000000000E+00
  0.000000000000E+00
  0.000000000000E+00
  0.000000000000E+00
  0.000000000000E+00
  0.000000000000E+00
  0.000000000000E+00
  0.000000000000E+00
  0.000000000000E+00
  0.000000000000E+00
  0.000000000000E+00
  0.000000000000E+00
  0.000000000000E+00
  0.000000000000E+00
  0.000000000000E+00
  0.000000000000E+00
  0.000000000000E+00
  0.000000000000E+00
  0.000000000000E+00
  0.000000000000E+00
  0.000000000000E+00
  0.000000000000E+00
  0.000000000000E+00
  0.000000000000E+00
  0.000000000000E+00
  0.000000000000E+00
  0.000000000000E+00
  0.000000000000E+00
  0.000000000000E+00
  0.000000000000E+00
  0.000000000000E+00
  0.000000000000E+00
  0.000000000000E+00
  0.000000000000E+00
  0.000000000000E+00
  0.000000000000E+00
  0.000000000000E+00
  0.000000000000E+00
  0.000000000000E+00
  0.000000000000E+00
  0.000000000000E+00
  0.000000000000E+00
  0.000000000000E+00
  0.000000000000E+00
  0.000000000000E+00
  0.000000000000E+00
  0.000000000000E+00
  0.000000000000E+00
  0.000000000000E+00
  0.000000000000E+00
  0.000000000000E+00
  0.000000000000E+00
  0.000000000000E+00
  0.000000000000E+00
  0.000000000000E+00
  0.000000000000E+00
  0.000000000000E+00
  0.000000000000E+00
  0.000000000000E+00
  0.000000000000E+00
  0.000000000000E+00
  0.000000000000E+00
  0.000000000000E+00
  0.000000000000E+00
  0.000000000000E+00
  0.000000000000E+00
  0.000000000000E+00
  0.000000000000E+00
  0.000000000000E+00
  0.000000000000E+00
  0.000000000000E+00
  0.000000000000E+00
  0.000000000000E+00
  0.000000000000E+00
  0.000000000000E+00
  0.000000000000E+00
  0.000000000000E+00
  0.000000000000E+00
  0.000000000000E+00
  0.000000000000E+00
  0.000000000000E+00
  0.000000000000E+00
  0.000000000000E+00
  0.000000000000E+00
  0.000000000000E+00
  0.000000000000E+00
  0.000000000000E+00
  0.000000000000E+00
  0.000000000000E+00
  0.000000000000E+00
  0.000000000000E+00
  0.000000000000E+00
  0.000000000000E+00
  0.000000000000E+00
  0.000000000000E+00
  0.000000000000E+00
  0.000000000000E+00
  0.000000000000E+00
  0.000000000000E+00
  0.000000000000E+00
  0.000000000000E+00
  0.000000000000E+00
  0.000000000000E+00
  0.000000000000E+00
  0.000000000000E+00
  0.000000000000E+00
  0.000000000000E+00
  0.000000000000E+00
  0.000000000000E+00
  0.000000000000E+00
  0.000000000000E+00
  0.000000000000E+00
  0.000000000000E+00
  0.000000000000E+00
  0.000000000000E+00
  0.000000000000E+00
  0.000000000000E+00
  0.000000000000E+00
  0.000000000000E+00
  0.000000000000E+00
  0.000000000000E+00
  0.000000000000E+00
  0.000000000000E+00
  0.000000000000E+00
  0.000000000000E+00
  0.000000000000E+00
  0.000000000000E+00
  0.000000000000E+00
  0.000000000000E+00
  0.000000000000E+00
  0.000000000000E+00
  0.000000000000E+00
  0.000000000000E+00
  0.000000000000E+00
  0.000000000000E+00
  0.000000000000E+00
  0.000000000000E+00
  0.000000000000E+00
  0.000000000000E+00
  0.000000000000E+00
  0.000000000000E+00
  0.000000000000E+00
  0.000000000000E+00
  0.000000000000E+00
  0.000000000000E+00
  0.000000000000E+00
  0.000000000000E+00
  0.000000000000E+00
  0.000000000000E+00
  0.000000000000E+00
  0.000000000000E+00
  0.000000000000E+00
  0.000000000000E+00
  0.000000000000E+00
  0.000000000000E+00
  0.000000000000E+00
  0.000000000000E+00
  0.000000000000E+00
  0.000000000000E+00
  0.000000000000E+00
  0.000000000000E+00
  0.000000000000E+00
  0.000000000000E+00
  0.000000000000E+00
  0.000000000000E+00
  0.000000000000E+00
  0.000000000000E+00
  0.000000000000E+00
  0.000000000000E+00
  0.000000000000E+00
  0.000000000000E+00
  0.000000000000E+00
  0.000000000000E+00
  0.000000000000E+00
  0.000000000000E+00
  0.000000000000E+00
  0.000000000000E+00
  0.000000000000E+00
  0.000000000000E+00
  0.000000000000E+00
  0.000000000000E+00
  0.000000000000E+00
  0.000000000000E+00
  0.000000000000E+00
  0.000000000000E+00
  0.000000000000E+00
  0.000000000000E+00
  0.000000000000E+00
  0.000000000000E+00
  0.000000000000E+00
  0.000000000000E+00
  0.000000000000E+00
  0.000000000000E+00
  0.000000000000E+00
  0.000000000000E+00
  0.000000000000E+00
  0.000000000000E+00
  0.000000000000E+00
  0.000000000000E+00
  0.000000000000E+00
  0.000000000000E+00
  0.000000000000E+00
  0.000000000000E+00
  0.000000000000E+00
  0.000000000000E+00
  0.000000000000E+00
  0.000000000000E+00
  0.000000000000E+00
  0.000000000000E+00
  0.000000000000E+00
  0.000000000000E+00
  0.000000000000E+00
  0.000000000000E+00
  0.000000000000E+00
  0.000000000000E+00
  0.000000000000E+00
  0.000000000000E+00
  0.000000000000E+00
  0.000000000000E+00
  0.000000000000E+00
  0.000000000000E+00
  0.000000000000E+00
  0.000000000000E+00
  0.000000000000E+00
  0.000000000000E+00
  0.000000000000E+00
  0.000000000000E+00
  0.000000000000E+00
  0.000000000000E+00
  0.000000000000E+00
  0.000000000000E+00
  0.000000000000E+00
  0.000000000000E+00
  0.000000000000E+00
  0.000000000000E+00
  0.000000000000E+00
  0.000000000000E+00
  0.000000000000E+00
  0.000000000000E+00
  0.000000000000E+00
  0.000000000000E+00
  0.000000000000E+00
  0.000000000000E+00
  0.000000000000E+00
  0.000000000000E+00
  0.000000000000E+00
  0.000000000000E+00
  0.000000000000E+00
  0.000000000000E+00
  0.000000000000E+00
  0.000000000000E+00
  0.000000000000E+00
  0.000000000000E+00
  0.000000000000E+00
  0.000000000000E+00
  0.000000000000E+00
  0.000000000000E+00
  0.000000000000E+00
  0.000000000000E+00
  0.000000000000E+00
  0.000000000000E+00
  0.000000000000E+00
  0.000000000000E+00
  0.000000000000E+00
  0.000000000000E+00
  0.000000000000E+00
  0.000000000000E+00
  0.000000000000E+00
  0.000000000000E+00
  0.000000000000E+00
  0.000000000000E+00
  0.000000000000E+00
  0.000000000000E+00
  0.000000000000E+00
  0.000000000000E+00
  0.000000000000E+00
  0.000000000000E+00
  0.000000000000E+00
  0.000000000000E+00
  0.000000000000E+00
  0.000000000000E+00
  0.000000000000E+00
  0.000000000000E+00
  0.000000000000E+00
  0.000000000000E+00
  0.000000000000E+00
  0.000000000000E+00
  0.000000000000E+00
  0.000000000000E+00
  0.000000000000E+00
  0.000000000000E+00
  0.000000000000E+00
  0.000000000000E+00
  0.000000000000E+00
  0.000000000000E+00
  0.000000000000E+00
  0.000000000000E+00
  0.000000000000E+00
  0.000000000000E+00
  0.000000000000E+00
  0.000000000000E+00
  0.000000000000E+00
  0.000000000000E+00
  0.000000000000E+00
  0.000000000000E+00
  0.000000000000E+00
  0.000000000000E+00
  0.000000000000E+00
  0.000000000000E+00
  0.000000000000E+00
  0.000000000000E+00
  0.000000000000E+00
  0.000000000000E+00
  0.000000000000E+00
  0.000000000000E+00
  0.000000000000E+00
  0.000000000000E+00
  0.000000000000E+00
  0.000000000000E+00
  0.000000000000E+00
  0.000000000000E+00
  0.000000000000E+00
  0.000000000000E+00
  0.000000000000E+00
  0.000000000000E+00
  0.000000000000E+00
  0.000000000000E+00
  0.000000000000E+00
SCALARS C_p float 1
LOOKUP_TABLE default
 -0.935200627001E+00
 -0.192436858332E+01
 -0.423065877776E+00
 -0.352278958174E+00
 -0.214000997150E+00
 -0.192113244333E+00
 -0.164045484159E+00
 -0.164158341484E+00
 -0.108439972494E+00
 -0.125257539433E+00
  0.619581518096E-01
  0.139906584037E-02
  0.323171716370E+00
  0.243153865207E+00
  0.644576791421E+00
  0.652711108935E+00
  0.311928890037E-01
  0.307150638710E+00
 -0.376037481522E+00
 -0.169364272443E+00
 -0.373480461541E+00
 -0.315452431465E+00
 -0.306717403661E+00
 -0.323478002224E+00
 -0.178827330213E+00
 -0.137691903754E+00
  0.390994531275E-01
  0.104430411509E+00
  0.301907759543E+00
  0.419064902344E+00
  0.652625854737E+00
  0.544083006037E+00
 -0.702636098934E+00
 -0.894219627049E+00
 -0.336205897143E+00
 -0.437622701943E+00
 -0.218139503872E+00
 -0.215544828922E+00
 -0.172547424756E+00
 -0.164957439922E+00
 -0.124624237161E+00
 -0.146744196410E+00
  0.497169533956E-02
 -0.344043480978E-01
  0.226873888965E+00
  0.206821071450E+00
  0.540069946726E+00
  0.535145839931E+00
 -0.142894968029E+00
 -0.189444637798E-01
 -0.473654784326E+00
 -0.354511804505E+00
 -0.423011561893E+00
 -0.372679116241E+00
 -0.298573738828E+00
 -0.313604924388E+00
 -0.135286745278E+00
 -0.945678481541E-01
  0.103571753925E+00
  0.156229668739E+00
  0.391403636654E+00
  0.352291914068E+00
  0.541829338230E+00
  0.505192051080E+00
 -0.616693738010E+00
 -0.693028931806E+00
 -0.283955360096E+00
 -0.335063748273E+00
 -0.194093099702E+00
 -0.220428211092E+00
 -0.177642175072E+00
 -0.174216180519E+00
 -0.144913189122E+00
 -0.163583153496E+00
 -0.327061670638E-01
 -0.575459021571E-01
  0.197470723406E+00
  0.186631219680E+00
  0.510506064217E+00
  0.506439323328E+00
 -0.244649508648E+00
 -0.157366292565E+00
 -0.547432225512E+00
 -0.464061981967E+00
 -0.451213642848E+00
 -0.421781560768E+00
 -0.284479957908E+00
 -0.307377494711E+00
 -0.921436153290E-01
 -0.547242084320E-01
  0.152035156538E+00
  0.162057022090E+00
  0.346249034198E+00
  0.324996880225E+00
  0.504392392529E+00
  0.490127337839E+00
 -0.574636098395E+00
 -0.613098716793E+00
 -0.258412205555E+00
 -0.283033198471E+00
 -0.173213279564E+00
 -0.194309832872E+00
 -0.172572860429E+00
 -0.179255071185E+00
 -0.162766523787E+00
 -0.173264213294E+00
 -0.568506219470E-01
 -0.726488578720E-01
  0.182658828494E+00
  0.176622795596E+00
  0.498782866866E+00
  0.496481199636E+00
 -0.302569929961E+00
 -0.249395197542E+00
 -0.589106847788E+00
 -0.544179101298E+00
 -0.462238555616E+00
 -0.454021695257E+00
 -0.266221328071E+00
 -0.292955000386E+00
 -0.532944938362E-01
 -0.326682423981E-01
  0.159999195396E+00
  0.158428080975E+00
  0.323222687951E+00
  0.314538888058E+00
  0.489528206108E+00
  0.483036789360E+00
 -0.552359729727E+00
 -0.572970122205E+00
 -0.245246884477E+00
 -0.258045450717E+00
 -0.161670305825E+00
 -0.173154818729E+00
 -0.164970805514E+00
 -0.173306830753E+00
 -0.173823017109E+00
 -0.174924184777E+00
 -0.724536125410E-01
 -0.799237427855E-01
  0.175733129223E+00
  0.171809956859E+00
  0.496742488147E+00
  0.496088575232E+00
 -0.323290215698E+00
 -0.303131179698E+00
 -0.602792226368E+00
 -0.589906622194E+00
 -0.459966622404E+00
 -0.466728341957E+00
 -0.253233052068E+00
 -0.271764839431E+00
 -0.322643600251E-01
 -0.250538664287E-01
  0.157735239289E+00
  0.156387053600E+00
  0.313933751912E+00
  0.310246265973E+00
  0.482874765616E+00
  0.479722806737E+00
 -0.539887315067E+00
 -0.551317224318E+00
 -0.238105644730E+00
 -0.245107936351E+00
 -0.155676042941E+00
 -0.161635266104E+00
 -0.159900511796E+00
 -0.165213310902E+00
 -0.175927960849E+00
 -0.173336643486E+00
 -0.800624937075E-01
 -0.817990313148E-01
  0.172249202363E+00
  0.169976617151E+00
  0.499011538968E+00
  0.499163605002E+00
 -0.321672212026E+00
 -0.322501509354E+00
 -0.600907485539E+00
 -0.604772206226E+00
 -0.454555548278E+00
 -0.463348464527E+00
 -0.247243392334E+00
 -0.255650558914E+00
 -0.249584271246E-01
 -0.226115575101E-01
  0.156157999786E+00
  0.155626917966E+00
  0.310070044036E+00
  0.308385999137E+00
  0.479778710650E+00
  0.478127449351E+00
 -0.531712694696E+00
 -0.538975233949E+00
 -0.233740505150E+00
 -0.238025290272E+00
 -0.152380672429E+00
 -0.155639490816E+00
 -0.157112373679E+00
 -0.159963494019E+00
 -0.174025250926E+00
 -0.171912062385E+00
 -0.819966126224E-01
 -0.819120494458E-01
  0.170562633412E+00
  0.169331237690E+00
  0.501640743213E+00
  0.501895638569E+00
 -0.314505995322E+00
 -0.320895443339E+00
 -0.595894562503E+00
 -0.602309529191E+00
 -0.450604288601E+00
 -0.456184342164E+00
 -0.244534228773E+00
 -0.248053909236E+00
 -0.225840831879E-01
 -0.215876768443E-01
  0.155552740318E+00
  0.155365357730E+00
  0.308353271499E+00
  0.307403371534E+00
  0.478220233404E+00
  0.477154241280E+00
 -0.523770886394E+00
 -0.530770571321E+00
 -0.230026444287E+00
 -0.233634120222E+00
 -0.150149186918E+00
 -0.152307834039E+00
 -0.155616330776E+00
 -0.157082343415E+00
 -0.172209741785E+00
 -0.171259903303E+00
 -0.820207403969E-01
 -0.820680438768E-01
  0.169641307696E+00
  0.168708194109E+00
  0.503081865866E+00
  0.503273281887E+00
 -0.308598761384E+00
 -0.314081254692E+00
 -0.591834863537E+00
 -0.596564627634E+00
 -0.448006271234E+00
 -0.451252509950E+00
 -0.242964332077E+00
 -0.244809086571E+00
 -0.215763887548E-01
 -0.209327030530E-01
  0.155339702773E+00
  0.155253610539E+00
  0.307412736961E+00
  0.306553314164E+00
  0.477218663052E+00
  0.476129947834E+00
 -0.511127225366E+00
 -0.522705650245E+00
 -0.224715934617E+00
 -0.229825868553E+00
 -0.147729835844E+00
 -0.149994070850E+00
 -0.154761382288E+00
 -0.155490470673E+00
 -0.171264138986E+00
 -0.171464931742E+00
 -0.820742103160E-01
 -0.829177111859E-01
  0.168739792942E+00
  0.167504578580E+00
  0.503412111259E+00
  0.503589925305E+00
 -0.303906758031E+00
 -0.308449097947E+00
 -0.588491729674E+00
 -0.592073852544E+00
 -0.445908324414E+00
 -0.448244219271E+00
 -0.241585318938E+00
 -0.243081084389E+00
 -0.209247194294E-01
 -0.201696558703E-01
  0.155251355736E+00
  0.155265429242E+00
  0.306614196618E+00
  0.305386969621E+00
  0.476233139491E+00
  0.474477598031E+00
 -0.485517327568E+00
 -0.509931488356E+00
 -0.214013067337E+00
 -0.224329280337E+00
 -0.143340392179E+00
 -0.147403619156E+00
 -0.154076205804E+00
 -0.154471324676E+00
 -0.171160707292E+00
 -0.172900858613E+00
 -0.828126256649E-01
 -0.851427159419E-01
  0.167264751083E+00
  0.165058081684E+00
  0.502802661137E+00
  0.503055868508E+00
 -0.298907668339E+00
 -0.303953451674E+00
 -0.584813245707E+00
 -0.588467594852E+00
 -0.443483106774E+00
 -0.445950576881E+00
 -0.239623345380E+00
 -0.241674274172E+00
 -0.201608374188E-01
 -0.186129037572E-01
  0.155314735964E+00
  0.155835361044E+00
  0.305653478743E+00
  0.303710386418E+00
  0.474965864259E+00
  0.471575056951E+00
 -0.435131880727E+00
 -0.484316617459E+00
 -0.191689450589E+00
 -0.213338218179E+00
 -0.133611922238E+00
 -0.142695277832E+00
 -0.152568659095E+00
 -0.153463690120E+00
 -0.172089536614E+00
 -0.176421601811E+00
 -0.848655237210E-01
 -0.899927651023E-01
  0.164426431072E+00
  0.160297226170E+00
  0.501039282027E+00
  0.501501138683E+00
 -0.292167396773E+00
 -0.299154238390E+00
 -0.579803126787E+00
 -0.584551025002E+00
 -0.439916675217E+00
 -0.443395880023E+00
 -0.235972071490E+00
 -0.239807288789E+00
 -0.186004890338E-01
 -0.148197686503E-01
  0.156043060285E+00
  0.158114819884E+00
  0.304621550682E+00
  0.301938313638E+00
  0.473447850984E+00
  0.467082457133E+00
 -0.349321907349E+00
 -0.433960151814E+00
 -0.151944898994E+00
 -0.190591956470E+00
 -0.115703679281E+00
 -0.132529517800E+00
 -0.147756232470E+00
 -0.151410004199E+00
 -0.174738186707E+00
 -0.182460610782E+00
 -0.894071389891E-01
 -0.995870739128E-01
  0.158946925426E+00
  0.151503231872E+00
  0.497416830745E+00
  0.498325048067E+00
 -0.282692259830E+00
 -0.292704710245E+00
 -0.572780067344E+00
 -0.579217006756E+00
 -0.434325582989E+00
 -0.439708686418E+00
 -0.228450560893E+00
 -0.236561495844E+00
 -0.148016936064E-01
 -0.700812393847E-02