# vtk DataFile Version 3.0
MachLine results file. Generated by MachLine, USU AeroLab (c) 2022.
ASCII
DATASET POLYDATA
POINTS                1848 float
  0.000000000000E+00  0.000000000000E+00  0.000000000000E+00
  0.147665724158E+00  0.000000000000E+00 -0.234920635819E+00
  0.147665724158E+00  0.000000000000E+00  0.234920635819E+00
  0.339639574289E+00  0.339639574289E+00  0.000000000000E+00
  0.473465979099E+00  0.000000000000E+00 -0.436293870211E+00
  0.473465979099E+00  0.000000000000E+00  0.436293870211E+00
  0.487305283546E+00  0.339639574289E+00 -0.234920650721E+00
  0.487305283546E+00  0.339639574289E+00  0.234920650721E+00
  0.735364913940E+00  0.735364913940E+00  0.000000000000E+00
  0.813105583191E+00  0.339639574289E+00 -0.436293929815E+00
  0.813105583191E+00  0.339639574289E+00  0.436293929815E+00
  0.883030653000E+00  0.735364913940E+00 -0.234920680523E+00
  0.883030653000E+00  0.735364913940E+00  0.234920680523E+00
  0.944064557552E+00  0.000000000000E+00 -0.604293465614E+00
  0.944064557552E+00  0.000000000000E+00  0.604293465614E+00
  0.119528055191E+01  0.119528055191E+01  0.000000000000E+00
  0.120883107185E+01  0.735364913940E+00 -0.436293989420E+00
  0.120883107185E+01  0.735364913940E+00  0.436293989420E+00
  0.128370416164E+01  0.339639574289E+00 -0.604293525219E+00
  0.128370416164E+01  0.339639574289E+00  0.604293525219E+00
  0.134294629097E+01  0.119528055191E+01 -0.234920725226E+00
  0.134294629097E+01  0.119528055191E+01  0.234920725226E+00
  0.157641971111E+01  0.000000000000E+00 -0.760520398617E+00
  0.157641971111E+01  0.000000000000E+00  0.760520398617E+00
  0.166874670982E+01  0.119528055191E+01 -0.436294049025E+00
  0.166874670982E+01  0.119528055191E+01  0.436294049025E+00
  0.167942965031E+01  0.735364913940E+00 -0.604293584824E+00
  0.167942965031E+01  0.735364913940E+00  0.604293584824E+00
  0.172824025154E+01  0.172824025154E+01  0.000000000000E+00
  0.187590610981E+01  0.172824025154E+01 -0.234920769930E+00
  0.187590610981E+01  0.172824025154E+01  0.234920769930E+00
  0.191605937481E+01  0.339639574289E+00 -0.760520458221E+00
  0.191605937481E+01  0.339639574289E+00  0.760520458221E+00
  0.213934540749E+01  0.119528055191E+01 -0.604293704033E+00
  0.213934540749E+01  0.119528055191E+01  0.604293704033E+00
  0.220170640945E+01  0.172824025154E+01 -0.436294138432E+00
  0.220170640945E+01  0.172824025154E+01  0.436294138432E+00
  0.231178498268E+01  0.735364913940E+00 -0.760520577431E+00
  0.231178498268E+01  0.735364913940E+00  0.760520577431E+00
  0.234375929832E+01  0.234375929832E+01  0.000000000000E+00
  0.239635515213E+01  0.000000000000E+00 -0.902061045170E+00
  0.239635515213E+01  0.000000000000E+00  0.902061045170E+00
  0.249142503738E+01  0.234375929832E+01 -0.234920814633E+00
  0.249142503738E+01  0.234375929832E+01  0.234920814633E+00
  0.267230534554E+01  0.172824025154E+01 -0.604293823242E+00
  0.267230534554E+01  0.172824025154E+01  0.604293823242E+00
  0.273599505424E+01  0.339639574289E+00 -0.902061164379E+00
  0.273599505424E+01  0.339639574289E+00  0.902061164379E+00
  0.277170085907E+01  0.119528055191E+01 -0.760520696640E+00
  0.277170085907E+01  0.119528055191E+01  0.760520696640E+00
  0.281722569466E+01  0.234375929832E+01 -0.436294227839E+00
  0.281722569466E+01  0.234375929832E+01  0.436294227839E+00
  0.305185556412E+01  0.305185556412E+01  0.000000000000E+00
  0.313172078133E+01  0.735364913940E+00 -0.902061283588E+00
  0.313172078133E+01  0.735364913940E+00  0.902061283588E+00
  0.319952154160E+01  0.305185556412E+01 -0.234920859337E+00
  0.319952154160E+01  0.305185556412E+01  0.234920859337E+00
  0.328782463074E+01  0.234375929832E+01 -0.604293942451E+00
  0.328782463074E+01  0.234375929832E+01  0.604293942451E+00
  0.330466079712E+01  0.172824025154E+01 -0.760520815849E+00
  0.330466079712E+01  0.172824025154E+01  0.760520815849E+00
  0.342464399338E+01  0.000000000000E+00 -0.102348911762E+01
  0.342464399338E+01  0.000000000000E+00  0.102348911762E+01
  0.352532196045E+01  0.305185556412E+01 -0.436294317245E+00
  0.352532196045E+01  0.305185556412E+01  0.436294317245E+00
  0.359163665771E+01  0.119528055191E+01 -0.902061402798E+00
  0.359163665771E+01  0.119528055191E+01  0.902061402798E+00
  0.376428389549E+01  0.339639574289E+00 -0.102348923683E+01
  0.376428389549E+01  0.339639574289E+00  0.102348923683E+01
  0.386280250549E+01  0.386280250549E+01  0.000000000000E+00
  0.392018008232E+01  0.234375929832E+01 -0.760520994663E+00
  0.392018008232E+01  0.234375929832E+01  0.760520994663E+00
  0.399592113495E+01  0.305185556412E+01 -0.604294061661E+00
  0.399592113495E+01  0.305185556412E+01  0.604294061661E+00
  0.401046848297E+01  0.386280250549E+01 -0.234920918941E+00
  0.401046848297E+01  0.386280250549E+01  0.234920918941E+00
  0.412459707260E+01  0.172824025154E+01 -0.902061522007E+00
  0.412459707260E+01  0.172824025154E+01  0.902061522007E+00
  0.416000986099E+01  0.735364913940E+00 -0.102348935604E+01
  0.416000986099E+01  0.735364913940E+00  0.102348935604E+01
  0.433626890182E+01  0.386280250549E+01 -0.436294436455E+00
  0.433626890182E+01  0.386280250549E+01  0.436294436455E+00
  0.461992597580E+01  0.119528055191E+01 -0.102348947525E+01
  0.461992597580E+01  0.119528055191E+01  0.102348947525E+01
  0.462827682495E+01  0.305185556412E+01 -0.760521173477E+00
  0.462827682495E+01  0.305185556412E+01  0.760521173477E+00
  0.466872262955E+01  0.000000000000E+00 -0.111146688461E+01
  0.466872262955E+01  0.000000000000E+00  0.111146688461E+01
  0.474011659622E+01  0.234375929832E+01 -0.902061700821E+00
  0.474011659622E+01  0.234375929832E+01  0.902061700821E+00
  0.478677463531E+01  0.478677463531E+01  0.000000000000E+00
  0.480686807632E+01  0.386280250549E+01 -0.604294240475E+00
  0.480686807632E+01  0.386280250549E+01  0.604294240475E+00
  0.493444061279E+01  0.478677463531E+01 -0.234920993447E+00
  0.493444061279E+01  0.478677463531E+01  0.234920993447E+00
  0.500836277008E+01  0.339639574289E+00 -0.111146700382E+01
  0.500836277008E+01  0.339639574289E+00  0.111146700382E+01
  0.515288639069E+01  0.172824025154E+01 -0.102348971367E+01
  0.515288639069E+01  0.172824025154E+01  0.102348971367E+01
  0.526024150848E+01  0.478677463531E+01 -0.436294555664E+00
  0.526024150848E+01  0.478677463531E+01  0.436294555664E+00
  0.540408849716E+01  0.735364913940E+00 -0.111146712303E+01
  0.540408849716E+01  0.735364913940E+00  0.111146712303E+01
  0.543922424316E+01  0.386280250549E+01 -0.760521352291E+00
  0.543922424316E+01  0.386280250549E+01  0.760521352291E+00
  0.544821310043E+01  0.305185556412E+01 -0.902061939240E+00
  0.544821310043E+01  0.305185556412E+01  0.902061939240E+00
  0.573084068298E+01  0.478677463531E+01 -0.604294419289E+00
  0.573084068298E+01  0.478677463531E+01  0.604294419289E+00
  0.576840591431E+01  0.234375929832E+01 -0.102348983288E+01
  0.576840591431E+01  0.234375929832E+01  0.102348983288E+01
  0.583337688446E+01  0.583337688446E+01  0.000000000000E+00
  0.586400508881E+01  0.119528055191E+01 -0.111146736145E+01
  0.586400508881E+01  0.119528055191E+01  0.111146736145E+01
  0.598104286194E+01  0.583337688446E+01 -0.234921067953E+00
  0.598104286194E+01  0.583337688446E+01  0.234921067953E+00
  0.611307668686E+01  0.000000000000E+00 -0.114008128643E+01
  0.611307668686E+01  0.000000000000E+00  0.114008128643E+01
  0.625916051865E+01  0.386280250549E+01 -0.902062177658E+00
  0.625916051865E+01  0.386280250549E+01  0.902062177658E+00
  0.630684375763E+01  0.583337688446E+01 -0.436294704676E+00
  0.630684375763E+01  0.583337688446E+01  0.436294704676E+00
  0.636319684982E+01  0.478677463531E+01 -0.760521590710E+00
  0.636319684982E+01  0.478677463531E+01  0.760521590710E+00
  0.639696550369E+01  0.172824025154E+01 -0.111146748066E+01
  0.639696550369E+01  0.172824025154E+01  0.111146748066E+01
  0.645271682739E+01  0.339639574289E+00 -0.114008140564E+01
  0.645271682739E+01  0.339639574289E+00  0.114008140564E+01
  0.647650289536E+01  0.305185556412E+01 -0.102349007130E+01
  0.647650289536E+01  0.305185556412E+01  0.102349007130E+01
  0.677744340897E+01  0.583337688446E+01 -0.604294598103E+00
  0.677744340897E+01  0.583337688446E+01  0.604294598103E+00
  0.684844303131E+01  0.735364913940E+00 -0.114008152485E+01
  0.684844303131E+01  0.735364913940E+00  0.114008152485E+01
  0.701104879379E+01  0.701104879379E+01  0.000000000000E+00
  0.701248550415E+01  0.234375929832E+01 -0.111146771908E+01
  0.701248550415E+01  0.234375929832E+01  0.111146771908E+01
  0.715871477127E+01  0.701104879379E+01 -0.234921157360E+00
  0.715871477127E+01  0.701104879379E+01  0.234921157360E+00
  0.718313360214E+01  0.478677463531E+01 -0.902062416077E+00
  0.718313360214E+01  0.478677463531E+01  0.902062416077E+00
  0.728745079041E+01  0.386280250549E+01 -0.102349042892E+01
  0.728745079041E+01  0.386280250549E+01  0.102349042892E+01
  0.730835962296E+01  0.119528055191E+01 -0.114008176327E+01
  0.730835962296E+01  0.119528055191E+01  0.114008176327E+01
  0.740979957581E+01  0.583337688446E+01 -0.760521829128E+00
  0.740979957581E+01  0.583337688446E+01  0.760521829128E+00
  0.748451566696E+01  0.701104879379E+01 -0.436294883490E+00
  0.748451566696E+01  0.701104879379E+01  0.436294883490E+00
  0.771254587173E+01  0.000000000000E+00 -0.108925735950E+01
  0.771254587173E+01  0.000000000000E+00  0.108925735950E+01
  0.772058296204E+01  0.305185556412E+01 -0.111146795750E+01
  0.772058296204E+01  0.305185556412E+01  0.111146795750E+01
  0.784132003784E+01  0.172824025154E+01 -0.114008188248E+01
  0.784132003784E+01  0.172824025154E+01  0.114008188248E+01
  0.795511531830E+01  0.701104879379E+01 -0.604294836521E+00
  0.795511531830E+01  0.701104879379E+01  0.604294836521E+00
  0.805218601227E+01  0.339639574289E+00 -0.108925747871E+01
  0.805218601227E+01  0.339639574289E+00  0.108925747871E+01
  0.821142387390E+01  0.478677463531E+01 -0.102349066734E+01
  0.821142387390E+01  0.478677463531E+01  0.102349066734E+01
[...]
CELL_DATA                3576
SCALARS C_p_inc float 1
LOOKUP_TABLE default
  0.215726854933E+00
  0.193038872885E+00
  0.165890619048E+00
  0.148659486861E+00
  0.141886085875E+00
  0.133025611616E+00
  0.127636113099E+00
  0.123020321768E+00
  0.117954316488E+00
  0.115005430332E+00
  0.110023538508E+00
  0.107878068165E+00
  0.102628165803E+00
  0.100758160859E+00
  0.952028962245E-01
  0.934677574593E-01
  0.884735223917E-01
  0.870559526338E-01
  0.866907570553E-01
  0.867376648694E-01
  0.960894397812E-01
  0.938353137908E-01
  0.120742193448E+00
  0.114247865501E+00
  0.177478560387E+00
  0.162157967541E+00
  0.253794803952E+00
  0.233888813179E+00
  0.334481624748E+00
  0.311995676080E+00
  0.421153085581E+00
  0.394820653742E+00
  0.522191270639E+00
  0.492884909121E+00
  0.641928312383E+00
  0.618207936706E+00
  0.771659825784E+00
  0.777445530355E+00
  0.744193635823E+00
  0.647559669462E+00
 -0.202369470396E+00
  0.163366965729E+00
 -0.656034498098E+00
 -0.287887546182E+00
 -0.676775608993E+00
 -0.491653715041E+00
 -0.636764131089E+00
 -0.549110273951E+00
 -0.621853543228E+00
 -0.579609168094E+00
 -0.616422097733E+00
 -0.593991622860E+00
 -0.622202209519E+00
 -0.607872702654E+00
 -0.624173413254E+00
 -0.619583314191E+00
 -0.590642110414E+00
 -0.600969296615E+00
 -0.523568698255E+00
 -0.537853142033E+00
 -0.464486023154E+00
 -0.449726458530E+00
 -0.389646269618E+00
 -0.373964189276E+00
 -0.317102550084E+00
 -0.301581077207E+00
 -0.252642749545E+00
 -0.236774135143E+00
 -0.195572697295E+00
 -0.178372960250E+00
 -0.143834273289E+00
 -0.123692270199E+00
 -0.947332038754E-01
 -0.692993894875E-01
 -0.452989831280E-01
 -0.953176063325E-02
  0.111943482255E-01
  0.643687888194E-01
  0.107489317512E+00
  0.168915051491E+00
  0.206397496670E+00
  0.214228472935E+00
  0.165553475480E+00
  0.165649674857E+00
  0.148038775540E+00
  0.141836610884E+00
  0.132811172153E+00
  0.127620230626E+00
  0.121265309423E+00
  0.117948141464E+00
  0.112274283331E+00
  0.110022569972E+00
  0.104326017365E+00
  0.102631005960E+00
  0.964952953228E-01
  0.952067960520E-01
  0.891109484824E-01
  0.884653131750E-01
  0.858441293610E-01
  0.866330465436E-01
  0.938283531951E-01
  0.905851584729E-01
  0.114372436972E+00
  0.107072929366E+00
  0.162566164356E+00
  0.149569176472E+00
  0.233770568093E+00
  0.218289729756E+00
  0.310227098210E+00
  0.295016253319E+00
  0.389282440695E+00
  0.376112342896E+00
  0.477538062002E+00
  0.469265325800E+00
  0.577736651233E+00
  0.576718420981E+00
  0.672985113163E+00
  0.663264905116E+00
  0.510976362366E+00
  0.395773042150E+00
 -0.477873564186E+00
 -0.272416037570E+00
 -0.848171151294E+00
 -0.623300498417E+00
 -0.820548072858E+00
 -0.662531035834E+00
 -0.731949439827E+00
 -0.635475541354E+00
 -0.681871560500E+00
 -0.624334453809E+00
 -0.653536055919E+00
 -0.619314900943E+00
 -0.644991948407E+00
 -0.624963873577E+00
 -0.634370193229E+00
 -0.627349143636E+00
 -0.587352494337E+00
 -0.593784165187E+00
 -0.512954100678E+00
 -0.525656299187E+00
 -0.449595741927E+00
 -0.436619331040E+00
 -0.373711288749E+00
 -0.358926105935E+00
 -0.301380776058E+00
 -0.285571381450E+00
 -0.236645977916E+00
 -0.219570294338E+00
 -0.178305651439E+00
 -0.159028123505E+00
 -0.123678745656E+00
 -0.100664015800E+00
 -0.693554680839E-01
 -0.407923832438E-01
 -0.975897124795E-02
  0.228753309970E-01
  0.633917773281E-01
  0.877807437979E-01
  0.164377114528E+00
  0.174385797881E+00
  0.197314161343E+00
  0.205819785290E+00
  0.160695907139E+00
  0.165261705519E+00
  0.147522388986E+00
  0.147895065154E+00
  0.135700968506E+00
  0.132758701130E+00
  0.124413675049E+00
  0.121245037453E+00
  0.114610995591E+00
  0.112267428053E+00
  0.106007505362E+00
  0.104327254954E+00
  0.976596948441E-01
  0.965011571923E-01
  0.895635004114E-01
  0.891078089322E-01
  0.849334657843E-01
  0.857902298938E-01
  0.907046641086E-01
  0.875511761345E-01
  0.107478327898E+00
  0.101001464076E+00
  0.150110538494E+00
  0.139772477555E+00
  0.217711418077E+00
  0.205825301512E+00
  0.292007534794E+00
  0.281423879950E+00
  0.368991062906E+00
  0.361796823077E+00
  0.454965967026E+00
  0.452693950635E+00
  0.551488564190E+00
  0.552485540828E+00
  0.627649333020E+00
  0.611755503313E+00
  0.376903773269E+00
  0.266081475371E+00
 -0.689280701202E+00
 -0.511035094711E+00
 -0.101913567332E+01
 -0.828349130831E+00
 -0.944325866114E+00
 -0.802350319380E+00
 -0.818251509123E+00
 -0.723280463005E+00
 -0.741289397278E+00
 -0.678955096423E+00
 -0.693287717347E+00
 -0.653592289999E+00
 -0.669980903574E+00
 -0.646797552305E+00
 -0.646022175024E+00
 -0.637927563153E+00
 -0.586825799791E+00
 -0.591776617979E+00
 -0.504367008457E+00
 -0.516577057584E+00
 -0.436487615210E+00
 -0.424021914555E+00
 -0.358588727196E+00
 -0.343778770130E+00
 -0.285281777000E+00
 -0.268776697180E+00
 -0.219375693790E+00
 -0.200971609624E+00
 -0.158926564535E+00
 -0.137872833266E+00
 -0.100668878424E+00
 -0.764579384197E-01
 -0.409874128071E-01
 -0.158299490271E-01
  0.222116055254E-01
  0.418991225887E-01
  0.862569182049E-01
  0.977691685425E-01
  0.171408467061E+00
  0.178770270343E+00
  0.193604480741E+00
  0.197086199377E+00
  0.156923953494E+00
  0.160499848370E+00
  0.144873361187E+00
  0.147371961663E+00
  0.135411897282E+00
  0.135610784767E+00
  0.126120812909E+00
  0.124371299776E+00
  0.116660592473E+00
  0.114594356997E+00
  0.107636254935E+00
  0.106005175688E+00
  0.987659210574E-01
  0.976661453120E-01
  0.899782773507E-01
  0.895665610215E-01
  0.841648305598E-01
  0.848997414729E-01
  0.876976251150E-01
  0.849823715463E-01
  0.101380511126E+00
  0.960685122311E-01
  0.140090044843E+00
  0.132197732793E+00
  0.204911654165E+00
  0.196202808755E+00
  0.278157397214E+00
  0.271125716118E+00
  0.355169437486E+00
  0.351611360599E+00
  0.441443278345E+00
  0.441886414499E+00
  0.536057663824E+00
  0.537071257055E+00
  0.594203402738E+00
  0.575139300209E+00
  0.265297232721E+00
  0.158372139685E+00
 -0.876884462731E+00
 -0.709870014997E+00
 -0.117500553742E+01
 -0.100251087940E+01
 -0.105852232114E+01
 -0.927617892855E+00
 -0.900142586191E+00
 -0.808487176939E+00
 -0.800072559692E+00
 -0.736726163211E+00
 -0.734114868804E+00
 -0.692294994600E+00
 -0.696194909550E+00
 -0.671643023621E+00
 -0.658872138817E+00
 -0.650083332368E+00
 -0.587933201937E+00
 -0.592014122100E+00
 -0.496997898082E+00
 -0.508970982071E+00
 -0.424059363454E+00
 -0.411764772779E+00
 -0.343460979884E+00
 -0.328409714548E+00
 -0.268446591642E+00
 -0.251204031518E+00
 -0.200729939764E+00
 -0.181272299589E+00
 -0.137751880775E+00
 -0.116181559637E+00
 -0.765160332225E-01
 -0.547273987731E-01
 -0.162008214323E-01
  0.159491440130E-02
  0.410718785785E-01
  0.525964398888E-01
  0.963970944250E-01
  0.102663958800E+00
  0.176301359731E+00
  0.178101505769E+00
  0.195901124587E+00
  0.193412890603E+00
  0.155692825022E+00
  0.156779088986E+00
  0.142766550878E+00
  0.144749068757E+00
  0.133832797109E+00
  0.135314952162E+00
  0.126014337757E+00
  0.126057920937E+00
  0.117784297083E+00
  0.116629308197E+00
  0.108996038452E+00
  0.107626831028E+00
  0.998039052427E-01
  0.987711061961E-01
  0.904274755418E-01
  0.899880113410E-01
  0.836436300747E-01
  0.841551730491E-01
  0.851161660842E-01
  0.830319917544E-01
  0.963597610855E-01
  0.923533652252E-01
  0.132325629188E+00
  0.126708098213E+00
  0.195200456926E+00
  0.189405844728E+00
  0.268122712527E+00
  0.264032934487E+00
  0.346064923364E+00
  0.345041900392E+00
  0.433442360630E+00
  0.435374081964E+00
  0.526313879498E+00
  0.526980843362E+00
  0.566556008195E+00
  0.545663669000E+00
  0.164428543434E+00
  0.604501405210E-01
 -0.105177684807E+01
 -0.890551474737E+00
 -0.132155375457E+01
 -0.116075288594E+01
 -0.116633927466E+01
 -0.104391695451E+01
 -0.978412731446E+00
 -0.890856886165E+00
 -0.857292591374E+00
 -0.795278229648E+00
 -0.774478417844E+00
 -0.732955886820E+00
 -0.722416726582E+00
 -0.698085317112E+00
 -0.672357203283E+00
 -0.663408954164E+00
 -0.590041247209E+00
 -0.593708673437E+00
 -0.490434054194E+00
 -0.502336839774E+00
 -0.412040795132E+00
 -0.399745581460E+00
 -0.328174943409E+00
 -0.312827830656E+00
 -0.250877476471E+00
 -0.233118284696E+00
 -0.181015277744E+00
 -0.161419979276E+00
 -0.116075049353E+00
 -0.962744146605E-01
 -0.548576276245E-01
 -0.379986475327E-01
  0.116692991827E-02
  0.128932499349E-01
  0.518599082585E-01
  0.585659572746E-01
  0.101576707534E+00
  0.103711444900E+00
  0.176352918531E+00
  0.172188739354E+00
  0.194945784464E+00
  0.195507595482E+00
  0.154706784302E+00
  0.155522016822E+00
  0.141307472757E+00
  0.142645252155E+00
  0.132241159889E+00
  0.133737532469E+00
  0.124936637682E+00
  0.125941721503E+00
  0.117748003132E+00
  0.117737679099E+00
  0.109742665429E+00
  0.108975236368E+00
  0.100659213596E+00
  0.998042811513E-01
  0.909277399716E-01
  0.904415680105E-01
  0.834355034694E-01
  0.836555652639E-01
  0.831394547207E-01
  0.817957214609E-01
  0.925529953148E-01
  0.899130162314E-01
  0.126707359553E+00
  0.123199451034E+00
  0.188465117932E+00
  0.185236343251E+00
  0.261537759116E+00
  0.259928210081E+00
  0.340732616111E+00
  0.341647353535E+00
  0.429317942345E+00
  0.432201971714E+00
  0.520158065779E+00
  0.520432865642E+00
  0.542319297740E+00
  0.520252479151E+00
  0.696303771061E-01
 -0.319948049211E-01
 -0.121840813288E+01
 -0.106105773085E+01
 -0.146124521791E+01
 -0.130936112808E+01
 -0.126893557766E+01
 -0.115400239137E+01
 -0.105304086749E+01
 -0.970378766487E+00
 -0.912141363501E+00
 -0.853147227015E+00
 -0.813375227905E+00
 -0.773780966071E+00
 -0.747871453165E+00
 -0.724775050527E+00
 -0.685791508960E+00
 -0.677316113723E+00
 -0.592542932408E+00
 -0.596255447063E+00
 -0.484312753323E+00
 -0.496296518475E+00
 -0.400265509617E+00
 -0.387885513972E+00
 -0.312704455838E+00
 -0.297207764393E+00
 -0.232827179866E+00
 -0.215215154437E+00
 -0.161183202488E+00
 -0.143017098495E+00
 -0.962102379310E-01
 -0.800443150166E-01
 -0.381577717116E-01
 -0.261056856341E-01
  0.125310757318E-01
  0.202156180008E-01
  0.580373759233E-01
  0.621766850340E-01
  0.103061345749E+00
  0.104671266557E+00
  0.171553391864E+00
  0.171797812802E+00
  0.196107382959E+00
  0.194637099904E+00
  0.154129781366E+00
  0.154524315488E+00
  0.140113052164E+00
  0.141173731838E+00
  0.130817537050E+00
  0.132138954614E+00
  0.123604654171E+00
  0.124856954206E+00
  0.116939474212E+00
  0.117689250824E+00
  0.109715601231E+00
  0.109707818903E+00
  0.101139278539E+00
  0.100649890456E+00
  0.914170962208E-01
  0.909408829261E-01
  0.835472466569E-01
  0.834611054409E-01
  0.818737885246E-01
  0.812910681485E-01
  0.900336393364E-01
  0.887276355814E-01
  0.123123925568E+00
  0.121520606205E+00
  0.184438676875E+00
  0.183408044009E+00
  0.258017111406E+00
  0.258478292652E+00
  0.338539957049E+00
  0.340990513976E+00
  0.428154093612E+00
  0.431705559946E+00
  0.516531586772E+00
  0.516424517153E+00
  0.520347445145E+00
  0.497457694121E+00
 -0.212003832043E-01
 -0.120664818993E+00
 -0.137833741304E+01
 -0.122469802464E+01
 -0.159471413617E+01
 -0.145099471647E+01
 -0.136638301619E+01
 -0.125892277234E+01
 -0.112360918162E+01
 -0.104665201214E+01
 -0.963902251708E+00
 -0.909124913682E+00
 -0.850060644331E+00
 -0.813481013718E+00
 -0.771942695672E+00
 -0.750816490283E+00
 -0.698577652960E+00
 -0.691145960746E+00
 -0.594942318552E+00
 -0.599069908144E+00
 -0.478374441017E+00
 -0.490492786361E+00
 -0.388610415237E+00
 -0.376228393283E+00
 -0.297198407609E+00
 -0.282029595787E+00
 -0.214986242637E+00
 -0.198641321368E+00
 -0.142835482028E+00
 -0.127545395934E+00
 -0.800207721538E-01
 -0.678305973408E-01
 -0.262364506198E-01
 -0.177493652509E-01
  0.199810313971E-01
  0.253548444826E-01
  0.618830317646E-01
  0.649499070999E-01
  0.104340323215E+00
  0.105494503360E+00
  0.171355356879E+00
  0.169862309189E+00
  0.192825033782E+00
  0.195686671490E+00
  0.152562968663E+00
  0.153922035620E+00
  0.138810536801E+00
  0.139965114750E+00
  0.129482900958E+00
  0.130703795635E+00
  0.122271150773E+00
  0.123514805983E+00
  0.115818956590E+00
  0.116869561623E+00
  0.109102905024E+00
  0.109666513985E+00
  0.101134637990E+00
  0.101115869634E+00
  0.917710494303E-01
  0.914221821673E-01
  0.839092993661E-01
  0.835754660093E-01
  0.813427119761E-01
  0.814546609019E-01
  0.887888991286E-01
  0.886919122283E-01
  0.121413164528E+00
  0.121464052240E+00
  0.182786231227E+00
  0.183585921968E+00
  0.257128209253E+00
  0.259263799667E+00
  0.338948257544E+00
  0.342596645195E+00
  0.429315087288E+00
  0.433329341605E+00
  0.514772129854E+00
  0.514293583540E+00
  0.499989359639E+00
  0.476530258788E+00
 -0.108970940302E+00
 -0.206075564485E+00
 -0.153161110026E+01
 -0.138251837880E+01
 -0.172158725841E+01
 -0.158634770233E+01
 -0.145820032594E+01
 -0.135866069987E+01
 -0.118955573791E+01
 -0.111899912436E+01
 -0.101197056385E+01
 -0.962195598407E+00
 -0.883964860454E+00
 -0.851083070986E+00
 -0.794093866904E+00
 -0.775483676936E+00
 -0.710223007849E+00
 -0.704259519516E+00
 -0.596891571170E+00
 -0.601625953108E+00
 -0.472536903203E+00
 -0.484634926369E+00
 -0.377094377989E+00
 -0.365063299758E+00
 -0.282126503008E+00
 -0.268108747926E+00
 -0.198500824835E+00
 -0.184550472893E+00
 -0.127437080773E+00
 -0.115543891775E+00
 -0.678270703479E-01
 -0.589266756591E-01
 -0.178222725750E-01
 -0.116768074785E-01
  0.252502210625E-01
  0.293605155347E-01
  0.648479886817E-01
  0.676927217307E-01
  0.105437401446E+00
  0.107884932847E+00
  0.169983884405E+00
  0.173797949895E+00
  0.193665193994E+00
  0.192576227762E+00
  0.152043178080E+00
  0.152376458974E+00
  0.137833493332E+00
  0.138657538788E+00
  0.128311480194E+00
  0.129358329782E+00
  0.121034130740E+00
  0.122169468381E+00
  0.114654626084E+00
  0.115736782760E+00
  0.108217092969E+00
  0.109039741049E+00
  0.100738943177E+00
  0.101094900430E+00
  0.918992254336E-01
  0.917614525029E-01
  0.843936918219E-01
  0.839287044034E-01
  0.814846749727E-01
  0.821468364018E-01
  0.887134035550E-01
  0.896187199079E-01
  0.121353936013E+00
  0.122758502910E+00
  0.183140586184E+00
  0.185395953050E+00
  0.258400728501E+00
  0.261825705061E+00
  0.341433258672E+00
  0.345960043608E+00
  0.432254712214E+00
  0.436544649393E+00
  0.514357189291E+00
  0.513515392658E+00
  0.480803516476E+00
  0.457045449061E+00
 -0.193942389665E+00
 -0.288122873382E+00
 -0.167745881508E+01
 -0.153430314578E+01
 -0.184100108355E+01
 -0.171502038033E+01
 -0.154369279418E+01
 -0.145262403903E+01
 -0.125032099345E+01
 -0.118665831666E+01
 -0.105585521627E+01
 -0.101154035341E+01
 -0.914649151484E+00
 -0.885855166512E+00
 -0.813925507402E+00
 -0.798143165492E+00
 -0.720411184276E+00
 -0.716090617301E+00
 -0.598259900065E+00
 -0.603514506025E+00
 -0.466976207122E+00
 -0.478590270239E+00
 -0.366004748681E+00
 -0.354954503391E+00
 -0.268307342033E+00
 -0.256317668876E+00
 -0.184515510234E+00
 -0.173509041182E+00
 -0.115505438930E+00
 -0.106681191806E+00
 -0.589271291578E-01
 -0.524382212355E-01
 -0.116913855624E-01
 -0.708210235687E-02
  0.293594899950E-01
  0.326246573632E-01
  0.677181714776E-01
  0.699748691811E-01
  0.107922864485E+00
  0.109186893098E+00
  0.173746061139E+00
  0.173318462162E+00
  0.193072673716E+00
  0.193309656545E+00
  0.151552926891E+00
  0.151838324671E+00
  0.137168562168E+00
  0.137672639091E+00
  0.127448407062E+00
  0.128177926035E+00
  0.120027081763E+00
  0.120921213842E+00
  0.113612628437E+00
  0.114559734930E+00
  0.107303840626E+00
  0.108139720840E+00
  0.100161043324E+00
  0.100682448465E+00
  0.918319999380E-01
  0.918709723230E-01
  0.848848466755E-01
  0.843952101747E-01
  0.821585754191E-01
  0.831799152761E-01
  0.896153987745E-01
  0.912565392761E-01
  0.122661156258E+00
  0.125077045267E+00
  0.185106129029E+00
  0.188432539721E+00
  0.261353197753E+00
  0.265691320973E+00
  0.345474886396E+00
  0.350570339045E+00
  0.436456637592E+00
  0.440840080486E+00
  0.514822563960E+00
  0.513634462761E+00
  0.462474613447E+00
  0.438755242415E+00
 -0.275957644994E+00
 -0.366353935159E+00
 -0.181472118078E+01
 -0.167912346110E+01
 -0.195193467374E+01
 -0.183608215388E+01
 -0.162215918768E+01
 -0.154001010311E+01
 -0.130543941310E+01
 -0.124892550264E+01
 -0.109521089815E+01
 -0.105652236839E+01
 -0.941847224693E+00
 -0.917238190810E+00
 -0.831246685175E+00
 -0.818298348931E+00
 -0.729076776495E+00
 -0.726238284375E+00
 -0.599193184035E+00
 -0.604541575806E+00
 -0.462114170225E+00
 -0.472508564924E+00
 -0.355924558895E+00
 -0.346546654893E+00
 -0.256616122126E+00
 -0.247154709467E+00
 -0.173577925257E+00
 -0.165393329066E+00
 -0.106699343784E+00
 -0.100313350266E+00
 -0.524377762868E-01
 -0.477201487604E-01
 -0.705287574338E-02
 -0.364942189058E-02
  0.326933485700E-01
  0.351220490178E-01
  0.700907393070E-01
  0.718318222241E-01
  0.109367815891E+00
  0.110687894235E+00
  0.173659019806E+00
  0.175020354041E+00
  0.193968335562E+00
  0.192748250923E+00
  0.151571918882E+00
  0.151339608969E+00
  0.136800972567E+00
  0.136994905182E+00
  0.126847954950E+00
  0.127302415875E+00
  0.119271817715E+00
  0.119901991773E+00
  0.112781871111E+00
  0.113504999587E+00
  0.106516075537E+00
  0.107212496930E+00
  0.995909287379E-01
  0.100088329729E+00
  0.916881542012E-01
  0.917841969950E-01
  0.853463061995E-01
  0.848637131370E-01
  0.831742781885E-01
  0.843795620285E-01
  0.912370345280E-01
  0.933287283196E-01
  0.124995964430E+00
  0.128063077309E+00
  0.188263711867E+00
  0.192274872460E+00
  0.265505628173E+00
  0.270391652043E+00
  0.350567877571E+00
  0.355934994375E+00
  0.441432499482E+00
  0.445738080246E+00
  0.515756040300E+00
  0.514257556431E+00
  0.444809153885E+00
  0.421532228273E+00
 -0.354554776429E+00
 -0.440135439561E+00
 -0.194215218184E+01
 -0.181570430210E+01
 -0.205345476953E+01
 -0.194844018144E+01
 -0.169304857947E+01
 -0.162003164446E+01
 -0.135462820330E+01
 -0.130523562022E+01
 -0.112990545743E+01
 -0.109669516927E+01
 -0.965529847323E+00
 -0.944872485759E+00
 -0.846133397174E+00
 -0.835675179723E+00
 -0.736434103646E+00
 -0.734573539810E+00
 -0.600068308649E+00
 -0.604833498585E+00
 -0.458421528156E+00
 -0.466864489639E+00
 -0.347522064525E+00
 -0.340238793060E+00
 -0.247543981107E+00
 -0.240586645024E+00
 -0.165549477629E+00
 -0.159718221749E+00
 -0.100375156256E+00
 -0.958515966889E-01
 -0.477207909401E-01
 -0.443419416772E-01
 -0.359073941156E-02
 -0.109954239293E-02
  0.352437504231E-01
  0.370696797203E-01
  0.720213376715E-01
  0.733138454485E-01
  0.110951277562E+00
  0.111704442631E+00
  0.175392118082E+00
  0.175292158490E+00
  0.193514989615E+00
  0.193577171351E+00
  0.151274921910E+00
  0.151333028764E+00
  0.136449637447E+00
  0.136610608330E+00
  0.126390269284E+00
  0.126687978160E+00
  0.118711296783E+00
  0.119133629131E+00
  0.112158594365E+00
  0.112661297598E+00
  0.105910938779E+00
  0.106411265386E+00
  0.991397842374E-01
  0.995031422404E-01
  0.915838640444E-01
  0.916220218950E-01
  0.858094515256E-01
  0.853021451818E-01
  0.843566387492E-01
  0.856364726718E-01
  0.932965335824E-01
  0.955914464775E-01
  0.127993738102E+00
  0.131374973267E+00
  0.192186780319E+00
  0.196519069199E+00
  0.270391985506E+00
  0.275485933595E+00
  0.356236047051E+00
  0.361602628306E+00
  0.446737193481E+00
  0.450815778866E+00
  0.516811861692E+00
  0.515062100417E+00
  0.427735121687E+00
  0.405335809587E+00
 -0.429075258115E+00
 -0.508800003847E+00
 -0.205867659541E+01
 -0.194270581408E+01
 -0.214492560602E+01
 -0.205110420654E+01
 -0.175610670206E+01
 -0.169208158623E+01
 -0.139787657388E+01
 -0.135524538988E+01
 -0.116007951611E+01
 -0.113186500748E+01
 -0.985937479914E+00
 -0.968673777603E+00
 -0.858916914384E+00
 -0.850312444576E+00
 -0.742894119724E+00
 -0.741313059825E+00
 -0.601301835606E+00
 -0.604837277325E+00
 -0.456157705110E+00
 -0.462270313464E+00
 -0.341208811737E+00
 -0.336027498489E+00
 -0.241047670132E+00
 -0.236229288501E+00
 -0.159940588078E+00
 -0.155932838898E+00
 -0.959477963267E-01
 -0.928076367372E-01