# vtk DataFile Version 3.0
MachLine results file. Generated by MachLine, USU AeroLab (c) 2022.
ASCII
DATASET POLYDATA
POINTS                 144 float
  0.000000000000E+00  0.000000000000E+00  0.000000000000E+00
  0.113538098335E+01  0.000000000000E+00 -0.658124566078E+00
  0.113538098335E+01  0.000000000000E+00  0.658124566078E+00
  0.192375373840E+01  0.192375373840E+01  0.000000000000E+00
  0.305913543701E+01  0.192375373840E+01 -0.658124983311E+00
  0.305913543701E+01  0.192375373840E+01  0.658124983311E+00
  0.423028087616E+01  0.000000000000E+00 -0.108747220039E+01
  0.423028087616E+01  0.000000000000E+00  0.108747220039E+01
  0.547033166885E+01  0.547033166885E+01  0.000000000000E+00
  0.615403699875E+01  0.192375373840E+01 -0.108747279644E+01
  0.615403699875E+01  0.192375373840E+01  0.108747279644E+01
  0.660571479797E+01  0.547033166885E+01 -0.658125698566E+00
  0.660571479797E+01  0.547033166885E+01  0.658125698566E+00
  0.939508819580E+01  0.000000000000E+00 -0.980745851994E+00
  0.939508819580E+01  0.000000000000E+00  0.980745851994E+00
  0.970061969757E+01  0.547033166885E+01 -0.108747410774E+01
  0.970061969757E+01  0.547033166885E+01  0.108747410774E+01
  0.113188476562E+02  0.192375373840E+01 -0.980746448040E+00
  0.113188476562E+02  0.192375373840E+01  0.980746448040E+00
  0.113820018768E+02  0.113820018768E+02  0.000000000000E+00
  0.125173873901E+02  0.113820018768E+02 -0.658127009869E+00
  0.125173873901E+02  0.113820018768E+02  0.658127009869E+00
  0.145402030945E+02  0.000000000000E+00 -0.479613035917E+00
  0.145402030945E+02  0.000000000000E+00  0.479613035917E+00
  0.148654365540E+02  0.547033166885E+01 -0.980747580528E+00
  0.148654365540E+02  0.547033166885E+01  0.980747580528E+00
  0.156122989655E+02  0.113820018768E+02 -0.108747613430E+01
  0.156122989655E+02  0.113820018768E+02  0.108747613430E+01
  0.164639663696E+02  0.192375373840E+01 -0.479613333941E+00
  0.164639663696E+02  0.192375373840E+01  0.479613333941E+00
  0.176505107880E+02  0.000000000000E+00 -0.144198849797E+00
  0.176505107880E+02  0.000000000000E+00  0.144198849797E+00
  0.190000000000E+02  0.000000000000E+00  0.000000000000E+00
  0.195742740631E+02  0.192375373840E+01 -0.144198939204E+00
  0.195742740631E+02  0.192375373840E+01  0.144198939204E+00
  0.197561950684E+02  0.197561950684E+02  0.000000000000E+00
  0.200105609894E+02  0.547033166885E+01 -0.479613870382E+00
  0.200105609894E+02  0.547033166885E+01  0.479613870382E+00
  0.207771244049E+02  0.113820018768E+02 -0.980749428272E+00
  0.207771244049E+02  0.113820018768E+02  0.980749428272E+00
  0.208915824890E+02  0.197561950684E+02 -0.658128738403E+00
  0.208915824890E+02  0.197561950684E+02  0.658128738403E+00
  0.209237651825E+02  0.192375373840E+01  0.000000000000E+00
  0.231208724976E+02  0.547033166885E+01 -0.144199103117E+00
  0.231208724976E+02  0.547033166885E+01  0.144199103117E+00
  0.239865016937E+02  0.197561950684E+02 -0.108747911453E+01
  0.239865016937E+02  0.197561950684E+02  0.108747911453E+01
  0.244703655243E+02  0.547033166885E+01  0.000000000000E+00
  0.259222583771E+02  0.113820018768E+02 -0.479614794254E+00
  0.259222583771E+02  0.113820018768E+02  0.479614794254E+00
  0.290325775146E+02  0.113820018768E+02 -0.144199386239E+00
  0.290325775146E+02  0.113820018768E+02  0.144199386239E+00
  0.291513423920E+02  0.197561950684E+02 -0.980752110481E+00
  0.291513423920E+02  0.197561950684E+02  0.980752110481E+00
  0.292438049316E+02  0.292438049316E+02  0.000000000000E+00
  0.303791980743E+02  0.292438049316E+02 -0.658130764961E+00
  0.303791980743E+02  0.292438049316E+02  0.658130764961E+00
  0.303820724487E+02  0.113820018768E+02  0.000000000000E+00
  0.334741249084E+02  0.292438049316E+02 -0.108748245239E+01
  0.334741249084E+02  0.292438049316E+02  0.108748245239E+01
  0.342964897156E+02  0.197561950684E+02 -0.479616105556E+00
  0.342964897156E+02  0.197561950684E+02  0.479616105556E+00
  0.374068183899E+02  0.197561950684E+02 -0.144199773669E+00
  0.374068183899E+02  0.197561950684E+02  0.144199773669E+00
  0.376179962158E+02  0.376179962158E+02  0.000000000000E+00
  0.386389808655E+02  0.292438049316E+02 -0.980755090714E+00
  0.386389808655E+02  0.292438049316E+02  0.980755090714E+00
  0.387533912659E+02  0.376179962158E+02 -0.658132553101E+00
  0.387533912659E+02  0.376179962158E+02  0.658132553101E+00
  0.387563171387E+02  0.197561950684E+02  0.000000000000E+00
  0.418483314514E+02  0.376179962158E+02 -0.108748543262E+01
  0.418483314514E+02  0.376179962158E+02  0.108748543262E+01
  0.435296669006E+02  0.435296669006E+02  0.000000000000E+00
  0.437841453552E+02  0.292438049316E+02 -0.479617565870E+00
  0.437841453552E+02  0.292438049316E+02  0.479617565870E+00
  0.446650657654E+02  0.435296669006E+02 -0.658133804798E+00
  0.446650657654E+02  0.435296669006E+02  0.658133804798E+00
  0.468944816589E+02  0.292438049316E+02 -0.144200220704E+00
  0.468944816589E+02  0.292438049316E+02  0.144200220704E+00
  0.470131988525E+02  0.376179962158E+02 -0.980757772923E+00
  0.470131988525E+02  0.376179962158E+02  0.980757772923E+00
  0.470762481689E+02  0.470762481689E+02  0.000000000000E+00
  0.477600097656E+02  0.435296669006E+02 -0.108748745918E+01
  0.477600097656E+02  0.435296669006E+02  0.108748745918E+01
  0.482116432190E+02  0.470762481689E+02 -0.658134579659E+00
  0.482116432190E+02  0.470762481689E+02  0.658134579659E+00
  0.482439842224E+02  0.292438049316E+02  0.000000000000E+00
  0.490000000000E+02  0.490000000000E+02  0.000000000000E+00
  0.501353988647E+02  0.490000000000E+02 -0.658134996891E+00
  0.501353988647E+02  0.490000000000E+02  0.658134996891E+00
  0.506007728577E+02  0.494653701782E+02 -0.465371757746E+00
  0.506007728577E+02  0.494653701782E+02  0.465371757746E+00
  0.507935333252E+02  0.496581344604E+02 -0.771266485397E-15
  0.513065910339E+02  0.470762481689E+02 -0.108748877048E+01
  0.513065910339E+02  0.470762481689E+02  0.108748877048E+01
  0.521583786011E+02  0.376179962158E+02 -0.479618877172E+00
  0.521583786011E+02  0.376179962158E+02  0.479618877172E+00
  0.529248886108E+02  0.435296669006E+02 -0.980759620667E+00
  0.529248886108E+02  0.435296669006E+02  0.980759620667E+00
  0.532303466797E+02  0.490000000000E+02 -0.108748936653E+01
  0.532303466797E+02  0.490000000000E+02  0.108748936653E+01
  0.539993209839E+02  0.497689704895E+02 -0.768971264362E+00
  0.539993209839E+02  0.497689704895E+02  0.768971264362E+00
  0.543178405762E+02  0.500874900818E+02 -0.157378642191E-15
  0.552687225342E+02  0.376179962158E+02 -0.144200608134E+00
  0.552687225342E+02  0.376179962158E+02  0.144200608134E+00
  0.564714775085E+02  0.470762481689E+02 -0.980760753155E+00
  0.564714775085E+02  0.470762481689E+02  0.980760753155E+00
  0.566182289124E+02  0.376179962158E+02  0.000000000000E+00
  0.580700759888E+02  0.435296669006E+02 -0.479619771242E+00
  0.580700759888E+02  0.435296669006E+02  0.479619771242E+00
  0.583952369690E+02  0.490000000000E+02 -0.980761349201E+00
  0.583952369690E+02  0.490000000000E+02  0.980761349201E+00
  0.590887413025E+02  0.496935043335E+02 -0.693503141403E+00
  0.590887413025E+02  0.496935043335E+02  0.693503141403E+00
  0.593759994507E+02  0.499807624817E+02  0.000000000000E+00
  0.611804275513E+02  0.435296669006E+02 -0.144200876355E+00
  0.611804275513E+02  0.435296669006E+02  0.144200876355E+00
  0.616166725159E+02  0.470762481689E+02 -0.479620337486E+00
  0.616166725159E+02  0.470762481689E+02  0.479620337486E+00
  0.625299339294E+02  0.435296669006E+02  0.000000000000E+00
  0.635404319763E+02  0.490000000000E+02 -0.479620635509E+00
  0.635404319763E+02  0.490000000000E+02  0.479620635509E+00
  0.638795776367E+02  0.493391418457E+02 -0.339143037796E+00
  0.638795776367E+02  0.493391418457E+02  0.339143037796E+00
  0.640200576782E+02  0.494796218872E+02  0.296956834055E-15
  0.647270278931E+02  0.470762481689E+02 -0.144201040268E+00
  0.647270278931E+02  0.470762481689E+02  0.144201040268E+00
  0.660765380859E+02  0.470762481689E+02  0.000000000000E+00
  0.666507873535E+02  0.490000000000E+02 -0.144201144576E+00
  0.666507873535E+02  0.490000000000E+02  0.144201144576E+00
  0.667527542114E+02  0.491019668579E+02 -0.101965606213E+00
  0.667527542114E+02  0.491019668579E+02  0.101965606213E+00
  0.667949905396E+02  0.491441993713E+02 -0.260488604752E-16
  0.680002975464E+02  0.490000000000E+02  0.000000000000E+00
  0.190000000000E+02  0.000000000000E+00  0.000000000000E+00
  0.209237651825E+02  0.192375373840E+01  0.000000000000E+00
  0.244703655243E+02  0.547033166885E+01  0.000000000000E+00
  0.303820724487E+02  0.113820018768E+02  0.000000000000E+00
  0.387563171387E+02  0.197561950684E+02  0.000000000000E+00
  0.482439842224E+02  0.292438049316E+02  0.000000000000E+00
  0.566182289124E+02  0.376179962158E+02  0.000000000000E+00
  0.625299339294E+02  0.435296669006E+02  0.000000000000E+00
  0.660765380859E+02  0.470762481689E+02  0.000000000000E+00
POLYGONS                 256                1024
3                  32                  33                  42
3                  32                  30                  33
3                  30                  28                  33
3                  30                  22                  28
3                  22                  17                  28
3                  22                  13                  17
3                  13                   6                  17
3                  17                   6                   9
3                   6                   1                   9
3                   9                   1                   4
3                   1                   0                   4
3                   4                   0                   3
3                   0                   5                   3
3                   0                   2                   5
3                   2                  10                   5
3                   2                   7                  10
[...]
CELL_DATA                 256
SCALARS C_p_inc float 1
LOOKUP_TABLE default
  0.149378883395E+00
  0.137638662915E+00
  0.104649052242E+00
  0.931041466288E-01
  0.695013063234E-01
  0.618467460716E-01
  0.120191168587E+00
  0.953954962417E-01
  0.326407792680E+00
  0.273268349988E+00
  0.628804725074E+00
  0.614897125341E+00
 -0.788908171109E+00
 -0.912719390839E-01
 -0.768226585973E+00
 -0.553516449243E+00
 -0.519195122235E+00
 -0.536023619391E+00
 -0.368050696701E+00
 -0.300779739877E+00
 -0.164541949433E+00
 -0.786088856548E-01
  0.114759330476E-01
  0.104067193224E+00
  0.141253389557E+00
  0.148224503307E+00
  0.101148919240E+00
  0.104477773413E+00
  0.720095618607E-01
  0.695964734699E-01
  0.960171197437E-01
  0.907228811256E-01
  0.262154144714E+00
  0.271071493401E+00
  0.539247149292E+00
  0.491228198686E+00
 -0.115963753544E+01
 -0.742966938801E+00
 -0.938206927585E+00
 -0.766336967740E+00
 -0.534955460072E+00
 -0.541344865179E+00
 -0.301686574464E+00
 -0.241677174634E+00
 -0.783084780241E-01
 -0.279006359363E-01
  0.100693366605E+00
  0.117998519733E+00
  0.138122975720E+00
  0.140471801685E+00
  0.960944590398E-01
  0.100802915503E+00
  0.707663335084E-01
  0.719965944709E-01
  0.905953404010E-01
  0.997112427247E-01
  0.268302256933E+00
  0.291396423208E+00
  0.498502378286E+00
  0.449310650980E+00
 -0.142275098057E+01
 -0.114917650843E+01
 -0.104116253511E+01
 -0.944400751962E+00
 -0.541967420142E+00
 -0.554826626183E+00
 -0.243597969164E+00
 -0.215433760294E+00
 -0.278923689188E-01
 -0.118145863969E-01
  0.118309670117E+00
  0.125977993738E+00
  0.134038932796E+00
  0.137103102594E+00
  0.908398751088E-01
  0.955893758192E-01
  0.678952605875E-01
  0.705460770992E-01
  0.994077702939E-01
  0.104550367581E+00
  0.291941023524E+00
  0.308317207352E+00
  0.463052444250E+00
  0.429083927511E+00
 -0.156306536953E+01
 -0.142211109172E+01
 -0.109278056031E+01
 -0.104979391442E+01
 -0.551495108431E+00
 -0.553052129901E+00
 -0.217467803832E+00
 -0.208466247475E+00
 -0.117990267636E-01
 -0.266956323521E-02
  0.127475306702E+00
  0.135370072528E+00
  0.121214192592E+00
  0.132315081221E+00
  0.756662942629E-01
  0.899881548787E-01
  0.557536335512E-01
  0.675056779495E-01
  0.103919739760E+00
  0.977840501016E-01
  0.307708289653E+00
  0.309436432145E+00
  0.434254072838E+00
  0.424552671642E+00
 -0.159994203012E+01
 -0.156375913778E+01
 -0.110070853014E+01
 -0.109813897431E+01
 -0.544028099423E+00
 -0.557812013280E+00
 -0.210600643448E+00
 -0.193317441860E+00
 -0.287496400971E-02
  0.176012520083E-01
  0.137376838356E+00
  0.156238149793E+00
  0.938917966416E-01
  0.117252518466E+00
  0.411936012205E-01
  0.737288259332E-01
  0.231047743481E-01
  0.549958977213E-01
  0.961544707441E-01
  0.700956270548E-01
  0.306209405619E+00
  0.291033339509E+00
  0.421266656697E+00
  0.437519980438E+00
 -0.153630693045E+01
 -0.160174260299E+01
 -0.105700104404E+01
 -0.110797580565E+01
 -0.503139444912E+00
 -0.553311647147E+00
 -0.196021954005E+00
 -0.149515564526E+00
  0.167809559408E-01
  0.678280385589E-01
  0.159223431634E+00
  0.205357873464E+00
  0.490111023392E-01
  0.836726181724E-01
 -0.793262157314E-02
  0.358936667626E-01
 -0.262179361835E-01
  0.209361923630E-01
  0.653778768589E-01
  0.149643644356E-01
  0.281922817356E+00
  0.246834058509E+00
  0.422031047452E+00
  0.461345138485E+00
 -0.139122819049E+01
 -0.154010835890E+01
 -0.963735109332E+00
 -0.107128066708E+01
 -0.418026013725E+00
 -0.523771104907E+00
 -0.153925560608E+00
 -0.648107559423E-01
  0.644388732659E-01
  0.155998411042E+00
  0.208480755151E+00
  0.296418358984E+00
 -0.590715408420E-01
  0.214739985788E-01
 -0.850975658984E-01
 -0.220103095635E-01
 -0.745961158338E-01
 -0.338504562100E-01
  0.173046655840E-02
 -0.407232432613E-01
  0.220120985585E+00
  0.161339553421E+00
  0.416034284217E+00
  0.480827040099E+00
 -0.119232386748E+01
 -0.139691192603E+01
 -0.821363406964E+00
 -0.993553711061E+00
 -0.281148249308E+00
 -0.472551721121E+00
 -0.758959790803E-01
  0.219452090658E-01
  0.140623555596E+00
  0.250558430898E+00
  0.286339206287E+00
  0.431833085809E+00
 -0.325708841761E+00
 -0.144200192090E+00
 -0.226625995768E+00
 -0.133700122009E+00
 -0.159208050830E+00
 -0.107304951902E+00
 -0.864996785765E-01
 -0.903388927377E-01
  0.760572986139E-01
  0.580939611892E-01
  0.278573777622E+00
  0.447901817602E+00
 -0.875714489179E+00
 -0.119872190818E+01
 -0.530635673302E+00
 -0.934502322326E+00
 -0.170651253841E+00
 -0.448857634917E+00
 -0.310856041407E-01
  0.737912630487E-02
  0.165725137448E+00
  0.238282004584E+00
  0.340000321994E+00
  0.546291690211E+00
 -0.128520582400E+01
 -0.128601886382E+01
 -0.623846758362E+00
 -0.632851016790E+00
 -0.343956494667E+00
 -0.333362625511E+00
 -0.292896591283E+00
 -0.238934978629E+00
 -0.277054133547E+00
 -0.174108217607E+00
 -0.890617402351E+00
 -0.510419160545E+00
 -0.802534884282E+00
 -0.314876554704E+00
 -0.669780886748E+00
 -0.273021514158E+00
 -0.680797740747E+00
 -0.437790547633E+00
 -0.129102998127E+01
 -0.801890870389E+00
 -0.267477478182E+01
 -0.272452893752E+01
 -0.123883241152E+01
 -0.130306087364E+01
 -0.659857217621E+00
 -0.695197082313E+00
 -0.579818110416E+00
 -0.578046307197E+00
 -0.632902482995E+00
 -0.516541445052E+00
 -0.765259062092E+00
 -0.710720151656E+00
 -0.755965810362E+00
 -0.564219247182E+00
 -0.848461423899E+00
 -0.665246645901E+00
 -0.128594895987E+01
 -0.121327845567E+01
 -0.268728715791E+01
 -0.248339791838E+01
SCALARS sigma float 1
LOOKUP_TABLE default
  0.000000000000E+00
  0.000000000000E+00
  0.000000000000E+00
  0.000000000000E+00
  0.000000000000E+00
  0.000000000000E+00
  0.000000000000E+00
  0.000000000000E+00
  0.000000000000E+00
  0.000000000000E+00
  0.000000000000E+00
  0.000000000000E+00
  0.000000000000E+00
  0.000000000000E+00
  0.000000000000E+00
  0.000000000000E+00
  0.000000000000E+00
  0.000000000000E+00
  0.000000000000E+00
  0.000000000000E+00
  0.000000000000E+00
  0.000000000000E+00
  0.000000000000E+00
  0.000000000000E+00
  0.000000000000E+00
  0.000000000000E+00
  0.000000000000E+00
  0.000000000000E+00
  0.000000000000E+00
  0.000000000000E+00
  0.000000000000E+00
  0.000000000000E+00
  0.000000000000E+00
  0.000000000000E+00
  0.000000000000E+00
  0.000000000000E+00
  0.000000000000E+00
  0.000000000000E+00
  0.000000000000E+00
  0.000000000000E+00
  0.000000000000E+00
  0.000000000000E+00
  0.000000000000E+00
  0.000000000000E+00
  0.000000000000E+00
  0.000000000000E+00
  0.000000000000E+00
  0.000000000000E+00
  0.000000000000E+00
  0.000000000000E+00
  0.000000000000E+00
  0.000000000000E+00
  0.000000000000E+00
  0.000000000000E+00
  0.000000000000E+00
  0.000000000000E+00
  0.000000000000E+00
  0.000000000000E+00
  0.000000000000E+00
  0.000000000000E+00
  0.000000000000E+00
  0.000000000000E+00
  0.000000000000E+00
  0.000000000000E+00
  0.000000000000E+00
  0.000000000000E+00
  0.000000000000E+00
  0.000000000000E+00
  0.000000000000E+00
  0.000000000000E+00
  0.000000000000E+00
  0.000000000000E+00
  0.000000000000E+00
  0.000000000000E+00
  0.000000000000E+00
  0.000000000000E+00
  0.000000000000E+00
  0.000000000000E+00
  0.000000000000E+00
  0.000000000000E+00
  0.000000000000E+00
  0.000000000000E+00
  0.000000000000E+00
  0.000000000000E+00
  0.000000000000E+00
  0.000000000000E+00
  0.000000000000E+00
  0.000000000000E+00
  0.000000000000E+00
  0.000000000000E+00
  0.000000000000E+00
  0.000000000000E+00
  0.000000000000E+00
  0.000000000000E+00
  0.000000000000E+00
  0.000000000000E+00
  0.000000000000E+00
  0.000000000000E+00
  0.000000000000E+00
  0.000000000000E+00
  0.000000000000E+00
  0.000000000000E+00
  0.000000000000E+00
  0.000000000000E+00
  0.000000000000E+00
  0.000000000000E+00
  0.000000000000E+00
  0.000000000000E+00
  0.000000000000E+00
  0.000000000000E+00
  0.000000000000E+00
  0.000000000000E+00
  0.000000000000E+00
  0.000000000000E+00
  0.000000000000E+00
  0.000000000000E+00
  0.000000000000E+00
  0.000000000000E+00
  0.000000000000E+00
  0.000000000000E+00
  0.000000000000E+00
  0.000000000000E+00
  0.000000000000E+00
  0.000000000000E+00
  0.000000000000E+00
  0.000000000000E+00
  0.000000000000E+00
  0.000000000000E+00
  0.000000000000E+00
  0.000000000000E+00
  0.000000000000E+00
  0.000000000000E+00
  0.000000000000E+00
  0.000000000000E+00
  0.000000000000E+00
  0.000000000000E+00
  0.000000000000E+00
  0.000000000000E+00
  0.000000000000E+00
  0.000000000000E+00
  0.000000000000E+00
  0.000000000000E+00
  0.000000000000E+00
  0.000000000000E+00
  0.000000000000E+00
  0.000000000000E+00
  0.000000000000E+00
  0.000000000000E+00
  0.000000000000E+00
  0.000000000000E+00
  0.000000000000E+00
  0.000000000000E+00
  0.000000000000E+00
  0.000000000000E+00
  0.000000000000E+00
  0.000000000000E+00
  0.000000000000E+00
  0.000000000000E+00
  0.000000000000E+00
  0.000000000000E+00
  0.000000000000E+00
  0.000000000000E+00
  0.000000000000E+00
  0.000000000000E+00
  0.000000000000E+00
  0.000000000000E+00
  0.000000000000E+00
  0.000000000000E+00
  0.000000000000E+00
  0.000000000000E+00
  0.000000000000E+00
  0.000000000000E+00
  0.000000000000E+00
  0.000000000000E+00
  0.000000000000E+00
  0.000000000000E+00
  0.000000000000E+00
  0.000000000000E+00
  0.000000000000E+00
  0.000000000000E+00
  0.000000000000E+00
  0.000000000000E+00
  0.000000000000E+00
  0.000000000000E+00
  0.000000000000E+00
  0.000000000000E+00
  0.000000000000E+00
  0.000000000000E+00
  0.000000000000E+00
  0.000000000000E+00
  0.000000000000E+00
  0.000000000000E+00
  0.000000000000E+00
  0.000000000000E+00
  0.000000000000E+00
  0.000000000000E+00
  0.000000000000E+00
  0.000000000000E+00
  0.000000000000E+00
  0.000000000000E+00
  0.000000000000E+00
  0.000000000000E+00
  0.000000000000E+00
  0.000000000000E+00
  0.000000000000E+00
  0.000000000000E+00
  0.000000000000E+00
  0.000000000000E+00
  0.000000000000E+00
  0.000000000000E+00
  0.000000000000E+00
  0.000000000000E+00
  0.000000000000E+00
  0.000000000000E+00
  0.000000000000E+00
  0.000000000000E+00
  0.000000000000E+00
  0.000000000000E+00
  0.000000000000E+00
  0.000000000000E+00
  0.000000000000E+00
  0.000000000000E+00
  0.000000000000E+00
  0.000000000000E+00
  0.000000000000E+00
  0.000000000000E+00
  0.000000000000E+00
  0.000000000000E+00
  0.000000000000E+00
  0.000000000000E+00
  0.000000000000E+00
  0.000000000000E+00
  0.000000000000E+00
  0.000000000000E+00
  0.000000000000E+00
  0.000000000000E+00
  0.000000000000E+00
  0.000000000000E+00
  0.000000000000E+00
  0.000000000000E+00
  0.000000000000E+00
  0.000000000000E+00
  0.000000000000E+00
  0.000000000000E+00
  0.000000000000E+00
  0.000000000000E+00
  0.000000000000E+00
  0.000000000000E+00
  0.000000000000E+00
  0.000000000000E+00
  0.000000000000E+00
  0.000000000000E+00
  0.000000000000E+00
  0.000000000000E+00
  0.000000000000E+00
  0.000000000000E+00
SCALARS inclination float 1
LOOKUP_TABLE default
  0.100000000000E+01
  0.100000000000E+01
  0.100000000000E+01
  0.100000000000E+01
  0.100000000000E+01
  0.100000000000E+01
  0.100000000000E+01
  0.100000000000E+01
  0.100000000000E+01
  0.100000000000E+01
  0.100000000000E+01
  0.100000000000E+01
  0.100000000000E+01
  0.100000000000E+01
  0.100000000000E+01
  0.100000000000E+01
  0.100000000000E+01
  0.100000000000E+01
  0.100000000000E+01
  0.100000000000E+01
  0.100000000000E+01
  0.100000000000E+01
  0.100000000000E+01
  0.100000000000E+01
  0.100000000000E+01
  0.100000000000E+01
  0.100000000000E+01
  0.100000000000E+01
  0.100000000000E+01
  0.100000000000E+01
  0.100000000000E+01
  0.100000000000E+01
  0.100000000000E+01
  0.100000000000E+01
  0.100000000000E+01
  0.100000000000E+01
  0.100000000000E+01
  0.100000000000E+01
  0.100000000000E+01
  0.100000000000E+01
  0.100000000000E+01
  0.100000000000E+01
  0.100000000000E+01
  0.100000000000E+01
  0.100000000000E+01
  0.100000000000E+01
  0.100000000000E+01
  0.100000000000E+01
  0.100000000000E+01
  0.100000000000E+01
  0.100000000000E+01
  0.100000000000E+01
  0.100000000000E+01
  0.100000000000E+01
  0.100000000000E+01
  0.100000000000E+01
  0.100000000000E+01
  0.100000000000E+01
  0.100000000000E+01
  0.100000000000E+01
  0.100000000000E+01
  0.100000000000E+01
  0.100000000000E+01
  0.100000000000E+01
  0.100000000000E+01
  0.100000000000E+01
  0.100000000000E+01
  0.100000000000E+01
  0.100000000000E+01
  0.100000000000E+01
  0.100000000000E+01
  0.100000000000E+01
  0.100000000000E+01
  0.100000000000E+01
  0.100000000000E+01
  0.100000000000E+01
  0.100000000000E+01
  0.100000000000E+01
  0.100000000000E+01
  0.100000000000E+01
  0.100000000000E+01
  0.100000000000E+01
  0.100000000000E+01
  0.100000000000E+01
  0.100000000000E+01
  0.100000000000E+01
  0.100000000000E+01
  0.100000000000E+01
  0.100000000000E+01
  0.100000000000E+01
  0.100000000000E+01
  0.100000000000E+01
  0.100000000000E+01
  0.100000000000E+01
  0.100000000000E+01
  0.100000000000E+01
  0.100000000000E+01
  0.100000000000E+01
  0.100000000000E+01
  0.100000000000E+01
  0.100000000000E+01
  0.100000000000E+01
  0.100000000000E+01
  0.100000000000E+01
  0.100000000000E+01
  0.100000000000E+01
  0.100000000000E+01
  0.100000000000E+01
  0.100000000000E+01
  0.100000000000E+01
  0.100000000000E+01
  0.100000000000E+01
  0.100000000000E+01
  0.100000000000E+01
  0.100000000000E+01
  0.100000000000E+01
  0.100000000000E+01
  0.100000000000E+01
  0.100000000000E+01
  0.100000000000E+01
  0.100000000000E+01
  0.100000000000E+01
  0.100000000000E+01
  0.100000000000E+01
  0.100000000000E+01
  0.100000000000E+01
  0.100000000000E+01
  0.100000000000E+01
  0.100000000000E+01
  0.100000000000E+01
  0.100000000000E+01
  0.100000000000E+01
  0.100000000000E+01
  0.100000000000E+01
  0.100000000000E+01
  0.100000000000E+01
  0.100000000000E+01
  0.100000000000E+01
  0.100000000000E+01
  0.100000000000E+01
  0.100000000000E+01
  0.100000000000E+01
  0.100000000000E+01
  0.100000000000E+01
  0.100000000000E+01
  0.100000000000E+01
  0.100000000000E+01
  0.100000000000E+01
  0.100000000000E+01
  0.100000000000E+01
  0.100000000000E+01
  0.100000000000E+01
  0.100000000000E+01
  0.100000000000E+01
  0.100000000000E+01
  0.100000000000E+01
  0.100000000000E+01
  0.100000000000E+01
  0.100000000000E+01
  0.100000000000E+01
  0.100000000000E+01
  0.100000000000E+01
  0.100000000000E+01
  0.100000000000E+01
  0.100000000000E+01
  0.100000000000E+01
  0.100000000000E+01
  0.100000000000E+01
  0.100000000000E+01
  0.100000000000E+01
  0.100000000000E+01
  0.100000000000E+01
  0.100000000000E+01
  0.100000000000E+01
  0.100000000000E+01
  0.100000000000E+01
  0.100000000000E+01
  0.100000000000E+01
  0.100000000000E+01
  0.100000000000E+01
  0.100000000000E+01
  0.100000000000E+01
  0.100000000000E+01
  0.100000000000E+01
  0.100000000000E+01
  0.100000000000E+01
  0.100000000000E+01
  0.100000000000E+01
  0.100000000000E+01
  0.100000000000E+01
  0.100000000000E+01
  0.100000000000E+01
  0.100000000000E+01
  0.100000000000E+01
  0.100000000000E+01
  0.100000000000E+01
  0.100000000000E+01
  0.100000000000E+01
  0.100000000000E+01
  0.100000000000E+01
  0.100000000000E+01
  0.100000000000E+01
  0.100000000000E+01
  0.100000000000E+01
  0.100000000000E+01
  0.100000000000E+01
  0.100000000000E+01
  0.100000000000E+01
  0.100000000000E+01
  0.100000000000E+01
  0.100000000000E+01
  0.100000000000E+01
  0.100000000000E+01
  0.100000000000E+01
  0.100000000000E+01
  0.100000000000E+01
  0.100000000000E+01
  0.100000000000E+01
  0.100000000000E+01
  0.100000000000E+01
  0.100000000000E+01
  0.100000000000E+01
  0.100000000000E+01
  0.100000000000E+01
  0.100000000000E+01
  0.100000000000E+01
  0.100000000000E+01
  0.100000000000E+01
  0.100000000000E+01
  0.100000000000E+01
  0.100000000000E+01
  0.100000000000E+01
  0.100000000000E+01
  0.100000000000E+01
  0.100000000000E+01
  0.100000000000E+01
  0.100000000000E+01
  0.100000000000E+01
  0.100000000000E+01
  0.100000000000E+01
  0.100000000000E+01
  0.100000000000E+01
  0.100000000000E+01
  0.100000000000E+01
  0.100000000000E+01
  0.100000000000E+01
  0.100000000000E+01
  0.100000000000E+01
  0.100000000000E+01
  0.100000000000E+01
  0.100000000000E+01
  0.100000000000E+01
  0.100000000000E+01
  0.100000000000E+01
  0.100000000000E+01
  0.100000000000E+01
VECTORS v float
  0.149487000080E+03  0.291441775476E+01  0.156619099480E+02
  0.150517336958E+03  0.261747600061E+01  0.158037482703E+02
  0.153343837126E+03 -0.209038144225E+00  0.165590835930E+02
  0.154336031004E+03  0.409948452062E+00  0.165993193955E+02
  0.156467451635E+03 -0.172148292932E+01  0.154075587870E+02
  0.157128330430E+03 -0.625861220316E+00  0.153652164814E+02
  0.152815411751E+03  0.368706648154E+01  0.308160898893E+01
  0.154939937503E+03 -0.415271971156E+01  0.328751365394E+01
  0.131457473457E+03  0.193297675991E+02 -0.155551956988E+02
  0.137661463968E+03  0.242956207076E+01 -0.187603778115E+02
  0.738943441938E+02  0.661967086546E+02 -0.446194116880E+01
  0.714896011348E+02  0.715613965381E+02  0.416162676056E-01
  0.177136509748E+03 -0.340855120747E+02  0.122435027583E+03
  0.151435147028E+03  0.232510869983E+02  0.743020009657E+02
  0.210928337452E+03 -0.362421168675E+02  0.342893217680E+02
  0.200874250176E+03 -0.885391586740E+01  0.290950567964E+02
  0.200673629021E+03 -0.865328410917E+01 -0.432556264575E+01
  0.201605737384E+03 -0.120928897482E+02 -0.441590477822E+01
  0.189750507594E+03 -0.237620331077E+00 -0.185047930272E+02
  0.184752204682E+03 -0.852393067373E+01 -0.188250466039E+02
  0.174896005663E+03  0.133231718937E+01 -0.187170293710E+02
  0.168253798049E+03 -0.281147704292E+01 -0.184476156190E+02
  0.161135726917E+03  0.430662929646E+01 -0.167578754553E+02
  0.153346263543E+03  0.655154868411E+01 -0.156856434541E+02
  0.150146871350E+03  0.584950698862E+01  0.154187867452E+02
  0.149524438160E+03  0.623074441708E+01  0.153115442942E+02
  0.153655615773E+03  0.209954296733E+01  0.163437457569E+02
  0.153370741764E+03  0.213135743725E+01  0.163095960871E+02
  0.156272888874E+03 -0.770803483107E+00  0.152960130725E+02
  0.156477265762E+03 -0.677161959150E+00  0.153067974341E+02
  0.154942076247E+03  0.858028432236E+00  0.318401334771E+01
  0.155396815460E+03 -0.259917835522E+00  0.321651349452E+01
  0.137940293967E+03  0.171966197449E+02 -0.167504656266E+02
  0.136853922156E+03  0.192843152139E+02 -0.163101400665E+02
  0.741195567712E+02  0.820187101157E+02  0.457875370119E+01
  0.666754109857E+02  0.939276782732E+02  0.157967975620E+02
  0.195637281832E+03 -0.350341925728E+02  0.133708896440E+03
  0.182274307751E+03 -0.136564259614E+02  0.113571419648E+03
  0.218283696875E+03 -0.496658142021E+02  0.371719576703E+02
  0.210941296167E+03 -0.355558177519E+02  0.341959104453E+02
  0.200343803609E+03 -0.249582965810E+02 -0.465568531036E+01
  0.200666331069E+03 -0.257512088898E+02 -0.467873264374E+01
  0.184739979596E+03 -0.982480360974E+01 -0.189505612018E+02
  0.180274675712E+03 -0.118707225849E+02 -0.187149163790E+02
  0.168287457955E+03  0.116551493319E+00 -0.181354863001E+02
  0.164311122174E+03  0.560622355843E+00 -0.176587889906E+02
  0.153401788264E+03  0.114700192221E+02 -0.151660132945E+02
  0.151847402128E+03  0.124220728766E+02 -0.148981845129E+02
  0.150375854767E+03  0.723715062251E+01  0.152949865031E+02
  0.150164367966E+03  0.739938699439E+01  0.152550439643E+02
  0.154077853382E+03  0.348587858246E+01  0.162397680220E+02
  0.153673712691E+03  0.367376839124E+01  0.161759324824E+02
  0.156392741863E+03  0.954726555445E+00  0.151396193699E+02
  0.156289221886E+03  0.967192302011E+00  0.151283225369E+02
  0.155397719752E+03  0.185869336021E+01  0.317275209194E+01
  0.154591895711E+03  0.336940392947E+01  0.312488236006E+01
  0.136887707553E+03  0.210736126406E+02 -0.160666022109E+02
  0.133959174106E+03  0.256105280873E+02 -0.150309332965E+02
  0.664677537445E+02  0.931019824265E+02  0.154385521253E+02
  0.596231341870E+02  0.102296161618E+03  0.247354503087E+02