# vtk DataFile Version 3.0
MachLine results file. Generated by MachLine, USU AeroLab (c) 2022.
ASCII
DATASET POLYDATA
POINTS                 144 float
  0.000000000000E+00  0.000000000000E+00  0.000000000000E+00
  0.113538098335E+01  0.000000000000E+00 -0.658124566078E+00
  0.113538098335E+01  0.000000000000E+00  0.658124566078E+00
  0.192375373840E+01  0.192375373840E+01  0.000000000000E+00
  0.305913543701E+01  0.192375373840E+01 -0.658124983311E+00
  0.305913543701E+01  0.192375373840E+01  0.658124983311E+00
  0.423028087616E+01  0.000000000000E+00 -0.108747220039E+01
  0.423028087616E+01  0.000000000000E+00  0.108747220039E+01
  0.547033166885E+01  0.547033166885E+01  0.000000000000E+00
  0.615403699875E+01  0.192375373840E+01 -0.108747279644E+01
  0.615403699875E+01  0.192375373840E+01  0.108747279644E+01
  0.660571479797E+01  0.547033166885E+01 -0.658125698566E+00
  0.660571479797E+01  0.547033166885E+01  0.658125698566E+00
  0.939508819580E+01  0.000000000000E+00 -0.980745851994E+00
  0.939508819580E+01  0.000000000000E+00  0.980745851994E+00
  0.970061969757E+01  0.547033166885E+01 -0.108747410774E+01
  0.970061969757E+01  0.547033166885E+01  0.108747410774E+01
  0.113188476562E+02  0.192375373840E+01 -0.980746448040E+00
  0.113188476562E+02  0.192375373840E+01  0.980746448040E+00
  0.113820018768E+02  0.113820018768E+02  0.000000000000E+00
  0.125173873901E+02  0.113820018768E+02 -0.658127009869E+00
  0.125173873901E+02  0.113820018768E+02  0.658127009869E+00
  0.145402030945E+02  0.000000000000E+00 -0.479613035917E+00
  0.145402030945E+02  0.000000000000E+00  0.479613035917E+00
  0.148654365540E+02  0.547033166885E+01 -0.980747580528E+00
  0.148654365540E+02  0.547033166885E+01  0.980747580528E+00
  0.156122989655E+02  0.113820018768E+02 -0.108747613430E+01
  0.156122989655E+02  0.113820018768E+02  0.108747613430E+01
  0.164639663696E+02  0.192375373840E+01 -0.479613333941E+00
  0.164639663696E+02  0.192375373840E+01  0.479613333941E+00
  0.176505107880E+02  0.000000000000E+00 -0.144198849797E+00
  0.176505107880E+02  0.000000000000E+00  0.144198849797E+00
  0.190000000000E+02  0.000000000000E+00  0.000000000000E+00
  0.195742740631E+02  0.192375373840E+01 -0.144198939204E+00
  0.195742740631E+02  0.192375373840E+01  0.144198939204E+00
  0.197561950684E+02  0.197561950684E+02  0.000000000000E+00
  0.200105609894E+02  0.547033166885E+01 -0.479613870382E+00
  0.200105609894E+02  0.547033166885E+01  0.479613870382E+00
  0.207771244049E+02  0.113820018768E+02 -0.980749428272E+00
  0.207771244049E+02  0.113820018768E+02  0.980749428272E+00
  0.208915824890E+02  0.197561950684E+02 -0.658128738403E+00
  0.208915824890E+02  0.197561950684E+02  0.658128738403E+00
  0.209237651825E+02  0.192375373840E+01  0.000000000000E+00
  0.231208724976E+02  0.547033166885E+01 -0.144199103117E+00
  0.231208724976E+02  0.547033166885E+01  0.144199103117E+00
  0.239865016937E+02  0.197561950684E+02 -0.108747911453E+01
  0.239865016937E+02  0.197561950684E+02  0.108747911453E+01
  0.244703655243E+02  0.547033166885E+01  0.000000000000E+00
  0.259222583771E+02  0.113820018768E+02 -0.479614794254E+00
  0.259222583771E+02  0.113820018768E+02  0.479614794254E+00
  0.290325775146E+02  0.113820018768E+02 -0.144199386239E+00
  0.290325775146E+02  0.113820018768E+02  0.144199386239E+00
  0.291513423920E+02  0.197561950684E+02 -0.980752110481E+00
  0.291513423920E+02  0.197561950684E+02  0.980752110481E+00
  0.292438049316E+02  0.292438049316E+02  0.000000000000E+00
  0.303791980743E+02  0.292438049316E+02 -0.658130764961E+00
  0.303791980743E+02  0.292438049316E+02  0.658130764961E+00
  0.303820724487E+02  0.113820018768E+02  0.000000000000E+00
  0.334741249084E+02  0.292438049316E+02 -0.108748245239E+01
  0.334741249084E+02  0.292438049316E+02  0.108748245239E+01
  0.342964897156E+02  0.197561950684E+02 -0.479616105556E+00
  0.342964897156E+02  0.197561950684E+02  0.479616105556E+00
  0.374068183899E+02  0.197561950684E+02 -0.144199773669E+00
  0.374068183899E+02  0.197561950684E+02  0.144199773669E+00
  0.376179962158E+02  0.376179962158E+02  0.000000000000E+00
  0.386389808655E+02  0.292438049316E+02 -0.980755090714E+00
  0.386389808655E+02  0.292438049316E+02  0.980755090714E+00
  0.387533912659E+02  0.376179962158E+02 -0.658132553101E+00
  0.387533912659E+02  0.376179962158E+02  0.658132553101E+00
  0.387563171387E+02  0.197561950684E+02  0.000000000000E+00
  0.418483314514E+02  0.376179962158E+02 -0.108748543262E+01
  0.418483314514E+02  0.376179962158E+02  0.108748543262E+01
  0.435296669006E+02  0.435296669006E+02  0.000000000000E+00
  0.437841453552E+02  0.292438049316E+02 -0.479617565870E+00
  0.437841453552E+02  0.292438049316E+02  0.479617565870E+00
  0.446650657654E+02  0.435296669006E+02 -0.658133804798E+00
  0.446650657654E+02  0.435296669006E+02  0.658133804798E+00
  0.468944816589E+02  0.292438049316E+02 -0.144200220704E+00
  0.468944816589E+02  0.292438049316E+02  0.144200220704E+00
  0.470131988525E+02  0.376179962158E+02 -0.980757772923E+00
  0.470131988525E+02  0.376179962158E+02  0.980757772923E+00
  0.470762481689E+02  0.470762481689E+02  0.000000000000E+00
  0.477600097656E+02  0.435296669006E+02 -0.108748745918E+01
  0.477600097656E+02  0.435296669006E+02  0.108748745918E+01
  0.482116432190E+02  0.470762481689E+02 -0.658134579659E+00
  0.482116432190E+02  0.470762481689E+02  0.658134579659E+00
  0.482439842224E+02  0.292438049316E+02  0.000000000000E+00
  0.490000000000E+02  0.490000000000E+02  0.000000000000E+00
  0.501353988647E+02  0.490000000000E+02 -0.658134996891E+00
  0.501353988647E+02  0.490000000000E+02  0.658134996891E+00
  0.506007728577E+02  0.494653701782E+02 -0.465371757746E+00
  0.506007728577E+02  0.494653701782E+02  0.465371757746E+00
  0.507935333252E+02  0.496581344604E+02 -0.771266485397E-15
  0.513065910339E+02  0.470762481689E+02 -0.108748877048E+01
  0.513065910339E+02  0.470762481689E+02  0.108748877048E+01
  0.521583786011E+02  0.376179962158E+02 -0.479618877172E+00
  0.521583786011E+02  0.376179962158E+02  0.479618877172E+00
  0.529248886108E+02  0.435296669006E+02 -0.980759620667E+00
  0.529248886108E+02  0.435296669006E+02  0.980759620667E+00
  0.532303466797E+02  0.490000000000E+02 -0.108748936653E+01
  0.532303466797E+02  0.490000000000E+02  0.108748936653E+01
  0.539993209839E+02  0.497689704895E+02 -0.768971264362E+00
  0.539993209839E+02  0.497689704895E+02  0.768971264362E+00
  0.543178405762E+02  0.500874900818E+02 -0.157378642191E-15
  0.552687225342E+02  0.376179962158E+02 -0.144200608134E+00
  0.552687225342E+02  0.376179962158E+02  0.144200608134E+00
  0.564714775085E+02  0.470762481689E+02 -0.980760753155E+00
  0.564714775085E+02  0.470762481689E+02  0.980760753155E+00
  0.566182289124E+02  0.376179962158E+02  0.000000000000E+00
  0.580700759888E+02  0.435296669006E+02 -0.479619771242E+00
  0.580700759888E+02  0.435296669006E+02  0.479619771242E+00
  0.583952369690E+02  0.490000000000E+02 -0.980761349201E+00
  0.583952369690E+02  0.490000000000E+02  0.980761349201E+00
  0.590887413025E+02  0.496935043335E+02 -0.693503141403E+00
  0.590887413025E+02  0.496935043335E+02  0.693503141403E+00
  0.593759994507E+02  0.499807624817E+02  0.000000000000E+00
  0.611804275513E+02  0.435296669006E+02 -0.144200876355E+00
  0.611804275513E+02  0.435296669006E+02  0.144200876355E+00
  0.616166725159E+02  0.470762481689E+02 -0.479620337486E+00
  0.616166725159E+02  0.470762481689E+02  0.479620337486E+00
  0.625299339294E+02  0.435296669006E+02  0.000000000000E+00
  0.635404319763E+02  0.490000000000E+02 -0.479620635509E+00
  0.635404319763E+02  0.490000000000E+02  0.479620635509E+00
  0.638795776367E+02  0.493391418457E+02 -0.339143037796E+00
  0.638795776367E+02  0.493391418457E+02  0.339143037796E+00
  0.640200576782E+02  0.494796218872E+02  0.296956834055E-15
  0.647270278931E+02  0.470762481689E+02 -0.144201040268E+00
  0.647270278931E+02  0.470762481689E+02  0.144201040268E+00
  0.660765380859E+02  0.470762481689E+02  0.000000000000E+00
  0.666507873535E+02  0.490000000000E+02 -0.144201144576E+00
  0.666507873535E+02  0.490000000000E+02  0.144201144576E+00
  0.667527542114E+02  0.491019668579E+02 -0.101965606213E+00
  0.667527542114E+02  0.491019668579E+02  0.101965606213E+00
  0.667949905396E+02  0.491441993713E+02 -0.260488604752E-16
  0.680002975464E+02  0.490000000000E+02  0.000000000000E+00
  0.190000000000E+02  0.000000000000E+00  0.000000000000E+00
  0.209237651825E+02  0.192375373840E+01  0.000000000000E+00
  0.244703655243E+02  0.547033166885E+01  0.000000000000E+00
  0.303820724487E+02  0.113820018768E+02  0.000000000000E+00
  0.387563171387E+02  0.197561950684E+02  0.000000000000E+00
  0.482439842224E+02  0.292438049316E+02  0.000000000000E+00
  0.566182289124E+02  0.376179962158E+02  0.000000000000E+00
  0.625299339294E+02  0.435296669006E+02  0.000000000000E+00
  0.660765380859E+02  0.470762481689E+02  0.000000000000E+00
POLYGONS                 256                1024
3                  32                  33                  42
3                  32                  30                  33
3                  30                  28                  33
3                  30                  22                  28
3                  22                  17                  28
3                  22                  13                  17
3                  13                   6                  17
3                  17                   6                   9
3                   6                   1                   9
3                   9                   1                   4
3                   1                   0                   4
3                   4                   0                   3
3                   0                   5                   3
3                   0                   2                   5
3                   2                  10                   5
3                   2                   7                  10
[...]
CELL_DATA                 256
SCALARS C_p_inc float 1
LOOKUP_TABLE default
  0.149375293930E+00
  0.137622560759E+00
  0.104645528842E+00
  0.931010246420E-01
  0.694997587658E-01
  0.618455134647E-01
  0.120190521608E+00
  0.953947084100E-01
  0.326407393249E+00
  0.273267815917E+00
  0.628804596832E+00
  0.614897129512E+00
 -0.788906854518E+00
 -0.912714506329E-01
 -0.768225632069E+00
 -0.553515804098E+00
 -0.519194039312E+00
 -0.536022736392E+00
 -0.368049130409E+00
 -0.300777820398E+00
 -0.164538256989E+00
 -0.786048515307E-01
  0.114934556105E-01
  0.104070075518E+00
  0.141252265793E+00
  0.148220932691E+00
  0.101147549274E+00
  0.104474295466E+00
  0.720081718219E-01
  0.695949202801E-01
  0.960163418033E-01
  0.907219449354E-01
  0.262153633528E+00
  0.271070850929E+00
  0.539247116691E+00
  0.491228459008E+00
 -0.115963533919E+01
 -0.742965731016E+00
 -0.938205500452E+00
 -0.766336039981E+00
 -0.534954091447E+00
 -0.541343764168E+00
 -0.301684583633E+00
 -0.241675444609E+00
 -0.783044690115E-01
 -0.278992533172E-01
  0.100696321203E+00
  0.117999018605E+00
  0.138122440562E+00
  0.140470640865E+00
  0.960938793692E-01
  0.100801551661E+00
  0.707656041275E-01
  0.719952179180E-01
  0.905944161340E-01
  0.997104622150E-01
  0.268301623775E+00
  0.291395756208E+00
  0.498502579214E+00
  0.449311175368E+00
 -0.142274791578E+01
 -0.114917435226E+01
 -0.104116082879E+01
 -0.944399309071E+00
 -0.541966240305E+00
 -0.554825140382E+00
 -0.243596197282E+00
 -0.215432859291E+00
 -0.278909790632E-01
 -0.118140952739E-01
  0.118310307142E+00
  0.125978185103E+00
  0.134038876019E+00
  0.137102556197E+00
  0.908396539247E-01
  0.955887955088E-01
  0.678948960814E-01
  0.705453560000E-01
  0.994070048886E-01
  0.104549871631E+00
  0.291940378840E+00
  0.308316689754E+00
  0.463052956995E+00
  0.429084511113E+00
 -0.156306241130E+01
 -0.142210801996E+01
 -0.109277913080E+01
 -0.104979212559E+01
 -0.551494342904E+00
 -0.553050826991E+00
 -0.217466921860E+00
 -0.208465820455E+00
 -0.117985223394E-01
 -0.266943847599E-02
  0.127475552030E+00
  0.135369902134E+00
  0.121213953389E+00
  0.132315011273E+00
  0.756661434978E-01
  0.899879315942E-01
  0.557534301679E-01
  0.675053154491E-01
  0.103919255556E+00
  0.977837428167E-01
  0.307707792391E+00
  0.309436072687E+00
  0.434254682162E+00
  0.424553125647E+00
 -0.159993980095E+01
 -0.156375615905E+01
 -0.110070752883E+01
 -0.109813748900E+01
 -0.544027634996E+00
 -0.557811198134E+00
 -0.210600236347E+00
 -0.193317222049E+00
 -0.287483326454E-02
  0.176013412783E-01
  0.137376699976E+00
  0.156238275526E+00
  0.938924917747E-01
  0.117252306124E+00
  0.411937938319E-01
  0.737286836973E-01
  0.231047415324E-01
  0.549956970953E-01
  0.961541762328E-01
  0.700954486975E-01
  0.306209064275E+00
  0.291033088022E+00
  0.421267148815E+00
  0.437520277590E+00
 -0.153630537763E+01
 -0.160174035430E+01
 -0.105700039191E+01
 -0.110797477097E+01
 -0.503139208469E+00
 -0.553311153950E+00
 -0.196021741997E+00
 -0.149515571460E+00
  0.167810547223E-01
  0.678277342701E-01
  0.159223566348E+00
  0.205357022485E+00
  0.490114004700E-01
  0.836732549369E-01
 -0.793249051803E-02
  0.358938515528E-01
 -0.262179096385E-01
  0.209361615854E-01
  0.653777175658E-01
  0.149642663881E-01
  0.281922588443E+00
  0.246833872423E+00
  0.422031386142E+00
  0.461345311542E+00
 -0.139122710839E+01
 -0.154010678678E+01
 -0.963734697025E+00
 -0.107127998180E+01
 -0.418025924541E+00
 -0.523770835412E+00
 -0.153925578094E+00
 -0.648108323978E-01
  0.644385637656E-01
  0.155998209479E+00
  0.208479881163E+00
  0.296417995974E+00
 -0.590720016009E-01
  0.214742582327E-01
 -0.850976037831E-01
 -0.220101790040E-01
 -0.745960925901E-01
 -0.338504247004E-01
  0.173039666428E-02
 -0.407232924834E-01
  0.220120836729E+00
  0.161339407004E+00
  0.416034507843E+00
  0.480827121559E+00
 -0.119232308537E+01
 -0.139691082493E+01
 -0.821363146060E+00
 -0.993553259307E+00
 -0.281148223054E+00
 -0.472551592474E+00
 -0.758960596915E-01
  0.219451573658E-01
  0.140623347347E+00
  0.250558421316E+00
  0.286338785278E+00
  0.431833469427E+00
 -0.325708415959E+00
 -0.144200380210E+00
 -0.226625842333E+00
 -0.133700085272E+00
 -0.159207972858E+00
 -0.107304893827E+00
 -0.864996683020E-01
 -0.903388834624E-01
  0.760572423906E-01
  0.580938854720E-01
  0.278573978129E+00
  0.447901800532E+00
 -0.875714009912E+00
 -0.119872110027E+01
 -0.530635530569E+00
 -0.934501964751E+00
 -0.170651229266E+00
 -0.448857515057E+00
 -0.310856166586E-01
  0.737913414111E-02
  0.165725211503E+00
  0.238282032366E+00
  0.340000980917E+00
  0.546291649625E+00
 -0.128520420066E+01
 -0.128601725054E+01
 -0.623846220247E+00
 -0.632850482812E+00
 -0.343956243594E+00
 -0.333362388082E+00
 -0.292896414456E+00
 -0.238934818036E+00
 -0.277053979852E+00
 -0.174107949484E+00
 -0.890616875916E+00
 -0.510418929314E+00
 -0.802534525579E+00
 -0.314876389669E+00
 -0.669780560298E+00
 -0.273021301674E+00
 -0.680797240714E+00
 -0.437790085282E+00
 -0.129102839205E+01
 -0.801889714759E+00
 -0.267477165831E+01
 -0.272452584049E+01
 -0.123883135879E+01
 -0.130305981941E+01
 -0.659856734761E+00
 -0.695196609296E+00
 -0.579817737820E+00
 -0.578045949217E+00
 -0.632902094162E+00
 -0.516541063275E+00
 -0.765258576464E+00
 -0.710719719236E+00
 -0.755965398413E+00
 -0.564218891899E+00
 -0.848460907409E+00
 -0.665246160697E+00
 -0.128594795465E+01
 -0.121327742611E+01
 -0.268728419492E+01
 -0.248339508381E+01
SCALARS sigma float 1
LOOKUP_TABLE default
  0.780345126899E-01
  0.780344293967E-01
  0.770609527565E-01
  0.770610181399E-01
  0.873885847434E-01
  0.873885709082E-01
  0.163569996136E+00
  0.163570009467E+00
  0.314319431268E+00
  0.314319417422E+00
  0.582891599005E+00
  0.582891599554E+00
  0.298369433520E+00
  0.298369432379E+00
 -0.467009455572E-01
 -0.467009287465E-01
 -0.204175692915E+00
 -0.204175705772E+00
 -0.277072817057E+00
 -0.277072802886E+00
 -0.286636396678E+00
 -0.286636461076E+00
 -0.285738189556E+00
 -0.285738110447E+00
  0.780345415780E-01
  0.780345124590E-01
  0.770609643764E-01
  0.770609521259E-01
  0.873885775239E-01
  0.873885848875E-01
  0.163570009306E+00
  0.163569999543E+00
  0.314319418174E+00
  0.314319454439E+00
  0.582891593061E+00
  0.582891563827E+00
  0.298369377995E+00
  0.298369430197E+00
 -0.467009034510E-01
 -0.467009456690E-01
 -0.204175702218E+00
 -0.204175692714E+00
 -0.277072803342E+00
 -0.277072810562E+00
 -0.286636458730E+00
 -0.286636447018E+00
 -0.285738109601E+00
 -0.285738082301E+00
  0.780344835968E-01
  0.780345415630E-01
  0.770610220756E-01
  0.770609645192E-01
  0.873885785342E-01
  0.873885775769E-01
  0.163569999622E+00
  0.163569999342E+00
  0.314319453787E+00
  0.314319395290E+00
  0.582891561410E+00
  0.582891541662E+00
  0.298369343548E+00
  0.298369376758E+00
 -0.467009701425E-01
 -0.467009033541E-01
 -0.204175702590E+00
 -0.204175702317E+00
 -0.277072810730E+00
 -0.277072809811E+00
 -0.286636447549E+00
 -0.286636393298E+00
 -0.285738082246E+00
 -0.285738136256E+00
  0.780344984327E-01
  0.780344836697E-01
  0.770610554744E-01
  0.770610223602E-01
  0.873885649978E-01
  0.873885784958E-01
  0.163569999319E+00
  0.163570002638E+00
  0.314319396635E+00
  0.314319450665E+00
  0.582891556694E+00
  0.582891736997E+00
  0.298369647125E+00
  0.298369351243E+00
 -0.467009091752E-01
 -0.467009703424E-01
 -0.204175699308E+00
 -0.204175702561E+00
 -0.277072809689E+00
 -0.277072822526E+00
 -0.286636394357E+00
 -0.286636363341E+00
 -0.285738136523E+00
 -0.285738122805E+00
  0.780344696714E-01
  0.780344985021E-01
  0.770609950066E-01
  0.770610553614E-01
  0.873885940714E-01
  0.873885649347E-01
  0.163570002648E+00
  0.163569994527E+00
  0.314319449899E+00
  0.314319520734E+00
  0.582891709515E+00
  0.582891332428E+00
  0.298369018369E+00
  0.298369633058E+00
 -0.467008290600E-01
 -0.467009090615E-01
 -0.204175707283E+00
 -0.204175699321E+00
 -0.277072822326E+00
 -0.277072794690E+00
 -0.286636362921E+00
 -0.286636419350E+00
 -0.285738123059E+00
 -0.285738149828E+00
  0.780344841522E-01
  0.780344693893E-01
  0.770609626379E-01
  0.770609946589E-01
  0.873886160941E-01
  0.873885940128E-01
  0.163569994509E+00
  0.163569982697E+00
  0.314319519607E+00
  0.314319335101E+00
  0.582891348898E+00
  0.582891546434E+00
  0.298369350964E+00
  0.298369026800E+00
 -0.467010377732E-01
 -0.467008288926E-01
 -0.204175718836E+00
 -0.204175707261E+00
 -0.277072794504E+00
 -0.277072773505E+00
 -0.286636418056E+00
 -0.286636448048E+00
 -0.285738148795E+00
 -0.285738135078E+00
  0.780342882302E-01
  0.780344842788E-01
  0.770610252875E-01
  0.770609630158E-01
  0.873885760054E-01
  0.873886162430E-01
  0.163569982746E+00
  0.163569993824E+00
  0.314319334338E+00
  0.314319402488E+00
  0.582891513635E+00
  0.582891245580E+00
  0.298368883396E+00
  0.298369334175E+00
 -0.467009598498E-01
 -0.467010376599E-01
 -0.204175708062E+00
 -0.204175718896E+00
 -0.277072773977E+00
 -0.277072812604E+00
 -0.286636449454E+00
 -0.286636390758E+00
 -0.285738135541E+00
 -0.285738318207E+00
  0.780344661252E-01
  0.780342882276E-01
  0.770610285297E-01
  0.770610256776E-01
  0.873886101546E-01
  0.873885765262E-01
  0.163569993843E+00
  0.163569989771E+00
  0.314319412882E+00
  0.314319414854E+00
  0.582891415720E+00
  0.582892181868E+00
  0.298370338519E+00
  0.298368970487E+00
 -0.467009590971E-01
 -0.467009613940E-01
 -0.204175712051E+00
 -0.204175708086E+00
 -0.277072814255E+00
 -0.277072781285E+00
 -0.286636392209E+00
 -0.286636389482E+00
 -0.285738318197E+00
 -0.285738151414E+00
  0.780343919185E-01
  0.780344678502E-01
  0.770609681717E-01
  0.770610288836E-01
  0.873885530969E-01
  0.873886091739E-01
  0.163569989696E+00
  0.163570004932E+00
  0.314319400874E+00
  0.314319447845E+00
  0.582891993428E+00
  0.582891619383E+00
  0.298369464338E+00
  0.298370242060E+00
 -0.467008999946E-01
 -0.467009570200E-01
 -0.204175697265E+00
 -0.204175711958E+00
 -0.277072778175E+00
 -0.277072835614E+00
 -0.286636390799E+00
 -0.286636450596E+00
 -0.285738157731E+00
 -0.285738229849E+00
  0.750471412557E-01
  0.741400037196E-01
  0.741393777272E-01
  0.837339429892E-01
  0.837341224628E-01
  0.152244028026E+00
  0.152244093750E+00
  0.278269907050E+00
  0.278270003719E+00
  0.494433367765E+00
  0.253089621098E+00
 -0.413443590154E-01
 -0.413447376220E-01
 -0.190037885468E+00
 -0.190038085464E+00
 -0.265486152662E+00
 -0.265486222111E+00
 -0.275769284831E+00
 -0.275769124965E+00
 -0.274799825698E+00
 -0.291222703013E-01
 -0.301259089297E-01
 -0.301183266960E-01
 -0.195827512402E-01
 -0.195846733257E-01
  0.525456253405E-01
  0.525456712599E-01
  0.174277756904E+00
  0.174277762748E+00
  0.372764295033E+00
  0.284822297706E+00
  0.493298401624E-01
  0.493302915574E-01
 -0.907418919080E-01
 -0.907413089928E-01
 -0.172300007748E+00
 -0.172300294488E+00
 -0.184124529376E+00
 -0.184122221636E+00
 -0.182996790657E+00
SCALARS inclination float 1
LOOKUP_TABLE default
  0.100000000000E+01
  0.100000000000E+01
  0.100000000000E+01
  0.100000000000E+01
  0.100000000000E+01
  0.100000000000E+01
  0.100000000000E+01
  0.100000000000E+01
  0.100000000000E+01
  0.100000000000E+01
  0.100000000000E+01
  0.100000000000E+01
  0.100000000000E+01
  0.100000000000E+01
  0.100000000000E+01
  0.100000000000E+01
  0.100000000000E+01
  0.100000000000E+01
  0.100000000000E+01
  0.100000000000E+01
  0.100000000000E+01
  0.100000000000E+01
  0.100000000000E+01
  0.100000000000E+01
  0.100000000000E+01
  0.100000000000E+01
  0.100000000000E+01
  0.100000000000E+01
  0.100000000000E+01
  0.100000000000E+01
  0.100000000000E+01
  0.100000000000E+01
  0.100000000000E+01
  0.100000000000E+01
  0.100000000000E+01
  0.100000000000E+01
  0.100000000000E+01
  0.100000000000E+01
  0.100000000000E+01
  0.100000000000E+01
  0.100000000000E+01
  0.100000000000E+01
  0.100000000000E+01
  0.100000000000E+01
  0.100000000000E+01
  0.100000000000E+01
  0.100000000000E+01
  0.100000000000E+01
  0.100000000000E+01
  0.100000000000E+01
  0.100000000000E+01
  0.100000000000E+01
  0.100000000000E+01
  0.100000000000E+01
  0.100000000000E+01
  0.100000000000E+01
  0.100000000000E+01
  0.100000000000E+01
  0.100000000000E+01
  0.100000000000E+01
  0.100000000000E+01
  0.100000000000E+01
  0.100000000000E+01
  0.100000000000E+01
  0.100000000000E+01
  0.100000000000E+01
  0.100000000000E+01
  0.100000000000E+01
  0.100000000000E+01
  0.100000000000E+01
  0.100000000000E+01
  0.100000000000E+01
  0.100000000000E+01
  0.100000000000E+01
  0.100000000000E+01
  0.100000000000E+01
  0.100000000000E+01
  0.100000000000E+01
  0.100000000000E+01
  0.100000000000E+01
  0.100000000000E+01
  0.100000000000E+01
  0.100000000000E+01
  0.100000000000E+01
  0.100000000000E+01
  0.100000000000E+01
  0.100000000000E+01
  0.100000000000E+01
  0.100000000000E+01
  0.100000000000E+01
  0.100000000000E+01
  0.100000000000E+01
  0.100000000000E+01
  0.100000000000E+01
  0.100000000000E+01
  0.100000000000E+01
  0.100000000000E+01
  0.100000000000E+01
  0.100000000000E+01
  0.100000000000E+01
  0.100000000000E+01
  0.100000000000E+01
  0.100000000000E+01
  0.100000000000E+01
  0.100000000000E+01
  0.100000000000E+01
  0.100000000000E+01
  0.100000000000E+01
  0.100000000000E+01
  0.100000000000E+01
  0.100000000000E+01
  0.100000000000E+01
  0.100000000000E+01
  0.100000000000E+01
  0.100000000000E+01
  0.100000000000E+01
  0.100000000000E+01
  0.100000000000E+01
  0.100000000000E+01
  0.100000000000E+01
  0.100000000000E+01
  0.100000000000E+01
  0.100000000000E+01
  0.100000000000E+01
  0.100000000000E+01
  0.100000000000E+01
  0.100000000000E+01
  0.100000000000E+01
  0.100000000000E+01
  0.100000000000E+01
  0.100000000000E+01
  0.100000000000E+01
  0.100000000000E+01
  0.100000000000E+01
  0.100000000000E+01
  0.100000000000E+01
  0.100000000000E+01
  0.100000000000E+01
  0.100000000000E+01
  0.100000000000E+01
  0.100000000000E+01
  0.100000000000E+01
  0.100000000000E+01
  0.100000000000E+01
  0.100000000000E+01
  0.100000000000E+01
  0.100000000000E+01
  0.100000000000E+01
  0.100000000000E+01
  0.100000000000E+01
  0.100000000000E+01
  0.100000000000E+01
  0.100000000000E+01
  0.100000000000E+01
  0.100000000000E+01
  0.100000000000E+01
  0.100000000000E+01
  0.100000000000E+01
  0.100000000000E+01
  0.100000000000E+01
  0.100000000000E+01
  0.100000000000E+01
  0.100000000000E+01
  0.100000000000E+01
  0.100000000000E+01
  0.100000000000E+01
  0.100000000000E+01
  0.100000000000E+01
  0.100000000000E+01
  0.100000000000E+01
  0.100000000000E+01
  0.100000000000E+01
  0.100000000000E+01
  0.100000000000E+01
  0.100000000000E+01
  0.100000000000E+01
  0.100000000000E+01
  0.100000000000E+01
  0.100000000000E+01
  0.100000000000E+01
  0.100000000000E+01
  0.100000000000E+01
  0.100000000000E+01
  0.100000000000E+01
  0.100000000000E+01
  0.100000000000E+01
  0.100000000000E+01
  0.100000000000E+01
  0.100000000000E+01
  0.100000000000E+01
  0.100000000000E+01
  0.100000000000E+01
  0.100000000000E+01
  0.100000000000E+01
  0.100000000000E+01
  0.100000000000E+01
  0.100000000000E+01
  0.100000000000E+01
  0.100000000000E+01
  0.100000000000E+01
  0.100000000000E+01
  0.100000000000E+01
  0.100000000000E+01
  0.100000000000E+01
  0.100000000000E+01
  0.100000000000E+01
  0.100000000000E+01
  0.100000000000E+01
  0.100000000000E+01
  0.100000000000E+01
  0.100000000000E+01
  0.100000000000E+01
  0.100000000000E+01
  0.100000000000E+01
  0.100000000000E+01
  0.100000000000E+01
  0.100000000000E+01
  0.100000000000E+01
  0.100000000000E+01
  0.100000000000E+01
  0.100000000000E+01
  0.100000000000E+01
  0.100000000000E+01
  0.100000000000E+01
  0.100000000000E+01
  0.100000000000E+01
  0.100000000000E+01
  0.100000000000E+01
  0.100000000000E+01
  0.100000000000E+01
  0.100000000000E+01
  0.100000000000E+01
  0.100000000000E+01
  0.100000000000E+01
  0.100000000000E+01
  0.100000000000E+01
  0.100000000000E+01
  0.100000000000E+01
  0.100000000000E+01
  0.100000000000E+01
  0.100000000000E+01
  0.100000000000E+01
  0.100000000000E+01
  0.100000000000E+01
  0.100000000000E+01
  0.100000000000E+01
  0.100000000000E+01
  0.100000000000E+01
  0.100000000000E+01
  0.100000000000E+01
  0.100000000000E+01
  0.100000000000E+01
  0.100000000000E+01
  0.100000000000E+01
  0.100000000000E+01
  0.100000000000E+01
VECTORS v float
  0.149487322911E+03  0.291351881012E+01  0.156620405005E+02
  0.150518749740E+03  0.261626293233E+01  0.158040288547E+02
  0.153344137557E+03 -0.209138855321E+00  0.165591268521E+02
  0.154336295560E+03  0.409825360385E+00  0.165993611993E+02
  0.156467582004E+03 -0.172147183401E+01  0.154075704043E+02
  0.157128433195E+03 -0.625895890042E+00  0.153652298675E+02
  0.152815467682E+03  0.368707864500E+01  0.308160989335E+01
  0.154940004264E+03 -0.415274751425E+01  0.328751560805E+01
  0.131457513281E+03  0.193297667342E+02 -0.155552013435E+02
  0.137661514513E+03  0.242953200065E+01 -0.187603889950E+02
  0.738943753662E+02  0.661966979571E+02 -0.446196543874E+01
  0.714896495047E+02  0.715613474752E+02  0.415597906027E-01
  0.177136460017E+03 -0.340854630366E+02  0.122434970332E+03
  0.151435114706E+03  0.232510971981E+02  0.743019763182E+02
  0.210928284550E+03 -0.362420860874E+02  0.342893101590E+02
  0.200874208383E+03 -0.885391535008E+01  0.290950509268E+02
  0.200673558632E+03 -0.865325499521E+01 -0.432556058959E+01
  0.201605678435E+03 -0.120929028504E+02 -0.441590383084E+01
  0.189750399355E+03 -0.237584142674E+00 -0.185047789599E+02
  0.184752067351E+03 -0.852394271422E+01 -0.188250344006E+02
  0.174895728891E+03  0.133244459015E+01 -0.187169857851E+02
  0.168253486232E+03 -0.281137150539E+01 -0.184475706116E+02
  0.161134278998E+03  0.430787094223E+01 -0.167575880627E+02
  0.153345988122E+03  0.655245241623E+01 -0.156855174559E+02
  0.150146978698E+03  0.584918183452E+01  0.154188329602E+02
  0.149524765944E+03  0.623028424719E+01  0.153116284908E+02
  0.153655733414E+03  0.209929294155E+01  0.163437854061E+02
  0.153371040246E+03  0.213108721544E+01  0.163096574160E+02
  0.156273004669E+03 -0.770891016810E+00  0.152960328767E+02
  0.156477395264E+03 -0.677243212438E+00  0.153068179616E+02
  0.154942143013E+03  0.858009915302E+00  0.318401511001E+01
  0.155396895352E+03 -0.259968621934E+00  0.321651619489E+01
  0.137940344672E+03  0.171965981452E+02 -0.167504756572E+02
  0.136853990235E+03  0.192842602269E+02 -0.163101571391E+02
  0.741196079112E+02  0.820186720674E+02  0.457870200312E+01
  0.666754851961E+02  0.939276033176E+02  0.157967110979E+02
  0.195637205966E+03 -0.350341174522E+02  0.133708808921E+03
  0.182274255200E+03 -0.136563881386E+02  0.113571367262E+03
  0.218283625841E+03 -0.496657578965E+02  0.371719400047E+02
  0.210941243095E+03 -0.355557959650E+02  0.341959000603E+02
  0.200343719504E+03 -0.249582437605E+02 -0.465568248088E+01
  0.200666260675E+03 -0.257511897791E+02 -0.467873079420E+01
  0.184739843178E+03 -0.982471847445E+01 -0.189505396225E+02
  0.180274556497E+03 -0.118706295677E+02 -0.187148957075E+02
  0.168287148185E+03  0.116835066479E+00 -0.181354223140E+02
  0.164311013781E+03  0.560883439524E+00 -0.176587491462E+02
  0.153401507533E+03  0.114704526438E+02 -0.151659369840E+02
  0.151847337695E+03  0.124223738173E+02 -0.148981454709E+02
  0.150375906983E+03  0.723700281980E+01  0.152950078761E+02
  0.150164476826E+03  0.739919573912E+01  0.152550760330E+02
  0.154077904283E+03  0.348574528646E+01  0.162397878858E+02
  0.153673831312E+03  0.367360361143E+01  0.161759630443E+02
  0.156392802888E+03  0.954619372659E+00  0.151396357533E+02
  0.156289337434E+03  0.967078553512E+00  0.151283448704E+02
  0.155397799632E+03  0.185861527997E+01  0.317275535609E+01
  0.154591963956E+03  0.336934766080E+01  0.312488493307E+01
  0.136887775612E+03  0.210735565594E+02 -0.160666194324E+02
  0.133959251413E+03  0.256104576780E+02 -0.150309537888E+02
  0.664678294907E+02  0.931019135779E+02  0.154384683108E+02
  0.596232311776E+02  0.102296064233E+03  0.247353376384E+02