# vtk DataFile Version 3.0
MachLine results file. Generated by MachLine, USU AeroLab (c) 2022.
ASCII
DATASET POLYDATA
POINTS                7064 float
  0.000000000000E+00  0.000000000000E+00  0.000000000000E+00
  0.389988087118E-01  0.000000000000E+00 -0.109218262136E+00
  0.389988087118E-01  0.000000000000E+00  0.109218262136E+00
  0.147665724158E+00  0.000000000000E+00 -0.234920635819E+00
  0.147665724158E+00  0.000000000000E+00  0.234920635819E+00
  0.161138445139E+00  0.161138445139E+00  0.000000000000E+00
  0.200137257576E+00  0.161138445139E+00 -0.109218269587E+00
  0.200137257576E+00  0.161138445139E+00  0.109218269587E+00
  0.290265858173E+00  0.000000000000E+00 -0.347333192825E+00
  0.290265858173E+00  0.000000000000E+00  0.347333192825E+00
  0.308804154396E+00  0.161138445139E+00 -0.234920650721E+00
  0.308804154396E+00  0.161138445139E+00  0.234920650721E+00
  0.335006117821E+00  0.335006117821E+00  0.000000000000E+00
  0.374004930258E+00  0.335006117821E+00 -0.109218277037E+00
  0.374004930258E+00  0.335006117821E+00  0.109218277037E+00
  0.451404303312E+00  0.161138445139E+00 -0.347333222628E+00
  0.451404303312E+00  0.161138445139E+00  0.347333222628E+00
  0.473465979099E+00  0.000000000000E+00 -0.436293870211E+00
  0.473465979099E+00  0.000000000000E+00  0.436293870211E+00
  0.482671856880E+00  0.335006117821E+00 -0.234920650721E+00
  0.482671856880E+00  0.335006117821E+00  0.234920650721E+00
  0.522506594658E+00  0.522506594658E+00  0.000000000000E+00
  0.561505436897E+00  0.522506594658E+00 -0.109218284488E+00
  0.561505436897E+00  0.522506594658E+00  0.109218284488E+00
  0.625271975994E+00  0.335006117821E+00 -0.347333222628E+00
  0.625271975994E+00  0.335006117821E+00  0.347333222628E+00
  0.634604454041E+00  0.161138445139E+00 -0.436293900013E+00
  0.634604454041E+00  0.161138445139E+00  0.436293900013E+00
  0.670172333717E+00  0.522506594658E+00 -0.234920665622E+00
  0.670172333717E+00  0.522506594658E+00  0.234920665622E+00
  0.689334988594E+00  0.000000000000E+00 -0.522850036621E+00
  0.689334988594E+00  0.000000000000E+00  0.522850036621E+00
  0.724590361118E+00  0.724590361118E+00  0.000000000000E+00
  0.763589203358E+00  0.724590361118E+00 -0.109218291938E+00
  0.763589203358E+00  0.724590361118E+00  0.109218291938E+00
  0.808472156525E+00  0.335006117821E+00 -0.436293929815E+00
  0.808472156525E+00  0.335006117821E+00  0.436293929815E+00
  0.812772512436E+00  0.522506594658E+00 -0.347333252430E+00
  0.812772512436E+00  0.522506594658E+00  0.347333252430E+00
  0.850473463535E+00  0.161138445139E+00 -0.522850036621E+00
  0.850473463535E+00  0.161138445139E+00  0.522850036621E+00
  0.872256100178E+00  0.724590361118E+00 -0.234920680523E+00
  0.872256100178E+00  0.724590361118E+00  0.234920680523E+00
  0.942254066467E+00  0.942254066467E+00  0.000000000000E+00
  0.944064557552E+00  0.000000000000E+00 -0.604293465614E+00
  0.944064557552E+00  0.000000000000E+00  0.604293465614E+00
  0.981252849102E+00  0.942254066467E+00 -0.109218299389E+00
  0.981252849102E+00  0.942254066467E+00  0.109218299389E+00
  0.995972692966E+00  0.522506594658E+00 -0.436293959618E+00
  0.995972692966E+00  0.522506594658E+00  0.436293959618E+00
  0.101485633850E+01  0.724590361118E+00 -0.347333282232E+00
  0.101485633850E+01  0.724590361118E+00  0.347333282232E+00
  0.102434122562E+01  0.335006117821E+00 -0.522850096226E+00
  0.102434122562E+01  0.335006117821E+00  0.522850096226E+00
  0.108991980553E+01  0.942254066467E+00 -0.234920710325E+00
  0.108991980553E+01  0.942254066467E+00  0.234920710325E+00
  0.110520303249E+01  0.161138445139E+00 -0.604293525219E+00
  0.110520303249E+01  0.161138445139E+00  0.604293525219E+00
  0.117653930187E+01  0.117653930187E+01  0.000000000000E+00
  0.119805645943E+01  0.724590361118E+00 -0.436293989420E+00
  0.119805645943E+01  0.724590361118E+00  0.436293989420E+00
  0.121184170246E+01  0.522506594658E+00 -0.522850096226E+00
  0.121184170246E+01  0.522506594658E+00  0.522850096226E+00
  0.121553814411E+01  0.117653930187E+01 -0.109218306839E+00
  0.121553814411E+01  0.117653930187E+01  0.109218306839E+00
  0.123251998425E+01  0.942254066467E+00 -0.347333312035E+00
  0.123251998425E+01  0.942254066467E+00  0.347333312035E+00
  0.123833239079E+01  0.000000000000E+00 -0.683996438980E+00
  0.123833239079E+01  0.000000000000E+00  0.683996438980E+00
  0.127907073498E+01  0.335006117821E+00 -0.604293525219E+00
  0.127907073498E+01  0.335006117821E+00  0.604293525219E+00
  0.132420504093E+01  0.117653930187E+01 -0.234920725226E+00
  0.132420504093E+01  0.117653930187E+01  0.234920725226E+00
  0.139947092533E+01  0.161138445139E+00 -0.683996498585E+00
  0.139947092533E+01  0.161138445139E+00  0.683996498585E+00
  0.141392552853E+01  0.724590361118E+00 -0.522850155830E+00
  0.141392552853E+01  0.724590361118E+00  0.522850155830E+00
  0.141572022438E+01  0.942254066467E+00 -0.436294019222E+00
  0.141572022438E+01  0.942254066467E+00  0.436294019222E+00
  0.142853081226E+01  0.142853081226E+01  0.000000000000E+00
  0.146657133102E+01  0.522506594658E+00 -0.604293584824E+00
  0.146657133102E+01  0.522506594658E+00  0.604293584824E+00
  0.146680521965E+01  0.117653930187E+01 -0.347333341837E+00
  0.146680521965E+01  0.117653930187E+01  0.347333341837E+00
  0.146752965450E+01  0.142853081226E+01 -0.109218314290E+00
  0.146752965450E+01  0.142853081226E+01  0.109218314290E+00
  0.157333862782E+01  0.335006117821E+00 -0.683996558189E+00
  0.157333862782E+01  0.335006117821E+00  0.683996558189E+00
  0.157619655132E+01  0.142853081226E+01 -0.234920740128E+00
  0.157619655132E+01  0.142853081226E+01  0.234920740128E+00
  0.157641971111E+01  0.000000000000E+00 -0.760520398617E+00
  0.157641971111E+01  0.000000000000E+00  0.760520398617E+00
  0.163158929348E+01  0.942254066467E+00 -0.522850155830E+00
  0.163158929348E+01  0.942254066467E+00  0.522850155830E+00
  0.165000545979E+01  0.117653930187E+01 -0.436294049025E+00
  0.165000545979E+01  0.117653930187E+01  0.436294049025E+00
  0.166865515709E+01  0.724590361118E+00 -0.604293584824E+00
  0.166865515709E+01  0.724590361118E+00  0.604293584824E+00
  0.169935321808E+01  0.169935321808E+01  0.000000000000E+00
  0.171879673004E+01  0.142853081226E+01 -0.347333371639E+00
  0.171879673004E+01  0.142853081226E+01  0.347333371639E+00
  0.173755824566E+01  0.161138445139E+00 -0.760520458221E+00
  0.173755824566E+01  0.161138445139E+00  0.760520458221E+00
  0.173835194111E+01  0.169935321808E+01 -0.109218329191E+00
  0.173835194111E+01  0.169935321808E+01  0.109218329191E+00
  0.176083922386E+01  0.522506594658E+00 -0.683996558189E+00
  0.176083922386E+01  0.522506594658E+00  0.683996558189E+00
  0.184701895714E+01  0.169935321808E+01 -0.234920755029E+00
  0.184701895714E+01  0.169935321808E+01  0.234920755029E+00
  0.186587452888E+01  0.117653930187E+01 -0.522850215435E+00
  0.186587452888E+01  0.117653930187E+01  0.522850215435E+00
  0.188631892204E+01  0.942254066467E+00 -0.604293644428E+00
  0.188631892204E+01  0.942254066467E+00  0.604293644428E+00
  0.190199697018E+01  0.142853081226E+01 -0.436294078827E+00
  0.190199697018E+01  0.142853081226E+01  0.436294078827E+00
  0.191142594814E+01  0.335006117821E+00 -0.760520458221E+00
  0.191142594814E+01  0.335006117821E+00  0.760520458221E+00
  0.196138751507E+01  0.000000000000E+00 -0.833668828011E+00
  0.196138751507E+01  0.000000000000E+00  0.833668828011E+00
  0.196292304993E+01  0.724590361118E+00 -0.683996617794E+00
  0.196292304993E+01  0.724590361118E+00  0.683996617794E+00
  0.198961913586E+01  0.169935321808E+01 -0.347333401442E+00
  0.198961913586E+01  0.169935321808E+01  0.347333401442E+00
  0.199016737938E+01  0.199016737938E+01  0.000000000000E+00
  0.202916622162E+01  0.199016737938E+01 -0.109218336642E+00
  0.202916622162E+01  0.199016737938E+01  0.109218336642E+00
  0.209892654419E+01  0.522506594658E+00 -0.760520517826E+00
  0.209892654419E+01  0.522506594658E+00  0.760520517826E+00
  0.211786603928E+01  0.142853081226E+01 -0.522850275040E+00
  0.211786603928E+01  0.142853081226E+01  0.522850275040E+00
  0.212060427666E+01  0.117653930187E+01 -0.604293704033E+00
  0.212060427666E+01  0.117653930187E+01  0.604293704033E+00
  0.212252616882E+01  0.161138445139E+00 -0.833668828011E+00
  0.212252616882E+01  0.161138445139E+00  0.833668828011E+00
  0.213783311844E+01  0.199016737938E+01 -0.234920784831E+00
  0.213783311844E+01  0.199016737938E+01  0.234920784831E+00
  0.217281937599E+01  0.169935321808E+01 -0.436294138432E+00
  0.217281937599E+01  0.169935321808E+01  0.436294138432E+00
  0.218058681488E+01  0.942254066467E+00 -0.683996677399E+00
  0.218058681488E+01  0.942254066467E+00  0.683996677399E+00
  0.228043341637E+01  0.199016737938E+01 -0.347333431244E+00
  0.228043341637E+01  0.199016737938E+01  0.347333431244E+00
  0.229639387131E+01  0.335006117821E+00 -0.833668887615E+00
  0.229639387131E+01  0.335006117821E+00  0.833668887615E+00
  0.230101037025E+01  0.724590361118E+00 -0.760520577431E+00
  0.230101037025E+01  0.724590361118E+00  0.760520577431E+00
  0.230216526985E+01  0.230216526985E+01  0.000000000000E+00
  0.234116411209E+01  0.230216526985E+01 -0.109218344092E+00
  0.234116411209E+01  0.230216526985E+01  0.109218344092E+00
  0.237259578705E+01  0.142853081226E+01 -0.604293763638E+00
  0.237259578705E+01  0.142853081226E+01  0.604293763638E+00
  0.238868856430E+01  0.169935321808E+01 -0.522850275040E+00
  0.238868856430E+01  0.169935321808E+01  0.522850275040E+00
  0.239635515213E+01  0.000000000000E+00 -0.902061045170E+00
  0.239635515213E+01  0.000000000000E+00  0.902061045170E+00
  0.241487216949E+01  0.117653930187E+01 -0.683996737003E+00
  0.241487216949E+01  0.117653930187E+01  0.683996737003E+00
  0.244983124733E+01  0.230216526985E+01 -0.234920799732E+00
  0.244983124733E+01  0.230216526985E+01  0.234920799732E+00
  0.246363353729E+01  0.199016737938E+01 -0.436294168234E+00
  0.246363353729E+01  0.199016737938E+01  0.436294168234E+00
[...]
CELL_DATA               13888
SCALARS C_p_inc float 1
LOOKUP_TABLE default
  0.296010280393E+00
  0.235866335075E+00
  0.213295557681E+00
  0.185107518398E+00
  0.180568912063E+00
  0.165283760633E+00
  0.161649563209E+00
  0.152673409879E+00
  0.149363591376E+00
  0.143578353249E+00
  0.140477851576E+00
  0.136506860028E+00
  0.133607049298E+00
  0.130760293784E+00
  0.128042172571E+00
  0.125916835192E+00
  0.123277408776E+00
  0.121586929497E+00
  0.118817439211E+00
  0.117347985738E+00
  0.114519554718E+00
  0.113261284050E+00
  0.110720594193E+00
  0.109730247609E+00
  0.107365953724E+00
  0.106494723723E+00
  0.103406256754E+00
  0.102341610264E+00
  0.996377633554E-01
  0.988687183761E-01
  0.962144599584E-01
  0.953812605053E-01
  0.916300687907E-01
  0.905119568336E-01
  0.894857900063E-01
  0.893532683817E-01
  0.886410046145E-01
  0.881895400300E-01
  0.904517805596E-01
  0.910804786353E-01
  0.949265941457E-01
  0.943894944290E-01
  0.102999357859E+00
  0.101285683095E+00
  0.116448398227E+00
  0.113637416379E+00
  0.131344035763E+00
  0.128005425995E+00
  0.160715439630E+00
  0.153218086322E+00
  0.197683687359E+00
  0.188968904140E+00
  0.236992894669E+00
  0.227164589074E+00
  0.277849874321E+00
  0.267020959789E+00
  0.319195852310E+00
  0.307548027645E+00
  0.359915403207E+00
  0.347433699425E+00
  0.402619897439E+00
  0.388194893969E+00
  0.450261297924E+00
  0.433379322341E+00
  0.502119970327E+00
  0.483346539037E+00
  0.559581303966E+00
  0.539070328249E+00
  0.620587554229E+00
  0.599851662559E+00
  0.691309576335E+00
  0.671879426287E+00
  0.764567123109E+00
  0.752243448544E+00
  0.838069590738E+00
  0.844116213271E+00
  0.854649093459E+00
  0.855993719726E+00
  0.717515203990E+00
  0.592201934368E+00
  0.116894685399E+00
  0.333791673886E+00
 -0.215898253308E+00
  0.279717864392E-01
 -0.492150403641E+00
 -0.232976631129E+00
 -0.592947140909E+00
 -0.423114957081E+00
 -0.571226385098E+00
 -0.461562889268E+00
 -0.581047816963E+00
 -0.513869375740E+00
 -0.583065173792E+00
 -0.535949860033E+00
 -0.592347156744E+00
 -0.560687434517E+00
 -0.598588905036E+00
 -0.576530436628E+00
 -0.601874832257E+00
 -0.588025292149E+00
 -0.601791744348E+00
 -0.592671958521E+00
 -0.605458592370E+00
 -0.597506189168E+00
 -0.613695548035E+00
 -0.606976418862E+00
 -0.622019464811E+00
 -0.616932070600E+00
 -0.628038494491E+00
 -0.624714497668E+00
 -0.630410582620E+00
 -0.628933985670E+00
 -0.614775615632E+00
 -0.620510834750E+00
 -0.583179777334E+00
 -0.588656841627E+00
 -0.552393338439E+00
 -0.558885963131E+00
 -0.516241709326E+00
 -0.523899563024E+00
 -0.485665602430E+00
 -0.479027337143E+00
 -0.449685568653E+00
 -0.441808831786E+00
 -0.410627967634E+00
 -0.403641460568E+00
 -0.374709726758E+00
 -0.366529195579E+00
 -0.336092433437E+00
 -0.328557843441E+00
 -0.302161293224E+00
 -0.294821454433E+00
 -0.270502466118E+00
 -0.262759499176E+00
 -0.239899354954E+00
 -0.232356359947E+00
 -0.212338627310E+00
 -0.204468140204E+00
 -0.185920470727E+00
 -0.177444689650E+00
 -0.160154422768E+00
 -0.151065674480E+00
 -0.135429366057E+00
 -0.125614705645E+00
 -0.111668338583E+00
 -0.100742988463E+00
 -0.881993295218E-01
 -0.756842313156E-01
 -0.644328468908E-01
 -0.497035145495E-01
 -0.397749309368E-01
 -0.218748866995E-01
 -0.133481886451E-01
  0.938215199249E-02
  0.165525393693E-01
  0.470696066546E-01
  0.541895046814E-01
  0.933895965838E-01
  0.132507916370E+00
  0.142518869378E+00
  0.265500012086E+00
  0.291593364978E+00
  0.214273434150E+00
  0.212753080179E+00
  0.189545081036E+00
  0.180454816992E+00
  0.170202935644E+00
  0.161614017960E+00
  0.155654018927E+00
  0.149348061639E+00
  0.144941243404E+00
  0.140469568575E+00
  0.136827114655E+00
  0.133602034746E+00
  0.130435104240E+00
  0.128038814527E+00
  0.125132434111E+00
  0.123275033073E+00
  0.120336584495E+00
  0.118815997788E+00
  0.115793087098E+00
  0.114519051913E+00
  0.111767856816E+00
  0.110720566767E+00
  0.108272898334E+00
  0.107366137758E+00
  0.104305851841E+00
  0.103407347393E+00
  0.100391588394E+00
  0.996385463452E-01
  0.969209134523E-01
  0.962153085218E-01
  0.923207879389E-01
  0.916304371387E-01
  0.896517809242E-01
  0.894780813119E-01
  0.886330235459E-01
  0.886282542378E-01
  0.897822214746E-01
  0.904242266072E-01
  0.943767720644E-01
  0.933229817199E-01
  0.101283693538E+00
  0.992818642401E-01
  0.113656583830E+00
  0.110586555148E+00
  0.128041403605E+00
  0.123835241156E+00
  0.153363747684E+00
  0.146599689258E+00
  0.189103830580E+00
  0.181024821959E+00
  0.227223073268E+00
  0.218345005545E+00
  0.266909813958E+00
  0.257494485275E+00
  0.307148030010E+00
  0.297416096025E+00
  0.346626445751E+00
  0.336644453306E+00
  0.386721933591E+00
  0.376322362346E+00
  0.430599068876E+00
  0.419928082054E+00
  0.478240768007E+00
  0.467905816809E+00
  0.529789390070E+00
  0.520669337887E+00
  0.583679832557E+00
  0.576798002975E+00
  0.642246546463E+00
  0.638847238339E+00
  0.700148811076E+00
  0.699994207020E+00
  0.746377304309E+00
  0.742259489061E+00
  0.712248436105E+00
  0.681197217077E+00
  0.460074587585E+00
  0.355508992467E+00
 -0.110484391857E+00
  0.943129863433E-02
 -0.382649252139E+00
 -0.236793779497E+00
 -0.636032358311E+00
 -0.481979721592E+00
 -0.716530567718E+00
 -0.579953100713E+00
 -0.664885908964E+00
 -0.566899847869E+00
 -0.653714701796E+00
 -0.580851051156E+00
 -0.637630825926E+00
 -0.584352896434E+00
 -0.633572622984E+00
 -0.594377695157E+00
 -0.629183826297E+00
 -0.600748966995E+00
 -0.624163511105E+00
 -0.603962692514E+00
 -0.618198487758E+00
 -0.603523020639E+00
 -0.618303203814E+00
 -0.606806442843E+00
 -0.623939588059E+00
 -0.614855516867E+00
 -0.629863710891E+00
 -0.623098163085E+00
 -0.633470506514E+00
 -0.629091496783E+00
 -0.632899295382E+00
 -0.631536951708E+00
 -0.612527557322E+00
 -0.615944966495E+00
 -0.579205786292E+00
 -0.584028418118E+00
 -0.547027653790E+00
 -0.553086747879E+00
 -0.509759652611E+00
 -0.516773142225E+00
 -0.479010847357E+00
 -0.472637343533E+00
 -0.441740251692E+00
 -0.434681989242E+00
 -0.403585330032E+00
 -0.396528053856E+00
 -0.366453748758E+00
 -0.358814585335E+00
 -0.328503707093E+00
 -0.320960044113E+00
 -0.294779387735E+00
 -0.287205921149E+00
 -0.262724151193E+00
 -0.254901385156E+00
 -0.232333451412E+00
 -0.224371591950E+00
 -0.204451078913E+00
 -0.196084315948E+00
 -0.177433516114E+00
 -0.168460964203E+00
 -0.151061667856E+00
 -0.141364852829E+00
 -0.125617126760E+00
 -0.114975139530E+00
 -0.100751163061E+00
 -0.887926722806E-01
 -0.756995685217E-01
 -0.619427898438E-01
 -0.497296660350E-01
 -0.335541691112E-01
 -0.219201391669E-01
 -0.259289411170E-02
  0.929428669085E-02
  0.319918598058E-01
  0.468506339070E-01
  0.698344917325E-01
  0.927187953427E-01
  0.109035735898E+00
  0.141287830347E+00
  0.175351884213E+00
  0.257078778008E+00
  0.265092205318E+00
  0.206642718159E+00
  0.213588090670E+00
  0.188194058310E+00
  0.189219104093E+00
  0.173423888194E+00
  0.170076522913E+00
  0.160331024571E+00
  0.155602400582E+00
  0.149174870836E+00
  0.144916505020E+00
  0.140177014137E+00
  0.136813360302E+00
  0.133006443816E+00
  0.130426511989E+00
  0.127126292928E+00
  0.125126654210E+00
  0.121934778984E+00
  0.120332865770E+00
  0.117115021887E+00
  0.115791219968E+00
  0.112864882705E+00
  0.111767223417E+00
  0.109201226625E+00
  0.108272879609E+00
  0.105155896818E+00
  0.104306947616E+00
  0.101133808247E+00
  0.100393349433E+00
  0.975592055663E-01
  0.969226970107E-01
  0.928715786267E-01
  0.923218874467E-01
  0.898295666353E-01
  0.896443481019E-01
  0.884857183731E-01
  0.886168074424E-01
  0.891048979665E-01
  0.897451117374E-01
  0.933354945349E-01
  0.921203846685E-01
  0.993315783092E-01
  0.972935245874E-01
  0.110689580880E+00
  0.107615160292E+00
  0.124018622411E+00
  0.119775817759E+00
  0.146906243768E+00
  0.140830728537E+00
  0.181263668405E+00
  0.173882275891E+00
  0.218387058090E+00
  0.210378890905E+00
  0.257196006373E+00
  0.248908210472E+00
  0.296618375811E+00
  0.288314774125E+00
  0.335194934184E+00
  0.327041396758E+00
  0.373919544759E+00
  0.366034862509E+00
  0.415934792673E+00
  0.408575677108E+00
  0.461447031875E+00
  0.455083582200E+00
  0.510468995228E+00
  0.505721712350E+00
  0.561352006745E+00
  0.558676700763E+00
  0.615565168567E+00
  0.615014817785E+00
  0.666760640283E+00
  0.666408762020E+00
  0.698452720503E+00
  0.689155339204E+00
  0.634412162708E+00
  0.597733763793E+00
  0.322162426911E+00
  0.227207975993E+00
 -0.266814230574E+00
 -0.165033476910E+00
 -0.516504775469E+00
 -0.396734694171E+00
 -0.757024099516E+00
 -0.629444392723E+00
 -0.819153000717E+00
 -0.701642854986E+00
 -0.745341832938E+00
 -0.655960595401E+00
 -0.718552772291E+00
 -0.648186108177E+00
 -0.688821689207E+00
 -0.634881810710E+00
 -0.674024082880E+00
 -0.632529154318E+00
 -0.660614564290E+00
 -0.629233454188E+00
 -0.648354313928E+00
 -0.624830437465E+00
 -0.636921985725E+00
 -0.619073331623E+00
 -0.633118740799E+00
 -0.619191749106E+00
 -0.635718455383E+00
 -0.624868562940E+00
 -0.638906572439E+00
 -0.630891320149E+00
 -0.639771357573E+00
 -0.634656769858E+00
 -0.635799370596E+00
 -0.634391059098E+00
 -0.611711676873E+00
 -0.614199148835E+00
 -0.576202062001E+00
 -0.580613560230E+00
 -0.542382337858E+00
 -0.548258397717E+00
 -0.503955004255E+00
 -0.510764042516E+00
 -0.472578028649E+00
 -0.466390664266E+00
 -0.434566647838E+00
 -0.427792898959E+00
 -0.396410130394E+00
 -0.389315443521E+00
 -0.358693853639E+00
 -0.351163210443E+00
 -0.320866550240E+00
 -0.313247176464E+00
 -0.287129985472E+00
 -0.279337130770E+00
 -0.254842853450E+00
 -0.246794531619E+00
 -0.224329842385E+00
 -0.215988411766E+00
 -0.196053297140E+00
 -0.187214722403E+00
 -0.168441758478E+00
 -0.158941632488E+00
 -0.141358485503E+00
 -0.131033285063E+00
 -0.114980778926E+00
 -0.103573580701E+00
 -0.888113502959E-01
 -0.759854440706E-01
 -0.619800004234E-01
 -0.473898674907E-01
 -0.336229192238E-01
 -0.170886151104E-01
 -0.272473499871E-02
  0.152050050669E-01
  0.317178124020E-01
  0.489742970808E-01
  0.692716794619E-01
  0.836946247113E-01
  0.108088130841E+00
  0.120393886274E+00
  0.172602116936E+00
  0.178993971518E+00
  0.240853307139E+00
  0.256444785696E+00
  0.199399388574E+00
  0.206279093840E+00
  0.184100245945E+00
  0.187893871355E+00
  0.172282864870E+00
  0.173232320167E+00
  0.161801350212E+00
  0.160229252925E+00
  0.151965914866E+00
  0.149123381038E+00
  0.143093494559E+00
  0.140149355997E+00
  0.135531081071E+00
  0.132990111554E+00
  0.129180255615E+00
  0.127115876027E+00
  0.123595522397E+00
  0.121928170273E+00
  0.118480924290E+00
  0.117111383876E+00
  0.114000020261E+00
  0.112863273078E+00
  0.110152036936E+00
  0.109200762418E+00
  0.105985679606E+00
  0.105156898570E+00
  0.101857699789E+00
  0.101136002956E+00
  0.981547961704E-01
  0.975614420926E-01
  0.933400500931E-01
  0.928729167057E-01
  0.900060893627E-01
  0.898234914519E-01
  0.882811506788E-01
  0.884680994754E-01
  0.884351017808E-01
  0.890670126222E-01
  0.921499475437E-01
  0.908814219452E-01
  0.973679743195E-01
  0.953569792804E-01
  0.107751673674E+00
  0.104767987060E+00
  0.120003657104E+00
  0.115907950592E+00
  0.141143210696E+00
  0.135658015562E+00
  0.174086620072E+00
  0.167424555905E+00
  0.210314539403E+00
  0.203126926925E+00
  0.248414562457E+00
  0.241117467908E+00
  0.287227177809E+00
  0.280119891663E+00
  0.325208814581E+00
  0.318506894826E+00
  0.363196815620E+00
  0.357110177818E+00
  0.404225766366E+00
  0.399030271265E+00
  0.448579409193E+00
  0.444600104844E+00
  0.496245923974E+00
  0.493809184529E+00
  0.545446910074E+00
  0.544612186206E+00
  0.596912064970E+00
  0.597067815398E+00
  0.643160332568E+00
  0.641718916991E+00
  0.662850714644E+00
  0.650666324925E+00
  0.574376298029E+00
  0.535723541947E+00
  0.213555237577E+00
  0.124387933085E+00
 -0.398265819104E+00
 -0.305051142619E+00
 -0.632372567332E+00
 -0.526049646259E+00
 -0.863856168676E+00
 -0.750782959682E+00
 -0.910990361035E+00
 -0.805370155180E+00
 -0.818615165219E+00
 -0.735762881798E+00
 -0.778902049757E+00
 -0.711600051363E+00
 -0.737773449498E+00
 -0.684495388144E+00
 -0.713790291975E+00
 -0.671519187050E+00
 -0.692530238844E+00
 -0.659454057646E+00
 -0.673790532249E+00
 -0.648076462355E+00
 -0.657156096738E+00
 -0.637148815197E+00
 -0.649346150949E+00
 -0.633632465397E+00
 -0.648691924657E+00
 -0.636470902171E+00
 -0.648902570215E+00
 -0.639919103491E+00
 -0.646726795203E+00
 -0.641105494883E+00
 -0.639212754850E+00
 -0.637586170097E+00
 -0.611832162335E+00
 -0.613686001022E+00
 -0.573905359108E+00
 -0.577989515868E+00
 -0.538283386615E+00
 -0.543997001803E+00
 -0.498609370679E+00
 -0.505312769362E+00
 -0.466335654137E+00
 -0.460303318578E+00
 -0.427665426990E+00
 -0.421041559037E+00
 -0.389164178629E+00
 -0.382051013719E+00
 -0.351011668550E+00
 -0.343501115020E+00
 -0.313122445991E+00
 -0.305392782528E+00
 -0.279232323179E+00
 -0.271231035074E+00
 -0.246712624143E+00
 -0.238398537340E+00
 -0.215927197588E+00
 -0.207205154894E+00
 -0.187168940338E+00
 -0.177873944469E+00
 -0.158913100009E+00
 -0.148894963391E+00
 -0.131023576659E+00
 -0.120107980586E+00
 -0.103583360312E+00
 -0.915562561166E-01
 -0.760193402767E-01
 -0.627099232057E-01
 -0.474610831785E-01
 -0.329322818137E-01
 -0.172258566230E-01
 -0.211884912052E-02
  0.149461810179E-01
  0.292304695612E-01
  0.485134578531E-01
  0.606288909068E-01
  0.829468816293E-01
  0.926913456424E-01
  0.119234719804E+00
  0.128092457627E+00
  0.177283757793E+00
  0.192922786574E+00
  0.237244382330E+00
  0.241152851505E+00
  0.195075101282E+00
  0.199228406186E+00
  0.180448059051E+00
  0.183898530340E+00
  0.169863392777E+00
  0.172110426995E+00
  0.161030267466E+00
  0.161676905488E+00
  0.152813752896E+00
  0.151888042811E+00
  0.144932293073E+00
  0.143047953714E+00
  0.137628318549E+00
  0.135504065588E+00
  0.131118993269E+00
  0.129163454599E+00
  0.125250882668E+00
  0.123585006825E+00
  0.119865914427E+00
  0.118474879919E+00
  0.115158200817E+00
  0.113996981425E+00
  0.111120777575E+00
  0.110150815904E+00
  0.106809003030E+00
  0.105986391935E+00
  0.102561779027E+00
  0.101860045742E+00
  0.987219715254E-01
  0.981574277300E-01
  0.937554405323E-01
  0.933418213621E-01
  0.901688008669E-01
  0.900015520899E-01
  0.880642048326E-01
  0.882642477719E-01
  0.877784277780E-01
  0.883991978194E-01
  0.909211444443E-01
  0.896651173689E-01
  0.954438115633E-01
  0.934938149401E-01
  0.104916579460E+00
  0.102081298597E+00
  0.116143456082E+00
  0.112289675681E+00
  0.135944209776E+00
  0.130982062989E+00
  0.167574931319E+00
  0.161648990190E+00
  0.202968994964E+00
  0.196592653114E+00
  0.240485515988E+00
  0.234108541691E+00
  0.278856173375E+00
  0.272799623208E+00
  0.316478078551E+00
  0.310977126500E+00
  0.354111771052E+00
  0.349397724127E+00
  0.394688588825E+00
  0.391013190833E+00
  0.438476011190E+00
  0.436044068069E+00
  0.485398332435E+00
  0.484315083964E+00
  0.533546045886E+00
  0.533601560074E+00
  0.582911329002E+00
  0.583132158731E+00
  0.624891523740E+00
  0.622411296931E+00
  0.633803615808E+00
  0.619870874725E+00
  0.523579424852E+00
  0.484282284538E+00
  0.119522427113E+00
  0.344469239017E-01
 -0.515893941034E+00
 -0.427352456632E+00
 -0.737318530305E+00
 -0.639069414405E+00
 -0.961712495212E+00
 -0.857842869495E+00
 -0.995824183032E+00
 -0.898356581210E+00
 -0.886980609512E+00
 -0.809169581876E+00
 -0.835993630034E+00
 -0.771509549741E+00
 -0.784896653739E+00
 -0.732688178593E+00
 -0.752836749766E+00
 -0.710422864509E+00
 -0.724588674554E+00
 -0.690533216139E+00
 -0.699932749626E+00
 -0.672793149095E+00
 -0.678327584593E+00
 -0.656855391191E+00
 -0.666509159840E+00
 -0.649531866172E+00
 -0.662491714343E+00
 -0.649286584241E+00
 -0.659560796345E+00
 -0.649911887187E+00
 -0.654140188483E+00
 -0.648211021806E+00
 -0.643178502758E+00
 -0.641229502382E+00
 -0.612662435477E+00
 -0.614044738946E+00
 -0.572191200601E+00
 -0.575997759078E+00
 -0.534666785617E+00
 -0.540213124483E+00
 -0.493621232938E+00
 -0.500270961482E+00
 -0.460281104742E+00
 -0.454387245927E+00
 -0.420922088160E+00
 -0.414377185218E+00
 -0.381886225199E+00
 -0.374770185766E+00
 -0.343331745356E+00
 -0.335795812548E+00
 -0.305245683006E+00
 -0.297384746190E+00
 -0.271104131299E+00
 -0.262895173280E+00
 -0.238297035431E+00
 -0.229697534132E+00
 -0.207127099146E+00
 -0.198032123900E+00
 -0.177815543706E+00
 -0.168091124553E+00
 -0.148859010760E+00
 -0.138376777166E+00
 -0.120097427802E+00
 -0.108730594719E+00
 -0.915747397925E-01
 -0.792589787079E-01
 -0.627676861643E-01
 -0.496580251826E-01
 -0.330518015680E-01
 -0.197329976895E-01
 -0.233827486462E-02
  0.101523681651E-01
  0.288620870656E-01
  0.395330602722E-01
  0.600623566907E-01
  0.685412746383E-01
  0.918680212840E-01
  0.983437556152E-01
  0.126870371990E+00
  0.131469906411E+00
  0.190259545501E+00
  0.191586390781E+00
  0.258613095553E+00
  0.237500871651E+00
  0.198568162429E+00
  0.195016740010E+00
  0.179530481054E+00
  0.180322595119E+00
  0.168046689271E+00
  0.169731231398E+00
  0.159580894488E+00
  0.160914922597E+00
  0.152328851560E+00
  0.152725400050E+00
  0.145514800046E+00
  0.144871703533E+00
  0.138938943317E+00
  0.137589318819E+00
  0.132690329553E+00
  0.131094180607E+00
  0.126771721043E+00
  0.125235261732E+00
  0.121213140342E+00
  0.119856657317E+00
  0.116311971230E+00
  0.115153174174E+00
  0.112095088857E+00
  0.111118399661E+00
  0.107629176983E+00
  0.106809164377E+00
  0.103249603840E+00
  0.102564058146E+00
  0.992688912833E-01
  0.987249687944E-01
  0.941378255152E-01
  0.937579422490E-01
  0.903173711195E-01
  0.901661177418E-01
  0.878598531683E-01
  0.880500306672E-01
  0.871494564240E-01
  0.877468621394E-01
  0.897107129433E-01
  0.885112424884E-01
  0.935864413740E-01
  0.917331019163E-01
  0.102231030803E+00
  0.995876680456E-01
  0.112515671471E+00
  0.108965161241E+00
  0.131233003322E+00
  0.126773863592E+00
  0.161744352490E+00
  0.156537685669E+00
  0.196361931073E+00
  0.190785026410E+00
  0.233388787887E+00
  0.227876552477E+00
  0.271446863128E+00
  0.266329557304E+00
  0.308881411287E+00
  0.304400145357E+00
  0.346407172974E+00
  0.342786989965E+00
  0.386863188547E+00
  0.384313216463E+00
  0.430450219507E+00
  0.429081097527E+00
  0.476982717748E+00
  0.476744412455E+00
  0.524398499217E+00
  0.524903944270E+00
  0.571966938546E+00
  0.572040386429E+00
  0.609969208566E+00
  0.606628271505E+00
  0.608793788966E+00
  0.593742715206E+00
  0.478403863838E+00
  0.439006417975E+00
  0.341587891453E-01
 -0.478725457768E-01
 -0.624880991171E+00
 -0.539061783162E+00
 -0.835076569345E+00
 -0.742091868512E+00
 -0.105345243615E+01
 -0.955911477102E+00
 -0.107574998917E+01
 -0.984235826592E+00
 -0.951781554293E+00
 -0.877939633375E+00
 -0.890607588651E+00
 -0.828592281377E+00
 -0.830531126064E+00
 -0.779492647880E+00
 -0.791205042493E+00
 -0.748986970221E+00
 -0.756607368647E+00
 -0.722055522273E+00
 -0.726453457443E+00
 -0.698441205944E+00
 -0.700078327116E+00
 -0.677647360589E+00
 -0.684286021553E+00
 -0.666451269074E+00
 -0.676839983018E+00
 -0.662974241494E+00
 -0.670646201300E+00
 -0.660587341499E+00
 -0.661885151603E+00
 -0.655757096988E+00
 -0.647623360703E+00
 -0.645359140054E+00
 -0.614036199179E+00
 -0.615065515319E+00
 -0.570956332014E+00
 -0.574529884513E+00
 -0.531463626977E+00
 -0.536857262250E+00
 -0.488923123913E+00
 -0.495546763509E+00
 -0.454416521926E+00
 -0.448633616009E+00
 -0.414279581089E+00
 -0.407774398800E+00
 -0.374607804917E+00
 -0.367486061159E+00
 -0.335619641853E+00
 -0.328027452925E+00
 -0.297223601320E+00
 -0.289219460492E+00
 -0.262752639637E+00
 -0.254331840679E+00
 -0.229580646399E+00
 -0.220695383082E+00
 -0.197940484029E+00
 -0.188500081517E+00
 -0.168022898072E+00
 -0.157930633744E+00
 -0.138336252417E+00
 -0.127518252960E+00
 -0.108723086313E+00
 -0.971784220496E-01
 -0.792921651621E-01
 -0.672048096324E-01
 -0.497475832519E-01
 -0.376226328639E-01
 -0.199048479637E-01
 -0.855797837737E-02