# vtk DataFile Version 3.0
MachLine results file. Generated by MachLine, USU AeroLab (c) 2022.
ASCII
DATASET POLYDATA
POINTS                 482 float
  0.236813288641E+00  0.000000000000E+00  0.686565968816E-16
  0.624814081843E+00  0.000000000000E+00 -0.216428737068E+00
  0.624814081843E+00  0.000000000000E+00  0.216428737068E+00
  0.936286588147E+00  0.579506026584E+00 -0.561895002135E-17
  0.134949075789E+01  0.639768029252E+00 -0.218865761583E+00
  0.134949075789E+01  0.639768029252E+00  0.218865761583E+00
  0.166333682055E+01  0.000000000000E+00 -0.417572791145E+00
  0.166333682055E+01  0.000000000000E+00  0.417572791145E+00
  0.201092498640E+01  0.156702214196E+01 -0.279641648794E-16
  0.240530328697E+01  0.164611001899E+01 -0.173337958184E+00
  0.240530328697E+01  0.164611001899E+01  0.173337958184E+00
  0.240761478271E+01  0.684598059678E+00 -0.420944840504E+00
  0.240761478271E+01  0.684598059678E+00  0.420944840504E+00
  0.344986477255E+01  0.289573058939E+01  0.174541604789E-16
  0.345037803883E+01  0.170398970512E+01 -0.366807975171E+00
  0.345037803883E+01  0.170398970512E+01  0.366807975171E+00
  0.347800745605E+01  0.000000000000E+00 -0.567847677909E+00
  0.347800745605E+01  0.000000000000E+00  0.567847677909E+00
  0.382075010340E+01  0.299831190111E+01 -0.115133872484E+00
  0.382075010340E+01  0.299831190111E+01  0.115133872484E+00
  0.422430015314E+01  0.716137624114E+00 -0.571459768044E+00
  0.422430015314E+01  0.716137624114E+00  0.571459768044E+00
  0.484917759257E+01  0.307283909445E+01 -0.297433607780E+00
  0.484917759257E+01  0.307283909445E+01  0.297433607780E+00
  0.534018405594E+01  0.465304866619E+01 -0.173147533833E-15
  0.526047475105E+01  0.174211864828E+01 -0.516294363350E+00
  0.526047475105E+01  0.174211864828E+01  0.516294363350E+00
  0.568323099534E+01  0.478346862540E+01 -0.439725145123E-01
  0.568323099534E+01  0.478346862540E+01  0.439725145123E-01
  0.612417134702E+01  0.000000000000E+00 -0.595279552601E+00
  0.612417134702E+01  0.000000000000E+00  0.595279552601E+00
  0.669135356720E+01  0.487830145179E+01 -0.212393034855E+00
  0.669135356720E+01  0.487830145179E+01  0.212393034855E+00
  0.665084364825E+01  0.311939966149E+01 -0.445466940557E+00
  0.665084364825E+01  0.311939966149E+01  0.445466940557E+00
  0.686955818900E+01  0.759312873477E+00 -0.590921055075E+00
  0.686955818900E+01  0.759312873477E+00  0.590921055075E+00
  0.776249866534E+01  0.692475051734E+01  0.171518464496E-15
  0.807478710201E+01  0.708592944887E+01  0.380216172375E-01
  0.807478710201E+01  0.708592944887E+01 -0.380216172375E-01
  0.790049533303E+01  0.179053183560E+01 -0.535989223717E+00
  0.790049533303E+01  0.179053183560E+01  0.535989223717E+00
  0.848270467544E+01  0.493517742996E+01 -0.358426458783E+00
  0.848270467544E+01  0.493517742996E+01  0.358426458783E+00
  0.905956171061E+01  0.720411070487E+01 -0.114183193516E+00
  0.905956171061E+01  0.720411070487E+01  0.114183193516E+00
  0.928414007832E+01  0.317453791780E+01 -0.465426284732E+00
  0.928414007832E+01  0.317453791780E+01  0.465426284732E+00
  0.936918949172E+01  0.000000000000E+00 -0.545743690960E+00
  0.936918949172E+01  0.000000000000E+00  0.545743690960E+00
  0.101159225602E+02  0.794960532146E+00 -0.454736260094E+00
  0.101159225602E+02  0.794960532146E+00  0.454736260094E+00
  0.107698779598E+02  0.977579734077E+01 -0.266148844492E-15
  0.110513600465E+02  0.996778311833E+01  0.125191640434E+00
  0.110513600465E+02  0.996778311833E+01 -0.125191640434E+00
  0.108390257876E+02  0.727287612994E+01 -0.257653312483E+00
  0.108390257876E+02  0.727287612994E+01  0.257653312483E+00
  0.111077391158E+02  0.499858060283E+01 -0.378608094034E+00
  0.111077391158E+02  0.499858060283E+01  0.378608094034E+00
  0.111445459163E+02  0.182849472198E+01 -0.419868581828E+00
  0.111445459163E+02  0.182849472198E+01  0.419868581828E+00
  0.120113534448E+02  0.101107474954E+02 -0.959230672239E-02
  0.120113534448E+02  0.101107474954E+02  0.959230672239E-02
  0.125250361739E+02  0.321565675889E+01 -0.372497616769E+00
  0.125250361739E+02  0.321565675889E+01  0.372497616769E+00
  0.126243136587E+02  0.000000000000E+00 -0.233171846172E+00
  0.126243136587E+02  0.000000000000E+00  0.233171846172E+00
  0.133819915766E+02  0.800835563401E+00 -0.246449036529E+00
  0.133819915766E+02  0.800835563401E+00  0.246449036529E+00
  0.134544920274E+02  0.734584847698E+01 -0.277940113121E+00
  0.134544920274E+02  0.734584847698E+01  0.277940113121E+00
  0.137781778782E+02  0.101921535121E+02 -0.150102654710E+00
  0.137781778782E+02  0.101921535121E+02  0.150102654710E+00
  0.143607290970E+02  0.132235146632E+02  0.358200537065E-15
  0.146155825426E+02  0.134421291046E+02  0.207904533946E+00
  0.146155825426E+02  0.134421291046E+02 -0.207904533946E+00
  0.143444079225E+02  0.504392766285E+01 -0.309313034721E+00
  0.143444079225E+02  0.504392766285E+01  0.309313034721E+00
  0.144109693642E+02  0.183401626208E+01 -0.225306739425E+00
  0.144109693642E+02  0.183401626208E+01  0.225306739425E+00
  0.153052613066E+02  0.000000000000E+00 -0.328042146203E-01
  0.153052613066E+02  0.000000000000E+00  0.328042146203E-01
  0.155520869150E+02  0.136085835290E+02  0.897721388398E-01
  0.155520869150E+02  0.136085835290E+02 -0.897721388398E-01
  0.157913137049E+02  0.322132611731E+01 -0.190270033220E+00
  0.157913137049E+02  0.322132611731E+01  0.190270033220E+00
  0.160648925436E+02  0.794659927807E+00 -0.502216371963E-01
  0.160648925436E+02  0.794659927807E+00  0.502216371963E-01
  0.163834337554E+02  0.102753390791E+02 -0.170340803960E+00
  0.163834337554E+02  0.102753390791E+02  0.170340803960E+00
  0.166857394972E+02  0.739662069831E+01 -0.228636182819E+00
  0.166857394972E+02  0.739662069831E+01  0.228636182819E+00
  0.170930631623E+02  0.182864877122E+01 -0.230723664070E-01
  0.170930631623E+02  0.182864877122E+01  0.230723664070E-01
  0.171723477555E+02  0.000000000000E+00  0.680462145376E-01
  0.171723477555E+02  0.000000000000E+00 -0.680462145376E-01
  0.173069204312E+02  0.137019833079E+02 -0.477608182868E-01
  0.173069204312E+02  0.137019833079E+02  0.477608182868E-01
  0.176096460679E+02  0.505063830948E+01 -0.135052453148E+00
  0.176096460679E+02  0.505063830948E+01  0.135052453148E+00
  0.184540795969E+02  0.172099332601E+02  0.254723380449E-15
  0.179308784442E+02  0.785350094203E+00  0.626997710838E-01
  0.179308784442E+02  0.785350094203E+00 -0.626997710838E-01
  0.186912126312E+02  0.174462690303E+02  0.273695681491E+00
  0.186912126312E+02  0.174462690303E+02 -0.273695681491E+00
  0.183249181351E+02  0.000000000000E+00  0.118153062387E+00
  0.183249181351E+02  0.000000000000E+00 -0.118153062387E+00
  0.184720186926E+02  0.321734839001E+01  0.223902251239E-01
  0.184720186926E+02  0.321734839001E+01 -0.223902251239E-01
  0.189576725578E+02  0.182071733764E+01  0.102578694882E+00
  0.189576725578E+02  0.182071733764E+01 -0.102578694882E+00
  0.188391380017E+02  0.129494027695E-02 -0.282518883299E-01
  0.190812628765E+02  0.779575073234E+00  0.132909556662E+00
  0.190812628765E+02  0.779575073234E+00 -0.132909556662E+00
  0.196090470060E+02  0.176313934661E+02  0.168873366163E+00
  0.196090470060E+02  0.176313934661E+02 -0.168873366163E+00
  0.196083004081E+02  0.103324949922E+02 -0.134101768364E+00
  0.196083004081E+02  0.103324949922E+02  0.134101768364E+00
  0.196157783120E+02  0.900019067971E+00 -0.151596691548E-01
  0.199024602820E+02  0.137948877555E+02 -0.678259770345E-01
  0.199024602820E+02  0.137948877555E+02  0.678259770345E-01
  0.199489762945E+02  0.740533366320E+01 -0.577859476918E-01
  0.199489762945E+02  0.740533366320E+01  0.577859476918E-01
  0.201067723114E+02  0.181622699691E+01  0.185052878217E+00
  0.201067723114E+02  0.181622699691E+01 -0.185052878217E+00
  0.202885132768E+02  0.504850029612E+01  0.907700212596E-01
  0.202885132768E+02  0.504850029612E+01 -0.907700212596E-01
  0.203349619247E+02  0.321108312517E+01  0.163389223979E+00
  0.203349619247E+02  0.321108312517E+01 -0.163389223979E+00
  0.206041595611E+02  0.197379950391E+01 -0.197146145061E-01
  0.213543437461E+02  0.177343329519E+02  0.338022472306E-01
  0.213543437461E+02  0.177343329519E+02 -0.338022472306E-01
  0.214831075765E+02  0.320754691663E+01  0.255166254059E+00
  0.214831075765E+02  0.320754691663E+01 -0.255166254059E+00
  0.219333557261E+02  0.341226066736E+01 -0.255424664644E-01
  0.221500231178E+02  0.504367034355E+01  0.244899927977E+00
  0.221500231178E+02  0.504367034355E+01 -0.244899927977E+00
  0.228810637673E+02  0.215867975191E+02  0.611503964226E-16
  0.226259884161E+02  0.740505455059E+01  0.179783442099E+00
  0.226259884161E+02  0.740505455059E+01 -0.179783442099E+00
  0.231130862555E+02  0.218282457318E+02  0.310411856421E+00
  0.231130862555E+02  0.218282457318E+02 -0.310411856421E+00
  0.228690046211E+02  0.103437443612E+02  0.346636415255E-01
  0.228690046211E+02  0.103437443612E+02 -0.346636415255E-01
  0.231207299943E+02  0.138586444364E+02 -0.366729847416E-01
  0.231207299943E+02  0.138586444364E+02  0.366729847416E-01
  0.232975862701E+02  0.504071661379E+01  0.342632245164E+00
  0.232975862701E+02  0.504071661379E+01 -0.342632245164E+00
  0.240205100458E+02  0.220237825143E+02  0.213046333828E+00
  0.240205100458E+02  0.220237825143E+02 -0.213046333828E+00
  0.239421415810E+02  0.178349832500E+02  0.139455486876E-01
  0.239421415810E+02  0.178349832500E+02 -0.139455486876E-01
  0.236910036873E+02  0.530226143951E+01 -0.326018791185E-01
  0.244865050967E+02  0.740121775905E+01  0.342870631782E+00
  0.244865050967E+02  0.740121775905E+01 -0.342870631782E+00
  0.255444234464E+02  0.103450604481E+02  0.280423095882E+00
  0.255444234464E+02  0.103450604481E+02 -0.280423095882E+00
  0.257604847986E+02  0.221320459064E+02  0.793855525672E-01
  0.257604847986E+02  0.221320459064E+02 -0.793855525672E-01
  0.256337481291E+02  0.739858606553E+01  0.444224248897E+00
  0.256337481291E+02  0.739858606553E+01 -0.444224248897E+00
[...]
POINT_DATA                 482
SCALARS BC_type int 1
LOOKUP_TABLE default
           1
           1
           1
           1
           1
           1
           1
           1
           1
           1
           1
           1
           1
           1
           1
           1
           1
           1
           1
           1
           1
           1
           1
           1
           1
           1
           1
           1
           1
           1
           1
           1
           1
           1
           1
           1
           1
           1
           1
           1
           1
           1
           1
           1
           1
           1
           1
           1
           1
           1
           1
           1
           1
           1
           1
           1
           1
           1
           1
           1
           1
           1
           1
           1
           1
           1
           1
           1
           1
           1
           1
           1
           1
           1
           1
           1
           1
           1
           1
           1
           1
           1
           1
           1
           1
           1
           1
           1
           1
           1
           1
           1
           1
           1
           1
           1
           1
           1
           1
           1
           1
           1
           1
           1
           1
           1
           1
           1
           1
           1
           1
           1
           1
           1
           1
           1
           1
           1
           1
           1
           1
           1
           1
           1
           1
           1
           1
           1
           1
           1
           1
           1
           1
           1
           1
           1
           1
           1
           1
           1
           1
           1
           1
           1
           1
           1
           1
           1
           1
           1
           1
           1
           1
           1
           1
           1
           1
           1
           1
           1
           1
           1
           1
           1
           1
           1
           1
           1
           1
           1
           1
           1
           1
           1
           1
           1
           1
           1
           1
           1
           1
           1
           1
           1
           1
           1
           1
           1
           1
           1
           1
           1
           1
           1
           1
           1
           1
           1
           1
           1
           1
           1
           1
           1
           1
           1
           1
           1
           1
           1
           1
           1
           1
           1
           1
           1
           1
           1
           1
           1
           1
           1
           1
           1
           1
           1
           1
           1
           1
           1
           1
           1
           1
           1
           1
           1
           1
           1
           1
           1
           1
           1
           1
           1
           1
           1
           1
           1
           1
           1
           1
           1
           1
           1
           1
           1
           1
           1
           1
           1
           1
           1
           1
           1
           1
           1
           1
           1
           1
           1
           1
           1
           1
           1
           1
           1
           1
           1
           1
           1
           1
           1
           1
           1
           1
           1
           1
           1
           1
           1
           1
           1
           1
           1
           1
           1
           1
           1
           1
           1
           1
           1
           1
           1
           1
           1
           1
           1
           1
           1
           1
           1
           1
           1
           1
           1
           1
           1
           1
           1
           1
           1
           1
           1
           1
           1
           1
           1
           1
           1
           1
           1
           1
           1
           1
           1
           1
           1
           1
           1
           1
           1
           1
           1
           1
           1
           1
           1
           1
           1
           1
           1
           1
           1
           1
           1
           1
           1
           1
           1
           1
           1
           1
           1
           1
           1
           1
           1
           1
           1
           1
           1
           1
           1
           1
           1
           1
           1
           1
           1
           1
           1
           1
           1
           1
           1
           1
           1
           1
           1
           1
           1
           1
           1
           1
           1
           1
           1
           1
           1
           1
           1
           1
           1
           1
           1
           1
           1
           1
           1
           1
           1
           1
           1
           1
           1
           1
           1
           1
           1
           1
           1
           1
           1
           1
           1
           1
           1
           1
           1
           1
           1
           1
           1
           1
           1
           1
           1
           1
           1
           1
           1
           1
           1
           1
           1
           1
           1
           1
           1
           1
           1
           1
           1
           1
           1
           1
           1
           1
           1
           1
           1
           1
           1
           1
           1
           1
           1
           1
           1
           1
           1
           1
           1
           1
           1
           1
           1
           1
           1
           1
           1
SCALARS residual float 1
LOOKUP_TABLE default
 -0.654452936288E-09
 -0.209012696040E-09
 -0.205956252053E-09
  0.600494098890E-08
 -0.101098507344E-08
 -0.982495973467E-09
 -0.769630914554E-09
 -0.748824446895E-09
 -0.253490510804E-07
  0.737081984337E-08
  0.744185735257E-08
  0.256382182151E-08
  0.261101640309E-08
  0.115334937489E-06
 -0.795528354303E-08
 -0.783885378830E-08
  0.186536563973E-09
  0.207493133786E-09
 -0.458631731481E-07
 -0.456980422392E-07
 -0.538754485468E-09
 -0.400798283451E-09
  0.257558088190E-07
  0.259753479837E-07
 -0.506919164422E-06
  0.482143991398E-09
  0.677614409028E-09
  0.249232510630E-06
  0.251310587340E-06
 -0.173570047224E-09
 -0.123610011116E-10
 -0.904861874318E-07
 -0.899908202401E-07
 -0.176213776903E-08
 -0.123688387310E-08
  0.141079148364E-09
  0.370852737408E-09
  0.165623621762E-05
 -0.924181935980E-06
 -0.925530371676E-06
 -0.557196511153E-09
  0.508831865531E-11
  0.114589441269E-07
  0.118058258169E-07
  0.257941063397E-06
  0.259667452984E-06
 -0.403060917975E-11
  0.877669242838E-09
 -0.677293776619E-10
  0.720629944606E-10
 -0.445464470866E-09
  0.390411342144E-09
 -0.238707207634E-05
  0.137146758927E-05
  0.137133788158E-05
 -0.589111243121E-07
 -0.521065256498E-07
 -0.501140451359E-08
 -0.257015733696E-08
 -0.721167153772E-09
  0.528138636990E-09
 -0.267632144446E-06
 -0.376603386143E-06
 -0.949266082406E-09
  0.126684789048E-08
 -0.443564990293E-09
  0.432156588293E-09
 -0.113217281383E-08
  0.113714629379E-08
  0.159183270454E-07
  0.163359428207E-07
  0.125421825703E-06
  0.696941729883E-07
  0.675560679508E-06
 -0.396767922628E-06
 -0.418106520073E-06
 -0.150470200709E-08
  0.216710062395E-08
 -0.187698812049E-08
  0.194279337062E-08
 -0.736832639348E-08
  0.736896194065E-08
  0.622980436127E-07
  0.171908228541E-06
 -0.290612167664E-08
  0.276465117466E-08
 -0.833040308956E-08
  0.832897406600E-08
 -0.670067464292E-07
  0.108043563818E-07
 -0.726904643422E-08
  0.269289204824E-08
 -0.440611646058E-07
  0.440815780545E-07
  0.112185288836E-08
 -0.112064518776E-08
 -0.114644128435E-05
  0.104046632166E-05
 -0.406656169849E-08
  0.446506043250E-08
 -0.125306971466E-06
  0.294229257625E-08
 -0.294249885568E-08
  0.835798646959E-07
  0.773320064651E-07
  0.941976496804E-10
 -0.953353507249E-10
  0.659216320420E-08
 -0.663167670778E-08
  0.198091754111E-08
 -0.197730176676E-08
  0.734170391148E-09
 -0.755035034494E-09
 -0.298409449928E-07
 -0.338979311287E-07
  0.428164304012E-08
  0.545465095314E-08
 -0.623599774041E-07
  0.280642505679E-06
 -0.103794036699E-07
  0.100961893845E-07
 -0.630310026395E-09
  0.629122254292E-09
  0.131485289323E-08
 -0.128065491545E-08
 -0.231169194898E-09
  0.231800412198E-09
  0.240184198641E-07
 -0.148037754832E-07
  0.524998878815E-07
  0.127312049791E-09
 -0.177740605567E-08
 -0.577306535909E-10
  0.667010335853E-10
  0.232686103718E-07
  0.276371481256E-09
 -0.159051268822E-07
 -0.158039058507E-07
 -0.169415285134E-07
  0.162661198955E-07
  0.649288989768E-06
 -0.656163575086E-06
  0.464631111363E-10
 -0.513535880486E-10
  0.701323193963E-08
  0.747090411757E-08
 -0.139575161706E-07
  0.247600856484E-09
 -0.114524500994E-09
  0.414431267082E-10
 -0.233625896406E-10
 -0.167270458595E-08
  0.172709091473E-08
 -0.399492033898E-08
  0.223686291712E-09
 -0.231482943924E-09
 -0.715116521555E-09
 -0.871363181609E-08
  0.941762173801E-08
  0.230081768082E-07
 -0.160250407388E-08
  0.462627111619E-08
 -0.150419556810E-07
  0.221668849942E-09
 -0.221200835426E-09
  0.493766660892E-08
  0.496628072000E-08
 -0.483456580325E-09
  0.450611574443E-08
  0.307758984963E-09
 -0.284756607183E-09
 -0.733261451558E-09
  0.678316902647E-09
 -0.923493115312E-09
 -0.261128763057E-08
 -0.179897818864E-08
 -0.150561629830E-08
  0.116207643508E-08
  0.142159339855E-09
 -0.173840775108E-09
 -0.201341524009E-08
  0.102394592805E-08
 -0.422959329227E-07
 -0.422461984284E-07
  0.153948243042E-09
 -0.808286770848E-10
  0.169048098297E-07
  0.170040168612E-07
 -0.564570445949E-09
 -0.163328059410E-09
  0.949667483541E-09
  0.271735967061E-10
 -0.953225831601E-10
 -0.775646130657E-08
 -0.749951517554E-08
 -0.124283860981E-09
  0.713729075841E-11
 -0.423796553406E-10
  0.128187428783E-06
 -0.899859564640E-07
 -0.898025278584E-07
 -0.414552142614E-09
  0.292781188183E-09
  0.393071686311E-10
  0.314220871545E-11
  0.353405399389E-07
  0.348734107147E-07
 -0.629111762684E-10
  0.114002138285E-08
  0.302775829408E-08
  0.356056295558E-10
 -0.263500332665E-11
 -0.584601228537E-08
 -0.197279974024E-07
  0.197675573244E-06
 -0.139927260223E-06
 -0.742625405614E-10
  0.110040809798E-09
  0.229776753180E-10
  0.354288820503E-11
  0.559243795162E-07
  0.547270501139E-07
 -0.964158641814E-09
  0.741572636631E-10
 -0.563591950886E-10
 -0.529937205229E-11
  0.268238486978E-09
  0.543030130584E-08
  0.518797740878E-09
  0.175693325777E-06
  0.385848020201E-10
 -0.111385900503E-10
 -0.119760414141E-06
 -0.120643960155E-06
 -0.178756949243E-07
 -0.194140721277E-07
  0.401645722792E-07
 -0.827442003803E-10
  0.245065245874E-09
  0.273703837372E-10
  0.384670073572E-11
 -0.944927369684E-08
  0.126025054836E-07
  0.259974231032E-08
 -0.379049439059E-08
  0.241972855641E-08
  0.617652944068E-08
  0.585035945556E-08
 -0.616590395408E-08
 -0.447203626908E-08
 -0.146757550556E-09
  0.377209374847E-11
 -0.946913658595E-09
  0.339390887616E-08
  0.602018379592E-09
 -0.107799990046E-07
  0.102275261593E-07
  0.138528958860E-07
  0.679843958906E-10
 -0.799638133486E-12
  0.753788387264E-08
 -0.149525808402E-07
 -0.232653646903E-07
 -0.117669261557E-07
 -0.193900665801E-07
 -0.131908611811E-07
 -0.400027010822E-08
 -0.870160908953E-08
 -0.410155687192E-09
  0.666760702206E-09
  0.245685469191E-08
 -0.423532109384E-08
 -0.276707790015E-08
  0.305534486600E-10
  0.421146451046E-11
  0.379644982118E-09
  0.627677615439E-08
  0.181157049362E-07
  0.350051072573E-07
 -0.158028967689E-08
  0.384779745288E-07
  0.602693489005E-07
  0.177661935719E-07
  0.130920928543E-07
 -0.302498581739E-10
  0.330955818306E-10
 -0.252006778223E-07
 -0.223190010362E-07
  0.333183809986E-07
  0.294375420706E-07
 -0.274932915323E-08
 -0.349619159179E-07
 -0.311947914167E-07
 -0.299645068758E-07
  0.225229688233E-07
  0.293081217420E-07
  0.422878304873E-07
  0.380959430668E-09
 -0.815668643739E-10
  0.889229800904E-10
 -0.710729418096E-07
 -0.183569587031E-07
 -0.779397654749E-07
 -0.143874105268E-06
  0.125624195824E-06
  0.757312827449E-07
  0.258468188519E-08
 -0.849812442638E-10
 -0.147120913480E-06
  0.144691558041E-06
  0.129336466231E-06
 -0.114079142993E-06
 -0.365832764082E-08
  0.342401806908E-08
  0.994164442714E-07
  0.272735352986E-06
 -0.116021861915E-06
 -0.173541227430E-06
  0.267810607024E-09
 -0.301079383647E-09
  0.135106789756E-06
 -0.292118665920E-06
 -0.573821119468E-06
 -0.817986961499E-08
  0.843236209400E-06
  0.376037437723E-06
  0.409214748451E-06
  0.616648206053E-06
 -0.886263664304E-06
 -0.659888154647E-06
 -0.163336825731E-07
 -0.220185630284E-07
  0.688409890211E-06
 -0.578842251908E-09
  0.350333151378E-09
 -0.778951902980E-09
  0.449973558414E-09
  0.194378529939E-08
  0.147568560149E-07
 -0.106683849532E-07
 -0.117631958922E-05
 -0.188966330458E-05
  0.224351594537E-05
  0.457427119793E-05
  0.163873205283E-06
  0.165706333433E-06
 -0.124725040417E-05
 -0.541454243866E-05
 -0.993281843428E-06
  0.342085825381E-05
  0.695242030613E-09
  0.215381182514E-05
 -0.420072855639E-06
 -0.131430227129E-05
 -0.106345606418E-05
 -0.107205200800E-05
 -0.549504719505E-08
 -0.195884616305E-07
  0.534042032818E-09
  0.157014273805E-08
  0.218628093407E-08
 -0.115938991740E-08
  0.550846819444E-05
  0.546393014655E-05
 -0.472867328627E-08
 -0.262919768887E-04
 -0.259350391655E-04
  0.662933321016E-07
  0.478546202665E-07
  0.438653229994E-04
  0.431410937774E-04
  0.220957818708E-08
 -0.357708074272E-08
 -0.272316682203E-04
 -0.265989185997E-04
 -0.211545349317E-04
 -0.214325545272E-04
 -0.145979677235E-07
  0.528621237149E-04
 -0.193001988613E-06
 -0.207969159838E-06
 -0.809232003629E-08
  0.715451597966E-08
  0.292428191107E-07
  0.182024845363E-06
  0.458182646823E-07
 -0.709817802313E-07
  0.104832662828E-06
 -0.259109611545E-08
  0.641116276734E-08
  0.119445403512E-06
  0.103532801321E-05
 -0.494015696573E-05
 -0.624382502679E-05
  0.615804130999E-05
  0.598211252983E-05
  0.362879483107E-05
  0.503021108994E-05
  0.318982515957E-07
 -0.303637832655E-07
  0.192803806548E-05
 -0.193883726662E-05
 -0.235879826616E-06
 -0.259748612619E-07
  0.245220545536E-07
  0.245151389744E-06
 -0.100296365324E-06
 -0.349926855270E-07
  0.328572640762E-07
 -0.122846369832E-05
 -0.936336959967E-06
 -0.122236976985E-06
  0.115735843020E-06
  0.143268775155E-05
  0.108182876468E-05
  0.497974659452E-06
  0.305567340042E-06
 -0.940116586856E-06
 -0.112026321941E-06
  0.105812383328E-05
 -0.225448488211E-07
  0.404042626578E-07
 -0.610981468752E-07
  0.625087249184E-07
  0.116951011631E-05
 -0.113538307228E-05
  0.213600936222E-05
 -0.317576201967E-04
  0.316510137888E-04
  0.475531101574E-04
 -0.476174246259E-04
 -0.245345934708E-04
  0.245333581360E-04
  0.151417049399E-06
  0.457961973344E-07
 -0.361483922795E-07
  0.231267816453E-06
 -0.222811822131E-06
  0.185333927810E-05
 -0.183016788660E-05
 -0.858025671674E-05
  0.856301663854E-05
  0.127324458925E-04
 -0.301958354987E-07
  0.164656382973E-08
 -0.735579985811E-09
  0.623603235161E-07
 -0.240180741962E-07
  0.177740211438E-08
  0.112120090989E-09
  0.713434589183E-09
  0.926286325420E-09
  0.571775016223E-09
 -0.275301559327E-09
 -0.616876827397E-09
 -0.383288734085E-09
 -0.195849214624E-08
  0.481754675041E-08
 -0.293082862424E-07
  0.235756662026E-06
 -0.105794170718E-05
 -0.213639121915E-05
  0.864049011151E-05
  0.753109963281E-09
 -0.245968377111E-06
 -0.126819610369E-09
 -0.277551315264E-09
 -0.599060157036E-08
 -0.151776534119E-07
  0.605084838901E-07
  0.262602939394E-09
 -0.139676427313E-06
  0.432888052071E-07
 -0.823127066507E-08
 -0.109243585650E-06
 -0.515395393030E-09
  0.503326763601E-08
 -0.116095193665E-04
 -0.299062014653E-06
 -0.864069435297E-05
 -0.127157362849E-04
  0.675579592269E-10
