# vtk DataFile Version 3.0
MachLine results file. Generated by MachLine, USU AeroLab (c) 2022.
ASCII
DATASET POLYDATA
POINTS                 114 float
  0.000000000000E+00  0.000000000000E+00  0.000000000000E+00
  0.982935349150E+04  0.000000000000E+00  0.183951350613E+04
  0.113538098335E+01  0.000000000000E+00 -0.658124566078E+00
  0.982951090764E+04  0.000000000000E+00  0.183867236042E+04
  0.113538098335E+01  0.000000000000E+00  0.658124566078E+00
  0.982927291362E+04  0.000000000000E+00  0.183994407018E+04
  0.192375373840E+01  0.192375373840E+01  0.000000000000E+00
  0.982941858767E+04  0.192375373840E+01  0.183916566782E+04
  0.305913543701E+01  0.192375373840E+01 -0.658124983311E+00
  0.982957600391E+04  0.192375373840E+01  0.183832452157E+04
  0.305913543701E+01  0.192375373840E+01  0.658124983311E+00
  0.982933800974E+04  0.192375373840E+01  0.183959623214E+04
  0.423028087616E+01  0.000000000000E+00 -0.108747220039E+01
  0.982969326449E+04  0.000000000000E+00  0.183769794517E+04
  0.423028087616E+01  0.000000000000E+00  0.108747220039E+01
  0.982930000783E+04  0.000000000000E+00  0.183979929358E+04
  0.660571479797E+01  0.547033166885E+01  0.658125698566E+00
  0.982945801912E+04  0.547033166885E+01  0.183895496772E+04
  0.113188476562E+02  0.192375373840E+01  0.980746448040E+00
  0.982955916878E+04  0.192375373840E+01  0.183841447927E+04
  0.113820018768E+02  0.113820018768E+02  0.000000000000E+00
  0.982973863681E+04  0.113820018768E+02  0.183745550036E+04
  0.125173873901E+02  0.113820018768E+02 -0.658127009869E+00
  0.982989605354E+04  0.113820018768E+02  0.183661435147E+04
  0.145402030945E+02  0.000000000000E+00 -0.479613035917E+00
  0.982993222426E+04  0.000000000000E+00  0.183642107494E+04
  0.145402030945E+02  0.000000000000E+00  0.479613035917E+00
  0.982975878440E+04  0.000000000000E+00  0.183734784262E+04
  0.148654365540E+02  0.547033166885E+01 -0.980747580528E+00
  0.983003384083E+04  0.547033166885E+01  0.183587809163E+04
  0.148654365540E+02  0.547033166885E+01  0.980747580528E+00
  0.982967917840E+04  0.547033166885E+01  0.183777321352E+04
  0.156122989655E+02  0.113820018768E+02 -0.108747613430E+01
  0.983007841106E+04  0.113820018768E+02  0.183563993267E+04
  0.156122989655E+02  0.113820018768E+02  0.108747613430E+01
  0.982968515297E+04  0.113820018768E+02  0.183774128869E+04
  0.190000000000E+02  0.000000000000E+00  0.000000000000E+00
  0.982999641538E+04  0.000000000000E+00  0.183607807271E+04
  0.209237651825E+02  0.192375373840E+01  0.000000000000E+00
  0.983006151194E+04  0.192375373840E+01  0.183573023233E+04
  0.239865016937E+02  0.197561950684E+02  0.108747911453E+01
  0.982996851954E+04  0.197561950684E+02  0.183622713283E+04
  0.244703655243E+02  0.547033166885E+01  0.000000000000E+00
  0.983018152216E+04  0.547033166885E+01  0.183508896342E+04
  0.291513423920E+02  0.197561950684E+02 -0.980752110481E+00
  0.983051724955E+04  0.197561950684E+02  0.183329501997E+04
  0.291513423920E+02  0.197561950684E+02  0.980752110481E+00
  0.983016258549E+04  0.197561950684E+02  0.183519015062E+04
  0.303820724487E+02  0.113820018768E+02  0.000000000000E+00
  0.983038156308E+04  0.113820018768E+02  0.183402005418E+04
  0.334741249084E+02  0.292438049316E+02 -0.108748245239E+01
  0.983068282245E+04  0.292438049316E+02  0.183241028900E+04
  0.334741249084E+02  0.292438049316E+02  0.108748245239E+01
  0.983028956207E+04  0.292438049316E+02  0.183451165723E+04
  0.387533912659E+02  0.376179962158E+02  0.658132553101E+00
  0.983054583415E+04  0.376179962158E+02  0.183314227950E+04
  0.387563171387E+02  0.197561950684E+02  0.000000000000E+00
  0.983066493161E+04  0.197561950684E+02  0.183250588787E+04
  0.437841453552E+02  0.292438049316E+02  0.479617565870E+00
  0.983074834301E+04  0.292438049316E+02  0.183206018298E+04
  0.446650657654E+02  0.435296669006E+02 -0.658133804798E+00
  0.983098387111E+04  0.435296669006E+02  0.183080164972E+04
  0.446650657654E+02  0.435296669006E+02  0.658133804798E+00
  0.983074587375E+04  0.435296669006E+02  0.183207337733E+04
  0.468944816589E+02  0.292438049316E+02  0.144200220704E+00
  0.983091423846E+04  0.292438049316E+02  0.183117372850E+04
  0.470131988525E+02  0.376179962158E+02 -0.980757772923E+00
  0.983112166185E+04  0.376179962158E+02  0.183006537142E+04
  0.470131988525E+02  0.376179962158E+02  0.980757772923E+00
  0.983076699574E+04  0.376179962158E+02  0.183196051301E+04
  0.470762481689E+02  0.470762481689E+02  0.000000000000E+00
  0.983094646226E+04  0.470762481689E+02  0.183100154212E+04
  0.477600097656E+02  0.435296669006E+02 -0.108748745918E+01
  0.983116623055E+04  0.435296669006E+02  0.182982722068E+04
  0.477600097656E+02  0.435296669006E+02  0.108748745918E+01
  0.983077296836E+04  0.435296669006E+02  0.183192859858E+04
  0.482439842224E+02  0.292438049316E+02  0.000000000000E+00
  0.983098597623E+04  0.292438049316E+02  0.183079040110E+04
  0.539993209839E+02  0.497689704895E+02  0.768971264362E+00
  0.983104168643E+04  0.497689704895E+02  0.183049271625E+04
  0.543178405762E+02  0.500874900818E+02 -0.157378642191E-15
  0.983119150398E+04  0.500874900818E+02  0.182969217325E+04
  0.566182289124E+02  0.376179962158E+02  0.000000000000E+00
  0.983126934475E+04  0.376179962158E+02  0.182927623478E+04
  0.580700759888E+02  0.435296669006E+02 -0.479619771242E+00
  0.983140519365E+04  0.435296669006E+02  0.182855033265E+04
  0.590887413025E+02  0.496935043335E+02  0.693503141403E+00
  0.983122754831E+04  0.496935043335E+02  0.182949957211E+04
  0.593759994507E+02  0.499807624817E+02  0.000000000000E+00
  0.983136266247E+04  0.499807624817E+02  0.182877759599E+04
  0.625299339294E+02  0.435296669006E+02  0.000000000000E+00
  0.983146938561E+04  0.435296669006E+02  0.182820732589E+04
  0.638795776367E+02  0.493391418457E+02  0.339143037796E+00
  0.983145373377E+04  0.493391418457E+02  0.182829096081E+04
  0.660765380859E+02  0.470762481689E+02  0.000000000000E+00
  0.983158939596E+04  0.470762481689E+02  0.182756605629E+04
  0.666507873535E+02  0.490000000000E+02  0.144201144576E+00
  0.983158275412E+04  0.490000000000E+02  0.182760154662E+04
  0.667527542114E+02  0.491019668579E+02 -0.101965606213E+00
  0.983163071446E+04  0.491019668579E+02  0.182734527282E+04
  0.667527542114E+02  0.491019668579E+02  0.101965606213E+00
  0.983159384119E+04  0.491019668579E+02  0.182754230339E+04
  0.680002975464E+02  0.490000000000E+02  0.000000000000E+00
  0.983165449232E+04  0.490000000000E+02  0.182721821694E+04
  0.190000000000E+02  0.000000000000E+00  0.000000000000E+00
  0.982999641538E+04  0.000000000000E+00  0.183607807271E+04
  0.209237651825E+02  0.192375373840E+01  0.000000000000E+00
  0.983006151194E+04  0.192375373840E+01  0.183573023233E+04
  0.244703655243E+02  0.547033166885E+01  0.000000000000E+00
  0.983018152216E+04  0.547033166885E+01  0.183508896342E+04
  0.303820724487E+02  0.113820018768E+02  0.000000000000E+00
  0.983038156308E+04  0.113820018768E+02  0.183402005418E+04
  0.387563171387E+02  0.197561950684E+02  0.000000000000E+00
  0.983066493161E+04  0.197561950684E+02  0.183250588787E+04
POLYGONS                  18                  72
3                  38                  39                  37
3                  38                  37                  36
3                  42                  43                  39
3                  42                  39                  38
3                  48                  49                  43
3                  48                  43                  42
3                  56                  57                  49
3                  56                  49                  48
3                  76                  77                  57
3                  76                  57                  56
3                  82                  83                  77
3                  82                  77                  76
3                  90                  91                  83
3                  90                  83                  82
3                  94                  95                  91
3                  94                  91                  90
3                 102                 103                  95
3                 102                  95                  94
CELL_DATA                  18
NORMALS normals float
  0.180915855364E+00 -0.180916931603E+00 -0.966715323732E+00
  0.180915855364E+00 -0.180916931603E+00 -0.966715323732E+00
  0.180915853171E+00 -0.180916996405E+00 -0.966715312015E+00
  0.180915853171E+00 -0.180916996405E+00 -0.966715312015E+00
  0.180915853812E+00 -0.180916977452E+00 -0.966715315441E+00
  0.180915853812E+00 -0.180916977452E+00 -0.966715315441E+00
  0.180915854174E+00 -0.180916966744E+00 -0.966715317378E+00
  0.180915854174E+00 -0.180916966744E+00 -0.966715317378E+00
  0.180915854877E+00 -0.180916945994E+00 -0.966715321130E+00
  0.180915854877E+00 -0.180916945994E+00 -0.966715321130E+00
  0.180915852826E+00 -0.180917006603E+00 -0.966715310170E+00
  0.180915852826E+00 -0.180917006603E+00 -0.966715310170E+00
  0.180915856200E+00 -0.180916906874E+00 -0.966715328203E+00
  0.180915856200E+00 -0.180916906874E+00 -0.966715328203E+00
  0.180915852375E+00 -0.180917019932E+00 -0.966715307760E+00
  0.180915852375E+00 -0.180917019932E+00 -0.966715307760E+00
  0.180915867106E+00 -0.180916584599E+00 -0.966715386474E+00
  0.180915867106E+00 -0.180916584599E+00 -0.966715386474E+00
POINT_DATA                 114
SCALARS mu float 1
LOOKUP_TABLE default
  0.000000000000E+00
  0.000000000000E+00
  0.000000000000E+00
  0.000000000000E+00
  0.000000000000E+00
  0.000000000000E+00
  0.000000000000E+00
  0.000000000000E+00
  0.000000000000E+00
  0.000000000000E+00
  0.000000000000E+00
  0.000000000000E+00
  0.000000000000E+00
  0.000000000000E+00
  0.000000000000E+00
  0.000000000000E+00
  0.000000000000E+00
  0.000000000000E+00
  0.000000000000E+00
  0.000000000000E+00
  0.000000000000E+00
  0.000000000000E+00
  0.000000000000E+00
  0.000000000000E+00
  0.000000000000E+00
  0.000000000000E+00
  0.000000000000E+00
  0.000000000000E+00
  0.000000000000E+00
  0.000000000000E+00
  0.000000000000E+00
  0.000000000000E+00
  0.000000000000E+00
  0.000000000000E+00
  0.000000000000E+00
  0.000000000000E+00
 -0.524738502354E+01
 -0.524738502354E+01
 -0.533587323159E+01
 -0.533587323159E+01
  0.000000000000E+00
  0.000000000000E+00
 -0.551589060224E+01
 -0.551589060224E+01
  0.000000000000E+00
  0.000000000000E+00
  0.000000000000E+00
  0.000000000000E+00
 -0.573914065863E+01
 -0.573914065863E+01
  0.000000000000E+00
  0.000000000000E+00
  0.000000000000E+00
  0.000000000000E+00
  0.000000000000E+00
  0.000000000000E+00
 -0.587395960725E+01
 -0.587395960725E+01
  0.000000000000E+00
  0.000000000000E+00
  0.000000000000E+00
  0.000000000000E+00
  0.000000000000E+00
  0.000000000000E+00
  0.000000000000E+00
  0.000000000000E+00
  0.000000000000E+00
  0.000000000000E+00
  0.000000000000E+00
  0.000000000000E+00
  0.000000000000E+00
  0.000000000000E+00
  0.000000000000E+00
  0.000000000000E+00
  0.000000000000E+00
  0.000000000000E+00
 -0.571680285583E+01
 -0.571680285583E+01
  0.000000000000E+00
  0.000000000000E+00
  0.000000000000E+00
  0.000000000000E+00
 -0.504983020596E+01
 -0.504983020596E+01
  0.000000000000E+00
  0.000000000000E+00
  0.000000000000E+00
  0.000000000000E+00
  0.000000000000E+00
  0.000000000000E+00
 -0.378887958136E+01
 -0.378887958136E+01
  0.000000000000E+00
  0.000000000000E+00
 -0.206240157475E+01
 -0.206240157475E+01
  0.000000000000E+00
  0.000000000000E+00
  0.000000000000E+00
  0.000000000000E+00
  0.000000000000E+00
  0.000000000000E+00
  0.000000000000E+00
  0.000000000000E+00
  0.524738502354E+01
  0.524738502354E+01
  0.533587323159E+01
  0.533587323159E+01
  0.551589060224E+01
  0.551589060224E+01
  0.573914065863E+01
  0.573914065863E+01
  0.587395960725E+01
  0.587395960725E+01
