# vtk DataFile Version 3.0
MachLine results file. Generated by MachLine, USU AeroLab (c) 2022.
ASCII
DATASET POLYDATA
POINTS                  36 float
  0.209237651825E+02  0.192375373840E+01  0.000000000000E+00
  0.190000000000E+02  0.000000000000E+00  0.000000000000E+00
  0.147346303853E+05  0.192375373840E+01  0.275359534850E+04
  0.147354946231E+05  0.000000000000E+00  0.275411710907E+04
  0.244703655243E+02  0.547033166885E+01  0.000000000000E+00
  0.209237651825E+02  0.192375373840E+01  0.000000000000E+00
  0.147330371005E+05  0.547033166885E+01  0.275263344513E+04
  0.147346303853E+05  0.192375373840E+01  0.275359534850E+04
  0.303820724487E+02  0.113820018768E+02  0.000000000000E+00
  0.244703655243E+02  0.547033166885E+01  0.000000000000E+00
  0.147303813084E+05  0.113820018768E+02  0.275103008128E+04
  0.147330371005E+05  0.547033166885E+01  0.275263344513E+04
  0.387563171387E+02  0.197561950684E+02  0.000000000000E+00
  0.303820724487E+02  0.113820018768E+02  0.000000000000E+00
  0.147266192388E+05  0.197561950684E+02  0.274875883180E+04
  0.147303813084E+05  0.113820018768E+02  0.275103008128E+04
  0.482439842224E+02  0.292438049316E+02  0.000000000000E+00
  0.387563171387E+02  0.197561950684E+02  0.000000000000E+00
  0.147223569722E+05  0.292438049316E+02  0.274618560165E+04
  0.147266192388E+05  0.197561950684E+02  0.274875883180E+04
  0.566182289124E+02  0.376179962158E+02  0.000000000000E+00
  0.482439842224E+02  0.292438049316E+02  0.000000000000E+00
  0.147185949027E+05  0.376179962158E+02  0.274391435217E+04
  0.147223569722E+05  0.292438049316E+02  0.274618560165E+04
  0.625299339294E+02  0.435296669006E+02  0.000000000000E+00
  0.566182289124E+02  0.376179962158E+02  0.000000000000E+00
  0.147159391115E+05  0.435296669006E+02  0.274231098883E+04
  0.147185949027E+05  0.376179962158E+02  0.274391435217E+04
  0.660765380859E+02  0.470762481689E+02  0.000000000000E+00
  0.625299339294E+02  0.435296669006E+02  0.000000000000E+00
  0.147143458249E+05  0.470762481689E+02  0.274134908443E+04
  0.147159391115E+05  0.435296669006E+02  0.274231098883E+04
  0.680002975464E+02  0.490000000000E+02  0.000000000000E+00
  0.660765380859E+02  0.470762481689E+02  0.000000000000E+00
  0.147134815897E+05  0.490000000000E+02  0.274082732542E+04
  0.147143458249E+05  0.470762481689E+02  0.274134908443E+04
POLYGONS                  18                  72
3                   0                   3                   1
3                   0                   2                   3
3                   4                   7                   5
3                   4                   6                   7
3                   8                  11                   9
3                   8                  10                  11
3                  12                  15                  13
3                  12                  14                  15
3                  16                  19                  17
3                  16                  18                  19
3                  20                  23                  21
3                  20                  22                  23
3                  24                  27                  25
3                  24                  26                  27
3                  28                  31                  29
3                  28                  30                  31
3                  32                  35                  33
3                  32                  34                  35
POINT_DATA                  36
SCALARS mu float 1
LOOKUP_TABLE default
  0.425914762074E+01
 -0.185365822646E+00
  0.425914762074E+01
 -0.185365822646E+00
 -0.919444604472E+00
  0.425914762074E+01
 -0.919444604472E+00
  0.425914762074E+01
  0.804845947753E+00
 -0.919444604472E+00
  0.804845947753E+00
 -0.919444604472E+00
  0.589158148436E+00
  0.804845947753E+00
  0.589158148436E+00
  0.804845947753E+00
  0.701918039531E+00
  0.589158148436E+00
  0.701918039531E+00
  0.589158148436E+00
  0.270416001005E+00
  0.701918039531E+00
  0.270416001005E+00
  0.701918039531E+00
  0.113237361644E+01
  0.270416001005E+00
  0.113237361644E+01
  0.270416001005E+00
 -0.289844367094E+01
  0.113237361644E+01
 -0.289844367094E+01
  0.113237361644E+01
  0.000000000000E+00
 -0.289844367094E+01
  0.000000000000E+00
 -0.289844367094E+01
