# vtk DataFile Version 3.0
MachLine results file. Generated by MachLine, USU AeroLab (c) 2022.
ASCII
DATASET POLYDATA
POINTS                 156 float
  0.193396415710E+02  0.339639574289E+00  0.000000000000E+00
  0.190000000000E+02  0.000000000000E+00  0.000000000000E+00
  0.147353420415E+05  0.339639574289E+00  0.275402499201E+04
  0.147354946231E+05  0.000000000000E+00  0.275411710907E+04
  0.197353687286E+02  0.735364913940E+00  0.000000000000E+00
  0.193396415710E+02  0.339639574289E+00  0.000000000000E+00
  0.147351642639E+05  0.735364913940E+00  0.275391766352E+04
  0.147353420415E+05  0.339639574289E+00  0.275402499201E+04
  0.201952877045E+02  0.119528055191E+01  0.000000000000E+00
  0.197353687286E+02  0.735364913940E+00  0.000000000000E+00
  0.147349576486E+05  0.119528055191E+01  0.275379292502E+04
  0.147351642639E+05  0.735364913940E+00  0.275391766352E+04
  0.207282505035E+02  0.172824025154E+01  0.000000000000E+00
  0.201952877045E+02  0.119528055191E+01  0.000000000000E+00
  0.147347182189E+05  0.172824025154E+01  0.275364837568E+04
  0.147349576486E+05  0.119528055191E+01  0.275379292502E+04
  0.213437728882E+02  0.234375929832E+01  0.000000000000E+00
  0.207282505035E+02  0.172824025154E+01  0.000000000000E+00
  0.147344416999E+05  0.234375929832E+01  0.275348143467E+04
  0.147347182189E+05  0.172824025154E+01  0.275364837568E+04
  0.220518741608E+02  0.305185556412E+01  0.000000000000E+00
  0.213437728882E+02  0.234375929832E+01  0.000000000000E+00
  0.147341235904E+05  0.305185556412E+01  0.275328938456E+04
  0.147344416999E+05  0.234375929832E+01  0.275348143467E+04
  0.228628253937E+02  0.386280250549E+01  0.000000000000E+00
  0.220518741608E+02  0.305185556412E+01  0.000000000000E+00
  0.147337592764E+05  0.386280250549E+01  0.275306943964E+04
  0.147341235904E+05  0.305185556412E+01  0.275328938456E+04
  0.237868041992E+02  0.478677463531E+01  0.000000000000E+00
  0.228628253937E+02  0.386280250549E+01  0.000000000000E+00
  0.147333441855E+05  0.478677463531E+01  0.275281883956E+04
  0.147337592764E+05  0.386280250549E+01  0.275306943964E+04
  0.248334121704E+02  0.583337688446E+01  0.000000000000E+00
  0.237868041992E+02  0.478677463531E+01  0.000000000000E+00
  0.147328740044E+05  0.583337688446E+01  0.275253498019E+04
  0.147333441855E+05  0.478677463531E+01  0.275281883956E+04
  0.260110912323E+02  0.701104879379E+01  0.000000000000E+00
  0.248334121704E+02  0.583337688446E+01  0.000000000000E+00
  0.147323449405E+05  0.701104879379E+01  0.275221557193E+04
  0.147328740044E+05  0.583337688446E+01  0.275253498019E+04
  0.273264064789E+02  0.832635498047E+01  0.000000000000E+00
  0.260110912323E+02  0.701104879379E+01  0.000000000000E+00
  0.147317540445E+05  0.832635498047E+01  0.275185883419E+04
  0.147323449405E+05  0.701104879379E+01  0.275221557193E+04
  0.287832584381E+02  0.978319931030E+01  0.000000000000E+00
  0.273264064789E+02  0.832635498047E+01  0.000000000000E+00
  0.147310995642E+05  0.978319931030E+01  0.275146370910E+04
  0.147317540445E+05  0.832635498047E+01  0.275185883419E+04
  0.303820724487E+02  0.113820018768E+02  0.000000000000E+00
  0.287832584381E+02  0.978319931030E+01  0.000000000000E+00
  0.147303813084E+05  0.113820018768E+02  0.275103008128E+04
  0.147310995642E+05  0.978319931030E+01  0.275146370910E+04
  0.321190223694E+02  0.131189413071E+02  0.000000000000E+00
  0.303820724487E+02  0.113820018768E+02  0.000000000000E+00
  0.147296009961E+05  0.131189413071E+02  0.275055898845E+04
  0.147303813084E+05  0.113820018768E+02  0.275103008128E+04
  0.339854316711E+02  0.149853391647E+02  0.000000000000E+00
  0.321190223694E+02  0.131189413071E+02  0.000000000000E+00
  0.147287625250E+05  0.149853391647E+02  0.275005278385E+04
  0.147296009961E+05  0.131189413071E+02  0.275055898845E+04
  0.359674301147E+02  0.169673271179E+02  0.000000000000E+00
  0.339854316711E+02  0.149853391647E+02  0.000000000000E+00
  0.147278721264E+05  0.169673271179E+02  0.274951522935E+04
  0.147287625250E+05  0.149853391647E+02  0.275005278385E+04
  0.380459861755E+02  0.190458717346E+02  0.000000000000E+00
  0.359674301147E+02  0.169673271179E+02  0.000000000000E+00
  0.147269383499E+05  0.190458717346E+02  0.274895148665E+04
  0.147278721264E+05  0.169673271179E+02  0.274951522935E+04
  0.401973724365E+02  0.211972446442E+02  0.000000000000E+00
  0.380459861755E+02  0.190458717346E+02  0.000000000000E+00
  0.147259718551E+05  0.211972446442E+02  0.274836799105E+04
  0.147269383499E+05  0.190458717346E+02  0.274895148665E+04
  0.423940925598E+02  0.233939495087E+02  0.000000000000E+00
  0.401973724365E+02  0.211972446442E+02  0.000000000000E+00
  0.147249849942E+05  0.233939495087E+02  0.274777220007E+04
  0.147259718551E+05  0.211972446442E+02  0.274836799105E+04
  0.446062088013E+02  0.256060504913E+02  0.000000000000E+00
  0.423940925598E+02  0.233939495087E+02  0.000000000000E+00
  0.147239912168E+05  0.256060504913E+02  0.274717223338E+04
  0.147249849942E+05  0.233939495087E+02  0.274777220007E+04
  0.468029289246E+02  0.278027553558E+02  0.000000000000E+00
  0.446062088013E+02  0.256060504913E+02  0.000000000000E+00
  0.147230043560E+05  0.278027553558E+02  0.274657644240E+04
  0.147239912168E+05  0.256060504913E+02  0.274717223338E+04
  0.489543113708E+02  0.299541282654E+02  0.000000000000E+00
  0.468029289246E+02  0.278027553558E+02  0.000000000000E+00
  0.147220378628E+05  0.299541282654E+02  0.274599294784E+04
  0.147230043560E+05  0.278027553558E+02  0.274657644240E+04
  0.510328712463E+02  0.320326728821E+02  0.000000000000E+00
  0.489543113708E+02  0.299541282654E+02  0.000000000000E+00
  0.147211040847E+05  0.320326728821E+02  0.274542920410E+04
  0.147220378628E+05  0.299541282654E+02  0.274599294784E+04
  0.530148696899E+02  0.340146598816E+02  0.000000000000E+00
  0.510328712463E+02  0.320326728821E+02  0.000000000000E+00
  0.147202136860E+05  0.340146598816E+02  0.274489164960E+04
  0.147211040847E+05  0.320326728821E+02  0.274542920410E+04
  0.548812789917E+02  0.358810577393E+02  0.000000000000E+00
  0.530148696899E+02  0.340146598816E+02  0.000000000000E+00
  0.147193752150E+05  0.358810577393E+02  0.274438544500E+04
  0.147202136860E+05  0.340146598816E+02  0.274489164960E+04
  0.566182289124E+02  0.376179962158E+02  0.000000000000E+00
  0.548812789917E+02  0.358810577393E+02  0.000000000000E+00
  0.147185949027E+05  0.376179962158E+02  0.274391435217E+04
  0.147193752150E+05  0.358810577393E+02  0.274438544500E+04
  0.582170410156E+02  0.392168006897E+02  0.000000000000E+00
  0.566182289124E+02  0.376179962158E+02  0.000000000000E+00
  0.147178766478E+05  0.392168006897E+02  0.274348072487E+04
  0.147185949027E+05  0.376179962158E+02  0.274391435217E+04
  0.596738929749E+02  0.406736450195E+02  0.000000000000E+00
  0.582170410156E+02  0.392168006897E+02  0.000000000000E+00
  0.147172221674E+05  0.406736450195E+02  0.274308559977E+04
  0.147178766478E+05  0.392168006897E+02  0.274348072487E+04
  0.609892082214E+02  0.419889526367E+02  0.000000000000E+00
  0.596738929749E+02  0.406736450195E+02  0.000000000000E+00
  0.147166312715E+05  0.419889526367E+02  0.274272886204E+04
  0.147172221674E+05  0.406736450195E+02  0.274308559977E+04
  0.621668891907E+02  0.431666221619E+02  0.000000000000E+00
  0.609892082214E+02  0.419889526367E+02  0.000000000000E+00
  0.147161022067E+05  0.431666221619E+02  0.274240945326E+04
  0.147166312715E+05  0.419889526367E+02  0.274272886204E+04
  0.632134971619E+02  0.442132263184E+02  0.000000000000E+00
  0.621668891907E+02  0.431666221619E+02  0.000000000000E+00
  0.147156320256E+05  0.442132263184E+02  0.274212559389E+04
  0.147161022067E+05  0.431666221619E+02  0.274240945326E+04
  0.641374740601E+02  0.451371994019E+02  0.000000000000E+00
  0.632134971619E+02  0.442132263184E+02  0.000000000000E+00
  0.147152169355E+05  0.451371994019E+02  0.274187499433E+04
  0.147156320256E+05  0.442132263184E+02  0.274212559389E+04
  0.649484252930E+02  0.459481430054E+02  0.000000000000E+00
  0.641374740601E+02  0.451371994019E+02  0.000000000000E+00
  0.147148526215E+05  0.459481430054E+02  0.274165504941E+04
  0.147152169355E+05  0.451371994019E+02  0.274187499433E+04
  0.656565246582E+02  0.466562423706E+02  0.000000000000E+00
  0.649484252930E+02  0.459481430054E+02  0.000000000000E+00
  0.147145345129E+05  0.466562423706E+02  0.274146299981E+04
  0.147148526215E+05  0.459481430054E+02  0.274165504941E+04
  0.662720489502E+02  0.472717590332E+02  0.000000000000E+00
  0.656565246582E+02  0.466562423706E+02  0.000000000000E+00
  0.147142579930E+05  0.472717590332E+02  0.274129605828E+04
  0.147145345129E+05  0.466562423706E+02  0.274146299981E+04
  0.668050155640E+02  0.478047180176E+02  0.000000000000E+00
  0.662720489502E+02  0.472717590332E+02  0.000000000000E+00
  0.147140185616E+05  0.478047180176E+02  0.274115150792E+04
  0.147142579930E+05  0.472717590332E+02  0.274129605828E+04
  0.672649307251E+02  0.482646369934E+02  0.000000000000E+00
  0.668050155640E+02  0.478047180176E+02  0.000000000000E+00
  0.147138119480E+05  0.482646369934E+02  0.274102677045E+04
  0.147140185616E+05  0.478047180176E+02  0.274115150792E+04
  0.676606597900E+02  0.486603622437E+02  0.000000000000E+00
  0.672649307251E+02  0.482646369934E+02  0.000000000000E+00
  0.147136341695E+05  0.486603622437E+02  0.274091944143E+04
  0.147138119480E+05  0.482646369934E+02  0.274102677045E+04
  0.680002975464E+02  0.490000000000E+02  0.000000000000E+00
  0.676606597900E+02  0.486603622437E+02  0.000000000000E+00
  0.147134815897E+05  0.490000000000E+02  0.274082732542E+04
  0.147136341695E+05  0.486603622437E+02  0.274091944143E+04
POLYGONS                  78                 312
3                   0                   3                   1
3                   0                   2                   3
3                   4                   7                   5
3                   4                   6                   7
3                   8                  11                   9
3                   8                  10                  11
3                  12                  15                  13
3                  12                  14                  15
3                  16                  19                  17
3                  16                  18                  19
3                  20                  23                  21
3                  20                  22                  23
3                  24                  27                  25
3                  24                  26                  27
3                  28                  31                  29
3                  28                  30                  31
3                  32                  35                  33
3                  32                  34                  35
3                  36                  39                  37
3                  36                  38                  39
3                  40                  43                  41
3                  40                  42                  43
3                  44                  47                  45
3                  44                  46                  47
3                  48                  51                  49
3                  48                  50                  51
3                  52                  55                  53
3                  52                  54                  55
3                  56                  59                  57
3                  56                  58                  59
3                  60                  63                  61
3                  60                  62                  63
3                  64                  67                  65
3                  64                  66                  67
3                  68                  71                  69
3                  68                  70                  71
3                  72                  75                  73
3                  72                  74                  75
3                  76                  79                  77
3                  76                  78                  79
3                  80                  83                  81
3                  80                  82                  83
3                  84                  87                  85
3                  84                  86                  87
3                  88                  91                  89
3                  88                  90                  91
3                  92                  95                  93
3                  92                  94                  95
3                  96                  99                  97
3                  96                  98                  99
3                 100                 103                 101
3                 100                 102                 103
3                 104                 107                 105
3                 104                 106                 107
3                 108                 111                 109
3                 108                 110                 111
3                 112                 115                 113
3                 112                 114                 115
3                 116                 119                 117
3                 116                 118                 119
3                 120                 123                 121
3                 120                 122                 123
3                 124                 127                 125
3                 124                 126                 127
3                 128                 131                 129
3                 128                 130                 131
3                 132                 135                 133
3                 132                 134                 135
3                 136                 139                 137
3                 136                 138                 139
3                 140                 143                 141
3                 140                 142                 143
3                 144                 147                 145
3                 144                 146                 147
3                 148                 151                 149
3                 148                 150                 151
3                 152                 155                 153
3                 152                 154                 155
POINT_DATA                 156
SCALARS mu float 1
LOOKUP_TABLE default
 -0.172513922471E+01
  0.112481084379E-03
 -0.172513922471E+01
  0.112481084379E-03
 -0.260744098646E+01
 -0.172513922471E+01
 -0.260744098646E+01
 -0.172513922471E+01
 -0.317791832015E+01
 -0.260744098646E+01
 -0.317791832015E+01
 -0.260744098646E+01
 -0.359793452772E+01
 -0.317791832015E+01
 -0.359793452772E+01
 -0.317791832015E+01
 -0.393579037916E+01
 -0.359793452772E+01
 -0.393579037916E+01
 -0.359793452772E+01
 -0.422376430056E+01
 -0.393579037916E+01
 -0.422376430056E+01
 -0.393579037916E+01
 -0.447983344829E+01
 -0.422376430056E+01
 -0.447983344829E+01
 -0.422376430056E+01
 -0.471420193720E+01
 -0.447983344829E+01
 -0.471420193720E+01
 -0.447983344829E+01
 -0.492999291049E+01
 -0.471420193720E+01
 -0.492999291049E+01
 -0.471420193720E+01
 -0.513273563863E+01
 -0.492999291049E+01
 -0.513273563863E+01
 -0.492999291049E+01
 -0.532330098274E+01
 -0.513273563863E+01
 -0.532330098274E+01
 -0.513273563863E+01
 -0.550230968958E+01
 -0.532330098274E+01
 -0.550230968958E+01
 -0.532330098274E+01
 -0.566952285203E+01
 -0.550230968958E+01
 -0.566952285203E+01
 -0.550230968958E+01
 -0.582330462501E+01
 -0.566952285203E+01
 -0.582330462501E+01
 -0.566952285203E+01
 -0.596392942372E+01
 -0.582330462501E+01
 -0.596392942372E+01
 -0.582330462501E+01
 -0.609057219212E+01
 -0.596392942372E+01
 -0.609057219212E+01
 -0.596392942372E+01
 -0.620046113057E+01
 -0.609057219212E+01
 -0.620046113057E+01
 -0.609057219212E+01
 -0.629192793066E+01
 -0.620046113057E+01
 -0.629192793066E+01
 -0.620046113057E+01
 -0.636314073535E+01
 -0.629192793066E+01
 -0.636314073535E+01
 -0.629192793066E+01
 -0.641244997974E+01
 -0.636314073535E+01
 -0.641244997974E+01
 -0.636314073535E+01
 -0.643673211424E+01
 -0.641244997974E+01
 -0.643673211424E+01
 -0.641244997974E+01
 -0.643419673703E+01
 -0.643673211424E+01
 -0.643419673703E+01
 -0.643673211424E+01
 -0.640326533764E+01
 -0.643419673703E+01
 -0.640326533764E+01
 -0.643419673703E+01
 -0.633967835714E+01
 -0.640326533764E+01
 -0.633967835714E+01
 -0.640326533764E+01
 -0.623901290018E+01
 -0.633967835714E+01
 -0.623901290018E+01
 -0.633967835714E+01
 -0.610182077455E+01
 -0.623901290018E+01
 -0.610182077455E+01
 -0.623901290018E+01
 -0.592474231674E+01
 -0.610182077455E+01
 -0.592474231674E+01
 -0.610182077455E+01
 -0.571067842702E+01
 -0.592474231674E+01
 -0.571067842702E+01
 -0.592474231674E+01
 -0.545713535819E+01
 -0.571067842702E+01
 -0.545713535819E+01
 -0.571067842702E+01
 -0.516838724163E+01
 -0.545713535819E+01
 -0.516838724163E+01
 -0.545713535819E+01
 -0.484702767904E+01
 -0.516838724163E+01
 -0.484702767904E+01
 -0.516838724163E+01
 -0.449314159389E+01
 -0.484702767904E+01
 -0.449314159389E+01
 -0.484702767904E+01
 -0.410965404765E+01
 -0.449314159389E+01
 -0.410965404765E+01
 -0.449314159389E+01
 -0.369057818468E+01
 -0.410965404765E+01
 -0.369057818468E+01
 -0.410965404765E+01
 -0.323056019192E+01
 -0.369057818468E+01
 -0.323056019192E+01
 -0.369057818468E+01
 -0.271218973557E+01
 -0.323056019192E+01
 -0.271218973557E+01
 -0.323056019192E+01
 -0.209649383643E+01
 -0.271218973557E+01
 -0.209649383643E+01
 -0.271218973557E+01
 -0.127749615830E+01
 -0.209649383643E+01
 -0.127749615830E+01
 -0.209649383643E+01
  0.000000000000E+00
 -0.127749615830E+01
  0.000000000000E+00
 -0.127749615830E+01
