# vtk DataFile Version 3.0
MachLine results file. Generated by MachLine, USU AeroLab (c) 2023.
ASCII
DATASET POLYDATA
POINTS                 120 float
 -0.312500000000E+00  0.000000000000E+00  0.118908000000E-01
 -0.312500000000E+00  0.342382000000E-02  0.118908000000E-01
 -0.295633295138E+02  0.000000000000E+00 -0.409904519560E+01
 -0.295633295138E+02  0.342382000000E-02 -0.409904519560E+01
 -0.312500000000E+00  0.342382000000E-02  0.118908000000E-01
 -0.312500000000E+00  0.136577000000E-01  0.118908000000E-01
 -0.295633295138E+02  0.342382000000E-02 -0.409904519560E+01
 -0.295633295138E+02  0.136577000000E-01 -0.409904519560E+01
 -0.312500000000E+00  0.136577000000E-01  0.118908000000E-01
 -0.312500000000E+00  0.305897000000E-01  0.118908000000E-01
 -0.295633295138E+02  0.136577000000E-01 -0.409904519560E+01
 -0.295633295138E+02  0.305897000000E-01 -0.409904519560E+01
 -0.312500000000E+00  0.305897000000E-01  0.118908000000E-01
 -0.312500000000E+00  0.540341000000E-01  0.118908000000E-01
 -0.295633295138E+02  0.305897000000E-01 -0.409904519560E+01
 -0.295633295138E+02  0.540341000000E-01 -0.409904519560E+01
 -0.312500000000E+00  0.540341000000E-01  0.118908000000E-01
 -0.312500000000E+00  0.837341000000E-01  0.118908000000E-01
 -0.295633295138E+02  0.540341000000E-01 -0.409904519560E+01
 -0.295633295138E+02  0.837341000000E-01 -0.409904519560E+01
 -0.312500000000E+00  0.837341000000E-01  0.118908000000E-01
 -0.312500000000E+00  0.119364000000E+00  0.118908000000E-01
 -0.295633295138E+02  0.837341000000E-01 -0.409904519560E+01
 -0.295633295138E+02  0.119364000000E+00 -0.409904519560E+01
 -0.312500000000E+00  0.119364000000E+00  0.118908000000E-01
 -0.312500000000E+00  0.160534000000E+00  0.118908000000E-01
 -0.295633295138E+02  0.119364000000E+00 -0.409904519560E+01
 -0.295633295138E+02  0.160534000000E+00 -0.409904519560E+01
 -0.312500000000E+00  0.160534000000E+00  0.118908000000E-01
 -0.312500000000E+00  0.206793000000E+00  0.118908000000E-01
 -0.295633295138E+02  0.160534000000E+00 -0.409904519560E+01
 -0.295633295138E+02  0.206793000000E+00 -0.409904519560E+01
 -0.312500000000E+00  0.206793000000E+00  0.118908000000E-01
 -0.312500000000E+00  0.257634000000E+00  0.118908000000E-01
 -0.295633295138E+02  0.206793000000E+00 -0.409904519560E+01
 -0.295633295138E+02  0.257634000000E+00 -0.409904519560E+01
 -0.312500000000E+00  0.257634000000E+00  0.118908000000E-01
 -0.312500000000E+00  0.312500000000E+00  0.118908000000E-01
 -0.295633295138E+02  0.257634000000E+00 -0.409904519560E+01
 -0.295633295138E+02  0.312500000000E+00 -0.409904519560E+01
 -0.312500000000E+00  0.312500000000E+00  0.118908000000E-01
 -0.312500000000E+00  0.370790000000E+00  0.118908000000E-01
 -0.295633295138E+02  0.312500000000E+00 -0.409904519560E+01
 -0.295633295138E+02  0.370790000000E+00 -0.409904519560E+01
 -0.312500000000E+00  0.370790000000E+00  0.118908000000E-01
 -0.312500000000E+00  0.431864000000E+00  0.118908000000E-01
 -0.295633295138E+02  0.370790000000E+00 -0.409904519560E+01
 -0.295633295138E+02  0.431864000000E+00 -0.409904519560E+01
 -0.312500000000E+00  0.431864000000E+00  0.118908000000E-01
 -0.312500000000E+00  0.495055000000E+00  0.118908000000E-01
 -0.295633295138E+02  0.431864000000E+00 -0.409904519560E+01
 -0.295633295138E+02  0.495055000000E+00 -0.409904519560E+01
 -0.312500000000E+00  0.495055000000E+00  0.118908000000E-01
 -0.312500000000E+00  0.559670000000E+00  0.118908000000E-01
 -0.295633295138E+02  0.495055000000E+00 -0.409904519560E+01
 -0.295633295138E+02  0.559670000000E+00 -0.409904519560E+01
 -0.312500000000E+00  0.559670000000E+00  0.118908000000E-01
 -0.312500000000E+00  0.625000000000E+00  0.118908000000E-01
 -0.295633295138E+02  0.559670000000E+00 -0.409904519560E+01
 -0.295633295138E+02  0.625000000000E+00 -0.409904519560E+01
 -0.312500000000E+00  0.625000000000E+00  0.118908000000E-01
 -0.312500000000E+00  0.690330000000E+00  0.118908000000E-01
 -0.295633295138E+02  0.625000000000E+00 -0.409904519560E+01
 -0.295633295138E+02  0.690330000000E+00 -0.409904519560E+01
 -0.312500000000E+00  0.690330000000E+00  0.118908000000E-01
 -0.312500000000E+00  0.754945000000E+00  0.118908000000E-01
 -0.295633295138E+02  0.690330000000E+00 -0.409904519560E+01
 -0.295633295138E+02  0.754945000000E+00 -0.409904519560E+01
 -0.312500000000E+00  0.754945000000E+00  0.118908000000E-01
 -0.312500000000E+00  0.818136000000E+00  0.118908000000E-01
 -0.295633295138E+02  0.754945000000E+00 -0.409904519560E+01
 -0.295633295138E+02  0.818136000000E+00 -0.409904519560E+01
 -0.312500000000E+00  0.818136000000E+00  0.118908000000E-01
 -0.312500000000E+00  0.879210000000E+00  0.118908000000E-01
 -0.295633295138E+02  0.818136000000E+00 -0.409904519560E+01
 -0.295633295138E+02  0.879210000000E+00 -0.409904519560E+01
 -0.312500000000E+00  0.879210000000E+00  0.118908000000E-01
 -0.312500000000E+00  0.937500000000E+00  0.118908000000E-01
 -0.295633295138E+02  0.879210000000E+00 -0.409904519560E+01
 -0.295633295138E+02  0.937500000000E+00 -0.409904519560E+01
 -0.312500000000E+00  0.937500000000E+00  0.118908000000E-01
 -0.312500000000E+00  0.992366000000E+00  0.118908000000E-01
 -0.295633295138E+02  0.937500000000E+00 -0.409904519560E+01
 -0.295633295138E+02  0.992366000000E+00 -0.409904519560E+01
 -0.312500000000E+00  0.992366000000E+00  0.118908000000E-01
 -0.312500000000E+00  0.104321000000E+01  0.118908000000E-01
 -0.295633295138E+02  0.992366000000E+00 -0.409904519560E+01
 -0.295633295138E+02  0.104321000000E+01 -0.409904519560E+01
 -0.312500000000E+00  0.104321000000E+01  0.118908000000E-01
 -0.312500000000E+00  0.108947000000E+01  0.118908000000E-01
 -0.295633295138E+02  0.104321000000E+01 -0.409904519560E+01
 -0.295633295138E+02  0.108947000000E+01 -0.409904519560E+01
 -0.312500000000E+00  0.108947000000E+01  0.118908000000E-01
 -0.312500000000E+00  0.113064000000E+01  0.118908000000E-01
 -0.295633295138E+02  0.108947000000E+01 -0.409904519560E+01
 -0.295633295138E+02  0.113064000000E+01 -0.409904519560E+01
 -0.312500000000E+00  0.113064000000E+01  0.118908000000E-01
 -0.312500000000E+00  0.116627000000E+01  0.118908000000E-01
 -0.295633295138E+02  0.113064000000E+01 -0.409904519560E+01
 -0.295633295138E+02  0.116627000000E+01 -0.409904519560E+01
 -0.312500000000E+00  0.116627000000E+01  0.118908000000E-01
 -0.312500000000E+00  0.119597000000E+01  0.118908000000E-01
 -0.295633295138E+02  0.116627000000E+01 -0.409904519560E+01
 -0.295633295138E+02  0.119597000000E+01 -0.409904519560E+01
 -0.312500000000E+00  0.119597000000E+01  0.118908000000E-01
 -0.312500000000E+00  0.121941000000E+01  0.118908000000E-01
 -0.295633295138E+02  0.119597000000E+01 -0.409904519560E+01
 -0.295633295138E+02  0.121941000000E+01 -0.409904519560E+01
 -0.312500000000E+00  0.121941000000E+01  0.118908000000E-01
 -0.312500000000E+00  0.123634000000E+01  0.118908000000E-01
 -0.295633295138E+02  0.121941000000E+01 -0.409904519560E+01
 -0.295633295138E+02  0.123634000000E+01 -0.409904519560E+01
 -0.312500000000E+00  0.123634000000E+01  0.118908000000E-01
 -0.312500000000E+00  0.124658000000E+01  0.118908000000E-01
 -0.295633295138E+02  0.123634000000E+01 -0.409904519560E+01
 -0.295633295138E+02  0.124658000000E+01 -0.409904519560E+01
 -0.312500000000E+00  0.124658000000E+01  0.118908000000E-01
 -0.312500000000E+00  0.125000000000E+01  0.118908000000E-01
 -0.295633295138E+02  0.124658000000E+01 -0.409904519560E+01
 -0.295633295138E+02  0.125000000000E+01 -0.409904519560E+01
POLYGONS                  60                 240
3                   0                   3                   1
3                   0                   2                   3
3                   4                   7                   5
3                   4                   6                   7
3                   8                  11                   9
3                   8                  10                  11
3                  12                  15                  13
3                  12                  14                  15
3                  16                  19                  17
3                  16                  18                  19
3                  20                  23                  21
3                  20                  22                  23
3                  24                  27                  25
3                  24                  26                  27
3                  28                  31                  29
3                  28                  30                  31
3                  32                  35                  33
3                  32                  34                  35
3                  36                  39                  37
3                  36                  38                  39
3                  40                  43                  41
3                  40                  42                  43
3                  44                  47                  45
3                  44                  46                  47
3                  48                  51                  49
3                  48                  50                  51
3                  52                  55                  53
3                  52                  54                  55
3                  56                  59                  57
3                  56                  58                  59
3                  60                  63                  61
3                  60                  62                  63
3                  64                  67                  65
3                  64                  66                  67
3                  68                  71                  69
3                  68                  70                  71
3                  72                  75                  73
3                  72                  74                  75
3                  76                  79                  77
3                  76                  78                  79
3                  80                  83                  81
3                  80                  82                  83
3                  84                  87                  85
3                  84                  86                  87
3                  88                  91                  89
3                  88                  90                  91
3                  92                  95                  93
3                  92                  94                  95
3                  96                  99                  97
3                  96                  98                  99
3                 100                 103                 101
3                 100                 102                 103
3                 104                 107                 105
3                 104                 106                 107
3                 108                 111                 109
3                 108                 110                 111
3                 112                 115                 113
3                 112                 114                 115
3                 116                 119                 117
3                 116                 118                 119
POINT_DATA                 120
SCALARS mu float 1
LOOKUP_TABLE default
  0.308552755220E+00
  0.308244059519E+00
  0.308552755220E+00
  0.308244059519E+00
  0.308244059519E+00
  0.308601217761E+00
  0.308244059519E+00
  0.308601217761E+00
  0.308601217761E+00
  0.308488055778E+00
  0.308601217761E+00
  0.308488055778E+00
  0.308488055778E+00
  0.307411075286E+00
  0.308488055778E+00
  0.307411075286E+00
  0.307411075286E+00
  0.308115540303E+00
  0.307411075286E+00
  0.308115540303E+00
  0.308115540303E+00
  0.307086610905E+00
  0.308115540303E+00
  0.307086610905E+00
  0.307086610905E+00
  0.305021039174E+00
  0.307086610905E+00
  0.305021039174E+00
  0.305021039174E+00
  0.306088515617E+00
  0.305021039174E+00
  0.306088515617E+00
  0.306088515617E+00
  0.302775527038E+00
  0.306088515617E+00
  0.302775527038E+00
  0.302775527038E+00
  0.299738695247E+00
  0.302775527038E+00
  0.299738695247E+00
  0.299738695247E+00
  0.300965988729E+00
  0.299738695247E+00
  0.300965988729E+00
  0.300965988729E+00
  0.293232159031E+00
  0.300965988729E+00
  0.293232159031E+00
  0.293232159031E+00
  0.290132783097E+00
  0.293232159031E+00
  0.290132783097E+00
  0.290132783097E+00
  0.290316338747E+00
  0.290132783097E+00
  0.290316338747E+00
  0.290316338747E+00
  0.275632707451E+00
  0.290316338747E+00
  0.275632707451E+00
  0.275632707451E+00
  0.274609295025E+00
  0.275632707451E+00
  0.274609295025E+00
  0.274609295025E+00
  0.270469676849E+00
  0.274609295025E+00
  0.270469676849E+00
  0.270469676849E+00
  0.247089445002E+00
  0.270469676849E+00
  0.247089445002E+00
  0.247089445002E+00
  0.250931546399E+00
  0.247089445002E+00
  0.250931546399E+00
  0.250931546399E+00
  0.236642658964E+00
  0.250931546399E+00
  0.236642658964E+00
  0.236642658964E+00
  0.205179151051E+00
  0.236642658964E+00
  0.205179151051E+00
  0.205179151051E+00
  0.215425674274E+00
  0.205179151051E+00
  0.215425674274E+00
  0.215425674274E+00
  0.184691728471E+00
  0.215425674274E+00
  0.184691728471E+00
  0.184691728471E+00
  0.147872085731E+00
  0.184691728471E+00
  0.147872085731E+00
  0.147872085731E+00
  0.163009382647E+00
  0.147872085731E+00
  0.163009382647E+00
  0.163009382647E+00
  0.116158621818E+00
  0.163009382647E+00
  0.116158621818E+00
  0.116158621818E+00
  0.722612466695E-01
  0.116158621818E+00
  0.722612466695E-01
  0.722612466695E-01
  0.879210686143E-01
  0.722612466695E-01
  0.879210686143E-01
  0.879210686143E-01
  0.538284350755E-01
  0.879210686143E-01
  0.538284350755E-01
  0.538284350755E-01
  0.000000000000E+00
  0.538284350755E-01
  0.000000000000E+00
