# vtk DataFile Version 3.0
MachLine results file. Generated by MachLine, USU AeroLab (c) 2022.
ASCII
DATASET POLYDATA
POINTS                  76 float
  0.197579002380E+02  0.757896304131E+00  0.000000000000E+00
  0.190000000000E+02  0.000000000000E+00  0.000000000000E+00
  0.148260064950E+05  0.757896304131E+00  0.221280867871E+04
  0.148263606077E+05  0.000000000000E+00  0.221297487015E+04
  0.207889842987E+02  0.178897356987E+01  0.000000000000E+00
  0.197579002380E+02  0.757896304131E+00  0.000000000000E+00
  0.148255247431E+05  0.178897356987E+01  0.221258258386E+04
  0.148260064950E+05  0.757896304131E+00  0.221280867871E+04
  0.221728172302E+02  0.317279767990E+01  0.000000000000E+00
  0.207889842987E+02  0.178897356987E+01  0.000000000000E+00
  0.148248781768E+05  0.317279767990E+01  0.221227913867E+04
  0.148255247431E+05  0.178897356987E+01  0.221258258386E+04
  0.239966468811E+02  0.499661636353E+01  0.000000000000E+00
  0.221728172302E+02  0.317279767990E+01  0.000000000000E+00
  0.148240260315E+05  0.499661636353E+01  0.221187921153E+04
  0.148248781768E+05  0.317279767990E+01  0.221227913867E+04
  0.263436698914E+02  0.734362459183E+01  0.000000000000E+00
  0.239966468811E+02  0.499661636353E+01  0.000000000000E+00
  0.148229294353E+05  0.734362459183E+01  0.221136455919E+04
  0.148240260315E+05  0.499661636353E+01  0.221187921153E+04
  0.292729015350E+02  0.102728376389E+02  0.000000000000E+00
  0.263436698914E+02  0.734362459183E+01  0.000000000000E+00
  0.148215608146E+05  0.102728376389E+02  0.221072224085E+04
  0.148229294353E+05  0.734362459183E+01  0.221136455919E+04
  0.327922058105E+02  0.137921218872E+02  0.000000000000E+00
  0.292729015350E+02  0.102728376389E+02  0.000000000000E+00
  0.148199164951E+05  0.137921218872E+02  0.220995053211E+04
  0.148215608146E+05  0.102728376389E+02  0.221072224085E+04
  0.368321151733E+02  0.178320064545E+02  0.000000000000E+00
  0.327922058105E+02  0.137921218872E+02  0.000000000000E+00
  0.148180289340E+05  0.178320064545E+02  0.220906466572E+04
  0.148199164951E+05  0.137921218872E+02  0.220995053211E+04
  0.412340698242E+02  0.222339305878E+02  0.000000000000E+00
  0.368321151733E+02  0.178320064545E+02  0.000000000000E+00
  0.148159722151E+05  0.222339305878E+02  0.220809941048E+04
  0.148180289340E+05  0.178320064545E+02  0.220906466572E+04
  0.457662315369E+02  0.267660694122E+02  0.000000000000E+00
  0.412340698242E+02  0.222339305878E+02  0.000000000000E+00
  0.148138546597E+05  0.267660694122E+02  0.220710560359E+04
  0.148159722151E+05  0.222339305878E+02  0.220809941048E+04
  0.501681861877E+02  0.311679935455E+02  0.000000000000E+00
  0.457662315369E+02  0.267660694122E+02  0.000000000000E+00
  0.148117979407E+05  0.311679935455E+02  0.220614034836E+04
  0.148138546597E+05  0.267660694122E+02  0.220710560359E+04
  0.542080955505E+02  0.352078781128E+02  0.000000000000E+00
  0.501681861877E+02  0.311679935455E+02  0.000000000000E+00
  0.148099103796E+05  0.352078781128E+02  0.220525448196E+04
  0.148117979407E+05  0.311679935455E+02  0.220614034836E+04
  0.577274017334E+02  0.387271614075E+02  0.000000000000E+00
  0.542080955505E+02  0.352078781128E+02  0.000000000000E+00
  0.148082660592E+05  0.387271614075E+02  0.220448277280E+04
  0.148099103796E+05  0.352078781128E+02  0.220525448196E+04
  0.606566314697E+02  0.416563758850E+02  0.000000000000E+00
  0.577274017334E+02  0.387271614075E+02  0.000000000000E+00
  0.148068974394E+05  0.416563758850E+02  0.220384045489E+04
  0.148082660592E+05  0.387271614075E+02  0.220448277280E+04
  0.630036544800E+02  0.440033836365E+02  0.000000000000E+00
  0.606566314697E+02  0.416563758850E+02  0.000000000000E+00
  0.148058008432E+05  0.440033836365E+02  0.220332580255E+04
  0.148068974394E+05  0.416563758850E+02  0.220384045489E+04
  0.648274841309E+02  0.458272018433E+02  0.000000000000E+00
  0.630036544800E+02  0.440033836365E+02  0.000000000000E+00
  0.148049486979E+05  0.458272018433E+02  0.220292587541E+04
  0.148058008432E+05  0.440033836365E+02  0.220332580255E+04
  0.662113189697E+02  0.472110252380E+02  0.000000000000E+00
  0.648274841309E+02  0.458272018433E+02  0.000000000000E+00
  0.148043021307E+05  0.472110252380E+02  0.220262242979E+04
  0.148049486979E+05  0.458272018433E+02  0.220292587541E+04
  0.672424011230E+02  0.482421035767E+02  0.000000000000E+00
  0.662113189697E+02  0.472110252380E+02  0.000000000000E+00
  0.148038203797E+05  0.482421035767E+02  0.220239633536E+04
  0.148043021307E+05  0.472110252380E+02  0.220262242979E+04
  0.680002975464E+02  0.490000000000E+02  0.000000000000E+00
  0.672424011230E+02  0.482421035767E+02  0.000000000000E+00
  0.148034662689E+05  0.490000000000E+02  0.220223014476E+04
  0.148038203797E+05  0.482421035767E+02  0.220239633536E+04
POLYGONS                  38                 152
3                   0                   3                   1
3                   0                   2                   3
3                   4                   7                   5
3                   4                   6                   7
3                   8                  11                   9
3                   8                  10                  11
3                  12                  15                  13
3                  12                  14                  15
3                  16                  19                  17
3                  16                  18                  19
3                  20                  23                  21
3                  20                  22                  23
3                  24                  27                  25
3                  24                  26                  27
3                  28                  31                  29
3                  28                  30                  31
3                  32                  35                  33
3                  32                  34                  35
3                  36                  39                  37
3                  36                  38                  39
3                  40                  43                  41
3                  40                  42                  43
3                  44                  47                  45
3                  44                  46                  47
3                  48                  51                  49
3                  48                  50                  51
3                  52                  55                  53
3                  52                  54                  55
3                  56                  59                  57
3                  56                  58                  59
3                  60                  63                  61
3                  60                  62                  63
3                  64                  67                  65
3                  64                  66                  67
3                  68                  71                  69
3                  68                  70                  71
3                  72                  75                  73
3                  72                  74                  75
POINT_DATA                  76
SCALARS mu float 1
LOOKUP_TABLE default
  0.706411597036E+01
 -0.330429971250E-01
  0.706411597036E+01
 -0.330429971250E-01
  0.277352502394E+02
  0.706411597036E+01
  0.277352502394E+02
  0.706411597036E+01
 -0.174343789664E+02
  0.277352502394E+02
 -0.174343789664E+02
  0.277352502394E+02
  0.417858988820E+01
 -0.174343789664E+02
  0.417858988820E+01
 -0.174343789664E+02
 -0.841972603790E+00
  0.417858988820E+01
 -0.841972603790E+00
  0.417858988820E+01
  0.457058021086E+00
 -0.841972603790E+00
  0.457058021086E+00
 -0.841972603790E+00
  0.225394144680E+00
  0.457058021086E+00
  0.225394144680E+00
  0.457058021086E+00
  0.363998315594E+00
  0.225394144680E+00
  0.363998315594E+00
  0.225394144680E+00
  0.382191873612E+00
  0.363998315594E+00
  0.382191873612E+00
  0.363998315594E+00
  0.384941102800E+00
  0.382191873612E+00
  0.384941102800E+00
  0.382191873612E+00
  0.479957481907E+00
  0.384941102800E+00
  0.479957481907E+00
  0.384941102800E+00
  0.270286714021E+00
  0.479957481907E+00
  0.270286714021E+00
  0.479957481907E+00
  0.171036604567E+00
  0.270286714021E+00
  0.171036604567E+00
  0.270286714021E+00
  0.120064053557E+00
  0.171036604567E+00
  0.120064053557E+00
  0.171036604567E+00
  0.361809994606E+00
  0.120064053557E+00
  0.361809994606E+00
  0.120064053557E+00
  0.925060726842E+00
  0.361809994606E+00
  0.925060726842E+00
  0.361809994606E+00
  0.545591292619E+00
  0.925060726842E+00
  0.545591292619E+00
  0.925060726842E+00
  0.349848227616E+00
  0.545591292619E+00
  0.349848227616E+00
  0.545591292619E+00
  0.000000000000E+00
  0.349848227616E+00
  0.000000000000E+00
  0.349848227616E+00
