# vtk DataFile Version 3.0
MachLine results file. Generated by MachLine, USU AeroLab (c) 2022.
ASCII
DATASET POLYDATA
POINTS                 156 float
  0.193396415710E+02  0.339639574289E+00  0.000000000000E+00
  0.190000000000E+02  0.000000000000E+00  0.000000000000E+00
  0.148262019174E+05  0.339639574289E+00  0.221290039396E+04
  0.148263606077E+05  0.000000000000E+00  0.221297487015E+04
  0.197353687286E+02  0.735364913940E+00  0.000000000000E+00
  0.193396415710E+02  0.339639574289E+00  0.000000000000E+00
  0.148260170224E+05  0.735364913940E+00  0.221281361940E+04
  0.148262019174E+05  0.339639574289E+00  0.221290039396E+04
  0.201952877045E+02  0.119528055191E+01  0.000000000000E+00
  0.197353687286E+02  0.735364913940E+00  0.000000000000E+00
  0.148258021351E+05  0.119528055191E+01  0.221271276892E+04
  0.148260170224E+05  0.735364913940E+00  0.221281361940E+04
  0.207282505035E+02  0.172824025154E+01  0.000000000000E+00
  0.201952877045E+02  0.119528055191E+01  0.000000000000E+00
  0.148255531197E+05  0.172824025154E+01  0.221259590149E+04
  0.148258021351E+05  0.119528055191E+01  0.221271276892E+04
  0.213437728882E+02  0.234375929832E+01  0.000000000000E+00
  0.207282505035E+02  0.172824025154E+01  0.000000000000E+00
  0.148252655300E+05  0.234375929832E+01  0.221246093050E+04
  0.148255531197E+05  0.172824025154E+01  0.221259590149E+04
  0.220518741608E+02  0.305185556412E+01  0.000000000000E+00
  0.213437728882E+02  0.234375929832E+01  0.000000000000E+00
  0.148249346849E+05  0.305185556412E+01  0.221230565891E+04
  0.148252655300E+05  0.234375929832E+01  0.221246093050E+04
  0.228628253937E+02  0.386280250549E+01  0.000000000000E+00
  0.220518741608E+02  0.305185556412E+01  0.000000000000E+00
  0.148245557853E+05  0.386280250549E+01  0.221212783452E+04
  0.148249346849E+05  0.305185556412E+01  0.221230565891E+04
  0.237868041992E+02  0.478677463531E+01  0.000000000000E+00
  0.228628253937E+02  0.386280250549E+01  0.000000000000E+00
  0.148241240760E+05  0.478677463531E+01  0.221192522557E+04
  0.148245557853E+05  0.386280250549E+01  0.221212783452E+04
  0.248334121704E+02  0.583337688446E+01  0.000000000000E+00
  0.237868041992E+02  0.478677463531E+01  0.000000000000E+00
  0.148236350708E+05  0.583337688446E+01  0.221169572666E+04
  0.148241240760E+05  0.478677463531E+01  0.221192522557E+04
  0.260110912323E+02  0.701104879379E+01  0.000000000000E+00
  0.248334121704E+02  0.583337688446E+01  0.000000000000E+00
  0.148230848255E+05  0.701104879379E+01  0.221143748663E+04
  0.148236350708E+05  0.583337688446E+01  0.221169572666E+04
  0.273264064789E+02  0.832635498047E+01  0.000000000000E+00
  0.260110912323E+02  0.701104879379E+01  0.000000000000E+00
  0.148224702727E+05  0.832635498047E+01  0.221114906591E+04
  0.148230848255E+05  0.701104879379E+01  0.221143748663E+04
  0.287832584381E+02  0.978319931030E+01  0.000000000000E+00
  0.273264064789E+02  0.832635498047E+01  0.000000000000E+00
  0.148217895898E+05  0.978319931030E+01  0.221082960919E+04
  0.148224702727E+05  0.832635498047E+01  0.221114906591E+04
  0.303820724487E+02  0.113820018768E+02  0.000000000000E+00
  0.287832584381E+02  0.978319931030E+01  0.000000000000E+00
  0.148210425783E+05  0.113820018768E+02  0.221047902321E+04
  0.148217895898E+05  0.978319931030E+01  0.221082960919E+04
  0.321190223694E+02  0.131189413071E+02  0.000000000000E+00
  0.303820724487E+02  0.113820018768E+02  0.000000000000E+00
  0.148202310256E+05  0.131189413071E+02  0.221009814695E+04
  0.148210425783E+05  0.113820018768E+02  0.221047902321E+04
  0.339854316711E+02  0.149853391647E+02  0.000000000000E+00
  0.321190223694E+02  0.131189413071E+02  0.000000000000E+00
  0.148193589859E+05  0.149853391647E+02  0.220968888300E+04
  0.148202310256E+05  0.131189413071E+02  0.221009814695E+04
  0.359674301147E+02  0.169673271179E+02  0.000000000000E+00
  0.339854316711E+02  0.149853391647E+02  0.000000000000E+00
  0.148184329396E+05  0.169673271179E+02  0.220925427280E+04
  0.148193589859E+05  0.149853391647E+02  0.220968888300E+04
  0.380459861755E+02  0.190458717346E+02  0.000000000000E+00
  0.359674301147E+02  0.169673271179E+02  0.000000000000E+00
  0.148174617788E+05  0.190458717346E+02  0.220879848957E+04
  0.148184329396E+05  0.169673271179E+02  0.220925427280E+04
  0.401973724365E+02  0.211972446442E+02  0.000000000000E+00
  0.380459861755E+02  0.190458717346E+02  0.000000000000E+00
  0.148164565897E+05  0.211972446442E+02  0.220832673622E+04
  0.148174617788E+05  0.190458717346E+02  0.220879848957E+04
  0.423940925598E+02  0.233939495087E+02  0.000000000000E+00
  0.401973724365E+02  0.211972446442E+02  0.000000000000E+00
  0.148154302193E+05  0.233939495087E+02  0.220784504211E+04
  0.148164565897E+05  0.211972446442E+02  0.220832673622E+04
  0.446062088013E+02  0.256060504913E+02  0.000000000000E+00
  0.423940925598E+02  0.233939495087E+02  0.000000000000E+00
  0.148143966554E+05  0.256060504913E+02  0.220735997196E+04
  0.148154302193E+05  0.233939495087E+02  0.220784504211E+04
  0.468029289246E+02  0.278027553558E+02  0.000000000000E+00
  0.446062088013E+02  0.256060504913E+02  0.000000000000E+00
  0.148133702850E+05  0.278027553558E+02  0.220687827786E+04
  0.148143966554E+05  0.256060504913E+02  0.220735997196E+04
  0.489543113708E+02  0.299541282654E+02  0.000000000000E+00
  0.468029289246E+02  0.278027553558E+02  0.000000000000E+00
  0.148123650977E+05  0.299541282654E+02  0.220640652534E+04
  0.148133702850E+05  0.278027553558E+02  0.220687827786E+04
  0.510328712463E+02  0.320326728821E+02  0.000000000000E+00
  0.489543113708E+02  0.299541282654E+02  0.000000000000E+00
  0.148113939351E+05  0.320326728821E+02  0.220595074127E+04
  0.148123650977E+05  0.299541282654E+02  0.220640652534E+04
  0.530148696899E+02  0.340146598816E+02  0.000000000000E+00
  0.510328712463E+02  0.320326728821E+02  0.000000000000E+00
  0.148104678888E+05  0.340146598816E+02  0.220551613107E+04
  0.148113939351E+05  0.320326728821E+02  0.220595074127E+04
  0.548812789917E+02  0.358810577393E+02  0.000000000000E+00
  0.530148696899E+02  0.340146598816E+02  0.000000000000E+00
  0.148095958491E+05  0.358810577393E+02  0.220510686712E+04
  0.148104678888E+05  0.340146598816E+02  0.220551613107E+04
  0.566182289124E+02  0.376179962158E+02  0.000000000000E+00
  0.548812789917E+02  0.358810577393E+02  0.000000000000E+00
  0.148087842965E+05  0.376179962158E+02  0.220472599087E+04
  0.148095958491E+05  0.358810577393E+02  0.220510686712E+04
  0.582170410156E+02  0.392168006897E+02  0.000000000000E+00
  0.566182289124E+02  0.376179962158E+02  0.000000000000E+00
  0.148080372858E+05  0.392168006897E+02  0.220437540530E+04
  0.148087842965E+05  0.376179962158E+02  0.220472599087E+04
  0.596738929749E+02  0.406736450195E+02  0.000000000000E+00
  0.582170410156E+02  0.392168006897E+02  0.000000000000E+00
  0.148073566029E+05  0.406736450195E+02  0.220405594858E+04
  0.148080372858E+05  0.392168006897E+02  0.220437540530E+04
  0.609892082214E+02  0.419889526367E+02  0.000000000000E+00
  0.596738929749E+02  0.406736450195E+02  0.000000000000E+00
  0.148067420501E+05  0.419889526367E+02  0.220376752786E+04
  0.148073566029E+05  0.406736450195E+02  0.220405594858E+04
  0.621668891907E+02  0.431666221619E+02  0.000000000000E+00
  0.609892082214E+02  0.419889526367E+02  0.000000000000E+00
  0.148061918039E+05  0.431666221619E+02  0.220350928742E+04
  0.148067420501E+05  0.419889526367E+02  0.220376752786E+04
  0.632134971619E+02  0.442132263184E+02  0.000000000000E+00
  0.621668891907E+02  0.431666221619E+02  0.000000000000E+00
  0.148057027987E+05  0.442132263184E+02  0.220327978850E+04
  0.148061918039E+05  0.431666221619E+02  0.220350928742E+04
  0.641374740601E+02  0.451371994019E+02  0.000000000000E+00
  0.632134971619E+02  0.442132263184E+02  0.000000000000E+00
  0.148052710903E+05  0.451371994019E+02  0.220307717997E+04
  0.148057027987E+05  0.442132263184E+02  0.220327978850E+04
  0.649484252930E+02  0.459481430054E+02  0.000000000000E+00
  0.641374740601E+02  0.451371994019E+02  0.000000000000E+00
  0.148048921908E+05  0.459481430054E+02  0.220289935558E+04
  0.148052710903E+05  0.451371994019E+02  0.220307717997E+04
  0.656565246582E+02  0.466562423706E+02  0.000000000000E+00
  0.649484252930E+02  0.459481430054E+02  0.000000000000E+00
  0.148045613465E+05  0.466562423706E+02  0.220274408441E+04
  0.148048921908E+05  0.459481430054E+02  0.220289935558E+04
  0.662720489502E+02  0.472717590332E+02  0.000000000000E+00
  0.656565246582E+02  0.466562423706E+02  0.000000000000E+00
  0.148042737560E+05  0.472717590332E+02  0.220260911300E+04
  0.148045613465E+05  0.466562423706E+02  0.220274408441E+04
  0.668050155640E+02  0.478047180176E+02  0.000000000000E+00
  0.662720489502E+02  0.472717590332E+02  0.000000000000E+00
  0.148040247387E+05  0.478047180176E+02  0.220249224473E+04
  0.148042737560E+05  0.472717590332E+02  0.220260911300E+04
  0.672649307251E+02  0.482646369934E+02  0.000000000000E+00
  0.668050155640E+02  0.478047180176E+02  0.000000000000E+00
  0.148038098532E+05  0.482646369934E+02  0.220239139510E+04
  0.148040247387E+05  0.478047180176E+02  0.220249224473E+04
  0.676606597900E+02  0.486603622437E+02  0.000000000000E+00
  0.672649307251E+02  0.482646369934E+02  0.000000000000E+00
  0.148036249573E+05  0.486603622437E+02  0.220230462011E+04
  0.148038098532E+05  0.482646369934E+02  0.220239139510E+04
  0.680002975464E+02  0.490000000000E+02  0.000000000000E+00
  0.676606597900E+02  0.486603622437E+02  0.000000000000E+00
  0.148034662689E+05  0.490000000000E+02  0.220223014476E+04
  0.148036249573E+05  0.486603622437E+02  0.220230462011E+04
POLYGONS                  78                 312
3                   0                   3                   1
3                   0                   2                   3
3                   4                   7                   5
3                   4                   6                   7
3                   8                  11                   9
3                   8                  10                  11
3                  12                  15                  13
3                  12                  14                  15
3                  16                  19                  17
3                  16                  18                  19
3                  20                  23                  21
3                  20                  22                  23
3                  24                  27                  25
3                  24                  26                  27
3                  28                  31                  29
3                  28                  30                  31
3                  32                  35                  33
3                  32                  34                  35
3                  36                  39                  37
3                  36                  38                  39
3                  40                  43                  41
3                  40                  42                  43
3                  44                  47                  45
3                  44                  46                  47
3                  48                  51                  49
3                  48                  50                  51
3                  52                  55                  53
3                  52                  54                  55
3                  56                  59                  57
3                  56                  58                  59
3                  60                  63                  61
3                  60                  62                  63
3                  64                  67                  65
3                  64                  66                  67
3                  68                  71                  69
3                  68                  70                  71
3                  72                  75                  73
3                  72                  74                  75
3                  76                  79                  77
3                  76                  78                  79
3                  80                  83                  81
3                  80                  82                  83
3                  84                  87                  85
3                  84                  86                  87
3                  88                  91                  89
3                  88                  90                  91
3                  92                  95                  93
3                  92                  94                  95
3                  96                  99                  97
3                  96                  98                  99
3                 100                 103                 101
3                 100                 102                 103
3                 104                 107                 105
3                 104                 106                 107
3                 108                 111                 109
3                 108                 110                 111
3                 112                 115                 113
3                 112                 114                 115
3                 116                 119                 117
3                 116                 118                 119
3                 120                 123                 121
3                 120                 122                 123
3                 124                 127                 125
3                 124                 126                 127
3                 128                 131                 129
3                 128                 130                 131
3                 132                 135                 133
3                 132                 134                 135
3                 136                 139                 137
3                 136                 138                 139
3                 140                 143                 141
3                 140                 142                 143
3                 144                 147                 145
3                 144                 146                 147
3                 148                 151                 149
3                 148                 150                 151
3                 152                 155                 153
3                 152                 154                 155
POINT_DATA                 156
SCALARS mu float 1
LOOKUP_TABLE default
 -0.137062508735E+01
  0.899233086500E-04
 -0.137062508735E+01
  0.899233086500E-04
 -0.207481217339E+01
 -0.137062508735E+01
 -0.207481217339E+01
 -0.137062508735E+01
 -0.253048495950E+01
 -0.207481217339E+01
 -0.253048495950E+01
 -0.207481217339E+01
 -0.286768091885E+01
 -0.253048495950E+01
 -0.286768091885E+01
 -0.253048495950E+01
 -0.313979713639E+01
 -0.286768091885E+01
 -0.313979713639E+01
 -0.286768091885E+01
 -0.337148524239E+01
 -0.313979713639E+01
 -0.337148524239E+01
 -0.313979713639E+01
 -0.357721119920E+01
 -0.337148524239E+01
 -0.357721119920E+01
 -0.337148524239E+01
 -0.376510844404E+01
 -0.357721119920E+01
 -0.376510844404E+01
 -0.357721119920E+01
 -0.393883824010E+01
 -0.376510844404E+01
 -0.393883824010E+01
 -0.376510844404E+01
 -0.410204432448E+01
 -0.393883824010E+01
 -0.410204432448E+01
 -0.393883824010E+01
 -0.425639202030E+01
 -0.410204432448E+01
 -0.425639202030E+01
 -0.410204432448E+01
 -0.440130272654E+01
 -0.425639202030E+01
 -0.440130272654E+01
 -0.425639202030E+01
 -0.453581678365E+01
 -0.440130272654E+01
 -0.453581678365E+01
 -0.440130272654E+01
 -0.466026274836E+01
 -0.453581678365E+01
 -0.466026274836E+01
 -0.453581678365E+01
 -0.477427457270E+01
 -0.466026274836E+01
 -0.477427457270E+01
 -0.466026274836E+01
 -0.487669869963E+01
 -0.477427457270E+01
 -0.487669869963E+01
 -0.477427457270E+01
 -0.496552558868E+01
 -0.487669869963E+01
 -0.496552558868E+01
 -0.487669869963E+01
 -0.503979308187E+01
 -0.496552558868E+01
 -0.503979308187E+01
 -0.496552558868E+01
 -0.509824005640E+01
 -0.503979308187E+01
 -0.509824005640E+01
 -0.503979308187E+01
 -0.513900438334E+01
 -0.509824005640E+01
 -0.513900438334E+01
 -0.509824005640E+01
 -0.516008308091E+01
 -0.513900438334E+01
 -0.516008308091E+01
 -0.513900438334E+01
 -0.515934289001E+01
 -0.516008308091E+01
 -0.515934289001E+01
 -0.516008308091E+01
 -0.513535695974E+01
 -0.515934289001E+01
 -0.513535695974E+01
 -0.515934289001E+01
 -0.508607383153E+01
 -0.513535695974E+01
 -0.508607383153E+01
 -0.513535695974E+01
 -0.500719013642E+01
 -0.508607383153E+01
 -0.500719013642E+01
 -0.508607383153E+01
 -0.489897606232E+01
 -0.500719013642E+01
 -0.489897606232E+01
 -0.500719013642E+01
 -0.475932673075E+01
 -0.489897606232E+01
 -0.475932673075E+01
 -0.489897606232E+01
 -0.458869125762E+01
 -0.475932673075E+01
 -0.458869125762E+01
 -0.475932673075E+01
 -0.438612581188E+01
 -0.458869125762E+01
 -0.438612581188E+01
 -0.458869125762E+01
 -0.415573677964E+01
 -0.438612581188E+01
 -0.415573677964E+01
 -0.438612581188E+01
 -0.389950561156E+01
 -0.415573677964E+01
 -0.389950561156E+01
 -0.415573677964E+01
 -0.361674069367E+01
 -0.389950561156E+01
 -0.361674069367E+01
 -0.389950561156E+01
 -0.331006888337E+01
 -0.361674069367E+01
 -0.331006888337E+01
 -0.361674069367E+01
 -0.297517185331E+01
 -0.331006888337E+01
 -0.297517185331E+01
 -0.331006888337E+01
 -0.260686699178E+01
 -0.297517185331E+01
 -0.260686699178E+01
 -0.297517185331E+01
 -0.219109722285E+01
 -0.260686699178E+01
 -0.219109722285E+01
 -0.260686699178E+01
 -0.169651905424E+01
 -0.219109722285E+01
 -0.169651905424E+01
 -0.219109722285E+01
 -0.103710822608E+01
 -0.169651905424E+01
 -0.103710822608E+01
 -0.169651905424E+01
  0.000000000000E+00
 -0.103710822608E+01
  0.000000000000E+00
 -0.103710822608E+01
