# vtk DataFile Version 3.0
TriPan results file. Generated by TriPan, USU AeroLab (c) 2021.
ASCII
DATASET POLYDATA
POINTS                 144 float
  0.000000000000E+00  0.000000000000E+00  0.000000000000E+00
  0.113538098335E+01  0.000000000000E+00 -0.658124566078E+00
  0.113538098335E+01  0.000000000000E+00  0.658124566078E+00
  0.192375373840E+01  0.192375373840E+01  0.000000000000E+00
  0.305913543701E+01  0.192375373840E+01 -0.658124983311E+00
  0.305913543701E+01  0.192375373840E+01  0.658124983311E+00
  0.423028087616E+01  0.000000000000E+00 -0.108747220039E+01
  0.423028087616E+01  0.000000000000E+00  0.108747220039E+01
  0.547033166885E+01  0.547033166885E+01  0.000000000000E+00
  0.615403699875E+01  0.192375373840E+01 -0.108747279644E+01
  0.615403699875E+01  0.192375373840E+01  0.108747279644E+01
  0.660571479797E+01  0.547033166885E+01 -0.658125698566E+00
  0.660571479797E+01  0.547033166885E+01  0.658125698566E+00
  0.939508819580E+01  0.000000000000E+00 -0.980745851994E+00
  0.939508819580E+01  0.000000000000E+00  0.980745851994E+00
  0.970061969757E+01  0.547033166885E+01 -0.108747410774E+01
  0.970061969757E+01  0.547033166885E+01  0.108747410774E+01
  0.113188476562E+02  0.192375373840E+01 -0.980746448040E+00
  0.113188476562E+02  0.192375373840E+01  0.980746448040E+00
  0.113820018768E+02  0.113820018768E+02  0.000000000000E+00
  0.125173873901E+02  0.113820018768E+02 -0.658127009869E+00
  0.125173873901E+02  0.113820018768E+02  0.658127009869E+00
  0.145402030945E+02  0.000000000000E+00 -0.479613035917E+00
  0.145402030945E+02  0.000000000000E+00  0.479613035917E+00
  0.148654365540E+02  0.547033166885E+01 -0.980747580528E+00
  0.148654365540E+02  0.547033166885E+01  0.980747580528E+00
  0.156122989655E+02  0.113820018768E+02 -0.108747613430E+01
  0.156122989655E+02  0.113820018768E+02  0.108747613430E+01
  0.164639663696E+02  0.192375373840E+01 -0.479613333941E+00
  0.164639663696E+02  0.192375373840E+01  0.479613333941E+00
  0.176505107880E+02  0.000000000000E+00 -0.144198849797E+00
  0.176505107880E+02  0.000000000000E+00  0.144198849797E+00
  0.190000000000E+02  0.000000000000E+00  0.000000000000E+00
  0.195742740631E+02  0.192375373840E+01 -0.144198939204E+00
  0.195742740631E+02  0.192375373840E+01  0.144198939204E+00
  0.197561950684E+02  0.197561950684E+02  0.000000000000E+00
  0.200105609894E+02  0.547033166885E+01 -0.479613870382E+00
  0.200105609894E+02  0.547033166885E+01  0.479613870382E+00
  0.207771244049E+02  0.113820018768E+02 -0.980749428272E+00
  0.207771244049E+02  0.113820018768E+02  0.980749428272E+00
  0.208915824890E+02  0.197561950684E+02 -0.658128738403E+00
  0.208915824890E+02  0.197561950684E+02  0.658128738403E+00
  0.209237651825E+02  0.192375373840E+01  0.000000000000E+00
  0.231208724976E+02  0.547033166885E+01 -0.144199103117E+00
  0.231208724976E+02  0.547033166885E+01  0.144199103117E+00
  0.239865016937E+02  0.197561950684E+02 -0.108747911453E+01
  0.239865016937E+02  0.197561950684E+02  0.108747911453E+01
  0.244703655243E+02  0.547033166885E+01  0.000000000000E+00
  0.259222583771E+02  0.113820018768E+02 -0.479614794254E+00
  0.259222583771E+02  0.113820018768E+02  0.479614794254E+00
  0.290325775146E+02  0.113820018768E+02 -0.144199386239E+00
  0.290325775146E+02  0.113820018768E+02  0.144199386239E+00
  0.291513423920E+02  0.197561950684E+02 -0.980752110481E+00
  0.291513423920E+02  0.197561950684E+02  0.980752110481E+00
  0.292438049316E+02  0.292438049316E+02  0.000000000000E+00
  0.303791980743E+02  0.292438049316E+02 -0.658130764961E+00
  0.303791980743E+02  0.292438049316E+02  0.658130764961E+00
  0.303820724487E+02  0.113820018768E+02  0.000000000000E+00
  0.334741249084E+02  0.292438049316E+02 -0.108748245239E+01
  0.334741249084E+02  0.292438049316E+02  0.108748245239E+01
  0.342964897156E+02  0.197561950684E+02 -0.479616105556E+00
  0.342964897156E+02  0.197561950684E+02  0.479616105556E+00
  0.374068183899E+02  0.197561950684E+02 -0.144199773669E+00
  0.374068183899E+02  0.197561950684E+02  0.144199773669E+00
  0.376179962158E+02  0.376179962158E+02  0.000000000000E+00
  0.386389808655E+02  0.292438049316E+02 -0.980755090714E+00
  0.386389808655E+02  0.292438049316E+02  0.980755090714E+00
  0.387533912659E+02  0.376179962158E+02 -0.658132553101E+00
  0.387533912659E+02  0.376179962158E+02  0.658132553101E+00
  0.387563171387E+02  0.197561950684E+02  0.000000000000E+00
  0.418483314514E+02  0.376179962158E+02 -0.108748543262E+01
  0.418483314514E+02  0.376179962158E+02  0.108748543262E+01
  0.435296669006E+02  0.435296669006E+02  0.000000000000E+00
  0.437841453552E+02  0.292438049316E+02 -0.479617565870E+00
  0.437841453552E+02  0.292438049316E+02  0.479617565870E+00
  0.446650657654E+02  0.435296669006E+02 -0.658133804798E+00
  0.446650657654E+02  0.435296669006E+02  0.658133804798E+00
  0.468944816589E+02  0.292438049316E+02 -0.144200220704E+00
  0.468944816589E+02  0.292438049316E+02  0.144200220704E+00
  0.470131988525E+02  0.376179962158E+02 -0.980757772923E+00
  0.470131988525E+02  0.376179962158E+02  0.980757772923E+00
  0.470762481689E+02  0.470762481689E+02  0.000000000000E+00
  0.477600097656E+02  0.435296669006E+02 -0.108748745918E+01
  0.477600097656E+02  0.435296669006E+02  0.108748745918E+01
  0.482116432190E+02  0.470762481689E+02 -0.658134579659E+00
  0.482116432190E+02  0.470762481689E+02  0.658134579659E+00
  0.482439842224E+02  0.292438049316E+02  0.000000000000E+00
  0.490000000000E+02  0.490000000000E+02  0.000000000000E+00
  0.501353988647E+02  0.490000000000E+02 -0.658134996891E+00
  0.501353988647E+02  0.490000000000E+02  0.658134996891E+00
  0.506007728577E+02  0.494653701782E+02 -0.465371757746E+00
  0.506007728577E+02  0.494653701782E+02  0.465371757746E+00
  0.507935333252E+02  0.496581344604E+02 -0.771266485397E-15
  0.513065910339E+02  0.470762481689E+02 -0.108748877048E+01
  0.513065910339E+02  0.470762481689E+02  0.108748877048E+01
  0.521583786011E+02  0.376179962158E+02 -0.479618877172E+00
  0.521583786011E+02  0.376179962158E+02  0.479618877172E+00
  0.529248886108E+02  0.435296669006E+02 -0.980759620667E+00
  0.529248886108E+02  0.435296669006E+02  0.980759620667E+00
  0.532303466797E+02  0.490000000000E+02 -0.108748936653E+01
  0.532303466797E+02  0.490000000000E+02  0.108748936653E+01
  0.539993209839E+02  0.497689704895E+02 -0.768971264362E+00
  0.539993209839E+02  0.497689704895E+02  0.768971264362E+00
  0.543178405762E+02  0.500874900818E+02 -0.157378642191E-15
  0.552687225342E+02  0.376179962158E+02 -0.144200608134E+00
  0.552687225342E+02  0.376179962158E+02  0.144200608134E+00
  0.564714775085E+02  0.470762481689E+02 -0.980760753155E+00
  0.564714775085E+02  0.470762481689E+02  0.980760753155E+00
  0.566182289124E+02  0.376179962158E+02  0.000000000000E+00
  0.580700759888E+02  0.435296669006E+02 -0.479619771242E+00
  0.580700759888E+02  0.435296669006E+02  0.479619771242E+00
  0.583952369690E+02  0.490000000000E+02 -0.980761349201E+00
  0.583952369690E+02  0.490000000000E+02  0.980761349201E+00
  0.590887413025E+02  0.496935043335E+02 -0.693503141403E+00
  0.590887413025E+02  0.496935043335E+02  0.693503141403E+00
  0.593759994507E+02  0.499807624817E+02  0.000000000000E+00
  0.611804275513E+02  0.435296669006E+02 -0.144200876355E+00
  0.611804275513E+02  0.435296669006E+02  0.144200876355E+00
  0.616166725159E+02  0.470762481689E+02 -0.479620337486E+00
  0.616166725159E+02  0.470762481689E+02  0.479620337486E+00
  0.625299339294E+02  0.435296669006E+02  0.000000000000E+00
  0.635404319763E+02  0.490000000000E+02 -0.479620635509E+00
  0.635404319763E+02  0.490000000000E+02  0.479620635509E+00
  0.638795776367E+02  0.493391418457E+02 -0.339143037796E+00
  0.638795776367E+02  0.493391418457E+02  0.339143037796E+00
  0.640200576782E+02  0.494796218872E+02  0.296956834055E-15
  0.647270278931E+02  0.470762481689E+02 -0.144201040268E+00
  0.647270278931E+02  0.470762481689E+02  0.144201040268E+00
  0.660765380859E+02  0.470762481689E+02  0.000000000000E+00
  0.666507873535E+02  0.490000000000E+02 -0.144201144576E+00
  0.666507873535E+02  0.490000000000E+02  0.144201144576E+00
  0.667527542114E+02  0.491019668579E+02 -0.101965606213E+00
  0.667527542114E+02  0.491019668579E+02  0.101965606213E+00
  0.667949905396E+02  0.491441993713E+02 -0.260488604752E-16
  0.680002975464E+02  0.490000000000E+02  0.000000000000E+00
  0.209237651825E+02  0.192375373840E+01  0.000000000000E+00
  0.190000000000E+02  0.000000000000E+00  0.000000000000E+00
  0.244703655243E+02  0.547033166885E+01  0.000000000000E+00
  0.303820724487E+02  0.113820018768E+02  0.000000000000E+00
  0.387563171387E+02  0.197561950684E+02  0.000000000000E+00
  0.482439842224E+02  0.292438049316E+02  0.000000000000E+00
  0.566182289124E+02  0.376179962158E+02  0.000000000000E+00
  0.625299339294E+02  0.435296669006E+02  0.000000000000E+00
  0.660765380859E+02  0.470762481689E+02  0.000000000000E+00
POLYGONS                 256                1024
3                  32                  33                  42
3                  32                  30                  33
3                  30                  28                  33
3                  30                  22                  28
3                  22                  17                  28
3                  22                  13                  17
3                  13                   6                  17
3                  17                   6                   9
3                   6                   1                   9
3                   9                   1                   4
3                   1                   0                   4
3                   4                   0                   3
3                   0                   5                   3
3                   0                   2                   5
3                   2                  10                   5
3                   2                   7                  10
[...]
CELL_DATA                 256
SCALARS sigma float 1
LOOKUP_TABLE default
  0.416558675790E-01
  0.416557841945E-01
  0.406839061478E-01
  0.406839718358E-01
  0.509980115866E-01
  0.509979976318E-01
  0.127317884882E+00
  0.127317898248E+00
  0.279681352004E+00
  0.279681337772E+00
  0.557666551474E+00
  0.557666552086E+00
  0.329046030004E+00
  0.329046028916E+00
 -0.104073573095E-01
 -0.104073406952E-01
 -0.168174771599E+00
 -0.168174784583E+00
 -0.241855645221E+00
 -0.241855630996E+00
 -0.251555799900E+00
 -0.251555864797E+00
 -0.250644415904E+00
 -0.250644335881E+00
  0.416558965706E-01
  0.416558674558E-01
  0.406839180866E-01
  0.406839058149E-01
  0.509980042761E-01
  0.509980116707E-01
  0.127317898122E+00
  0.127317888326E+00
  0.279681338441E+00
  0.279681375533E+00
  0.557666545875E+00
  0.557666514132E+00
  0.329045976142E+00
  0.329046026339E+00
 -0.104073154585E-01
 -0.104073573344E-01
 -0.168174781023E+00
 -0.168174771433E+00
 -0.241855631395E+00
 -0.241855638674E+00
 -0.251555862738E+00
 -0.251555850898E+00
 -0.250644335140E+00
 -0.250644307487E+00
  0.416558386388E-01
  0.416558965626E-01
  0.406839757396E-01
  0.406839181621E-01
  0.509980052664E-01
  0.509980043071E-01
  0.127317888387E+00
  0.127317888106E+00
  0.279681374954E+00
  0.279681315255E+00
  0.557666511820E+00
  0.557666490585E+00
  0.329045942726E+00
  0.329045974778E+00
 -0.104073817983E-01
 -0.104073154370E-01
 -0.168174781380E+00
 -0.168174781104E+00
 -0.241855638821E+00
 -0.241855637892E+00
 -0.251555851365E+00
 -0.251555796443E+00
 -0.250644307438E+00
 -0.250644362183E+00
  0.416558534261E-01
  0.416558386777E-01
  0.406840089961E-01
  0.406839758898E-01
  0.509979917295E-01
  0.509980052440E-01
  0.127317888088E+00
  0.127317891420E+00
  0.279681316452E+00
  0.279681371539E+00
  0.557666504968E+00
  0.557666698097E+00
  0.329046237214E+00
  0.329045951212E+00
 -0.104073210206E-01
 -0.104073818428E-01
 -0.168174778076E+00
 -0.168174781355E+00
 -0.241855637786E+00
 -0.241855650769E+00
 -0.251555797372E+00
 -0.251555765952E+00
 -0.250644362417E+00
 -0.250644348509E+00
  0.416558246630E-01
  0.416558534631E-01
  0.406839486062E-01
  0.406840089365E-01
  0.509980208575E-01
  0.509979916926E-01
  0.127317891428E+00
  0.127317883274E+00
  0.279681370858E+00
  0.279681443059E+00
  0.557666671805E+00
  0.557666268308E+00
  0.329045627285E+00
  0.329046221700E+00
 -0.104072414277E-01
 -0.104073209952E-01
 -0.168174786114E+00
 -0.168174778087E+00
 -0.241855650594E+00
 -0.241855622635E+00
 -0.251555765583E+00
 -0.251555822759E+00
 -0.250644348732E+00
 -0.250644375875E+00
  0.416558392607E-01
  0.416558245124E-01
  0.406839164092E-01
  0.406839484226E-01
  0.509980429316E-01
  0.509980208234E-01
  0.127317883260E+00
  0.127317871398E+00
  0.279681442057E+00
  0.279681253939E+00
  0.557666284066E+00
  0.557666495655E+00
  0.329045949920E+00
  0.329045636582E+00
 -0.104074490933E-01
 -0.104072413904E-01
 -0.168174797767E+00
 -0.168174786096E+00
 -0.241855622473E+00
 -0.241855601234E+00
 -0.251555821624E+00
 -0.251555852007E+00
 -0.250644374969E+00
 -0.250644361060E+00
  0.416556434230E-01
  0.416558393283E-01
  0.406839789032E-01
  0.406839166087E-01
  0.509980026952E-01
  0.509980430185E-01
  0.127317871436E+00
  0.127317882558E+00
  0.279681253261E+00
  0.279681322811E+00
  0.557666464276E+00
  0.557666176047E+00
  0.329045496353E+00
  0.329045931405E+00
 -0.104073717554E-01
 -0.104074490681E-01
 -0.168174786890E+00
 -0.168174797816E+00
 -0.241855601646E+00
 -0.241855640675E+00
 -0.251555853240E+00
 -0.251555793819E+00
 -0.250644361467E+00
 -0.250644546619E+00
  0.416558212935E-01
  0.416556434217E-01
  0.406839819662E-01
  0.406839791092E-01
  0.509980367689E-01
  0.509980029991E-01
  0.127317882573E+00
  0.127317878486E+00
  0.279681332059E+00
  0.279681334077E+00
  0.557666338824E+00
  0.557667170701E+00
  0.329046907904E+00
  0.329045592398E+00
 -0.104073698213E-01
 -0.104073720996E-01
 -0.168174790910E+00
 -0.168174786910E+00
 -0.241855642117E+00
 -0.241855608875E+00
 -0.251555795093E+00
 -0.251555792336E+00
 -0.250644546610E+00
 -0.250644377669E+00
  0.416557461993E-01
  0.416558222143E-01
  0.406839211583E-01
  0.406839821531E-01
  0.509979796347E-01
  0.509980361966E-01
  0.127317878428E+00
  0.127317893704E+00
  0.279681321638E+00
  0.279681369917E+00
  0.557666990416E+00
  0.557666573152E+00
  0.329046059899E+00
  0.329046801528E+00
 -0.104073129992E-01
 -0.104073693585E-01
 -0.168174775995E+00
 -0.168174790834E+00
 -0.241855606161E+00
 -0.241855663817E+00
 -0.251555793492E+00
 -0.251555853752E+00
 -0.250644383210E+00
 -0.250644456161E+00
  0.400611139816E-01
  0.391420659242E-01
  0.391414832923E-01
  0.488651672798E-01
  0.488653367147E-01
  0.118502099363E+00
  0.118502179099E+00
  0.247604497094E+00
  0.247604622930E+00
  0.473036414806E+00
  0.279110809172E+00
 -0.921333783503E-02
 -0.921369021475E-02
 -0.156529766140E+00
 -0.156529953768E+00
 -0.231741699052E+00
 -0.231741780079E+00
 -0.242018688621E+00
 -0.242018480533E+00
 -0.241049484003E+00
 -0.448946519006E-01
 -0.459168404322E-01
 -0.459102134533E-01
 -0.351788832142E-01
 -0.351805933679E-01
  0.383512962820E-01
  0.383512787652E-01
  0.162694825392E+00
  0.162694784940E+00
  0.366159010477E+00
  0.295495463864E+00
  0.622960719233E-01
  0.622964797783E-01
 -0.767837841930E-01
 -0.767832613922E-01
 -0.157891101208E+00
 -0.157891165899E+00
 -0.169657965523E+00
 -0.169656645665E+00
 -0.168536594000E+00
SCALARS C_p_inc float 1
LOOKUP_TABLE default
  0.134734778715E+00
  0.113723712786E+00
  0.757559222130E-01
  0.572535153692E-01
  0.235636426514E-01
  0.105281674872E-01
  0.519124857223E-01
  0.292772705898E-01
  0.248702183332E+00
  0.182983985356E+00
  0.594921176876E+00
  0.595983617463E+00
 -0.538461977853E+00
  0.129928578306E-01
 -0.658598424162E+00
 -0.462362838739E+00
 -0.467231603783E+00
 -0.478278125005E+00
 -0.336645574456E+00
 -0.275378395617E+00
 -0.150491785149E+00
 -0.717462826606E-01
  0.133328749953E-01
  0.991716059075E-01
  0.130122684394E+00
  0.133409268703E+00
  0.779948960060E-01
  0.756278588678E-01
  0.314618981382E-01
  0.236865363548E-01
  0.299586400441E-01
  0.252300143663E-01
  0.177585988262E+00
  0.179939822621E+00
  0.523156502251E+00
  0.508752826423E+00
 -0.825253180801E+00
 -0.513030957897E+00
 -0.797141617635E+00
 -0.653501585885E+00
 -0.480161622788E+00
 -0.484961352769E+00
 -0.276062518109E+00
 -0.221674543436E+00
 -0.714989439786E-01
 -0.256974807448E-01
  0.960357441157E-01
  0.112153938583E+00
  0.128558889179E+00
  0.129358789262E+00
  0.756601913973E-01
  0.777148251322E-01
  0.334801420713E-01
  0.315894805817E-01
  0.253986496262E-01
  0.353451658507E-01
  0.178478245282E+00
  0.199958303522E+00
  0.511903449187E+00
  0.494981367985E+00
 -0.101757432212E+01
 -0.819549466514E+00
 -0.876568671101E+00
 -0.801408008392E+00
 -0.482833474174E+00
 -0.495993474021E+00
 -0.223086738094E+00
 -0.197373269472E+00
 -0.256947121380E-01
 -0.110149625731E-01
  0.112265082961E+00
  0.119299238307E+00
  0.125614429496E+00
  0.127668872693E+00
  0.721131057967E-01
  0.752819887579E-01
  0.322516247072E-01
  0.334671944835E-01
  0.353455824441E-01
  0.408912481650E-01
  0.200564969702E+00
  0.217290689970E+00
  0.505605040894E+00
  0.492655127583E+00
 -0.111655392366E+01
 -0.101759482323E+01
 -0.914319264355E+00
 -0.883452337718E+00
 -0.488755845425E+00
 -0.491608185478E+00
 -0.198822350473E+00
 -0.190685642728E+00
 -0.109596465446E-01
 -0.317169885698E-02
  0.120446842029E+00
  0.126845318335E+00
  0.115305806918E+00
  0.124175171933E+00
  0.601287013390E-01
  0.714882367388E-01
  0.228028585015E-01
  0.321165499020E-01
  0.407697694762E-01
  0.357980198184E-01
  0.217080526674E+00
  0.219097146245E+00
  0.496760387702E+00
  0.492836827790E+00
 -0.114222962265E+01
 -0.111712282288E+01
 -0.919691833558E+00
 -0.918333897495E+00
 -0.482423891082E+00
 -0.493424525761E+00
 -0.192158990001E+00
 -0.178322779927E+00
 -0.322968015281E-02
  0.130529161533E-01
  0.128447283591E+00
  0.143267563558E+00
  0.938372967177E-01
  0.112132168295E+00
  0.329344877866E-01
  0.587219717995E-01
 -0.335833685318E-02
  0.224526226782E-01
  0.353131993430E-01
  0.125880363842E-01
  0.217259838492E+00
  0.202118227708E+00
  0.490373909001E+00
  0.496882428008E+00
 -0.109735263909E+01
 -0.114313605547E+01
 -0.886697130195E+00
 -0.924512113300E+00
 -0.450551474496E+00
 -0.488839882256E+00
 -0.180122605601E+00
 -0.143151836692E+00
  0.126682038732E-01
  0.536206695553E-01
  0.145805734400E+00
  0.182705131829E+00
  0.595948623027E-01
  0.861913490850E-01
 -0.396747247850E-02
  0.292116764303E-01
 -0.405027076795E-01
 -0.455922676041E-02
  0.108529290006E-01
 -0.331461329094E-01
  0.196767065572E+00
  0.161141221947E+00
  0.485168843301E+00
  0.501182530121E+00
 -0.995446742045E+00
 -0.109904813512E+01
 -0.816998335121E+00
 -0.895699376496E+00
 -0.383349475424E+00
 -0.464590881039E+00
 -0.145973158908E+00
 -0.722572182175E-01
  0.517504812962E-01
  0.127257692036E+00
  0.186197748662E+00
  0.257701302225E+00
 -0.375860971357E-01
  0.411406679015E-01
 -0.576252739000E-01
 -0.132472841289E-01
 -0.728044756454E-01
 -0.451870070831E-01
 -0.389473799135E-01
 -0.729961278601E-01
  0.145023027799E+00
  0.836746567397E-01
  0.466554295919E+00
  0.494393094037E+00
 -0.857602805815E+00
 -0.997425688688E+00
 -0.710627294661E+00
 -0.834875002202E+00
 -0.267693949147E+00
 -0.421464938117E+00
 -0.794806390981E-01
  0.538545619916E-02
  0.117656026307E+00
  0.213268383711E+00
  0.253465924695E+00
  0.360019467122E+00
 -0.120552777357E+03
 -0.318719868281E+00
 -0.616571203127E+00
 -0.865217496090E-01
 -0.122571616497E+00
 -0.925646754744E-01
 -0.966212022308E-01
 -0.976171373910E-01
  0.317432315425E-01
  0.994367663702E-02
  0.336112658476E+00
  0.421185218692E+00
 -0.648667195383E+00
 -0.856777458549E+00
 -0.465885488189E+00
 -0.783691594343E+00
 -0.162471944696E+00
 -0.387637574193E+00
 -0.307295780901E-01
  0.127787268149E-01
  0.155032304948E+00
 -0.485361446869E-01
  0.360728568168E+00
 -0.125548309781E+03
 -0.295281244675E+03
 -0.528729790729E+01
 -0.629664170342E+00
 -0.399824798221E+00
 -0.236226245047E+00
 -0.240060418858E+00
 -0.225595112650E+00
 -0.185257570843E+00
 -0.221071545211E+00
 -0.714877268528E-01
 -0.649283188976E+00
 -0.408538064150E+00
 -0.638424756687E+00
 -0.242124560036E+00
 -0.507026647248E+00
 -0.174993093580E+00
 -0.458523005019E+00
 -0.871350528920E+00
 -0.339779309499E+00
 -0.257542975811E+03
 -0.198359588863E+03
 -0.816199614848E+01
 -0.115240533631E+01
 -0.822214958733E+00
 -0.429739710500E+00
 -0.476705363168E+00
 -0.411273925305E+00
 -0.420469968194E+00
 -0.458846082204E+00
 -0.344972937474E+00
 -0.545232616606E+00
 -0.520816747963E+00
 -0.562911933918E+00
 -0.397606515189E+00
 -0.597612263892E+00
 -0.430384881252E+00
 -0.851910060694E+00
 -0.151605134869E+01
 -0.606664357299E+00
 -0.166821959328E+03
SCALARS inclination float 1
LOOKUP_TABLE default
  0.100000000000E+01
  0.100000000000E+01
  0.100000000000E+01
  0.100000000000E+01
  0.100000000000E+01
  0.100000000000E+01
  0.100000000000E+01
  0.100000000000E+01
  0.100000000000E+01
  0.100000000000E+01
  0.100000000000E+01
  0.100000000000E+01
  0.100000000000E+01
  0.100000000000E+01
  0.100000000000E+01
  0.100000000000E+01
  0.100000000000E+01
  0.100000000000E+01
  0.100000000000E+01
  0.100000000000E+01
  0.100000000000E+01
  0.100000000000E+01
  0.100000000000E+01
  0.100000000000E+01
  0.100000000000E+01
  0.100000000000E+01
  0.100000000000E+01
  0.100000000000E+01
  0.100000000000E+01
  0.100000000000E+01
  0.100000000000E+01
  0.100000000000E+01
  0.100000000000E+01
  0.100000000000E+01
  0.100000000000E+01
  0.100000000000E+01
  0.100000000000E+01
  0.100000000000E+01
  0.100000000000E+01
  0.100000000000E+01
  0.100000000000E+01
  0.100000000000E+01
  0.100000000000E+01
  0.100000000000E+01
  0.100000000000E+01
  0.100000000000E+01
  0.100000000000E+01
  0.100000000000E+01
  0.100000000000E+01
  0.100000000000E+01
  0.100000000000E+01
  0.100000000000E+01
  0.100000000000E+01
  0.100000000000E+01
  0.100000000000E+01
  0.100000000000E+01
  0.100000000000E+01
  0.100000000000E+01
  0.100000000000E+01
  0.100000000000E+01
  0.100000000000E+01
  0.100000000000E+01
  0.100000000000E+01
  0.100000000000E+01
  0.100000000000E+01
  0.100000000000E+01
  0.100000000000E+01
  0.100000000000E+01
  0.100000000000E+01
  0.100000000000E+01
  0.100000000000E+01
  0.100000000000E+01
  0.100000000000E+01
  0.100000000000E+01
  0.100000000000E+01
  0.100000000000E+01
  0.100000000000E+01
  0.100000000000E+01
  0.100000000000E+01
  0.100000000000E+01
  0.100000000000E+01
  0.100000000000E+01
  0.100000000000E+01
  0.100000000000E+01
  0.100000000000E+01
  0.100000000000E+01
  0.100000000000E+01
  0.100000000000E+01
  0.100000000000E+01
  0.100000000000E+01
  0.100000000000E+01
  0.100000000000E+01
  0.100000000000E+01
  0.100000000000E+01
  0.100000000000E+01
  0.100000000000E+01
  0.100000000000E+01
  0.100000000000E+01
  0.100000000000E+01
  0.100000000000E+01
  0.100000000000E+01
  0.100000000000E+01
  0.100000000000E+01
  0.100000000000E+01
  0.100000000000E+01
  0.100000000000E+01
  0.100000000000E+01
  0.100000000000E+01
  0.100000000000E+01
  0.100000000000E+01
  0.100000000000E+01
  0.100000000000E+01
  0.100000000000E+01
  0.100000000000E+01
  0.100000000000E+01
  0.100000000000E+01
  0.100000000000E+01
  0.100000000000E+01
  0.100000000000E+01
  0.100000000000E+01
  0.100000000000E+01
  0.100000000000E+01
  0.100000000000E+01
  0.100000000000E+01
  0.100000000000E+01
  0.100000000000E+01
  0.100000000000E+01
  0.100000000000E+01
  0.100000000000E+01
  0.100000000000E+01
  0.100000000000E+01
  0.100000000000E+01
  0.100000000000E+01
  0.100000000000E+01
  0.100000000000E+01
  0.100000000000E+01
  0.100000000000E+01
  0.100000000000E+01
  0.100000000000E+01
  0.100000000000E+01
  0.100000000000E+01
  0.100000000000E+01
  0.100000000000E+01
  0.100000000000E+01
  0.100000000000E+01
  0.100000000000E+01
  0.100000000000E+01
  0.100000000000E+01
  0.100000000000E+01
  0.100000000000E+01
  0.100000000000E+01
  0.100000000000E+01
  0.100000000000E+01
  0.100000000000E+01
  0.100000000000E+01
  0.100000000000E+01
  0.100000000000E+01
  0.100000000000E+01
  0.100000000000E+01
  0.100000000000E+01
  0.100000000000E+01
  0.100000000000E+01
  0.100000000000E+01
  0.100000000000E+01
  0.100000000000E+01
  0.100000000000E+01
  0.100000000000E+01
  0.100000000000E+01
  0.100000000000E+01
  0.100000000000E+01
  0.100000000000E+01
  0.100000000000E+01
  0.100000000000E+01
  0.100000000000E+01
  0.100000000000E+01
  0.100000000000E+01
  0.100000000000E+01
  0.100000000000E+01
  0.100000000000E+01
  0.100000000000E+01
  0.100000000000E+01
  0.100000000000E+01
  0.100000000000E+01
  0.100000000000E+01
  0.100000000000E+01
  0.100000000000E+01
  0.100000000000E+01
  0.100000000000E+01
  0.100000000000E+01
  0.100000000000E+01
  0.100000000000E+01
  0.100000000000E+01
  0.100000000000E+01
  0.100000000000E+01
  0.100000000000E+01
  0.100000000000E+01
  0.100000000000E+01
  0.100000000000E+01
  0.100000000000E+01
  0.100000000000E+01
  0.100000000000E+01
  0.100000000000E+01
  0.100000000000E+01
  0.100000000000E+01
  0.100000000000E+01
  0.100000000000E+01
  0.100000000000E+01
  0.100000000000E+01
  0.100000000000E+01
  0.100000000000E+01
  0.100000000000E+01
  0.100000000000E+01
  0.100000000000E+01
  0.100000000000E+01
  0.100000000000E+01
  0.100000000000E+01
  0.100000000000E+01
  0.100000000000E+01
  0.100000000000E+01
  0.100000000000E+01
  0.100000000000E+01
  0.100000000000E+01
  0.100000000000E+01
  0.100000000000E+01
  0.100000000000E+01
  0.100000000000E+01
  0.100000000000E+01
  0.100000000000E+01
  0.100000000000E+01
  0.100000000000E+01
  0.100000000000E+01
  0.100000000000E+01
  0.100000000000E+01
  0.100000000000E+01
  0.100000000000E+01
  0.100000000000E+01
  0.100000000000E+01
  0.100000000000E+01
  0.100000000000E+01
  0.100000000000E+01
  0.100000000000E+01
  0.100000000000E+01
  0.100000000000E+01
  0.100000000000E+01
  0.100000000000E+01
  0.100000000000E+01
  0.100000000000E+01
  0.100000000000E+01
  0.100000000000E+01
  0.100000000000E+01
  0.100000000000E+01
  0.100000000000E+01
  0.100000000000E+01
  0.100000000000E+01
  0.100000000000E+01
  0.100000000000E+01
VECTORS v float
  0.150765420746E+03  0.324864053632E+01  0.157628013467E+02
  0.152589694169E+03  0.272288658324E+01  0.160139250965E+02
  0.155794705842E+03 -0.482140938681E+00  0.168528357999E+02
  0.157357649334E+03  0.492912497577E+00  0.169162224978E+02
  0.160268546559E+03 -0.241799932432E+01  0.158456253075E+02
  0.161369364532E+03 -0.593035598188E+00  0.157750948430E+02
  0.158665739309E+03  0.211059378105E+01  0.323507808197E+01
  0.160493080216E+03 -0.463254028229E+01  0.341217978701E+01
  0.139270806057E+03  0.165897538481E+02 -0.170192343681E+02
  0.145901154330E+03 -0.147188697940E+01 -0.204446865223E+02
  0.821881589078E+02  0.622411340579E+02 -0.115623102405E+02
  0.826160993439E+02  0.612864512653E+02 -0.123637489515E+02
  0.167488039940E+03 -0.235854893305E+02  0.110755936454E+03
  0.144482047746E+03  0.277380675190E+02  0.676707488489E+02
  0.204756088348E+03 -0.325359879556E+02  0.329189201516E+02
  0.195034955040E+03 -0.605478226510E+01  0.278966698124E+02
  0.197222985542E+03 -0.824280552010E+01 -0.424577575761E+01
  0.197853712121E+03 -0.105702717581E+02 -0.430690819837E+01
  0.187559453640E+03 -0.275978324408E+00 -0.182951210389E+02
  0.182969362747E+03 -0.788554472209E+01 -0.185892192822E+02
  0.173837427207E+03  0.124643609193E+01 -0.186121341835E+02
  0.167724156348E+03 -0.256737657563E+01 -0.183641754171E+02
  0.160986294240E+03  0.417051885947E+01 -0.167564519939E+02
  0.153774396033E+03  0.624898418526E+01 -0.157637217673E+02
  0.151096766939E+03  0.655748726535E+01  0.154446359532E+02
  0.150804793230E+03  0.673631989521E+01  0.153943324954E+02
  0.155622396038E+03  0.191868928966E+01  0.165753458759E+02
  0.155822048901E+03  0.189639254710E+01  0.165992827922E+02
  0.159630412185E+03 -0.191198878876E+01  0.157341867547E+02
  0.160276081986E+03 -0.161615506599E+01  0.157682593116E+02
  0.160494274568E+03 -0.183435228746E+01  0.335438147975E+01
  0.160871391531E+03 -0.276146939978E+01  0.338133435124E+01
  0.146154684094E+03  0.119552496903E+02 -0.186171480139E+02
  0.145914412077E+03  0.124169831588E+02 -0.185197659360E+02
  0.855156567728E+02  0.728157650748E+02 -0.736150086439E+01
  0.801353385121E+02  0.814230711213E+02  0.746435191131E+00
  0.183733187672E+03 -0.221747780388E+02  0.119354709700E+03
  0.172401824387E+03 -0.404713399440E+01  0.102278791423E+03
  0.211323169073E+03 -0.429684808668E+02  0.352772377606E+02
  0.204795947394E+03 -0.304250255359E+02  0.326316010582E+02
  0.196965289442E+03 -0.225943433130E+02 -0.453702118779E+01
  0.197216596131E+03 -0.232121640804E+02 -0.455497871322E+01
  0.182959313999E+03 -0.895483334586E+01 -0.186923894754E+02
  0.178885877669E+03 -0.108212059001E+02 -0.184774245528E+02
  0.167757205449E+03  0.307518625389E+00 -0.180577101237E+02
  0.164136096922E+03  0.711918255648E+00 -0.176235985448E+02
  0.153828254108E+03  0.110198205530E+02 -0.152596889730E+02
  0.152388259686E+03  0.119018098471E+02 -0.150115701385E+02
  0.151184207079E+03  0.788657240453E+01  0.153119684885E+02
  0.151112392913E+03  0.794166256016E+01  0.152983996543E+02
  0.155812610510E+03  0.324141734233E+01  0.164532062020E+02
  0.155638532169E+03  0.332234872358E+01  0.164257150283E+02
  0.159487572033E+03 -0.526708967901E+00  0.155853472849E+02
  0.159643254333E+03 -0.545456003970E+00  0.156023368211E+02
  0.160871813007E+03 -0.177402217069E+01  0.336093787357E+01
  0.160058982993E+03 -0.250177225092E+00  0.331265195714E+01
  0.145941791727E+03  0.138670282603E+02 -0.183224031153E+02
  0.143694530637E+03  0.173485094814E+02 -0.175276614994E+02
  0.800317786546E+02  0.810112911524E+02  0.567776136670E+00
  0.746795637756E+02  0.882007665037E+02  0.783757465374E+01