# vtk DataFile Version 3.0
TriPan results file. Generated by TriPan, USU AeroLab (c) 2021.
ASCII
DATASET POLYDATA
POINTS                  40 float
  0.197579002380E+02  0.757896304131E+00  0.000000000000E+00
  0.989059029676E+04  0.757896304131E+00  0.147520578581E+04
  0.190000000000E+02  0.000000000000E+00  0.000000000000E+00
  0.989057373844E+04  0.000000000000E+00  0.147531658010E+04
  0.207889842987E+02  0.178897356987E+01  0.000000000000E+00
  0.989061282349E+04  0.178897356987E+01  0.147505505591E+04
  0.221728172302E+02  0.317279767990E+01  0.000000000000E+00
  0.989064305695E+04  0.317279767990E+01  0.147485275911E+04
  0.239966468811E+02  0.499661636353E+01  0.000000000000E+00
  0.989068290329E+04  0.499661636353E+01  0.147458614102E+04
  0.263436698914E+02  0.734362459183E+01  0.000000000000E+00
  0.989073418016E+04  0.734362459183E+01  0.147424303946E+04
  0.292729015350E+02  0.102728376389E+02  0.000000000000E+00
  0.989079817691E+04  0.102728376389E+02  0.147381482723E+04
  0.327922058105E+02  0.137921218872E+02  0.000000000000E+00
  0.989087506534E+04  0.137921218872E+02  0.147330035474E+04
  0.368321151733E+02  0.178320064545E+02  0.000000000000E+00
  0.989096332775E+04  0.178320064545E+02  0.147270977715E+04
  0.412340698242E+02  0.222339305878E+02  0.000000000000E+00
  0.989105949999E+04  0.222339305878E+02  0.147206627365E+04
  0.457662315369E+02  0.267660694122E+02  0.000000000000E+00
  0.989115851695E+04  0.267660694122E+02  0.147140373573E+04
  0.501681861877E+02  0.311679935455E+02  0.000000000000E+00
  0.989125468919E+04  0.311679935455E+02  0.147076023224E+04
  0.542080955505E+02  0.352078781128E+02  0.000000000000E+00
  0.989134295160E+04  0.352078781128E+02  0.147016965464E+04
  0.577274017334E+02  0.387271614075E+02  0.000000000000E+00
  0.989141984007E+04  0.387271614075E+02  0.146965518187E+04
  0.606566314697E+02  0.416563758850E+02  0.000000000000E+00
  0.989148383678E+04  0.416563758850E+02  0.146922696992E+04
  0.630036544800E+02  0.440033836365E+02  0.000000000000E+00
  0.989153511365E+04  0.440033836365E+02  0.146888386836E+04
  0.648274841309E+02  0.458272018433E+02  0.000000000000E+00
  0.989157495999E+04  0.458272018433E+02  0.146861725027E+04
  0.662113189697E+02  0.472110252380E+02  0.000000000000E+00
  0.989160519349E+04  0.472110252380E+02  0.146841495320E+04
  0.672424011230E+02  0.482421035767E+02  0.000000000000E+00
  0.989162772018E+04  0.482421035767E+02  0.146826422357E+04
  0.680002975464E+02  0.490000000000E+02  0.000000000000E+00
  0.989164427842E+04  0.490000000000E+02  0.146815342984E+04
POLYGONS                  38                 152
3                   0                   1                   3
3                   0                   3                   2
3                   4                   5                   1
3                   4                   1                   0
3                   6                   7                   5
3                   6                   5                   4
3                   8                   9                   7
3                   8                   7                   6
3                  10                  11                   9
3                  10                   9                   8
3                  12                  13                  11
3                  12                  11                  10
3                  14                  15                  13
3                  14                  13                  12
3                  16                  17                  15
3                  16                  15                  14
3                  18                  19                  17
3                  18                  17                  16
3                  20                  21                  19
3                  20                  19                  18
3                  22                  23                  21
3                  22                  21                  20
3                  24                  25                  23
3                  24                  23                  22
3                  26                  27                  25
3                  26                  25                  24
3                  28                  29                  27
3                  28                  27                  26
3                  30                  31                  29
3                  30                  29                  28
3                  32                  33                  31
3                  32                  31                  30
3                  34                  35                  33
3                  34                  33                  32
3                  36                  37                  35
3                  36                  35                  34
3                  38                  39                  37
3                  38                  37                  36
CELL_DATA                  38
NORMALS normals float
  0.146220737241E+00 -0.146221496202E+00 -0.978385798164E+00
  0.146220737241E+00 -0.146221496202E+00 -0.978385798164E+00
  0.146220732866E+00 -0.146221696483E+00 -0.978385768886E+00
  0.146220732866E+00 -0.146221696483E+00 -0.978385768886E+00
  0.146220733539E+00 -0.146221665653E+00 -0.978385773393E+00
  0.146220733539E+00 -0.146221665653E+00 -0.978385773393E+00
  0.146220734669E+00 -0.146221613946E+00 -0.978385780951E+00
  0.146220734669E+00 -0.146221613946E+00 -0.978385780951E+00
  0.146220733778E+00 -0.146221654710E+00 -0.978385774992E+00
  0.146220733778E+00 -0.146221654710E+00 -0.978385774992E+00
  0.146220733621E+00 -0.146221661924E+00 -0.978385773938E+00
  0.146220733621E+00 -0.146221661924E+00 -0.978385773938E+00
  0.146220735678E+00 -0.146221567776E+00 -0.978385787701E+00
  0.146220735678E+00 -0.146221567776E+00 -0.978385787701E+00
  0.146220734280E+00 -0.146221631736E+00 -0.978385778351E+00
  0.146220734280E+00 -0.146221631736E+00 -0.978385778351E+00
  0.146220731795E+00 -0.146221745512E+00 -0.978385761718E+00
  0.146220731795E+00 -0.146221745512E+00 -0.978385761718E+00
  0.146220737680E+00 -0.146221476127E+00 -0.978385801099E+00
  0.146220737680E+00 -0.146221476127E+00 -0.978385801099E+00
  0.146220731795E+00 -0.146221745508E+00 -0.978385761719E+00
  0.146220731795E+00 -0.146221745508E+00 -0.978385761719E+00
  0.146220734280E+00 -0.146221631736E+00 -0.978385778351E+00
  0.146220734280E+00 -0.146221631736E+00 -0.978385778351E+00
  0.146220733136E+00 -0.146221684105E+00 -0.978385770695E+00
  0.146220733136E+00 -0.146221684105E+00 -0.978385770695E+00
  0.146220737183E+00 -0.146221498873E+00 -0.978385797774E+00
  0.146220737183E+00 -0.146221498873E+00 -0.978385797774E+00
  0.146220733143E+00 -0.146221683781E+00 -0.978385770743E+00
  0.146220733143E+00 -0.146221683781E+00 -0.978385770743E+00
  0.146220733852E+00 -0.146221651358E+00 -0.978385775482E+00
  0.146220733852E+00 -0.146221651358E+00 -0.978385775482E+00
  0.146220727614E+00 -0.146221936847E+00 -0.978385733747E+00
  0.146220727614E+00 -0.146221936847E+00 -0.978385733748E+00
  0.146220741902E+00 -0.146221282864E+00 -0.978385829351E+00
  0.146220741902E+00 -0.146221282864E+00 -0.978385829351E+00
  0.146220753468E+00 -0.146220753487E+00 -0.978385906739E+00
  0.146220753468E+00 -0.146220753487E+00 -0.978385906739E+00
POINT_DATA                  40
SCALARS mu float 1
LOOKUP_TABLE default
 -0.457312909335E+01
 -0.457312909335E+01
 -0.454641218562E+01
 -0.454641218562E+01
 -0.462287530965E+01
 -0.462287530965E+01
 -0.469275649935E+01
 -0.469275649935E+01
 -0.478238926676E+01
 -0.478238926676E+01
 -0.488566220882E+01
 -0.488566220882E+01
 -0.499452985457E+01
 -0.499452985457E+01
 -0.509764714084E+01
 -0.509764714084E+01
 -0.518110111213E+01
 -0.518110111213E+01
 -0.522857647317E+01
 -0.522857647317E+01
 -0.522208953553E+01
 -0.522208953553E+01
 -0.514087558635E+01
 -0.514087558635E+01
 -0.496265328668E+01
 -0.496265328668E+01
 -0.466877786678E+01
 -0.466877786678E+01
 -0.425309507888E+01
 -0.425309507888E+01
 -0.372123557492E+01
 -0.372123557492E+01
 -0.308052192922E+01
 -0.308052192922E+01
 -0.231831146189E+01
 -0.231831146189E+01
 -0.135782008877E+01
 -0.135782008877E+01
  0.000000000000E+00
  0.000000000000E+00
