# vtk DataFile Version 3.0
TriPan results file. Generated by TriPan, USU AeroLab (c) 2021.
ASCII
DATASET POLYDATA
POINTS                 144 float
      0.000000000000      0.000000000000      0.000000000000
      0.750993072987      0.000000000000     -0.543790996075
      0.750993072987      0.000000000000      0.543790996075
      1.923753738400      1.923753738400      0.000000000000
      2.674746751790      1.923753738400     -0.543790996075
      2.674746751790      1.923753738400      0.543790996075
      3.592464447020      0.000000000000     -1.038844943050
      3.592464447020      0.000000000000      1.038844943050
      5.470331668850      5.470331668850      0.000000000000
      5.516218185420      1.923753738400     -1.038844943050
      5.516218185420      1.923753738400      1.038844943050
      6.221324920650      5.470331668850     -0.543790996075
      6.221324920650      5.470331668850      0.543790996075
      9.062796592710      5.470331668850     -1.038844943050
      9.062796592710      5.470331668850      1.038844943050
      9.395236968990      0.000000000000     -0.980761349201
      9.395236968990      0.000000000000      0.980761349201
     11.318990707400      1.923753738400     -0.980761349201
     11.318990707400      1.923753738400      0.980761349201
     11.382001876800     11.382001876800      0.000000000000
     12.132995605500     11.382001876800     -0.543790996075
     12.132995605500     11.382001876800      0.543790996075
     14.865568161000      5.470331668850     -0.980761349201
     14.865568161000      5.470331668850      0.980761349201
     14.974466323900     11.382001876800     -1.038844943050
     14.974466323900     11.382001876800      1.038844943050
     15.176529884300      0.000000000000     -0.411069482565
     15.176529884300      0.000000000000      0.411069482565
     17.100284576400      1.923753738400     -0.411069482565
     17.100284576400      1.923753738400      0.411069482565
     18.049325943000      0.000000000000     -0.101516798139
     18.049325943000      0.000000000000      0.101516798139
     19.000301361100      0.000000000000      0.000000000000
     19.756195068400     19.756195068400      0.000000000000
     19.973079681400      1.923753738400     -0.101516798139
     19.973079681400      1.923753738400      0.101516798139
     20.507186889600     19.756195068400     -0.543790996075
     20.507186889600     19.756195068400      0.543790996075
     20.646862030000      5.470331668850     -0.411069482565
     20.646862030000      5.470331668850      0.411069482565
     20.777238845800     11.382001876800     -0.980761349201
     20.777238845800     11.382001876800      0.980761349201
     20.924055099500      1.923753738400      0.000000000000
     23.348659515400     19.756195068400     -1.038844943050
     23.348659515400     19.756195068400      1.038844943050
     23.519659042400      5.470331668850     -0.101516798139
     23.519659042400      5.470331668850      0.101516798139
     24.470632553100      5.470331668850      0.000000000000
     26.558532714800     11.382001876800     -0.411069482565
     26.558532714800     11.382001876800      0.411069482565
     29.151432037400     19.756195068400     -0.980761349201
     29.151432037400     19.756195068400      0.980761349201
     29.243804931600     29.243804931600      0.000000000000
     29.431327819800     11.382001876800     -0.101516798139
     29.431327819800     11.382001876800      0.101516798139
     29.994798660300     29.243804931600     -0.543790996075
     29.994798660300     29.243804931600      0.543790996075
     30.382303237900     11.382001876800      0.000000000000
     32.836269378700     29.243804931600     -1.038844943050
     32.836269378700     29.243804931600      1.038844943050
     34.932723999000     19.756195068400     -0.411069482565
     34.932723999000     19.756195068400      0.411069482565
     37.617996215800     37.617996215800      0.000000000000
     37.805519104000     19.756195068400     -0.101516798139
     37.805519104000     19.756195068400      0.101516798139
     38.368991851800     37.617996215800     -0.543790996075
     38.368991851800     37.617996215800      0.543790996075
     38.639041900600     29.243804931600     -0.980761349201
     38.639041900600     29.243804931600      0.980761349201
     38.756496429400     19.756195068400      0.000000000000
     41.210460662800     37.617996215800     -1.038844943050
     41.210460662800     37.617996215800      1.038844943050
     43.529666900600     43.529666900600      0.000000000000
     44.280662536600     43.529666900600     -0.543790996075
     44.280662536600     43.529666900600      0.543790996075
     44.420333862300     29.243804931600     -0.411069482565
     44.420333862300     29.243804931600      0.411069482565
     47.013233184800     37.617996215800     -0.980761349201
     47.013233184800     37.617996215800      0.980761349201
     47.076248168900     47.076248168900      0.000000000000
     47.122131347700     43.529666900600     -1.038844943050
     47.122131347700     43.529666900600      1.038844943050
     47.293132782000     29.243804931600     -0.101516798139
     47.293132782000     29.243804931600      0.101516798139
     47.827239990200     47.076248168900     -0.543790996075
     47.827239990200     47.076248168900      0.543790996075
     48.244106292700     29.243804931600      0.000000000000
     49.000000000000     49.000000000000      0.000000000000
     49.750991821300     49.000000000000     -0.543790996075
     49.750991821300     49.000000000000      0.543790996075
     50.135513305700     49.384517669700     -0.384518325329
     50.135513305700     49.384517669700      0.384518325329
     50.294784545900     49.543792724600     -0.000000000000
     50.668708801300     47.076248168900     -1.038844943050
     50.668708801300     47.076248168900      1.038844943050
     52.592464447000     49.000000000000     -1.038844943050
     52.592464447000     49.000000000000      1.038844943050
     52.794528961200     37.617996215800     -0.411069482565
     52.794528961200     37.617996215800      0.411069482565
     52.924903869600     43.529666900600     -0.980761349201
     52.924903869600     43.529666900600      0.980761349201
     53.327037811300     49.734573364300     -0.734574317932
     53.327037811300     49.734573364300      0.734574317932
     53.631309509300     50.038845062300     -0.000000000000
     55.667324066200     37.617996215800     -0.101516798139
     55.667324066200     37.617996215800      0.101516798139
     56.471481323200     47.076248168900     -0.980761349201
     56.471481323200     47.076248168900      0.980761349201
     56.618297576900     37.617996215800      0.000000000000
     58.395236969000     49.000000000000     -0.980761349201
     58.395236969000     49.000000000000      0.980761349201
     58.706199646000     43.529666900600     -0.411069482565
     58.706199646000     43.529666900600      0.411069482565
     59.088741302500     49.693504333500     -0.693503022194
     59.088741302500     49.693504333500      0.693503022194
     59.375999450700     49.980762481700      0.000000000000
     61.578994751000     43.529666900600     -0.101516798139
     61.578994751000     43.529666900600      0.101516798139
     62.252777099600     47.076248168900     -0.411069482565
     62.252777099600     47.076248168900      0.411069482565
     62.529968261700     43.529666900600      0.000000000000
     64.176528930700     49.000000000000     -0.411069482565
     64.176528930700     49.000000000000      0.411069482565
     64.467201232900     49.290668487500     -0.290670007467
     64.467201232900     49.290668487500      0.290670007467
     64.587600708000     49.411067962600      0.000000000000
     65.125572204600     47.076248168900     -0.101516798139
     65.125572204600     47.076248168900      0.101516798139
     66.076545715300     47.076248168900      0.000000000000
     67.049324035600     49.000000000000     -0.101516798139
     67.049324035600     49.000000000000      0.101516798139
     67.121109008800     49.071784973100     -0.071783214807
     67.121109008800     49.071784973100      0.071783214807
     67.150840759300     49.101516723600     -0.000000000000
     68.000297546400     49.000000000000      0.000000000000
     20.924055099500      1.923753738400      0.000000000000
     19.000301361100      0.000000000000      0.000000000000
     24.470632553100      5.470331668850      0.000000000000
     30.382303237900     11.382001876800      0.000000000000
     38.756496429400     19.756195068400      0.000000000000
     48.244106292700     29.243804931600      0.000000000000
     56.618297576900     37.617996215800      0.000000000000
     62.529968261700     43.529666900600      0.000000000000
     66.076545715300     47.076248168900      0.000000000000
POLYGONS                 256                1024
3                  32                  34                  42
3                  32                  30                  34
3                  30                  28                  34
3                  30                  26                  28
3                  26                  17                  28
3                  26                  15                  17
3                  15                   6                  17
3                  17                   6                   9
3                   6                   1                   9
3                   9                   1                   4
3                   1                   0                   4
3                   4                   0                   3
3                   0                   5                   3
3                   0                   2                   5
3                   2                  10                   5
3                   2                   7                  10
[...]
CELL_DATA                 256
SCALARS sigma float 1
LOOKUP_TABLE default
      0.000000000000
      0.000000000000
      0.000000000000
      0.000000000000
      0.000000000000
      0.000000000000
      0.000000000000
      0.000000000000
      0.000000000000
      0.000000000000
      0.000000000000
      0.000000000000
      0.000000000000
      0.000000000000
      0.000000000000
      0.000000000000
      0.000000000000
      0.000000000000
      0.000000000000
      0.000000000000
      0.000000000000
      0.000000000000
      0.000000000000
      0.000000000000
      0.000000000000
      0.000000000000
      0.000000000000
      0.000000000000
      0.000000000000
      0.000000000000
      0.000000000000
      0.000000000000
      0.000000000000
      0.000000000000
      0.000000000000
      0.000000000000
      0.000000000000
      0.000000000000
      0.000000000000
      0.000000000000
      0.000000000000
      0.000000000000
      0.000000000000
      0.000000000000
      0.000000000000
      0.000000000000
      0.000000000000
      0.000000000000
      0.000000000000
      0.000000000000
      0.000000000000
      0.000000000000
      0.000000000000
      0.000000000000
      0.000000000000
      0.000000000000
      0.000000000000
      0.000000000000
      0.000000000000
      0.000000000000
      0.000000000000
      0.000000000000
      0.000000000000
      0.000000000000
      0.000000000000
      0.000000000000
      0.000000000000
      0.000000000000
      0.000000000000
      0.000000000000
      0.000000000000
      0.000000000000
      0.000000000000
      0.000000000000
      0.000000000000
      0.000000000000
      0.000000000000
      0.000000000000
      0.000000000000
      0.000000000000
      0.000000000000
      0.000000000000
      0.000000000000
      0.000000000000
      0.000000000000
      0.000000000000
      0.000000000000
      0.000000000000
      0.000000000000
      0.000000000000
      0.000000000000
      0.000000000000
      0.000000000000
      0.000000000000
      0.000000000000
      0.000000000000
      0.000000000000
      0.000000000000
      0.000000000000
      0.000000000000
      0.000000000000
      0.000000000000
      0.000000000000
      0.000000000000
      0.000000000000
      0.000000000000
      0.000000000000
      0.000000000000
      0.000000000000
      0.000000000000
      0.000000000000
      0.000000000000
      0.000000000000
      0.000000000000
      0.000000000000
      0.000000000000
      0.000000000000
      0.000000000000
      0.000000000000
      0.000000000000
      0.000000000000
      0.000000000000
      0.000000000000
      0.000000000000
      0.000000000000
      0.000000000000
      0.000000000000
      0.000000000000
      0.000000000000
      0.000000000000
      0.000000000000
      0.000000000000
      0.000000000000
      0.000000000000
      0.000000000000
      0.000000000000
      0.000000000000
      0.000000000000
      0.000000000000
      0.000000000000
      0.000000000000
      0.000000000000
      0.000000000000
      0.000000000000
      0.000000000000
      0.000000000000
      0.000000000000
      0.000000000000
      0.000000000000
      0.000000000000
      0.000000000000
      0.000000000000
      0.000000000000
      0.000000000000
      0.000000000000
      0.000000000000
      0.000000000000
      0.000000000000
      0.000000000000
      0.000000000000
      0.000000000000
      0.000000000000
      0.000000000000
      0.000000000000
      0.000000000000
      0.000000000000
      0.000000000000
      0.000000000000
      0.000000000000
      0.000000000000
      0.000000000000
      0.000000000000
      0.000000000000
      0.000000000000
      0.000000000000
      0.000000000000
      0.000000000000
      0.000000000000
      0.000000000000
      0.000000000000
      0.000000000000
      0.000000000000
      0.000000000000
      0.000000000000
      0.000000000000
      0.000000000000
      0.000000000000
      0.000000000000
      0.000000000000
      0.000000000000
      0.000000000000
      0.000000000000
      0.000000000000
      0.000000000000
      0.000000000000
      0.000000000000
      0.000000000000
      0.000000000000
      0.000000000000
      0.000000000000
      0.000000000000
      0.000000000000
      0.000000000000
      0.000000000000
      0.000000000000
      0.000000000000
      0.000000000000
      0.000000000000
      0.000000000000
      0.000000000000
      0.000000000000
      0.000000000000
      0.000000000000
      0.000000000000
      0.000000000000
      0.000000000000
      0.000000000000
      0.000000000000
      0.000000000000
      0.000000000000
      0.000000000000
      0.000000000000
      0.000000000000
      0.000000000000
      0.000000000000
      0.000000000000
      0.000000000000
      0.000000000000
      0.000000000000
      0.000000000000
      0.000000000000
      0.000000000000
      0.000000000000
      0.000000000000
      0.000000000000
      0.000000000000
      0.000000000000
      0.000000000000
      0.000000000000
      0.000000000000
      0.000000000000
      0.000000000000
      0.000000000000
      0.000000000000
      0.000000000000
      0.000000000000
      0.000000000000
      0.000000000000
      0.000000000000
      0.000000000000
      0.000000000000
      0.000000000000
      0.000000000000
      0.000000000000
      0.000000000000
      0.000000000000
SCALARS C_p float 1
LOOKUP_TABLE default
      0.168933626426
      0.408686818694
      0.094421422081
      0.050642496362
     -0.066766834065
     -0.106031955335
     -0.126870954440
     -0.142842472698
      0.051467254409
     -0.067970489730
      0.488231296037
      0.432061321886
      0.121965637070
      0.343545572045
     -0.318600767696
     -0.144729352202
     -0.301589197616
     -0.285791944804
     -0.245497858344
     -0.207855320110
     -0.150936544419
     -0.093084847523
     -0.479829284701
      0.042061105919
      0.131348218917
      0.176833104173
      0.057975463515
      0.091950789836
     -0.046396876923
     -0.065854547246
     -0.144485342083
     -0.146720184497
     -0.062731273264
     -0.090623420969
      0.370038421532
      0.370358603162
     -0.004579793893
      0.084519746619
     -0.389040265235
     -0.306129465722
     -0.317389064292
     -0.307585297589
     -0.208465206287
     -0.165598866100
     -0.093046404106
     -0.010272744342
      0.046783925687
      0.113127106974
      0.131740509812
      0.133673277416
      0.049446034437
      0.058669858404
     -0.049620519724
     -0.046222986353
     -0.147839703762
     -0.140331959907
     -0.090399986562
     -0.086728089117
      0.366848512380
      0.377053021825
     -0.055399898324
     -0.008254183661
     -0.419091419039
     -0.388462063537
     -0.308486597682
     -0.323937860302
     -0.165691160056
     -0.133365265048
     -0.009962507883
      0.013351346122
      0.111192616840
      0.119697454684
      0.128477824248
      0.132162107037
      0.045879566512
      0.049670020450
     -0.053581740818
     -0.049683192574
     -0.140759738011
     -0.141411267205
     -0.086920563368
     -0.081230083164
      0.380910027559
      0.386965390613
     -0.066170190292
     -0.054267996223
     -0.420515590156
     -0.421673056604
     -0.299532530776
     -0.312918178516
     -0.133032654842
     -0.120546923106
      0.013282016971
      0.022538474348
      0.119230959484
      0.126597996066
      0.127374739983
      0.128370247979
      0.043078995042
      0.045846971998
     -0.057553713034
     -0.053582089431
     -0.141222597717
     -0.145826285662
     -0.081255627368
     -0.084258229285
      0.388288773896
      0.387013063877
     -0.060196088813
     -0.065538394039
     -0.413885623131
     -0.421771097742
     -0.291891630879
     -0.301093635860
     -0.120390473785
     -0.111933017850
      0.022520500713
      0.030872152753
      0.126617039333
      0.133199762536
      0.133021961270
      0.126607639633
      0.045091801038
      0.042707587117
     -0.062492632604
     -0.057428352897
     -0.145038964905
     -0.155295532986
     -0.084104179952
     -0.094825944230
      0.385551989486
      0.379435017996
     -0.047041821961
     -0.060310799700
     -0.403147448586
     -0.414084498737
     -0.282078147389
     -0.292531365089
     -0.111729182683
     -0.097430666853
      0.030913871832
      0.053100373421
      0.133872373552
      0.158124366845
      0.274868698651
      0.131338243009
      0.078776442499
      0.043362474531
     -0.066498703318
     -0.062273989748
     -0.153006250976
     -0.176000795912
     -0.094343831124
     -0.118135659493
      0.374040437263
      0.363334657852
     -0.032692458102
     -0.048257401658
     -0.394216630392
     -0.402013803354
     -0.272228937941
     -0.281637227635
     -0.096652313801
     -0.072046022979
      0.053030997461
      0.115778725672
      0.160025660253
      0.325052455544
    -22.095862171097
     -0.499784511629
      0.186449425058
     -0.009410309890
     -0.334278955843
     -0.068007576988
     -0.171952181815
     -0.197067391141
     -0.117332112225
     -0.165470985892
      0.348579576575
      0.331981307001
     -0.025276495944
     -0.036943932091
     -0.394869862086
     -0.389689811962
     -0.253723785255
     -0.270367074982
     -0.070816383416
     -0.294583680542
      0.056715156583
      0.195729425883
     -0.577747514119
    -21.977299384021
********************
 -31119.661945348515
 -18234.502756712809
      0.474975642248
     -1.109834098422
     -0.321768844830
     -0.200116274163
     -0.229590534202
     -0.167268143838
     -0.165836328344
      0.265128579228
      0.226081184766
     -0.062857214906
     -0.049506089616
     -0.307542893359
     -0.390014257586
     -0.255142540708
     -0.249851368634
     -0.298693152444
     -1.461574746699
      0.346372233246
 -18204.102395853552
 -31070.829391524407
********************
********************
-788300.410779903526
 -31366.680935967055
    -82.255315439910
      0.106376600695
     -0.273632947226
     -0.271210161165
     -0.196913144305
     -0.192846033570
     -0.011448509526
     -0.165038968649
     -0.244368357511
     -0.308505541799
     -0.289522245416
     -0.251669205496
      0.455159800694
    -88.840527801099
 -31439.717506978232
-787380.149716397515
********************
********************
********************
 -32833.273752804686
   -106.168323840012
      0.307473149709
     -0.325302290028
     -0.314981335848
     -0.215387655601
     -0.213838433934
     -0.118547898276
     -0.171719388355
     -0.230212654770
     -0.247091267075
     -0.322708521456
     -0.282731253045
      0.715389195532
   -116.531971947836
 -32901.254632365322
********************
********************
VECTORS v float
    146.086412175864     23.856011597423     13.048117402196
    119.394181961440     37.128256314982      8.781902464162
    154.230433861090      2.292004415333     16.371842398557
    157.898308160781      4.133141313754     16.568673362764
    167.404275105938     -5.372830343982     17.025550934358
    170.604157344778      0.952418683875     16.717578073206
    173.016338610165     -1.459762581525      1.746440853852
    174.141253035863     -5.979552449141      1.802942243543
    156.293194777749     11.868505808974    -25.162320116268
    165.197373346850    -11.640789237379    -30.809540841578
     97.781075929121     55.775506091824    -30.416061643931
    105.910994630129     39.470449675928    -48.109329216420
    128.497765836530     16.883678469527     80.819308120228
    113.629571763468     46.702764492544     48.461426990257
    182.418774229951    -22.086435842882     35.629818370351
    171.882235619788      5.732704683707     28.947319979932
    185.772983898018     -8.158043594523     -1.941177427330
    184.774060989580     -4.144474618125     -1.891004248614
    181.029944182908     -0.400357811432    -17.878244351497
    178.111461924401     -6.169359928720    -18.159133492942
    173.830828772682     -1.888724654878    -18.934326923331
    169.338606233043     -4.143653934030    -18.693257741055
    194.626089144420    -29.431136845407    -23.918149459465
    158.105944962184    -11.272133764229    -18.081140584680
    150.406282998672     15.836513840922     14.365376273521
    146.031866487249     19.014901760797     13.559083173260
    157.187713118481      7.859050629735     16.090620797195
    154.300258159525      8.375598755425     15.723839932916
    165.873233157127     -3.197374686150     16.660310323798
    167.434744918056     -2.204458218146     16.716340028771
    174.140959388788     -8.910671787203      1.832278706215
    174.290677041884     -9.305440870162      1.837729142398
    165.524425879173     -0.539188528821    -28.932350621057
    167.519287402296     -4.271590109979    -29.930177712188
    110.483585955045     52.764115171357    -41.794432201050
    110.443888903590     52.823185347603    -41.722904574909
    138.741806220659     24.525268030534     82.703705954454
    133.704433223235     32.020763393957     73.628731485668
    187.377459565086    -21.652266555931     36.418097244958
    182.689939866989    -12.881879988560     34.073403324808
    186.344153811721    -16.536094424603     -2.030756153159
    185.772295623657    -15.028243308326     -2.009938660605
    178.100050224885     -7.355998941115    -18.274940637664
    174.784391924578     -9.464322305063    -18.155969163350
    169.340025966993     -4.019957079493    -18.680081939493
    162.834351226881     -2.856134627964    -17.853657886531
    158.252395606512      1.725822840586    -16.709239921203
    152.590331256647      5.839799104799    -15.665677394098
    150.564001883206     13.622243227734     14.618557424392
    150.383038355994     13.773487762884     14.583123876467
    157.953848130986      6.202679819932     16.351664585595
    157.173231638757      6.597321329124     16.225015857478
    166.150265984242     -2.379713740470     16.607036593948
    165.881128677747     -2.376365693304     16.580185737820
    174.290528738990    -10.785766432871      1.852545164645
    173.777632971407     -9.769272474605      1.837236221508
    167.541055218214     -3.532695224375    -29.805236516041
    167.278112551354     -3.133711386110    -29.689922767919
    110.668429278485     53.475976453514    -41.412806931659
    109.404220960109     55.092674073615    -39.326733434785
    141.760743807534     22.736151226189     86.185142809743
    139.236675648198     25.963975993733     82.020274997916
    189.092740553143    -23.892092933148     37.107186336496
    187.387693564318    -21.304882762781     36.359356941827
    185.435810669646    -19.353000025522     -2.049859781629
    186.343691347714    -21.152303668547     -2.076958063416
    174.783166185724     -9.591777574056    -18.168408092072
    172.335961242758     -9.561334534849    -17.924259301643
    162.866082740868     -0.091455269095    -17.559174255259
    160.983952556877      0.860059662564    -17.253851785090
    152.628367709336      9.215642488156    -15.309365339225
    151.861139675637      9.856868717355    -15.158981562148
    150.903677866852     12.905038336848     14.731350220939
    150.559350524690     13.209424573850     14.662129795586
    158.268121694291      5.500655160085     16.461173880501
    157.948178918931      5.708737241606     16.404277550883
    166.453120406888     -2.796202309171     16.677926467404
    166.147146099126     -2.704132285702     16.638697521108
    173.777576339094    -10.334562525669      1.842894005604
    173.822794104420    -10.411121723020      1.844112947656
    167.257144127572     -3.845471746250    -29.810275635625
    166.846650731826     -3.285698186048    -29.641211287649
    109.164674733340     54.396264673456    -39.657554863120
    108.401157251660     55.306970475388    -38.445346404341
    142.212463118645     21.495664608403     87.410683115000
    141.589605672148     22.238614216854     86.421490353826
    188.988399513259    -25.160168827611     37.309911134252
    189.052796077888    -25.247985236253     37.336456414015
    184.632737459890    -20.827926618307     -2.056584799594
    185.435526737251    -22.187146877713     -2.078225710655
    172.340473869497     -9.092094009959    -17.878464683839
    171.402573859635     -8.809871171136    -17.758238770740
    160.992448097795      1.600252219578    -17.175009153145
    160.235518068552      2.092538928890    -17.040402142897
    151.867936578708     10.460118512838    -15.095310447052
    151.193189668060     11.056595405006    -14.959576818216
    150.997842387661     12.930664709027     14.738725788158
    150.904906551890     13.014083214841     14.719840287285
    158.502348752898      5.416637959035     16.495443424305
    158.269008711989      5.577937245050     16.452941937345
    166.763507440296     -2.916561483346     16.720372511273
    166.453104629446     -2.797842273889     16.678086578521
    173.822818505455    -10.167556149898      1.841675191142
    174.143292026239    -10.684087645021      1.850053299951
    166.843738996394     -3.384534615100    -29.657923843064
    167.060967398750     -3.671405139891    -29.745770287112
    108.319631107190     55.069942961714    -38.557936476911
    108.481239709510     54.880998640612    -38.811680266853
    141.832693316678     21.529545033444     87.110938927736
    142.111848490089     21.203149011777     87.549634961726
    188.528631482388    -25.213643312695     37.239151752320
    188.969665831133    -25.796067116174     37.417437284212
    184.073987674833    -20.900388959823     -2.051717243263
    184.632639993760    -21.800811300001     -2.066322037670
    171.404851578080     -8.573022884321    -17.735124248471
    170.769117027410     -8.329874624622    -17.648518625743
    160.236779721316      2.202462681583    -17.028693409400
    159.548939812225      2.677937955946    -16.903319987661
    151.192934530315     11.033946597658    -14.961966868092
    150.584626981761     11.579963685224    -14.838802748411
    150.403344622801     14.220886901572     14.537531187785
    151.006373314357     13.687808398435     14.658811079864
    158.310480308003      6.383701404788     16.370587016050
    158.511944317707      6.252673847873     16.406391932892
    167.165795360929     -2.401181137443     16.709217400475
    166.769610270665     -2.281964755826     16.658440357729
    174.143395047839     -9.655749533000      1.839761049281
    174.853365256358    -10.857815888637      1.858899823824
    167.078308896238     -3.082759528610    -29.646234958430
    167.849637312249     -4.134588520166    -29.963894008747
    108.571542637894     55.143519655328    -38.686968873342
    109.337344656813     54.230088734545    -39.902801231364
    141.153191911096     22.414241480262     85.978092325004
    141.850787680051     21.582145033089     87.085950000898
    187.913777611061    -24.480855389196     37.004384400184
    188.525639088255    -25.315223340445     37.256327254826
    183.439775410290    -20.229359662540     -2.038652260843
    184.073947331165    -21.303090250987     -2.055747729523
    170.772275743690     -8.001418663512    -17.616463646355
    169.685843755860     -7.674502298950    -17.477180291529
    159.546494129494      2.464851946200    -16.926017108566
    157.699891443009      3.665833225807    -16.597652972597
    150.575726246213     10.789998422603    -14.922181695405
    148.306424286334     12.796065644409    -14.465784345423
    135.416718762987     28.238670319896     11.441299033367
    150.420002951013     15.699360287184     14.381481852626
    155.294824894853     10.824538343344     15.567126574387
    158.343758587091      9.283143538333     16.061748869672
    167.522027648017      0.104874477406     16.497372593526