# vtk DataFile Version 3.0
TriPan results file. Generated by TriPan, USU AeroLab (c) 2021.
ASCII
DATASET POLYDATA
POINTS                  20 float
     20.924055099500      1.923753738400      0.000000000000
     99.960935391129      1.923753738400      2.898150834612
     19.000301361100      0.000000000000      0.000000000000
     99.958352248889      0.000000000000      2.968596962371
     24.470632553100      5.470331668850      0.000000000000
     99.965697598392      5.470331668850      2.768278365275
     30.382303237900     11.382001876800      0.000000000000
     99.973635561525     11.382001876800      2.551798313791
     38.756496429400     19.756195068400      0.000000000000
     99.984880104796     19.756195068400      2.245142907919
     48.244106292700     29.243804931600      0.000000000000
     99.997619700983     29.243804931600      1.897715187200
     56.618297576900     37.617996215800      0.000000000000
    100.008864241693     37.617996215800      1.591059851172
     62.529968261700     43.529666900600      0.000000000000
    100.016802204826     43.529666900600      1.374579799688
     66.076545715300     47.076248168900      0.000000000000
    100.021564412089     47.076248168900      1.244707330351
     68.000297546400     49.000000000000      0.000000000000
    100.024147551768     49.000000000000      1.174261272435
POLYGONS                  18                  72
3                   0                   1                   3
3                   0                   3                   2
3                   4                   5                   1
3                   4                   1                   0
3                   6                   7                   5
3                   6                   5                   4
3                   8                   9                   7
3                   8                   7                   6
3                  10                  11                   9
3                  10                   9                   8
3                  12                  13                  11
3                  12                  11                  10
3                  14                  15                  13
3                  14                  13                  12
3                  16                  17                  15
3                  16                  15                  14
3                  18                  19                  17
3                  18                  17                  16
POINT_DATA                  20
SCALARS mu float 1
LOOKUP_TABLE default
     -1.669842452472
     -1.669842452472
     -1.942574230577
     -1.942574230577
     -1.499853301854
     -1.499853301854
     -1.410335505209
     -1.410335505209
     -1.330244766188
     -1.330244766188
     -1.227573901671
     -1.227573901671
     -1.046642995176
     -1.046642995176
     -0.773386174702
     -0.773386174702
     -0.420426545344
     -0.420426545344
      0.000000000000
      0.000000000000
