# vtk DataFile Version 3.0
TriPan results file. Generated by TriPan, USU AeroLab (c) 2021.
ASCII
DATASET POLYDATA
POINTS                  50 float
     19.580198288000      0.579897820950      0.000000000000
     99.959130912092      0.579897820950      2.947361659648
     19.000301361100      0.000000000000      0.000000000000
     99.958352248889      0.000000000000      2.968596962371
     20.321611404400      1.321311235430      0.000000000000
     99.960126452997      1.321311235430      2.920211779662
     21.262266159100      2.261965751650      0.000000000000
     99.961389527881      2.261965751650      2.885765850485
     22.444129943800      3.443829536440      0.000000000000
     99.962976488936      3.443829536440      2.842487064065
     23.911006927500      4.910706520080      0.000000000000
     99.964946154711      4.910706520080      2.788771351217
     25.704246521000      6.703944683070      0.000000000000
     99.967354047596      6.703944683070      2.723104533795
     27.856279373200      8.855978012080      0.000000000000
     99.970243714215      8.855978012080      2.644299030667
     30.382303237900     11.382001876800      0.000000000000
     99.973635561525     11.382001876800      2.551798313791
     33.271335601800     14.271034240700      0.000000000000
     99.977514842631     14.271034240700      2.446004552904
     36.479064941400     17.478763580300      0.000000000000
     99.981822057731     17.478763580300      2.328540396051
     39.925552368200     20.925249099700      0.000000000000
     99.986449867971     20.925249099700      2.202333133270
     43.500301361100     24.500000000000      0.000000000000
     99.991249902890     24.500000000000      2.071429047558
     47.075050354000     28.074750900300      0.000000000000
     99.996049937808     28.074750900300      1.940524961846
     50.521537780800     31.521236419700      0.000000000000
    100.000677748049     31.521236419700      1.814317699065
     53.729267120400     34.728965759300      0.000000000000
    100.004984963148     34.728965759300      1.696853542212
     56.618297576900     37.617996215800      0.000000000000
    100.008864241693     37.617996215800      1.591059851172
     59.144321441700     40.144020080600      0.000000000000
    100.012256089003     40.144020080600      1.498559134292
     61.296356201200     42.296054840100      0.000000000000
    100.015145758184     42.296054840100      1.419753561321
     63.089595794700     44.089294433600      0.000000000000
    100.017553651069     44.089294433600      1.354086743898
     64.556472778300     45.556171417200      0.000000000000
    100.019523316843     45.556171417200      1.300371031055
     65.738334655800     46.738033294700      0.000000000000
    100.021110275338     46.738033294700      1.257092314474
     66.678993225100     47.678688049300      0.000000000000
    100.022373355344     47.678688049300      1.222646245610
     67.420402526900     48.420101165800      0.000000000000
    100.023368891127     48.420101165800      1.195496505311
     68.000297546400     49.000000000000      0.000000000000
    100.024147551768     49.000000000000      1.174261272435
POLYGONS                  48                 192
3                   0                   1                   3
3                   0                   3                   2
3                   4                   5                   1
3                   4                   1                   0
3                   6                   7                   5
3                   6                   5                   4
3                   8                   9                   7
3                   8                   7                   6
3                  10                  11                   9
3                  10                   9                   8
3                  12                  13                  11
3                  12                  11                  10
3                  14                  15                  13
3                  14                  13                  12
3                  16                  17                  15
3                  16                  15                  14
3                  18                  19                  17
3                  18                  17                  16
3                  20                  21                  19
3                  20                  19                  18
3                  22                  23                  21
3                  22                  21                  20
3                  24                  25                  23
3                  24                  23                  22
3                  26                  27                  25
3                  26                  25                  24
3                  28                  29                  27
3                  28                  27                  26
3                  30                  31                  29
3                  30                  29                  28
3                  32                  33                  31
3                  32                  31                  30
3                  34                  35                  33
3                  34                  33                  32
3                  36                  37                  35
3                  36                  35                  34
3                  38                  39                  37
3                  38                  37                  36
3                  40                  41                  39
3                  40                  39                  38
3                  42                  43                  41
3                  42                  41                  40
3                  44                  45                  43
3                  44                  43                  42
3                  46                  47                  45
3                  46                  45                  44
3                  48                  49                  47
3                  48                  47                  46
POINT_DATA                  50
SCALARS mu float 1
LOOKUP_TABLE default
     -1.147230378733
     -1.147230378733
     -1.143210997959
     -1.143210997959
     -1.156988460952
     -1.156988460952
     -1.168859742410
     -1.168859742410
     -1.184407096161
     -1.184407096161
     -1.203422522233
     -1.203422522233
     -1.223557203317
     -1.223557203317
     -1.244643480279
     -1.244643480279
     -1.265268027582
     -1.265268027582
     -1.285199682831
     -1.285199682831
     -1.302402710783
     -1.302402710783
     -1.312212144612
     -1.312212144612
     -1.314470958938
     -1.314470958938
     -1.306791769892
     -1.306791769892
     -1.288512815459
     -1.288512815459
     -1.252400757261
     -1.252400757261
     -1.199606298525
     -1.199606298525
     -1.128418922187
     -1.128418922187
     -1.040710729493
     -1.040710729493
     -0.947119943060
     -0.947119943060
     -0.814245345871
     -0.814245345871
     -0.671691323796
     -0.671691323796
     -0.507258367144
     -0.507258367144
     -0.301724252308
     -0.301724252308
      0.000000000000
      0.000000000000
