# vtk DataFile Version 3.0
MachLine results file. Generated by MachLine, USU AeroLab (c) 2022.
ASCII
DATASET POLYDATA
POINTS                  76 float
  0.197579002380E+02  0.757896304131E+00  0.000000000000E+00
  0.190000000000E+02  0.000000000000E+00  0.000000000000E+00
  0.149800867518E+05  0.757896304131E+00  0.548570355854E+03
  0.149804641754E+05  0.000000000000E+00  0.548611986289E+03
  0.207889842987E+02  0.178897356987E+01  0.000000000000E+00
  0.197579002380E+02  0.757896304131E+00  0.000000000000E+00
  0.149795732865E+05  0.178897356987E+01  0.548513719801E+03
  0.149800867518E+05  0.757896304131E+00  0.548570355854E+03
  0.221728172302E+02  0.317279767990E+01  0.000000000000E+00
  0.207889842987E+02  0.178897356987E+01  0.000000000000E+00
  0.149788841573E+05  0.317279767990E+01  0.548437707729E+03
  0.149795732865E+05  0.178897356987E+01  0.548513719801E+03
  0.239966468811E+02  0.499661636353E+01  0.000000000000E+00
  0.221728172302E+02  0.317279767990E+01  0.000000000000E+00
  0.149779759159E+05  0.499661636353E+01  0.548337527232E+03
  0.149788841573E+05  0.317279767990E+01  0.548437707729E+03
  0.263436698914E+02  0.734362459183E+01  0.000000000000E+00
  0.239966468811E+02  0.499661636353E+01  0.000000000000E+00
  0.149768071316E+05  0.734362459183E+01  0.548208608432E+03
  0.149779759159E+05  0.499661636353E+01  0.548337527232E+03
  0.292729015350E+02  0.102728376389E+02  0.000000000000E+00
  0.263436698914E+02  0.734362459183E+01  0.000000000000E+00
  0.149753484157E+05  0.102728376389E+02  0.548047709699E+03
  0.149768071316E+05  0.734362459183E+01  0.548208608432E+03
  0.327922058105E+02  0.137921218872E+02  0.000000000000E+00
  0.292729015350E+02  0.102728376389E+02  0.000000000000E+00
  0.149735958519E+05  0.137921218872E+02  0.547854399073E+03
  0.149753484157E+05  0.102728376389E+02  0.548047709699E+03
  0.368321151733E+02  0.178320064545E+02  0.000000000000E+00
  0.327922058105E+02  0.137921218872E+02  0.000000000000E+00
  0.149715840342E+05  0.178320064545E+02  0.547632492315E+03
  0.149735958519E+05  0.137921218872E+02  0.547854399073E+03
  0.412340698242E+02  0.222339305878E+02  0.000000000000E+00
  0.368321151733E+02  0.178320064545E+02  0.000000000000E+00
  0.149693919230E+05  0.222339305878E+02  0.547390698898E+03
  0.149715840342E+05  0.178320064545E+02  0.547632492315E+03
  0.457662315369E+02  0.267660694122E+02  0.000000000000E+00
  0.412340698242E+02  0.222339305878E+02  0.000000000000E+00
  0.149671349706E+05  0.267660694122E+02  0.547141753383E+03
  0.149693919230E+05  0.222339305878E+02  0.547390698898E+03
  0.501681861877E+02  0.311679935455E+02  0.000000000000E+00
  0.457662315369E+02  0.267660694122E+02  0.000000000000E+00
  0.149649428594E+05  0.311679935455E+02  0.546899959966E+03
  0.149671349706E+05  0.267660694122E+02  0.547141753383E+03
  0.542080955505E+02  0.352078781128E+02  0.000000000000E+00
  0.501681861877E+02  0.311679935455E+02  0.000000000000E+00
  0.149629310417E+05  0.352078781128E+02  0.546678053207E+03
  0.149649428594E+05  0.311679935455E+02  0.546899959966E+03
  0.577274017334E+02  0.387271614075E+02  0.000000000000E+00
  0.542080955505E+02  0.352078781128E+02  0.000000000000E+00
  0.149611784770E+05  0.387271614075E+02  0.546484742477E+03
  0.149629310417E+05  0.352078781128E+02  0.546678053207E+03
  0.606566314697E+02  0.416563758850E+02  0.000000000000E+00
  0.577274017334E+02  0.387271614075E+02  0.000000000000E+00
  0.149597197620E+05  0.416563758850E+02  0.546323843849E+03
  0.149611784770E+05  0.387271614075E+02  0.546484742477E+03
  0.630036544800E+02  0.440033836365E+02  0.000000000000E+00
  0.606566314697E+02  0.416563758850E+02  0.000000000000E+00
  0.149585509778E+05  0.440033836365E+02  0.546194925048E+03
  0.149597197620E+05  0.416563758850E+02  0.546323843849E+03
  0.648274841309E+02  0.458272018433E+02  0.000000000000E+00
  0.630036544800E+02  0.440033836365E+02  0.000000000000E+00
  0.149576427364E+05  0.458272018433E+02  0.546094744552E+03
  0.149585509778E+05  0.440033836365E+02  0.546194925048E+03
  0.662113189697E+02  0.472110252380E+02  0.000000000000E+00
  0.648274841309E+02  0.458272018433E+02  0.000000000000E+00
  0.149569536062E+05  0.472110252380E+02  0.546018732375E+03
  0.149576427364E+05  0.458272018433E+02  0.546094744552E+03
  0.672424011230E+02  0.482421035767E+02  0.000000000000E+00
  0.662113189697E+02  0.472110252380E+02  0.000000000000E+00
  0.149564401419E+05  0.482421035767E+02  0.545962096427E+03
  0.149569536062E+05  0.472110252380E+02  0.546018732375E+03
  0.680002975464E+02  0.490000000000E+02  0.000000000000E+00
  0.672424011230E+02  0.482421035767E+02  0.000000000000E+00
  0.149560627202E+05  0.490000000000E+02  0.545920466201E+03
  0.149564401419E+05  0.482421035767E+02  0.545962096427E+03
POLYGONS                  38                 152
3                   0                   3                   1
3                   0                   2                   3
3                   4                   7                   5
3                   4                   6                   7
3                   8                  11                   9
3                   8                  10                  11
3                  12                  15                  13
3                  12                  14                  15
3                  16                  19                  17
3                  16                  18                  19
3                  20                  23                  21
3                  20                  22                  23
3                  24                  27                  25
3                  24                  26                  27
3                  28                  31                  29
3                  28                  30                  31
3                  32                  35                  33
3                  32                  34                  35
3                  36                  39                  37
3                  36                  38                  39
3                  40                  43                  41
3                  40                  42                  43
3                  44                  47                  45
3                  44                  46                  47
3                  48                  51                  49
3                  48                  50                  51
3                  52                  55                  53
3                  52                  54                  55
3                  56                  59                  57
3                  56                  58                  59
3                  60                  63                  61
3                  60                  62                  63
3                  64                  67                  65
3                  64                  66                  67
3                  68                  71                  69
3                  68                  70                  71
3                  72                  75                  73
3                  72                  74                  75
POINT_DATA                  76
SCALARS mu float 1
LOOKUP_TABLE default
  0.199961884912E+01
 -0.726848963541E-02
  0.199961884912E+01
 -0.726848963541E-02
  0.769470638783E+01
  0.199961884912E+01
  0.769470638783E+01
  0.199961884912E+01
 -0.488493477104E+01
  0.769470638783E+01
 -0.488493477104E+01
  0.769470638783E+01
  0.120288513570E+01
 -0.488493477104E+01
  0.120288513570E+01
 -0.488493477104E+01
 -0.201249501618E+00
  0.120288513570E+01
 -0.201249501618E+00
  0.120288513570E+01
  0.170171281879E+00
 -0.201249501618E+00
  0.170171281879E+00
 -0.201249501618E+00
  0.116435487053E+00
  0.170171281879E+00
  0.116435487053E+00
  0.170171281879E+00
  0.161427484462E+00
  0.116435487053E+00
  0.161427484462E+00
  0.116435487053E+00
  0.170117767999E+00
  0.161427484462E+00
  0.170117767999E+00
  0.161427484462E+00
  0.169832319330E+00
  0.170117767999E+00
  0.169832319330E+00
  0.170117767999E+00
  0.185818639888E+00
  0.169832319330E+00
  0.185818639888E+00
  0.169832319330E+00
  0.127265497048E+00
  0.185818639888E+00
  0.127265497048E+00
  0.185818639888E+00
  0.934655399933E-01
  0.127265497048E+00
  0.934655399933E-01
  0.127265497048E+00
  0.703419814990E-01
  0.934655399933E-01
  0.703419814990E-01
  0.934655399933E-01
  0.120148812109E+00
  0.703419814990E-01
  0.120148812109E+00
  0.703419814990E-01
  0.202589891350E+00
  0.120148812109E+00
  0.202589891350E+00
  0.120148812109E+00
  0.240211450284E+00
  0.202589891350E+00
  0.240211450284E+00
  0.202589891350E+00
  0.202065300999E+00
  0.240211450284E+00
  0.202065300999E+00
  0.240211450284E+00
  0.000000000000E+00
  0.202065300999E+00
  0.000000000000E+00
  0.202065300999E+00
