# vtk DataFile Version 3.0
MachLine results file. Generated by MachLine, USU AeroLab (c) 2022.
ASCII
DATASET POLYDATA
POINTS                 762 float
  0.000000000000E+00  0.000000000000E+00  0.000000000000E+00
  0.156307692300E-01  0.000000000000E+00  0.410420687900E-02
  0.156307692300E-01  0.126826967400E-02  0.390333269600E-02
  0.156307692300E-01  0.241239227600E-02  0.332037311300E-02
  0.156307692300E-01  0.332037311300E-02  0.241239227600E-02
  0.156307692300E-01  0.390333269600E-02  0.126826967400E-02
  0.156307692300E-01  0.410420687900E-02  0.251310190900E-18
  0.156307692300E-01  0.390333269600E-02 -0.126826967400E-02
  0.156307692300E-01  0.332037311300E-02 -0.241239227600E-02
  0.156307692300E-01  0.241239227600E-02 -0.332037311300E-02
  0.156307692300E-01  0.126826967400E-02 -0.390333269600E-02
  0.156307692300E-01  0.502620381700E-18 -0.410420687900E-02
  0.156307692300E-01 -0.126826967400E-02 -0.390333269600E-02
  0.156307692300E-01 -0.241239227600E-02 -0.332037311300E-02
  0.156307692300E-01 -0.332037311300E-02 -0.241239227600E-02
  0.156307692300E-01 -0.390333269600E-02 -0.126826967400E-02
  0.156307692300E-01 -0.410420687900E-02 -0.753930572600E-18
  0.156307692300E-01 -0.390333269600E-02  0.126826967400E-02
  0.156307692300E-01 -0.332037311300E-02  0.241239227600E-02
  0.156307692300E-01 -0.241239227600E-02  0.332037311300E-02
  0.156307692300E-01 -0.126826967400E-02  0.390333269600E-02
  0.312615384600E-01  0.000000000000E+00  0.676574049800E-02
  0.312615384600E-01  0.209072879300E-02  0.643460158800E-02
  0.312615384600E-01  0.397680248500E-02  0.547359904200E-02
  0.312615384600E-01  0.547359904200E-02  0.397680248500E-02
  0.312615384600E-01  0.643460158800E-02  0.209072879300E-02
  0.312615384600E-01  0.676574049800E-02  0.414282122200E-18
  0.312615384600E-01  0.643460158800E-02 -0.209072879300E-02
  0.312615384600E-01  0.547359904200E-02 -0.397680248500E-02
  0.312615384600E-01  0.397680248500E-02 -0.547359904200E-02
  0.312615384600E-01  0.209072879300E-02 -0.643460158800E-02
  0.312615384600E-01  0.828564244400E-18 -0.676574049800E-02
  0.312615384600E-01 -0.209072879300E-02 -0.643460158800E-02
  0.312615384600E-01 -0.397680248500E-02 -0.547359904200E-02
  0.312615384600E-01 -0.547359904200E-02 -0.397680248500E-02
  0.312615384600E-01 -0.643460158800E-02 -0.209072879300E-02
  0.312615384600E-01 -0.676574049800E-02 -0.124284636700E-17
  0.312615384600E-01 -0.643460158800E-02  0.209072879300E-02
  0.312615384600E-01 -0.547359904200E-02  0.397680248500E-02
  0.312615384600E-01 -0.397680248500E-02  0.547359904200E-02
  0.312615384600E-01 -0.209072879300E-02  0.643460158800E-02
  0.468923076900E-01  0.000000000000E+00  0.898378527400E-02
  0.468923076900E-01  0.277614232300E-02  0.854408752600E-02
  0.468923076900E-01  0.528053649400E-02  0.726803496000E-02
  0.468923076900E-01  0.726803496000E-02  0.528053649400E-02
  0.468923076900E-01  0.854408752600E-02  0.277614232300E-02
  0.468923076900E-01  0.898378527400E-02  0.550098194000E-18
  0.468923076900E-01  0.854408752600E-02 -0.277614232300E-02
  0.468923076900E-01  0.726803496000E-02 -0.528053649400E-02
  0.468923076900E-01  0.528053649400E-02 -0.726803496000E-02
  0.468923076900E-01  0.277614232300E-02 -0.854408752600E-02
  0.468923076900E-01  0.110019638800E-17 -0.898378527400E-02
  0.468923076900E-01 -0.277614232300E-02 -0.854408752600E-02
  0.468923076900E-01 -0.528053649400E-02 -0.726803496000E-02
  0.468923076900E-01 -0.726803496000E-02 -0.528053649400E-02
  0.468923076900E-01 -0.854408752600E-02 -0.277614232300E-02
  0.468923076900E-01 -0.898378527400E-02 -0.165029458200E-17
  0.468923076900E-01 -0.854408752600E-02  0.277614232300E-02
  0.468923076900E-01 -0.726803496000E-02  0.528053649400E-02
  0.468923076900E-01 -0.528053649400E-02  0.726803496000E-02
  0.468923076900E-01 -0.277614232300E-02  0.854408752600E-02
  0.625230769200E-01  0.000000000000E+00  0.109140910700E-01
  0.625230769200E-01  0.337263961800E-02  0.103799174300E-01
  0.625230769200E-01  0.641514177200E-02  0.882968515200E-02
  0.625230769200E-01  0.882968515200E-02  0.641514177200E-02
  0.625230769200E-01  0.103799174300E-01  0.337263961800E-02
  0.625230769200E-01  0.109140910700E-01  0.668295334600E-18
  0.625230769200E-01  0.103799174300E-01 -0.337263961800E-02
  0.625230769200E-01  0.882968515200E-02 -0.641514177200E-02
  0.625230769200E-01  0.641514177200E-02 -0.882968515200E-02
  0.625230769200E-01  0.337263961800E-02 -0.103799174300E-01
  0.625230769200E-01  0.133659066900E-17 -0.109140910700E-01
  0.625230769200E-01 -0.337263961800E-02 -0.103799174300E-01
  0.625230769200E-01 -0.641514177200E-02 -0.882968515200E-02
  0.625230769200E-01 -0.882968515200E-02 -0.641514177200E-02
  0.625230769200E-01 -0.103799174300E-01 -0.337263961800E-02
  0.625230769200E-01 -0.109140910700E-01 -0.200488600400E-17
  0.625230769200E-01 -0.103799174300E-01  0.337263961800E-02
  0.625230769200E-01 -0.882968515200E-02  0.641514177200E-02
  0.625230769200E-01 -0.641514177200E-02  0.882968515200E-02
  0.625230769200E-01 -0.337263961800E-02  0.103799174300E-01
  0.781538461500E-01  0.000000000000E+00  0.126249084500E-01
  0.781538461500E-01  0.390131126300E-02  0.120070014500E-01
  0.781538461500E-01  0.742073499800E-02  0.102137654900E-01
  0.781538461500E-01  0.102137654900E-01  0.742073499800E-02
  0.781538461500E-01  0.120070014500E-01  0.390131126300E-02
  0.781538461500E-01  0.126249084500E-01  0.773052686100E-18
  0.781538461500E-01  0.120070014500E-01 -0.390131126300E-02
  0.781538461500E-01  0.102137654900E-01 -0.742073499800E-02
  0.781538461500E-01  0.742073499800E-02 -0.102137654900E-01
  0.781538461500E-01  0.390131126300E-02 -0.120070014500E-01
  0.781538461500E-01  0.154610537200E-17 -0.126249084500E-01
  0.781538461500E-01 -0.390131126300E-02 -0.120070014500E-01
  0.781538461500E-01 -0.742073499800E-02 -0.102137654900E-01
  0.781538461500E-01 -0.102137654900E-01 -0.742073499800E-02
  0.781538461500E-01 -0.120070014500E-01 -0.390131126300E-02
  0.781538461500E-01 -0.126249084500E-01 -0.231915805800E-17
  0.781538461500E-01 -0.120070014500E-01  0.390131126300E-02
  0.781538461500E-01 -0.102137654900E-01  0.742073499800E-02
  0.781538461500E-01 -0.742073499800E-02  0.102137654900E-01
  0.781538461500E-01 -0.390131126300E-02  0.120070014500E-01
  0.937846153800E-01  0.000000000000E+00  0.141543665800E-01
  0.937846153800E-01  0.437393981900E-02  0.134616025700E-01
  0.937846153800E-01  0.831972793300E-02  0.114511231100E-01
  0.937846153800E-01  0.114511231100E-01  0.831972793300E-02
  0.937846153800E-01  0.134616025700E-01  0.437393981900E-02
  0.937846153800E-01  0.141543665800E-01  0.866704986400E-18
  0.937846153800E-01  0.134616025700E-01 -0.437393981900E-02
  0.937846153800E-01  0.114511231100E-01 -0.831972793300E-02
  0.937846153800E-01  0.831972793300E-02 -0.114511231100E-01
  0.937846153800E-01  0.437393981900E-02 -0.134616025700E-01
  0.937846153800E-01  0.173340997300E-17 -0.141543665800E-01
  0.937846153800E-01 -0.437393981900E-02 -0.134616025700E-01
  0.937846153800E-01 -0.831972793300E-02 -0.114511231100E-01
  0.937846153800E-01 -0.114511231100E-01 -0.831972793300E-02
  0.937846153800E-01 -0.134616025700E-01 -0.437393981900E-02
  0.937846153800E-01 -0.141543665800E-01 -0.260011495900E-17
  0.937846153800E-01 -0.134616025700E-01  0.437393981900E-02
  0.937846153800E-01 -0.114511231100E-01  0.831972793300E-02
  0.937846153800E-01 -0.831972793300E-02  0.114511231100E-01
  0.937846153800E-01 -0.437393981900E-02  0.134616025700E-01
  0.109415384600E+00  0.000000000000E+00  0.155266427400E-01
  0.109415384600E+00  0.479799647200E-02  0.147667147500E-01
  0.109415384600E+00  0.912633162000E-02  0.125613178400E-01
  0.109415384600E+00  0.125613178400E-01  0.912633162000E-02
  0.109415384600E+00  0.147667147500E-01  0.479799647200E-02
  0.109415384600E+00  0.155266427400E-01  0.950732666600E-18
  0.109415384600E+00  0.147667147500E-01 -0.479799647200E-02
  0.109415384600E+00  0.125613178400E-01 -0.912633162000E-02
  0.109415384600E+00  0.912633162000E-02 -0.125613178400E-01
  0.109415384600E+00  0.479799647200E-02 -0.147667147500E-01
  0.109415384600E+00  0.190146533300E-17 -0.155266427400E-01
  0.109415384600E+00 -0.479799647200E-02 -0.147667147500E-01
  0.109415384600E+00 -0.912633162000E-02 -0.125613178400E-01
  0.109415384600E+00 -0.125613178400E-01 -0.912633162000E-02
  0.109415384600E+00 -0.147667147500E-01 -0.479799647200E-02
  0.109415384600E+00 -0.155266427400E-01 -0.285219800000E-17
  0.109415384600E+00 -0.147667147500E-01  0.479799647200E-02
  0.109415384600E+00 -0.125613178400E-01  0.912633162000E-02
  0.109415384600E+00 -0.912633162000E-02  0.125613178400E-01
  0.109415384600E+00 -0.479799647200E-02  0.147667147500E-01
  0.125046153800E+00  0.000000000000E+00  0.167583133700E-01
  0.125046153800E+00  0.517860362700E-02  0.159381031300E-01
  0.125046153800E+00  0.985028945000E-02  0.135577603100E-01
  0.125046153800E+00  0.135577603100E-01  0.985028945000E-02
  0.125046153800E+00  0.159381031300E-01  0.517860362700E-02
  0.125046153800E+00  0.167583133700E-01  0.102615074100E-17
  0.125046153800E+00  0.159381031300E-01 -0.517860362700E-02
  0.125046153800E+00  0.135577603100E-01 -0.985028945000E-02
  0.125046153800E+00  0.985028945000E-02 -0.135577603100E-01
  0.125046153800E+00  0.517860362700E-02 -0.159381031300E-01
  0.125046153800E+00  0.205230148200E-17 -0.167583133700E-01
  0.125046153800E+00 -0.517860362700E-02 -0.159381031300E-01
  0.125046153800E+00 -0.985028945000E-02 -0.135577603100E-01
  0.125046153800E+00 -0.135577603100E-01 -0.985028945000E-02
  0.125046153800E+00 -0.159381031300E-01 -0.517860362700E-02
  0.125046153800E+00 -0.167583133700E-01 -0.307845222300E-17
  0.125046153800E+00 -0.159381031300E-01  0.517860362700E-02
  0.125046153800E+00 -0.135577603100E-01  0.985028945000E-02
  0.125046153800E+00 -0.985028945000E-02  0.135577603100E-01
  0.125046153800E+00 -0.517860362700E-02  0.159381031300E-01
[...]
CELL_DATA                1520
SCALARS C_p_ise float 1
LOOKUP_TABLE default
  0.168866483831E+00
  0.168866483765E+00
  0.168866483580E+00
  0.168866483703E+00
  0.168866483814E+00
  0.168866483794E+00
  0.168866483738E+00
  0.168866483679E+00
  0.168866483715E+00
  0.168866483638E+00
  0.168866483737E+00
  0.168866483773E+00
  0.168866483587E+00
  0.168866483707E+00
  0.168866483755E+00
  0.168866483737E+00
  0.168866483739E+00
  0.168866483675E+00
  0.168866483812E+00
  0.168866483835E+00
  0.828613832944E-01
  0.828613842515E-01
  0.828613842746E-01
  0.828613846020E-01
  0.828613846056E-01
  0.828613852161E-01
  0.828613848077E-01
  0.828613827417E-01
  0.828613829513E-01
  0.828613834307E-01
  0.828613833987E-01
  0.828613833308E-01
  0.828613835361E-01
  0.828613845780E-01
  0.828613846607E-01
  0.828613851928E-01
  0.828613848233E-01
  0.828613831912E-01
  0.828613833081E-01
  0.828613840008E-01
  0.828613839886E-01
  0.828613836290E-01
  0.828613838252E-01
  0.828613845392E-01
  0.828613845473E-01
  0.828613851763E-01
  0.828613847716E-01
  0.828613827302E-01
  0.828613832313E-01
  0.828613851002E-01
  0.828613845978E-01
  0.828613826013E-01
  0.828613829807E-01
  0.828613845514E-01
  0.828613846368E-01
  0.828613851966E-01
  0.828613848623E-01
  0.828613830551E-01
  0.828613830760E-01
  0.828613830631E-01
  0.658422044627E-01
  0.658421995081E-01
  0.658421998288E-01
  0.658422005713E-01
  0.658422003335E-01
  0.658421981008E-01
  0.658421989345E-01
  0.658422064363E-01
  0.658422056696E-01
  0.658422019893E-01
  0.658422018217E-01
  0.658422001268E-01
  0.658422000087E-01
  0.658421980426E-01
  0.658421982611E-01
  0.658421977639E-01
  0.658421986490E-01
  0.658422063986E-01
  0.658422059942E-01
  0.658422048058E-01
  0.658422042037E-01
  0.658421989968E-01
  0.658421992692E-01
  0.658422005526E-01
  0.658422003909E-01
  0.658421981111E-01
  0.658421988596E-01
  0.658422057077E-01
  0.658422051874E-01
  0.658422014959E-01
  0.658422014894E-01
  0.658422017083E-01
  0.658422011573E-01
  0.658421978819E-01
  0.658421982054E-01
  0.658421976728E-01
  0.658421986067E-01
  0.658422064543E-01
  0.658422059618E-01
  0.658422049703E-01
  0.495523927447E-01
  0.495523984511E-01
  0.495523976008E-01
  0.495523921614E-01
  0.495523923791E-01
  0.495523958500E-01
  0.495523956636E-01
  0.495523890891E-01
  0.495523909348E-01
  0.495524074104E-01
  0.495524059422E-01
  0.495523968946E-01
  0.495523965500E-01
  0.495523961433E-01
  0.495523962828E-01
  0.495523982843E-01
  0.495523981176E-01
  0.495523891214E-01
  0.495523901346E-01
  0.495523945040E-01
  0.495523941031E-01
  0.495523967979E-01
  0.495523960346E-01
  0.495523922353E-01
  0.495523925909E-01
  0.495523961322E-01
  0.495523959082E-01
  0.495523897615E-01
  0.495523912138E-01
  0.495524022643E-01
  0.495524009899E-01
  0.495523925248E-01
  0.495523924799E-01
  0.495523966119E-01
  0.495523966545E-01
  0.495523983601E-01
  0.495523982258E-01
  0.495523891757E-01
  0.495523899706E-01
  0.495523927483E-01
  0.391843120395E-01
  0.391843034311E-01
  0.391843033722E-01
  0.391843061894E-01
  0.391843066206E-01
  0.391843163675E-01
  0.391843160843E-01
  0.391843103042E-01
  0.391843107316E-01
  0.391843019656E-01
  0.391843022769E-01
  0.391843049861E-01
  0.391843039233E-01
  0.391843041206E-01
  0.391843044120E-01
  0.391843072766E-01
  0.391843074868E-01
  0.391843099811E-01
  0.391843100276E-01
  0.391843089281E-01
  0.391843087022E-01
  0.391843053172E-01
  0.391843049397E-01
  0.391843058559E-01
  0.391843065458E-01
  0.391843162618E-01
  0.391843160104E-01
  0.391843110382E-01
  0.391843117118E-01
  0.391843105883E-01
  0.391843101097E-01
  0.391843059711E-01
  0.391843051135E-01
  0.391843038265E-01
  0.391843044729E-01
  0.391843080707E-01
  0.391843083427E-01
  0.391843116409E-01
  0.391843116292E-01
  0.391843124315E-01
  0.308392287002E-01
  0.308392199438E-01
  0.308392192645E-01
  0.308392178415E-01
  0.308392184233E-01
  0.308392185476E-01
  0.308392192247E-01
  0.308392246667E-01
  0.308392249067E-01
  0.308392291541E-01
  0.308392284777E-01
  0.308392216938E-01
  0.308392209408E-01
  0.308392210443E-01
  0.308392214063E-01
  0.308392228096E-01
  0.308392231226E-01
  0.308392222945E-01
  0.308392227883E-01
  0.308392280546E-01
  0.308392278153E-01
  0.308392283728E-01
  0.308392272356E-01
  0.308392168476E-01
  0.308392175654E-01
  0.308392181981E-01
  0.308392187267E-01
  0.308392211115E-01
  0.308392216409E-01
  0.308392262206E-01
  0.308392254665E-01
  0.308392209626E-01
  0.308392199193E-01
  0.308392194814E-01
  0.308392200452E-01
  0.308392211447E-01
  0.308392218013E-01
  0.308392252011E-01
  0.308392256159E-01
  0.308392294962E-01
  0.239018141148E-01
  0.239018242045E-01
  0.239018230967E-01
  0.239018220030E-01
  0.239018222240E-01
  0.239018173877E-01
  0.239018187289E-01
  0.239018345278E-01
  0.239018341504E-01
  0.239018152302E-01
  0.239018152147E-01
  0.239018232356E-01
  0.239018217372E-01
  0.239018114433E-01
  0.239018119859E-01
  0.239018166620E-01
  0.239018180379E-01
  0.239018401972E-01
  0.239018389910E-01
  0.239018041547E-01
  0.239018046837E-01
  0.239018149430E-01
  0.239018143708E-01
  0.239018234339E-01
  0.239018232337E-01
  0.239018165332E-01
  0.239018177917E-01
  0.239018341029E-01
  0.239018336176E-01
  0.239018101507E-01
  0.239018106491E-01
  0.239018309174E-01
  0.239018290079E-01
  0.239018129088E-01
  0.239018135639E-01
  0.239018173812E-01
  0.239018186344E-01
  0.239018318539E-01
  0.239018315969E-01
  0.239018141599E-01
  0.182726015820E-01
  0.182726012480E-01
  0.182726012852E-01
  0.182726173701E-01
  0.182726172935E-01
  0.182726114676E-01
  0.182726122936E-01
  0.182726076554E-01
  0.182726080142E-01
  0.182726090497E-01
  0.182726081597E-01
  0.182726056420E-01
  0.182726053353E-01
  0.182726237703E-01
  0.182726235481E-01
  0.182726163287E-01
  0.182726174042E-01
  0.182726082117E-01
  0.182726084838E-01
  0.182726197453E-01
  0.182726190614E-01
  0.182726264202E-01
  0.182726260395E-01
  0.182726184658E-01
  0.182726185209E-01
  0.182726150155E-01
  0.182726157050E-01
  0.182726114386E-01
  0.182726118471E-01
  0.182726161546E-01
  0.182726152465E-01
  0.182726051542E-01
  0.182726050051E-01
  0.182726239442E-01
  0.182726235883E-01
  0.182726165111E-01
  0.182726175724E-01
  0.182726118080E-01
  0.182726117691E-01
  0.182726023540E-01
  0.122589619306E-01
  0.122590254284E-01
  0.122590250347E-01
  0.122590117157E-01
  0.122590111095E-01
  0.122589773787E-01
  0.122589773565E-01
  0.122589595385E-01
  0.122589602252E-01
  0.122589769811E-01
  0.122589774688E-01
  0.122590165052E-01
  0.122590153973E-01
  0.122589915823E-01
  0.122589914899E-01
  0.122589754495E-01
  0.122589760327E-01
  0.122589717367E-01
  0.122589718532E-01
  0.122589779830E-01
  0.122589788025E-01
  0.122590116168E-01
  0.122590113882E-01
  0.122590067208E-01
  0.122590054375E-01
  0.122589719626E-01
  0.122589721242E-01
  0.122589614113E-01
  0.122589617386E-01
  0.122589654368E-01
  0.122589664579E-01
  0.122590192582E-01
  0.122590179120E-01
  0.122589902820E-01
  0.122589901602E-01
  0.122589763852E-01
  0.122589769574E-01
  0.122589725590E-01
  0.122589719678E-01
  0.122589609129E-01
  0.755888128304E-02
  0.755882115367E-02
  0.755882197650E-02
  0.755879896765E-02
  0.755879982144E-02
  0.755886490903E-02
  0.755886513608E-02
  0.755891076460E-02
  0.755890936905E-02
  0.755885316640E-02
  0.755885311756E-02
  0.755881750297E-02
  0.755881761477E-02
  0.755881747242E-02
  0.755881795283E-02
  0.755886316776E-02
  0.755886380305E-02
  0.755888600075E-02
  0.755888433406E-02
  0.755882261944E-02
  0.755882371520E-02
  0.755883104735E-02
  0.755883097436E-02
  0.755880140689E-02
  0.755880190346E-02
  0.755886693501E-02
  0.755886705262E-02
  0.755890224679E-02
  0.755890092275E-02
  0.755885178694E-02
  0.755885290657E-02
  0.755885702407E-02
  0.755885639134E-02
  0.755882183430E-02
  0.755882201577E-02
  0.755886106898E-02
  0.755886173880E-02
  0.755888320249E-02
  0.755888255249E-02
  0.755888230426E-02
  0.345476395395E-02
  0.345479816621E-02
  0.345479753504E-02
  0.345480037630E-02
  0.345479988114E-02
  0.345476965955E-02
  0.345477069841E-02
  0.345473888292E-02
  0.345473898297E-02
  0.345475010534E-02
  0.345474932418E-02
  0.345477535275E-02
  0.345477548320E-02
  0.345481417301E-02
  0.345481375671E-02
  0.345477769850E-02
  0.345477863307E-02
  0.345474704104E-02
  0.345474796901E-02
  0.345483081505E-02
  0.345482946144E-02
  0.345479125555E-02
  0.345479175383E-02
  0.345480906944E-02
  0.345480779521E-02
  0.345476385197E-02
  0.345476509990E-02
  0.345474687101E-02
  0.345474781316E-02
  0.345480434477E-02
  0.345480310940E-02
  0.345475606747E-02
  0.345475668028E-02
  0.345480425697E-02
  0.345480294651E-02
  0.345477490044E-02
  0.345477583353E-02
  0.345474926744E-02
  0.345474953144E-02
  0.345476408658E-02
  0.151694901477E-03
  0.151703511241E-03
  0.151704162254E-03
  0.151731908816E-03
  0.151731817324E-03
  0.151746039612E-03
  0.151745482305E-03
  0.151700517632E-03
  0.151700948307E-03
  0.151752089225E-03
  0.151751169843E-03
  0.151727115019E-03
  0.151728010092E-03
  0.151742096488E-03
  0.151742614335E-03
  0.151748099456E-03
  0.151747352729E-03
  0.151703262889E-03
  0.151703368559E-03
  0.151699110079E-03
  0.151698995407E-03
  0.151669199219E-03
  0.151669902871E-03
  0.151723661195E-03
  0.151723651159E-03
  0.151762950151E-03
  0.151761852534E-03
  0.151693064477E-03
  0.151693657095E-03
  0.151700522959E-03
  0.151700466905E-03
  0.151695630056E-03
  0.151696237588E-03
  0.151748839262E-03
  0.151748702737E-03
  0.151751603047E-03
  0.151750758151E-03
  0.151693252045E-03
  0.151692988108E-03
  0.151694566929E-03
 -0.364488057687E-02
 -0.364488263701E-02
 -0.364488229600E-02
 -0.364490490637E-02
 -0.364490523371E-02
 -0.364494938642E-02
 -0.364494901068E-02
 -0.364490984198E-02
 -0.364491047506E-02
 -0.364492750215E-02
 -0.364492662029E-02
 -0.364487383012E-02
 -0.364487427334E-02
 -0.364492592100E-02
 -0.364492584387E-02
 -0.364496347593E-02
 -0.364496336864E-02
 -0.364492185279E-02
 -0.364492209661E-02
 -0.364489785720E-02
 -0.364489737065E-02
 -0.364485609170E-02
 -0.364485676562E-02
 -0.364490666256E-02
 -0.364490688880E-02
 -0.364497587445E-02
 -0.364497494638E-02
 -0.364489747922E-02
 -0.364489772599E-02
 -0.364487464639E-02
 -0.364487428365E-02
 -0.364485544622E-02
 -0.364485622091E-02
 -0.364493296237E-02
 -0.364493283342E-02
 -0.364497137527E-02
 -0.364497100918E-02
 -0.364490519107E-02
 -0.364490595835E-02
 -0.364488085779E-02
 -0.732688922000E-02
 -0.732695629748E-02
 -0.732695511686E-02
 -0.732688487573E-02
 -0.732688538814E-02
 -0.732688011285E-02
 -0.732687965115E-02
 -0.732682357147E-02
 -0.732682395631E-02
 -0.732685250820E-02
 -0.732685351757E-02
 -0.732697016267E-02
 -0.732696872353E-02
 -0.732688425867E-02
 -0.732688474387E-02
 -0.732687376720E-02
 -0.732687352977E-02
 -0.732682394208E-02
 -0.732682439205E-02
 -0.732688545107E-02
 -0.732688534203E-02
 -0.732693322928E-02
 -0.732693261469E-02
 -0.732688450384E-02
 -0.732688493560E-02
 -0.732685208414E-02
 -0.732685180023E-02
 -0.732681953695E-02
 -0.732682017581E-02
 -0.732693229045E-02
 -0.732693166310E-02
 -0.732693075114E-02
 -0.732693028870E-02
 -0.732686432748E-02
 -0.732686499317E-02
 -0.732684546587E-02
 -0.732684559544E-02
 -0.732683983601E-02
 -0.732684024049E-02
 -0.732688891589E-02
 -0.105821922103E-01
 -0.105821088969E-01
 -0.105821104225E-01
 -0.105822786993E-01
 -0.105822777576E-01
 -0.105822198121E-01
 -0.105822198920E-01
 -0.105822692442E-01
 -0.105822680216E-01
 -0.105821792003E-01
 -0.105821796894E-01
 -0.105821182795E-01
 -0.105821198802E-01
 -0.105822649026E-01
 -0.105822639173E-01
 -0.105822184661E-01
 -0.105822187030E-01
 -0.105822712643E-01
 -0.105822708584E-01
 -0.105822476667E-01
 -0.105822471604E-01
 -0.105821455034E-01
 -0.105821466303E-01
 -0.105822526374E-01
 -0.105822522419E-01
 -0.105822297426E-01
 -0.105822297865E-01
 -0.105822899891E-01
 -0.105822888189E-01
 -0.105821609076E-01
 -0.105821615764E-01
 -0.105821595054E-01
 -0.105821605083E-01
 -0.105822926445E-01
 -0.105822920743E-01
 -0.105822530008E-01
 -0.105822530172E-01
 -0.105822648376E-01
 -0.105822643502E-01
 -0.105821923162E-01
 -0.135470126856E-01
 -0.135470817095E-01
 -0.135470805546E-01
 -0.135468781079E-01
 -0.135468795460E-01
 -0.135469746439E-01
 -0.135469745322E-01
 -0.135470112115E-01
 -0.135470107133E-01
 -0.135470179504E-01
 -0.135470177684E-01
 -0.135470388133E-01
 -0.135470385041E-01
 -0.135469092362E-01
 -0.135469102409E-01
 -0.135469805088E-01
 -0.135469800720E-01
 -0.135469495553E-01
 -0.135469498432E-01
 -0.135469707635E-01
 -0.135469713189E-01
 -0.135471108485E-01
 -0.135471092973E-01
 -0.135469156606E-01
 -0.135469167702E-01
 -0.135469827161E-01
 -0.135469827484E-01
 -0.135470044091E-01
 -0.135470043446E-01
 -0.135470481552E-01
 -0.135470473980E-01
 -0.135470210589E-01
 -0.135470207267E-01
 -0.135468858726E-01
 -0.135468870865E-01
 -0.135469559662E-01
 -0.135469557811E-01
 -0.135469705083E-01
 -0.135469705666E-01
 -0.135470128028E-01
 -0.158092439389E-01
 -0.158092151053E-01
 -0.158092156892E-01
 -0.158093839204E-01
 -0.158093831837E-01
 -0.158092889791E-01
 -0.158092892746E-01
 -0.158092565537E-01
 -0.158092560193E-01
 -0.158091918485E-01
 -0.158091920074E-01
 -0.158092332069E-01
 -0.158092339058E-01
 -0.158093658650E-01
 -0.158093653736E-01
 -0.158092908257E-01
 -0.158092910393E-01
 -0.158093097790E-01
 -0.158093089762E-01
 -0.158091720671E-01
 -0.158091720757E-01
 -0.158090842326E-01
 -0.158090855681E-01
 -0.158093550502E-01
 -0.158093541968E-01
 -0.158092721645E-01
 -0.158092724983E-01
 -0.158092578830E-01
 -0.158092575531E-01
 -0.158091891017E-01
 -0.158091889227E-01
 -0.158092080000E-01
 -0.158092085578E-01
 -0.158093679928E-01
 -0.158093676760E-01
 -0.158093018830E-01
 -0.158093019753E-01
 -0.158092712379E-01
 -0.158092712067E-01
 -0.158092439420E-01
 -0.180474278044E-01
 -0.180473407359E-01
 -0.180473408888E-01
 -0.180473111836E-01
 -0.180473118000E-01
 -0.180474194908E-01
 -0.180474194417E-01
 -0.180474526795E-01
 -0.180474525559E-01
 -0.180475433187E-01
 -0.180475424144E-01
 -0.180473539607E-01
 -0.180473543801E-01
 -0.180473019008E-01
 -0.180473025151E-01
 -0.180474054647E-01
 -0.180474054980E-01
 -0.180474532013E-01
 -0.180474530529E-01
 -0.180475303683E-01
 -0.180475297313E-01
 -0.180475064406E-01
 -0.180475062355E-01
 -0.180473214573E-01
 -0.180473223360E-01
 -0.180474132052E-01
 -0.180474131348E-01
 -0.180474224189E-01
 -0.180474226472E-01
 -0.180475494732E-01
 -0.180475488837E-01
 -0.180474997178E-01
 -0.180474993934E-01
 -0.180473061634E-01
 -0.180473069721E-01
 -0.180474020316E-01
 -0.180474021259E-01
 -0.180474764329E-01
 -0.180474760975E-01
 -0.180474282632E-01
 -0.203840219083E-01
 -0.203842141424E-01
 -0.203842140871E-01
 -0.203842353313E-01
 -0.203842353595E-01
 -0.203841248670E-01
 -0.203841251543E-01
 -0.203841743559E-01
 -0.203841740450E-01
 -0.203840143609E-01
 -0.203840143171E-01
 -0.203841284089E-01
 -0.203841285088E-01
 -0.203842628642E-01
 -0.203842628148E-01
 -0.203841364606E-01
 -0.203841366493E-01
 -0.203841200970E-01
 -0.203841199104E-01
 -0.203840147271E-01
 -0.203840147338E-01
 -0.203841006368E-01
 -0.203841007796E-01
 -0.203842481170E-01
 -0.203842480327E-01
 -0.203841702069E-01
 -0.203841704464E-01
 -0.203842177270E-01
 -0.203842173184E-01
 -0.203839438346E-01
 -0.203839441542E-01
 -0.203841266710E-01
 -0.203841266410E-01
 -0.203842425371E-01
 -0.203842423629E-01
 -0.203841452225E-01
 -0.203841454095E-01
 -0.203841205883E-01
 -0.203841203746E-01
 -0.203840218509E-01
 -0.226882714684E-01
 -0.226881698672E-01
 -0.226881698672E-01
 -0.226881003895E-01
 -0.226881003895E-01
 -0.226881816158E-01
 -0.226881816158E-01
 -0.226881111970E-01
 -0.226881111970E-01
 -0.226882552405E-01
 -0.226882552405E-01
 -0.226881863714E-01
 -0.226881863714E-01
 -0.226880709472E-01
 -0.226880709472E-01
 -0.226881706101E-01
 -0.226881706101E-01
 -0.226881785763E-01
 -0.226881785763E-01
 -0.226883140164E-01
 -0.226883140164E-01
 -0.226882179449E-01
 -0.226882179449E-01
 -0.226880819553E-01
 -0.226880819553E-01
 -0.226881322419E-01
 -0.226881322419E-01
 -0.226881029942E-01
 -0.226881029942E-01
 -0.226883719010E-01
 -0.226883719010E-01
 -0.226881106502E-01
 -0.226881106502E-01
 -0.226880889117E-01
 -0.226880889117E-01
 -0.226881365532E-01
 -0.226881365532E-01
 -0.226881313874E-01
 -0.226881313874E-01
 -0.226882714685E-01
 -0.250284833784E-01
 -0.250286648521E-01
 -0.250286650609E-01
 -0.250285662011E-01
 -0.250285662204E-01
 -0.250285093765E-01
 -0.250285094421E-01
 -0.250284312826E-01
 -0.250284310699E-01
 -0.250285728521E-01
 -0.250285730325E-01
 -0.250285875940E-01
 -0.250285876374E-01
 -0.250285851563E-01
 -0.250285850892E-01
 -0.250285259718E-01
 -0.250285260936E-01
 -0.250283884617E-01
 -0.250283882558E-01
 -0.250284601266E-01
 -0.250284598972E-01
 -0.250286377631E-01
 -0.250286380846E-01
 -0.250285491116E-01
 -0.250285491299E-01
 -0.250285209842E-01
 -0.250285211068E-01
 -0.250283955485E-01
 -0.250283953382E-01
 -0.250284217124E-01
 -0.250284214212E-01
 -0.250286721048E-01
 -0.250286724327E-01
 -0.250286215987E-01
 -0.250286216039E-01
 -0.250285653441E-01
 -0.250285656034E-01
 -0.250283951234E-01
 -0.250283949440E-01
 -0.250284836766E-01
 -0.271797336741E-01
 -0.271795469348E-01
 -0.271795462502E-01
 -0.271796429219E-01
 -0.271796428101E-01
 -0.271797788103E-01
 -0.271797791756E-01
 -0.271797764049E-01
 -0.271797767091E-01
 -0.271796710837E-01
 -0.271796710545E-01
 -0.271796282153E-01
 -0.271796281692E-01
 -0.271796473808E-01
 -0.271796469027E-01
 -0.271797359420E-01
 -0.271797362541E-01
 -0.271797772031E-01
 -0.271797775416E-01
 -0.271797256490E-01
 -0.271797258206E-01
 -0.271794967577E-01
 -0.271794958492E-01
 -0.271797086235E-01
 -0.271797086433E-01
 -0.271798013557E-01
 -0.271798016768E-01
 -0.271798100723E-01
 -0.271798102586E-01
 -0.271797823718E-01
 -0.271797825898E-01
 -0.271795560566E-01
 -0.271795556185E-01
 -0.271795816405E-01
 -0.271795812142E-01
 -0.271797414075E-01
 -0.271797416817E-01
 -0.271798581190E-01
 -0.271798589320E-01
 -0.271797338754E-01
 -0.288477694594E-01
 -0.288478457188E-01
 -0.288478446831E-01
 -0.288480302725E-01
 -0.288480318880E-01
 -0.288476426468E-01
 -0.288476417344E-01
 -0.288477480933E-01
 -0.288477486061E-01
 -0.288477422005E-01
 -0.288477419078E-01
 -0.288478872334E-01
 -0.288478872224E-01
 -0.288479197913E-01
 -0.288479203160E-01
 -0.288476967552E-01
 -0.288476958231E-01
 -0.288478386021E-01
 -0.288478393659E-01
 -0.288477569150E-01
 -0.288477554272E-01
 -0.288480944724E-01
 -0.288480951928E-01
 -0.288479776033E-01
 -0.288479785217E-01
 -0.288476221441E-01
 -0.288476211851E-01
 -0.288477669959E-01
 -0.288477673698E-01
 -0.288477436596E-01
 -0.288477432252E-01
 -0.288478963198E-01
 -0.288478964877E-01
 -0.288479838676E-01
 -0.288479850484E-01
 -0.288476594037E-01
 -0.288476584552E-01
 -0.288477243170E-01
 -0.288477245685E-01
 -0.288477694752E-01
 -0.302607176933E-01
 -0.302604721206E-01
 -0.302604706383E-01
 -0.302604076320E-01
 -0.302604049175E-01
 -0.302608127597E-01
 -0.302608155976E-01
 -0.302607070513E-01
 -0.302607071607E-01
 -0.302606723607E-01
 -0.302606724782E-01
 -0.302606170524E-01
 -0.302606170241E-01
 -0.302604758192E-01
 -0.302604737023E-01
 -0.302607826652E-01
 -0.302607846953E-01
 -0.302606080460E-01
 -0.302606073603E-01
 -0.302606739297E-01
 -0.302606754774E-01
 -0.302603275075E-01
 -0.302603248759E-01
 -0.302604276313E-01
 -0.302604265771E-01
 -0.302608181042E-01
 -0.302608209310E-01
 -0.302606738532E-01
 -0.302606742226E-01
 -0.302605465606E-01
 -0.302605459946E-01
 -0.302605675365E-01
 -0.302605676518E-01
 -0.302604304247E-01
 -0.302604280151E-01
 -0.302608249602E-01
 -0.302608273031E-01
 -0.302607104302E-01
 -0.302607101834E-01
 -0.302607160545E-01
 -0.315147160751E-01
 -0.315149685098E-01
 -0.315149722014E-01
 -0.315146867716E-01
 -0.315146860961E-01
 -0.315144900614E-01
 -0.315144887494E-01
 -0.315145499203E-01