# vtk DataFile Version 3.0
MachLine results file. Generated by MachLine, USU AeroLab (c) 2022.
ASCII
DATASET POLYDATA
POINTS                 482 float
  0.000000000000E+00  0.000000000000E+00  0.000000000000E+00
  0.473465979099E+00  0.000000000000E+00 -0.436293870211E+00
  0.473465979099E+00  0.000000000000E+00  0.436293870211E+00
  0.757896304131E+00  0.757896304131E+00  0.000000000000E+00
  0.123136246204E+01  0.757896304131E+00 -0.436293989420E+00
  0.123136246204E+01  0.757896304131E+00  0.436293989420E+00
  0.157641971111E+01  0.000000000000E+00 -0.760520398617E+00
  0.157641971111E+01  0.000000000000E+00  0.760520398617E+00
  0.178897356987E+01  0.178897356987E+01  0.000000000000E+00
  0.226243972778E+01  0.178897356987E+01 -0.436294138432E+00
  0.226243972778E+01  0.178897356987E+01  0.436294138432E+00
  0.233431649208E+01  0.757896304131E+00 -0.760520577431E+00
  0.233431649208E+01  0.757896304131E+00  0.760520577431E+00
  0.317279767990E+01  0.317279767990E+01  0.000000000000E+00
  0.336539411545E+01  0.178897356987E+01 -0.760520815849E+00
  0.336539411545E+01  0.178897356987E+01  0.760520815849E+00
  0.342464399338E+01  0.000000000000E+00 -0.102348911762E+01
  0.342464399338E+01  0.000000000000E+00  0.102348911762E+01
  0.364626431465E+01  0.317279767990E+01 -0.436294317245E+00
  0.364626431465E+01  0.317279767990E+01  0.436294317245E+00
  0.418254137039E+01  0.757896304131E+00 -0.102348935604E+01
  0.418254137039E+01  0.757896304131E+00  0.102348935604E+01
  0.474921894073E+01  0.317279767990E+01 -0.760521173477E+00
  0.474921894073E+01  0.317279767990E+01  0.760521173477E+00
  0.499661636353E+01  0.499661636353E+01  0.000000000000E+00
  0.521361970901E+01  0.178897356987E+01 -0.102348971367E+01
  0.521361970901E+01  0.178897356987E+01  0.102348971367E+01
  0.547008323669E+01  0.499661636353E+01 -0.436294585466E+00
  0.547008323669E+01  0.499661636353E+01  0.436294585466E+00
  0.611307668686E+01  0.000000000000E+00 -0.114008128643E+01
  0.611307668686E+01  0.000000000000E+00  0.114008128643E+01
  0.657303857803E+01  0.499661636353E+01 -0.760521650314E+00
  0.657303857803E+01  0.499661636353E+01  0.760521650314E+00
  0.659744548798E+01  0.317279767990E+01 -0.102349019051E+01
  0.659744548798E+01  0.317279767990E+01  0.102349019051E+01
  0.687097454071E+01  0.757896304131E+00 -0.114008152485E+01
  0.687097454071E+01  0.757896304131E+00  0.114008152485E+01
  0.734362459183E+01  0.734362459183E+01  0.000000000000E+00
  0.781709194183E+01  0.734362459183E+01 -0.436294913292E+00
  0.781709194183E+01  0.734362459183E+01  0.436294913292E+00
  0.790205335617E+01  0.178897356987E+01 -0.114008200169E+01
  0.790205335617E+01  0.178897356987E+01  0.114008200169E+01
  0.842126560211E+01  0.499661636353E+01 -0.102349078655E+01
  0.842126560211E+01  0.499661636353E+01  0.102349078655E+01
  0.892004776001E+01  0.734362459183E+01 -0.760522186756E+00
  0.892004776001E+01  0.734362459183E+01  0.760522186756E+00
  0.928588008881E+01  0.317279767990E+01 -0.114008247852E+01
  0.928588008881E+01  0.317279767990E+01  0.114008247852E+01
  0.939508819580E+01  0.000000000000E+00 -0.980745851994E+00
  0.939508819580E+01  0.000000000000E+00  0.980745851994E+00
  0.101529865265E+02  0.757896304131E+00 -0.980746090412E+00
  0.101529865265E+02  0.757896304131E+00  0.980746090412E+00
  0.102728376389E+02  0.102728376389E+02  0.000000000000E+00
  0.107463054657E+02  0.102728376389E+02 -0.436295330524E+00
  0.107463054657E+02  0.102728376389E+02  0.436295330524E+00
  0.107682771683E+02  0.734362459183E+01 -0.102349150181E+01
  0.107682771683E+02  0.734362459183E+01  0.102349150181E+01
  0.111097030640E+02  0.499661636353E+01 -0.114008307457E+01
  0.111097030640E+02  0.499661636353E+01  0.114008307457E+01
  0.111840667725E+02  0.178897356987E+01 -0.980746388435E+00
  0.111840667725E+02  0.178897356987E+01  0.980746388435E+00
  0.118492631912E+02  0.102728376389E+02 -0.760522902012E+00
  0.118492631912E+02  0.102728376389E+02  0.760522902012E+00
  0.125678949356E+02  0.317279767990E+01 -0.980746865273E+00
  0.125678949356E+02  0.317279767990E+01  0.980746865273E+00
  0.126670312881E+02  0.000000000000E+00 -0.678052663803E+00
  0.126670312881E+02  0.000000000000E+00  0.678052663803E+00
  0.134249305725E+02  0.757896304131E+00 -0.678052842617E+00
  0.134249305725E+02  0.757896304131E+00  0.678052842617E+00
  0.134567155838E+02  0.734362459183E+01 -0.114008402824E+01
  0.134567155838E+02  0.734362459183E+01  0.114008402824E+01
  0.136974935532E+02  0.102728376389E+02 -0.102349245548E+01
  0.136974935532E+02  0.102728376389E+02  0.102349245548E+01
  0.137921218872E+02  0.137921218872E+02  0.000000000000E+00
  0.142655897141E+02  0.137921218872E+02 -0.436295837164E+00
  0.142655897141E+02  0.137921218872E+02  0.436295837164E+00
  0.143917188644E+02  0.499661636353E+01 -0.980747401714E+00
  0.143917188644E+02  0.499661636353E+01  0.980747401714E+00
  0.144560117722E+02  0.178897356987E+01 -0.678053081036E+00
  0.144560117722E+02  0.178897356987E+01  0.678053081036E+00
  0.153437566757E+02  0.000000000000E+00 -0.393031150103E+00
  0.153437566757E+02  0.000000000000E+00  0.393031150103E+00
  0.153685483932E+02  0.137921218872E+02 -0.760523796082E+00
  0.153685483932E+02  0.137921218872E+02  0.760523796082E+00
  0.158398418427E+02  0.317279767990E+01 -0.678053379059E+00
  0.158398418427E+02  0.317279767990E+01  0.678053379059E+00
  0.161016559601E+02  0.757896304131E+00 -0.393031239510E+00
  0.161016559601E+02  0.757896304131E+00  0.393031239510E+00
  0.163859348297E+02  0.102728376389E+02 -0.114008510113E+01
  0.163859348297E+02  0.102728376389E+02  0.114008510113E+01
  0.167387351990E+02  0.734362459183E+01 -0.980748176575E+00
  0.167387351990E+02  0.734362459183E+01  0.980748176575E+00
  0.171327381134E+02  0.178897356987E+01 -0.393031388521E+00
  0.171327381134E+02  0.178897356987E+01  0.393031388521E+00
  0.172004318237E+02  0.000000000000E+00 -0.192506864667E+00
  0.172004318237E+02  0.000000000000E+00  0.192506864667E+00
  0.172167816162E+02  0.137921218872E+02 -0.102349364758E+01
  0.172167816162E+02  0.137921218872E+02  0.102349364758E+01
  0.176636676788E+02  0.499661636353E+01 -0.678053736687E+00
  0.176636676788E+02  0.499661636353E+01  0.678053736687E+00
  0.178320064545E+02  0.178320064545E+02  0.000000000000E+00
  0.179583320618E+02  0.757896304131E+00 -0.192506924272E+00
  0.179583320618E+02  0.757896304131E+00  0.192506924272E+00
  0.183054752350E+02  0.178320064545E+02 -0.436296403408E+00
  0.183054752350E+02  0.178320064545E+02  0.436296403408E+00
  0.183450412750E+02  0.000000000000E+00 -0.698660761118E-01
  0.183450412750E+02  0.000000000000E+00  0.698660761118E-01
  0.185165691376E+02  0.317279767990E+01 -0.393031567335E+00
  0.185165691376E+02  0.317279767990E+01  0.393031567335E+00
  0.189894161224E+02  0.178897356987E+01 -0.192506983876E+00
  0.189894161224E+02  0.178897356987E+01  0.192506983876E+00
  0.190000000000E+02  0.000000000000E+00  0.000000000000E+00
  0.191029415131E+02  0.757896304131E+00 -0.698660910130E-01
  0.191029415131E+02  0.757896304131E+00  0.698660910130E-01
  0.194084339142E+02  0.178320064545E+02 -0.760524809361E+00
  0.194084339142E+02  0.178320064545E+02  0.760524809361E+00
  0.196679573059E+02  0.102728376389E+02 -0.980749070644E+00
  0.196679573059E+02  0.102728376389E+02  0.980749070644E+00
  0.197579002380E+02  0.757896304131E+00  0.000000000000E+00
  0.199052257538E+02  0.137921218872E+02 -0.114008641243E+01
  0.199052257538E+02  0.137921218872E+02  0.114008641243E+01
  0.200106849670E+02  0.734362459183E+01 -0.678054273129E+00
  0.200106849670E+02  0.734362459183E+01  0.678054273129E+00
  0.201340255737E+02  0.178897356987E+01 -0.698661133647E-01
  0.201340255737E+02  0.178897356987E+01  0.698661133647E-01
  0.203403968811E+02  0.499661636353E+01 -0.393031775951E+00
  0.203403968811E+02  0.499661636353E+01  0.393031775951E+00
  0.203732471466E+02  0.317279767990E+01 -0.192507073283E+00
  0.203732471466E+02  0.317279767990E+01  0.192507073283E+00
  0.207889842987E+02  0.178897356987E+01  0.000000000000E+00
  0.212566699982E+02  0.178320064545E+02 -0.102349495888E+01
  0.212566699982E+02  0.178320064545E+02  0.102349495888E+01
  0.215178565979E+02  0.317279767990E+01 -0.698661431670E-01
  0.215178565979E+02  0.317279767990E+01  0.698661431670E-01
  0.221728172302E+02  0.317279767990E+01  0.000000000000E+00
  0.221970767975E+02  0.499661636353E+01 -0.192507177591E+00
  0.221970767975E+02  0.499661636353E+01  0.192507177591E+00
  0.222339305878E+02  0.222339305878E+02  0.000000000000E+00
  0.226874179840E+02  0.734362459183E+01 -0.393032073975E+00
  0.226874179840E+02  0.734362459183E+01  0.393032073975E+00
  0.227074012756E+02  0.222339305878E+02 -0.436297029257E+00
  0.227074012756E+02  0.222339305878E+02  0.436297029257E+00
  0.229399108887E+02  0.102728376389E+02 -0.678054928780E+00
  0.229399108887E+02  0.102728376389E+02  0.678054928780E+00
  0.231872520447E+02  0.137921218872E+02 -0.980750203133E+00
  0.231872520447E+02  0.137921218872E+02  0.980750203133E+00
  0.233416862488E+02  0.499661636353E+01 -0.698661878705E-01
  0.233416862488E+02  0.499661636353E+01  0.698661878705E-01
  0.238103618622E+02  0.222339305878E+02 -0.760525882244E+00
  0.238103618622E+02  0.222339305878E+02  0.760525882244E+00
  0.239451179504E+02  0.178320064545E+02 -0.114008784294E+01
  0.239451179504E+02  0.178320064545E+02  0.114008784294E+01
  0.239966468811E+02  0.499661636353E+01  0.000000000000E+00
  0.245440979004E+02  0.734362459183E+01 -0.192507326603E+00
  0.245440979004E+02  0.734362459183E+01  0.192507326603E+00
  0.256166458130E+02  0.102728376389E+02 -0.393032461405E+00
  0.256166458130E+02  0.102728376389E+02  0.393032461405E+00
  0.256585998535E+02  0.222339305878E+02 -0.102349650860E+01
  0.256585998535E+02  0.222339305878E+02  0.102349650860E+01
  0.256887092590E+02  0.734362459183E+01 -0.698662400246E-01
  0.256887092590E+02  0.734362459183E+01  0.698662400246E-01
[...]
CELL_DATA                 904
SCALARS C_p_inc float 1
LOOKUP_TABLE default
  0.143031922493E+00
  0.107273262233E+00
  0.672507444037E-01
  0.407757653314E-01
  0.155081095672E-01
  0.881132276278E-04
 -0.316188857944E-01
 -0.438418072833E-01
 -0.793029948319E-01
 -0.893340549503E-01
 -0.106631456606E+00
 -0.107246987873E+00
 -0.308472057028E-01
 -0.630503967216E-01
  0.101677413130E+00
  0.476346255823E-01
  0.305478017610E+00
  0.223223671739E+00
  0.634516687985E+00
  0.641166068160E+00
  0.136300505762E+00
  0.338488075195E+00
 -0.323517100294E+00
 -0.132395577093E+00
 -0.358274708314E+00
 -0.286781189892E+00
 -0.390240725628E+00
 -0.362290049095E+00
 -0.365338778932E+00
 -0.378146349173E+00
 -0.295660332403E+00
 -0.273545427799E+00
 -0.197003295999E+00
 -0.172735341765E+00
 -0.112092545843E+00
 -0.824742304332E-01
 -0.378814601190E-01
  0.854613531992E-02
  0.626645565574E-01
  0.123165696492E+00
  0.141882671446E+00
  0.141055179671E+00
  0.783635530047E-01
  0.669831173093E-01
  0.321046220844E-01
  0.155215607977E-01
 -0.190509776916E-01
 -0.315025738621E-01
 -0.719170361684E-01
 -0.793145728912E-01
 -0.108093754449E+00
 -0.111527779973E+00
 -0.614216244215E-01
 -0.858667248111E-01
  0.493823419062E-01
  0.173393515993E-01
  0.211629874681E+00
  0.191451374363E+00
  0.532447890459E+00
  0.530476126821E+00
 -0.200532033348E-01
  0.775521395583E-01
 -0.420648242623E+00
 -0.304085358273E+00
 -0.423150766183E+00
 -0.354124687215E+00
 -0.421727878146E+00
 -0.392050369331E+00
 -0.362649435951E+00
 -0.369607369949E+00
 -0.273341050272E+00
 -0.254487273163E+00
 -0.172372503058E+00
 -0.146183107924E+00
 -0.823693592361E-01
 -0.493829098951E-01
  0.808982928767E-02
  0.351308627161E-01
  0.119710849921E+00
  0.129021110025E+00
  0.141658536834E+00
  0.140937358251E+00
  0.811771485853E-01
  0.779589406992E-01
  0.419251406467E-01
  0.320310226449E-01
 -0.663709352161E-02
 -0.189374324020E-01
 -0.638770632067E-01
 -0.719080701657E-01
 -0.112096915797E+00
 -0.112686707424E+00
 -0.841888022549E-01
 -0.982211873347E-01
  0.176342099639E-01
 -0.103639815701E-02
  0.183571253219E+00
  0.176344775728E+00
  0.505239798482E+00
  0.502641740554E+00
 -0.121204824509E+00
 -0.408022922332E-01
 -0.504174019142E+00
 -0.410450418094E+00
 -0.476493472822E+00
 -0.417413306789E+00
 -0.445929579973E+00
 -0.422647346207E+00
 -0.360130937086E+00
 -0.368060093079E+00
 -0.254529117911E+00
 -0.235051149888E+00
 -0.145817697347E+00
 -0.119224713813E+00
 -0.493906105287E-01
 -0.258508205553E-01
  0.344031354609E-01
  0.464553701073E-01
  0.127300992448E+00
  0.131879934167E+00
  0.142324467572E+00
  0.141051138659E+00
  0.826665826205E-01
  0.808719356396E-01
  0.461288688363E-01
  0.418005009024E-01
  0.200930143894E-02
 -0.654699617479E-02
 -0.554278881424E-01
 -0.638058355301E-01
 -0.113428981768E+00
 -0.110070459216E+00
 -0.976084431094E-01
 -0.102609125039E+00
 -0.106490358587E-02
 -0.813517041337E-02
  0.172502269234E+00
  0.173359896204E+00
  0.494399740722E+00
  0.491892391866E+00
 -0.200545581212E+00
 -0.130757771683E+00
 -0.571932595293E+00
 -0.498046455933E+00
 -0.517757107977E+00
 -0.473583419319E+00
 -0.463560787283E+00
 -0.448512518788E+00
 -0.355519343713E+00
 -0.366184485021E+00
 -0.235310692371E+00
 -0.216188627411E+00
 -0.118948486885E+00
 -0.985222170967E-01
 -0.259478251353E-01
 -0.128104649965E-01
  0.460323094783E-01
  0.528039955066E-01
  0.131107837346E+00
  0.134225121162E+00
  0.143041714654E+00
  0.141878115249E+00
  0.838115241569E-01
  0.824349076402E-01
  0.482453998409E-01
  0.460152133147E-01
  0.653623265246E-02
  0.204981275311E-02
 -0.487271215079E-01
 -0.552944995409E-01
 -0.110874403656E+00
 -0.104874690184E+00
 -0.102701685517E+00
 -0.100495209495E+00
 -0.816286015065E-02
 -0.653486802143E-02
  0.172345108905E+00
  0.179020232220E+00
  0.492269588325E+00
  0.489847028975E+00
 -0.262707128634E+00
 -0.204450418108E+00
 -0.623495478398E+00
 -0.569269069772E+00
 -0.546810450252E+00
 -0.517788480055E+00
 -0.473895747410E+00
 -0.467507180161E+00
 -0.349523507934E+00
 -0.361405921345E+00
 -0.216516488557E+00
 -0.201691013077E+00
 -0.984181127712E-01
 -0.862663351972E-01
 -0.128601137194E-01
 -0.554604122473E-02
  0.526746621036E-01
  0.569342876614E-01
  0.134038147444E+00
  0.136492498192E+00
  0.143787757623E+00
  0.142683507685E+00
  0.847472889775E-01
  0.836184395733E-01
  0.495790050539E-01
  0.481440049517E-01
  0.894041855813E-02
  0.654648040231E-02
 -0.445489538446E-01
 -0.485852980853E-01
 -0.105455327594E+00
 -0.995539733012E-01
 -0.100863411198E+00
 -0.948801438966E-01
 -0.651112789422E-02
  0.222127904127E-03
  0.179580315285E+00
  0.189456428652E+00
  0.494429778449E+00
  0.492078603923E+00
 -0.309400118163E+00
 -0.263831250334E+00
 -0.659768993368E+00
 -0.623270182209E+00
 -0.565311573632E+00
 -0.548654587299E+00
 -0.479052643796E+00
 -0.478085441416E+00
 -0.344962095855E+00
 -0.354113131704E+00
 -0.202047812116E+00
 -0.193300249205E+00
 -0.862836109674E-01
 -0.798028474665E-01
 -0.553763641916E-02
 -0.139571658529E-02
  0.569823254499E-01
  0.596680123337E-01
  0.136616892878E+00
  0.138320572434E+00
  0.144368454458E+00
  0.143459343687E+00
  0.854257716062E-01
  0.845672219443E-01
  0.504637509680E-01
  0.494806648201E-01
  0.103838857971E-01
  0.893555743873E-02
 -0.419913567962E-01
 -0.444275934567E-01
 -0.998270355675E-01
 -0.954477963840E-01
 -0.951923147501E-01
 -0.889641694562E-01
  0.280751573000E-03
  0.829395319021E-02
  0.190532915837E+00
  0.200721131608E+00
  0.497556206494E+00
  0.495376388316E+00
 -0.343163207125E+00
 -0.309459449513E+00
 -0.684079666233E+00
 -0.660639485033E+00
 -0.576887688702E+00
 -0.567495058517E+00
 -0.482323409476E+00
 -0.482299597070E+00
 -0.343027668649E+00
 -0.347842042184E+00
 -0.193672518794E+00
 -0.189311532982E+00
 -0.798762097849E-01
 -0.765011419238E-01
 -0.135882580659E-02
  0.103770953000E-02
  0.598010127269E-01
  0.615257300856E-01
  0.138600485216E+00
  0.139796085625E+00
  0.144581401063E+00
  0.144031742134E+00
  0.856924367857E-01
  0.852393189879E-01
  0.508624319239E-01
  0.503598748954E-01
  0.111563756736E-01
  0.103687444597E-01
 -0.404342338573E-01
 -0.418907142604E-01
 -0.955152484146E-01
 -0.926037452388E-01
 -0.891225911678E-01
 -0.843127383549E-01
  0.835352937695E-02
  0.150942305725E-01
  0.201649568200E+00
  0.210043816408E+00
  0.499748357547E+00
  0.497894790241E+00
 -0.367229182782E+00
 -0.343020758259E+00
 -0.700521367782E+00
 -0.684981074113E+00
 -0.584700798316E+00
 -0.578490669176E+00
 -0.485067910625E+00
 -0.484324389222E+00
 -0.342667644519E+00
 -0.344650986122E+00
 -0.189666091316E+00
 -0.187509507769E+00
 -0.765967903737E-01
 -0.746347687100E-01
  0.108149549808E-02
  0.271992864277E-02
  0.616921269962E-01
  0.630402374989E-01
  0.140146201467E+00
  0.141199116201E+00
  0.144294987912E+00
  0.144198965255E+00
  0.853545200486E-01
  0.854791457884E-01
  0.505739125442E-01
  0.507428565410E-01
  0.111336220804E-01
  0.111313096300E-01
 -0.398517457634E-01
 -0.403484109272E-01
 -0.925588537946E-01
 -0.910407168181E-01
 -0.843518298072E-01
 -0.813480158874E-01
  0.151313116994E-01
  0.197281774798E-01
  0.210614052489E+00
  0.216468120188E+00
  0.500653666082E+00
  0.499241449636E+00
 -0.383760739084E+00
 -0.367149308296E+00
 -0.711434228980E+00
 -0.701091506382E+00
 -0.589880029883E+00
 -0.585660611382E+00
 -0.486996245888E+00
 -0.486234482498E+00
 -0.342535212209E+00
 -0.343651564373E+00
 -0.187829188860E+00
 -0.186278205621E+00
 -0.747393787323E-01
 -0.730101216329E-01
  0.276181740245E-02
  0.445387879084E-02
  0.632222024009E-01
  0.647629641617E-01
  0.141594177288E+00
  0.142870030625E+00
  0.143410168895E+00
  0.143806779711E+00
  0.841911381121E-01
  0.850805727198E-01
  0.493060666031E-01
  0.504205023561E-01
  0.100019177168E-01
  0.110949638467E-01
 -0.405268549372E-01
 -0.397733492557E-01
 -0.909091425788E-01
 -0.910144320563E-01
 -0.812997015011E-01
 -0.803122119593E-01
  0.197333052625E-01
  0.219672843743E-01
  0.216701954671E+00
  0.219937914894E+00
  0.500656978707E+00
  0.499767912094E+00
 -0.393451864332E+00
 -0.383746125169E+00
 -0.717451824662E+00
 -0.711754582084E+00
 -0.592376586888E+00
 -0.590482918935E+00
 -0.487404123071E+00
 -0.487798121294E+00
 -0.341526691195E+00
 -0.343300242274E+00
 -0.186564385934E+00
 -0.184434134167E+00
 -0.731233166808E-01
 -0.706338510988E-01
  0.449302893629E-02
  0.705769918197E-02
  0.649694379356E-01
  0.673677242112E-01
  0.143341113936E+00
  0.145306537351E+00
  0.141834018853E+00
  0.142713830826E+00
  0.820140753318E-01
  0.837959039380E-01
  0.467644752552E-01
  0.490836677790E-01
  0.737659843462E-02
  0.993863601080E-02
 -0.428856727027E-01
 -0.404477265531E-01
 -0.907769396023E-01
 -0.929474044102E-01
 -0.801756512227E-01
 -0.815469887060E-01
  0.219314106978E-01
  0.216071793361E-01
  0.219864386045E+00
  0.220464490618E+00
  0.500108834333E+00
  0.499829368453E+00
 -0.396290099797E+00
 -0.393463327792E+00
 -0.718481761758E+00
 -0.717673619390E+00
 -0.591786664013E+00
 -0.592877379013E+00
 -0.485556908131E+00
 -0.488164524495E+00
 -0.338669936417E+00
 -0.342349677704E+00
 -0.184698354229E+00
 -0.180906993009E+00
 -0.707663149550E-01
 -0.664268488829E-01
  0.709601062105E-02
  0.115841284545E-01
  0.676306937674E-01
  0.718562380584E-01
  0.145944248071E+00
  0.149443074839E+00
  0.139977022110E+00
  0.140789182385E+00
  0.790802129426E-01
  0.814030529877E-01
  0.430175446204E-01
  0.464101523085E-01
  0.308604063755E-02
  0.726238953297E-02
 -0.473283841856E-01
 -0.427986848154E-01
 -0.925530222668E-01
 -0.973657833042E-01
 -0.812918685634E-01
 -0.855296009493E-01
  0.215131406630E-01
  0.183264997802E-01
  0.220045190443E+00
  0.217923176892E+00
  0.499116892752E+00
  0.499539810645E+00
 -0.392230160234E+00
 -0.396305035141E+00
 -0.714339187906E+00
 -0.718705096982E+00
 -0.587702003183E+00
 -0.592353070113E+00
 -0.480748951189E+00
 -0.486509871492E+00
 -0.332950946094E+00
 -0.339800560920E+00
 -0.181161008442E+00
 -0.174456754948E+00
 -0.666019102581E-01
 -0.589914154250E-01
  0.116199779274E-01
  0.194517470152E-01
  0.722274764569E-01
  0.795902441227E-01
  0.150403031507E+00
  0.156554414657E+00
  0.138594676586E+00
  0.138439679084E+00
  0.762624962446E-01
  0.781379785487E-01
  0.389926903723E-01
  0.424349914721E-01
 -0.215003098872E-02
  0.286316087552E-02
 -0.537160436846E-01
 -0.472347592579E-01
 -0.967379774404E-01
 -0.104716884863E+00
 -0.850944384588E-01
 -0.928750675608E-01
  0.181423849686E-01
  0.116542962174E-01
  0.217032970928E+00
  0.212049853736E+00
  0.497520505861E+00
  0.498741964727E+00
 -0.381609556607E+00
 -0.392247253607E+00
 -0.705091382522E+00
 -0.714603845305E+00
 -0.579872994578E+00
 -0.588439830462E+00
 -0.472287349733E+00
 -0.482111980786E+00
 -0.323103490682E+00
 -0.334716271358E+00
 -0.174700606834E+00
 -0.163408643530E+00
 -0.592549677691E-01
 -0.465656164620E-01
  0.194634704478E-01
  0.322164012471E-01
  0.801247549093E-01
  0.919507953163E-01
  0.158051672509E+00
  0.168014531411E+00
  0.137235439474E+00
  0.136450000544E+00
  0.737080569099E-01
  0.748930440905E-01
  0.357374632139E-01
  0.380776376820E-01
 -0.644475356372E-02
 -0.258838365893E-02
 -0.602868262269E-01
 -0.536524351859E-01
 -0.103793730871E+00
 -0.114626024955E+00
 -0.921657596227E-01
 -0.104272666265E+00
  0.113184841890E-01
  0.870629947018E-03
  0.210443388812E+00
  0.202383525960E+00
  0.494846754875E+00
  0.496994269062E+00
 -0.365337511004E+00
 -0.381653696822E+00
 -0.691223968122E+00
 -0.705368295167E+00
 -0.568262671062E+00
 -0.580833556838E+00
 -0.459352116025E+00
 -0.474326916062E+00
 -0.307201666674E+00
 -0.326077212870E+00
 -0.163628967590E+00
 -0.145692225052E+00
 -0.470213444673E-01
 -0.279658552809E-01
  0.321019957039E-01
  0.502202257690E-01
  0.926038798260E-01
  0.109022811851E+00
  0.170166117716E+00
  0.184183219144E+00
  0.133052962783E+00
  0.134219191638E+00
  0.690323081841E-01
  0.717891021690E-01
  0.321624294614E-01
  0.344098065232E-01
 -0.894404046731E-02
 -0.723165673674E-02
 -0.639034010843E-01
 -0.603897403322E-01
 -0.113513876774E+00
 -0.123994011942E+00
 -0.103208034776E+00
 -0.119831734417E+00
  0.243592948635E-03
 -0.152306584993E-01
  0.199600319169E+00
  0.188018549880E+00
  0.490189159366E+00
  0.493511632567E+00
 -0.344864755970E+00
 -0.365481103843E+00
 -0.673630706929E+00
 -0.691381624536E+00
 -0.552860839143E+00
 -0.569437604920E+00
 -0.440259997620E+00
 -0.462574777126E+00
 -0.282282017083E+00
 -0.312615250079E+00
 -0.145922576202E+00
 -0.120808121745E+00
 -0.288494651105E-01
 -0.478491215873E-02
  0.496415656801E-01
  0.713965861806E-01
  0.109391108207E+00
  0.129090080367E+00
  0.186640031025E+00
  0.203937263309E+00
  0.119747316649E+00
  0.128278382010E+00
  0.572602096002E-01
  0.662069389378E-01
  0.248960982051E-01
  0.303017827693E-01
 -0.115928188227E-01
 -0.101926124721E-01
 -0.639154375182E-01
 -0.644352215910E-01
 -0.123155898225E+00
 -0.127367674199E+00
 -0.118578655919E+00
 -0.136063690952E+00
 -0.165312947626E-01
 -0.384078532396E-01
  0.183110593530E+00
  0.166977686740E+00
  0.481878589205E+00
  0.486956512518E+00
 -0.322008739319E+00
 -0.345287400162E+00
 -0.653361229329E+00
 -0.673364336980E+00
 -0.532643904277E+00
 -0.554278114075E+00
 -0.410518337179E+00
 -0.446190252390E+00
 -0.247472074578E+00
 -0.292464935743E+00
 -0.121231303778E+00
 -0.926470012597E-01
 -0.655974189819E-02
  0.190586660905E-01
  0.695511666660E-01
  0.930184816296E-01
  0.128100243346E+00
  0.151076920419E+00
  0.205552072492E+00
  0.228038194959E+00
  0.840783935395E-01
  0.111014489579E+00
  0.304256377039E-01
  0.527154576272E-01
  0.976613501312E-02
  0.222235951890E-01
 -0.173471955913E-01
 -0.134530905432E-01
 -0.629207515463E-01
 -0.651984792238E-01
 -0.127345473428E+00
 -0.124155964262E+00
 -0.135430952128E+00
 -0.143486727384E+00
 -0.414650899975E-01
 -0.679946884232E-01
  0.157618579336E+00
  0.134731504974E+00
  0.466382445991E+00
  0.474695841233E+00
 -0.298867250433E+00
 -0.323187116041E+00
 -0.630663048995E+00
 -0.652068163402E+00
 -0.501104462085E+00
 -0.535278928307E+00
 -0.365626312237E+00
 -0.422937948025E+00
 -0.209198153530E+00
 -0.265299272295E+00
 -0.935783910295E-01
 -0.667264882361E-01
  0.154865359660E-01
  0.398271730281E-01
  0.882851100316E-01
  0.113214407035E+00
  0.146461552016E+00
  0.176633090494E+00
  0.226141272771E+00
  0.263405443828E+00
 -0.111149421751E-01
  0.655480514580E-01
 -0.269838800500E-01
  0.222172404956E-01
 -0.188690982770E-01
  0.543367490955E-02
 -0.295022616511E-01
 -0.203197165862E-01
 -0.643548888236E-01
 -0.654778207131E-01
 -0.125005865615E+00
 -0.118846554561E+00
 -0.144686927241E+00
 -0.139322835308E+00
 -0.749343196632E-01
 -0.896147495264E-01
  0.113862572298E+00
  0.820247132632E-01
  0.433305150918E+00
  0.449547275381E+00
 -0.278412455523E+00
 -0.302420033245E+00
 -0.598500011211E+00
 -0.627637032362E+00
 -0.440182863424E+00
 -0.510119391620E+00
 -0.314802805533E+00
 -0.389653323909E+00
 -0.174622413625E+00
 -0.238368996807E+00
 -0.690494762507E-01
 -0.481423214365E-01
  0.321670405973E-01
  0.531707742295E-01
  0.101661520347E+00
  0.128723898712E+00
  0.162692055197E+00
  0.208531155030E+00
  0.250128663667E+00
  0.331714141165E+00
 -0.265273044838E+00
 -0.571466501658E-01
 -0.139312560592E+00
 -0.502587892799E-01
 -0.805596500795E-01
 -0.317193632238E-01
 -0.607703992624E-01
 -0.370033260771E-01
 -0.753113516085E-01
 -0.702881242961E-01
 -0.121615085988E+00
 -0.116732229812E+00
 -0.143365196346E+00
 -0.133148124809E+00
 -0.105212280742E+00
 -0.968726686762E-01
  0.294694514289E-01
  0.182691010430E-01
  0.317346945516E+00
  0.365719809257E+00
 -0.254301141176E+00
 -0.294682874414E+00
 -0.476042068845E+00
 -0.600479398553E+00
 -0.355934983129E+00
 -0.467998486845E+00
 -0.271895489221E+00
 -0.360747917751E+00
 -0.148735964711E+00
 -0.231876517712E+00
 -0.605174392354E-01
 -0.531066711164E-01
  0.265034864296E-01
  0.380350037679E-01
  0.855282388560E-01
  0.111296705942E+00
  0.150315848897E+00
  0.209446031649E+00
  0.266379558723E+00
  0.426843988769E+00
 -0.575428782768E+00
 -0.546195921383E+00
 -0.277632499589E+00
 -0.268553004306E+00
 -0.135848762537E+00
 -0.146168367880E+00
 -0.841730369596E-01
 -0.112917069964E+00
 -0.908607876255E-01
 -0.130162643186E+00
 -0.130696204766E+00
 -0.146944369199E+00
 -0.149547858157E+00
 -0.129437630883E+00
 -0.139321476088E+00
 -0.823680804848E-01
 -0.105381899863E+00
  0.820681569584E-01
 -0.287114996129E+00
 -0.395469440954E+00
 -0.491056073655E+00
 -0.325074350540E+00
 -0.401345467090E+00
 -0.269274044527E+00
 -0.344056303212E+00
 -0.164130058395E+00
 -0.262525258636E+00
 -0.892577573353E-01
 -0.141237419560E+00
 -0.401811399986E-01
 -0.139076153781E+00
 -0.521009609195E-01
 -0.245499356951E+00
 -0.117507491359E+00
 -0.521132015252E+00
 -0.168403326829E+00
 -0.979666339929E+00
 -0.971700854504E+00
 -0.467848413898E+00
 -0.470264740471E+00
 -0.234124731120E+00
 -0.251146012560E+00
 -0.139003061514E+00
 -0.171244290696E+00
 -0.124159287656E+00
 -0.161254890205E+00
 -0.157073639525E+00
 -0.172651695419E+00
 -0.177369132097E+00
 -0.164823990119E+00
 -0.178089495495E+00
 -0.147569265218E+00
 -0.176971573912E+00
 -0.771626245845E-02
 -0.290321371015E+00
 -0.355651638183E+00
 -0.428488103888E+00
 -0.316370420372E+00
 -0.368105690685E+00
 -0.278809285002E+00
 -0.333613355778E+00
 -0.187752744830E+00
 -0.284957550780E+00
 -0.137103876258E+00
 -0.208210189451E+00
 -0.124844577490E+00
 -0.267678402986E+00
 -0.201280138098E+00
 -0.490378310872E+00
 -0.391936506095E+00
 -0.101238882500E+01
 -0.704053502260E+00
 -0.137003788590E+01
 -0.137633150796E+01
 -0.645162131334E+00
 -0.661086960311E+00
 -0.325246717377E+00
 -0.353609810838E+00
 -0.190588111698E+00
 -0.232808538562E+00
 -0.157548139047E+00
 -0.200973128684E+00
 -0.187983700321E+00
 -0.209253087037E+00
 -0.211440992982E+00
 -0.205620996031E+00
 -0.217043715268E+00
 -0.204711346320E+00
 -0.231486245670E+00
 -0.863621891674E-01
 -0.266282115521E+00
 -0.329233101853E+00
 -0.367351973222E+00
 -0.304695233465E+00
 -0.329806855311E+00
 -0.278254290647E+00
 -0.314155588560E+00
 -0.203892967321E+00
 -0.289852734351E+00
 -0.173813317408E+00
 -0.253348578547E+00
 -0.192771916530E+00
 -0.361338046593E+00
 -0.321204421716E+00
 -0.675331516960E+00
 -0.620255263162E+00
 -0.141038632942E+01
 -0.120651707227E+01
 -0.159658005989E+01
 -0.164967184178E+01
 -0.749524010211E+00
 -0.794181477554E+00
 -0.377668238372E+00
 -0.428233125748E+00
 -0.219237126284E+00
 -0.282109939431E+00
 -0.176964416987E+00
 -0.236373744912E+00
 -0.214030524599E+00
 -0.247637090627E+00
 -0.245418810837E+00
 -0.248064339084E+00
 -0.254132285182E+00
 -0.258293276125E+00
 -0.273254224549E+00
 -0.158501380819E+00
 -0.220186572532E+00
 -0.310179157991E+00
 -0.307456436447E+00
 -0.286620886363E+00
 -0.287741951318E+00
 -0.266333411252E+00
 -0.285827970861E+00
 -0.210108632014E+00
 -0.278011963459E+00
 -0.194871158790E+00
 -0.272101194681E+00
 -0.234352053131E+00
 -0.408307387207E+00
 -0.392524686466E+00
 -0.771567752715E+00
 -0.757194011961E+00
 -0.162831840732E+01
 -0.154139442307E+01
SCALARS sigma float 1
LOOKUP_TABLE default
  0.000000000000E+00
  0.000000000000E+00
  0.000000000000E+00
  0.000000000000E+00
  0.000000000000E+00
  0.000000000000E+00
  0.000000000000E+00
  0.000000000000E+00
  0.000000000000E+00
  0.000000000000E+00
  0.000000000000E+00
  0.000000000000E+00
  0.000000000000E+00
  0.000000000000E+00
  0.000000000000E+00
  0.000000000000E+00
  0.000000000000E+00
  0.000000000000E+00
  0.000000000000E+00
  0.000000000000E+00
  0.000000000000E+00
  0.000000000000E+00
  0.000000000000E+00
  0.000000000000E+00
  0.000000000000E+00
  0.000000000000E+00
  0.000000000000E+00
  0.000000000000E+00
  0.000000000000E+00
  0.000000000000E+00
  0.000000000000E+00
  0.000000000000E+00
  0.000000000000E+00
  0.000000000000E+00
  0.000000000000E+00
  0.000000000000E+00
  0.000000000000E+00
  0.000000000000E+00
  0.000000000000E+00
  0.000000000000E+00
  0.000000000000E+00
  0.000000000000E+00