# vtk DataFile Version 3.0
MachLine results file. Generated by MachLine, USU AeroLab (c) 2022.
ASCII
DATASET POLYDATA
POINTS                  20 float
  0.244703655243E+02  0.547033166885E+01  0.000000000000E+00
  0.997198890298E+04  0.547033166885E+01  0.747957676007E+03
  0.209237651825E+02  0.192375373840E+01  0.000000000000E+00
  0.997196896467E+04  0.192375373840E+01  0.748222847057E+03
  0.303820724487E+02  0.113820018768E+02  0.000000000000E+00
  0.997202213747E+04  0.113820018768E+02  0.747515671444E+03
  0.660765380859E+02  0.470762481689E+02  0.000000000000E+00
  0.997222280496E+04  0.470762481689E+02  0.744846879355E+03
  0.625299339294E+02  0.435296669006E+02  0.000000000000E+00
  0.997220286663E+04  0.435296669006E+02  0.745112050690E+03
  0.190000000000E+02  0.000000000000E+00  0.000000000000E+00
  0.997195814963E+04  0.000000000000E+00  0.748366682501E+03
  0.482439842224E+02  0.292438049316E+02  0.000000000000E+00
  0.997212255374E+04  0.292438049316E+02  0.746180177888E+03
  0.387563171387E+02  0.197561950684E+02  0.000000000000E+00
  0.997206921588E+04  0.197561950684E+02  0.746889548666E+03
  0.566182289124E+02  0.376179962158E+02  0.000000000000E+00
  0.997216963215E+04  0.376179962158E+02  0.745554055110E+03
  0.680002975464E+02  0.490000000000E+02  0.000000000000E+00
  0.997223361997E+04  0.490000000000E+02  0.744703044339E+03
POLYGONS                  18                  72
3                   2                   3                  11
3                   2                  11                  10
3                   0                   1                   3
3                   0                   3                   2
3                   4                   5                   1
3                   4                   1                   0
3                  14                  15                   5
3                  14                   5                   4
3                  12                  13                  15
3                  12                  15                  14
3                  16                  17                  13
3                  16                  13                  12
3                   8                   9                  17
3                   8                  17                  16
3                   6                   7                   9
3                   6                   9                   8
3                  18                  19                   7
3                  18                   7                   6
CELL_DATA                  18
NORMALS normals float
  0.747688507698E-01 -0.747692955576E-01 -0.994393871359E+00
  0.747688507698E-01 -0.747692955576E-01 -0.994393871359E+00
  0.747688506150E-01 -0.747693230904E-01 -0.994393869300E+00
  0.747688506150E-01 -0.747693230904E-01 -0.994393869300E+00
  0.747688506603E-01 -0.747693150378E-01 -0.994393869903E+00
  0.747688506603E-01 -0.747693150378E-01 -0.994393869903E+00
  0.747688506859E-01 -0.747693104885E-01 -0.994393870243E+00
  0.747688506859E-01 -0.747693104885E-01 -0.994393870243E+00
  0.747688507354E-01 -0.747693016721E-01 -0.994393870902E+00
  0.747688507354E-01 -0.747693016721E-01 -0.994393870902E+00
  0.747688505907E-01 -0.747693274236E-01 -0.994393868976E+00
  0.747688505907E-01 -0.747693274236E-01 -0.994393868976E+00
  0.747688508289E-01 -0.747692850511E-01 -0.994393872145E+00
  0.747688508289E-01 -0.747692850511E-01 -0.994393872145E+00
  0.747688505588E-01 -0.747693330867E-01 -0.994393868553E+00
  0.747688505588E-01 -0.747693330867E-01 -0.994393868553E+00
  0.747688515986E-01 -0.747691481241E-01 -0.994393882382E+00
  0.747688515986E-01 -0.747691481242E-01 -0.994393882382E+00
POINT_DATA                  20
SCALARS mu float 1
LOOKUP_TABLE default
 -0.224506539942E+01
 -0.224506539942E+01
 -0.217248251767E+01
 -0.217248251767E+01
 -0.233563644377E+01
 -0.233563644377E+01
 -0.852267076005E+00
 -0.852267076005E+00
 -0.155429550452E+01
 -0.155429550452E+01
 -0.213699828703E+01
 -0.213699828703E+01
 -0.232998673629E+01
 -0.232998673629E+01
 -0.239133299653E+01
 -0.239133299653E+01
 -0.206299239237E+01
 -0.206299239237E+01
  0.000000000000E+00
  0.000000000000E+00
