# vtk DataFile Version 3.0
MachLine results file. Generated by MachLine, USU AeroLab (c) 2022.
ASCII
DATASET POLYDATA
POINTS                 144 float
  0.000000000000E+00  0.000000000000E+00  0.000000000000E+00
  0.113538098335E+01  0.000000000000E+00 -0.658124566078E+00
  0.113538098335E+01  0.000000000000E+00  0.658124566078E+00
  0.192375373840E+01  0.192375373840E+01  0.000000000000E+00
  0.305913543701E+01  0.192375373840E+01 -0.658124983311E+00
  0.305913543701E+01  0.192375373840E+01  0.658124983311E+00
  0.423028087616E+01  0.000000000000E+00 -0.108747220039E+01
  0.423028087616E+01  0.000000000000E+00  0.108747220039E+01
  0.547033166885E+01  0.547033166885E+01  0.000000000000E+00
  0.615403699875E+01  0.192375373840E+01 -0.108747279644E+01
  0.615403699875E+01  0.192375373840E+01  0.108747279644E+01
  0.660571479797E+01  0.547033166885E+01 -0.658125698566E+00
  0.660571479797E+01  0.547033166885E+01  0.658125698566E+00
  0.939508819580E+01  0.000000000000E+00 -0.980745851994E+00
  0.939508819580E+01  0.000000000000E+00  0.980745851994E+00
  0.970061969757E+01  0.547033166885E+01 -0.108747410774E+01
  0.970061969757E+01  0.547033166885E+01  0.108747410774E+01
  0.113188476562E+02  0.192375373840E+01 -0.980746448040E+00
  0.113188476562E+02  0.192375373840E+01  0.980746448040E+00
  0.113820018768E+02  0.113820018768E+02  0.000000000000E+00
  0.125173873901E+02  0.113820018768E+02 -0.658127009869E+00
  0.125173873901E+02  0.113820018768E+02  0.658127009869E+00
  0.145402030945E+02  0.000000000000E+00 -0.479613035917E+00
  0.145402030945E+02  0.000000000000E+00  0.479613035917E+00
  0.148654365540E+02  0.547033166885E+01 -0.980747580528E+00
  0.148654365540E+02  0.547033166885E+01  0.980747580528E+00
  0.156122989655E+02  0.113820018768E+02 -0.108747613430E+01
  0.156122989655E+02  0.113820018768E+02  0.108747613430E+01
  0.164639663696E+02  0.192375373840E+01 -0.479613333941E+00
  0.164639663696E+02  0.192375373840E+01  0.479613333941E+00
  0.176505107880E+02  0.000000000000E+00 -0.144198849797E+00
  0.176505107880E+02  0.000000000000E+00  0.144198849797E+00
  0.190000000000E+02  0.000000000000E+00  0.000000000000E+00
  0.195742740631E+02  0.192375373840E+01 -0.144198939204E+00
  0.195742740631E+02  0.192375373840E+01  0.144198939204E+00
  0.197561950684E+02  0.197561950684E+02  0.000000000000E+00
  0.200105609894E+02  0.547033166885E+01 -0.479613870382E+00
  0.200105609894E+02  0.547033166885E+01  0.479613870382E+00
  0.207771244049E+02  0.113820018768E+02 -0.980749428272E+00
  0.207771244049E+02  0.113820018768E+02  0.980749428272E+00
  0.208915824890E+02  0.197561950684E+02 -0.658128738403E+00
  0.208915824890E+02  0.197561950684E+02  0.658128738403E+00
  0.209237651825E+02  0.192375373840E+01  0.000000000000E+00
  0.231208724976E+02  0.547033166885E+01 -0.144199103117E+00
  0.231208724976E+02  0.547033166885E+01  0.144199103117E+00
  0.239865016937E+02  0.197561950684E+02 -0.108747911453E+01
  0.239865016937E+02  0.197561950684E+02  0.108747911453E+01
  0.244703655243E+02  0.547033166885E+01  0.000000000000E+00
  0.259222583771E+02  0.113820018768E+02 -0.479614794254E+00
  0.259222583771E+02  0.113820018768E+02  0.479614794254E+00
  0.290325775146E+02  0.113820018768E+02 -0.144199386239E+00
  0.290325775146E+02  0.113820018768E+02  0.144199386239E+00
  0.291513423920E+02  0.197561950684E+02 -0.980752110481E+00
  0.291513423920E+02  0.197561950684E+02  0.980752110481E+00
  0.292438049316E+02  0.292438049316E+02  0.000000000000E+00
  0.303791980743E+02  0.292438049316E+02 -0.658130764961E+00
  0.303791980743E+02  0.292438049316E+02  0.658130764961E+00
  0.303820724487E+02  0.113820018768E+02  0.000000000000E+00
  0.334741249084E+02  0.292438049316E+02 -0.108748245239E+01
  0.334741249084E+02  0.292438049316E+02  0.108748245239E+01
  0.342964897156E+02  0.197561950684E+02 -0.479616105556E+00
  0.342964897156E+02  0.197561950684E+02  0.479616105556E+00
  0.374068183899E+02  0.197561950684E+02 -0.144199773669E+00
  0.374068183899E+02  0.197561950684E+02  0.144199773669E+00
  0.376179962158E+02  0.376179962158E+02  0.000000000000E+00
  0.386389808655E+02  0.292438049316E+02 -0.980755090714E+00
  0.386389808655E+02  0.292438049316E+02  0.980755090714E+00
  0.387533912659E+02  0.376179962158E+02 -0.658132553101E+00
  0.387533912659E+02  0.376179962158E+02  0.658132553101E+00
  0.387563171387E+02  0.197561950684E+02  0.000000000000E+00
  0.418483314514E+02  0.376179962158E+02 -0.108748543262E+01
  0.418483314514E+02  0.376179962158E+02  0.108748543262E+01
  0.435296669006E+02  0.435296669006E+02  0.000000000000E+00
  0.437841453552E+02  0.292438049316E+02 -0.479617565870E+00
  0.437841453552E+02  0.292438049316E+02  0.479617565870E+00
  0.446650657654E+02  0.435296669006E+02 -0.658133804798E+00
  0.446650657654E+02  0.435296669006E+02  0.658133804798E+00
  0.468944816589E+02  0.292438049316E+02 -0.144200220704E+00
  0.468944816589E+02  0.292438049316E+02  0.144200220704E+00
  0.470131988525E+02  0.376179962158E+02 -0.980757772923E+00
  0.470131988525E+02  0.376179962158E+02  0.980757772923E+00
  0.470762481689E+02  0.470762481689E+02  0.000000000000E+00
  0.477600097656E+02  0.435296669006E+02 -0.108748745918E+01
  0.477600097656E+02  0.435296669006E+02  0.108748745918E+01
  0.482116432190E+02  0.470762481689E+02 -0.658134579659E+00
  0.482116432190E+02  0.470762481689E+02  0.658134579659E+00
  0.482439842224E+02  0.292438049316E+02  0.000000000000E+00
  0.490000000000E+02  0.490000000000E+02  0.000000000000E+00
  0.501353988647E+02  0.490000000000E+02 -0.658134996891E+00
  0.501353988647E+02  0.490000000000E+02  0.658134996891E+00
  0.506007728577E+02  0.494653701782E+02 -0.465371757746E+00
  0.506007728577E+02  0.494653701782E+02  0.465371757746E+00
  0.507935333252E+02  0.496581344604E+02 -0.771266485397E-15
  0.513065910339E+02  0.470762481689E+02 -0.108748877048E+01
  0.513065910339E+02  0.470762481689E+02  0.108748877048E+01
  0.521583786011E+02  0.376179962158E+02 -0.479618877172E+00
  0.521583786011E+02  0.376179962158E+02  0.479618877172E+00
  0.529248886108E+02  0.435296669006E+02 -0.980759620667E+00
  0.529248886108E+02  0.435296669006E+02  0.980759620667E+00
  0.532303466797E+02  0.490000000000E+02 -0.108748936653E+01
  0.532303466797E+02  0.490000000000E+02  0.108748936653E+01
  0.539993209839E+02  0.497689704895E+02 -0.768971264362E+00
  0.539993209839E+02  0.497689704895E+02  0.768971264362E+00
  0.543178405762E+02  0.500874900818E+02 -0.157378642191E-15
  0.552687225342E+02  0.376179962158E+02 -0.144200608134E+00
  0.552687225342E+02  0.376179962158E+02  0.144200608134E+00
  0.564714775085E+02  0.470762481689E+02 -0.980760753155E+00
  0.564714775085E+02  0.470762481689E+02  0.980760753155E+00
  0.566182289124E+02  0.376179962158E+02  0.000000000000E+00
  0.580700759888E+02  0.435296669006E+02 -0.479619771242E+00
  0.580700759888E+02  0.435296669006E+02  0.479619771242E+00
  0.583952369690E+02  0.490000000000E+02 -0.980761349201E+00
  0.583952369690E+02  0.490000000000E+02  0.980761349201E+00
  0.590887413025E+02  0.496935043335E+02 -0.693503141403E+00
  0.590887413025E+02  0.496935043335E+02  0.693503141403E+00
  0.593759994507E+02  0.499807624817E+02  0.000000000000E+00
  0.611804275513E+02  0.435296669006E+02 -0.144200876355E+00
  0.611804275513E+02  0.435296669006E+02  0.144200876355E+00
  0.616166725159E+02  0.470762481689E+02 -0.479620337486E+00
  0.616166725159E+02  0.470762481689E+02  0.479620337486E+00
  0.625299339294E+02  0.435296669006E+02  0.000000000000E+00
  0.635404319763E+02  0.490000000000E+02 -0.479620635509E+00
  0.635404319763E+02  0.490000000000E+02  0.479620635509E+00
  0.638795776367E+02  0.493391418457E+02 -0.339143037796E+00
  0.638795776367E+02  0.493391418457E+02  0.339143037796E+00
  0.640200576782E+02  0.494796218872E+02  0.296956834055E-15
  0.647270278931E+02  0.470762481689E+02 -0.144201040268E+00
  0.647270278931E+02  0.470762481689E+02  0.144201040268E+00
  0.660765380859E+02  0.470762481689E+02  0.000000000000E+00
  0.666507873535E+02  0.490000000000E+02 -0.144201144576E+00
  0.666507873535E+02  0.490000000000E+02  0.144201144576E+00
  0.667527542114E+02  0.491019668579E+02 -0.101965606213E+00
  0.667527542114E+02  0.491019668579E+02  0.101965606213E+00
  0.667949905396E+02  0.491441993713E+02 -0.260488604752E-16
  0.680002975464E+02  0.490000000000E+02  0.000000000000E+00
  0.244703655243E+02  0.547033166885E+01  0.000000000000E+00
  0.209237651825E+02  0.192375373840E+01  0.000000000000E+00
  0.303820724487E+02  0.113820018768E+02  0.000000000000E+00
  0.660765380859E+02  0.470762481689E+02  0.000000000000E+00
  0.625299339294E+02  0.435296669006E+02  0.000000000000E+00
  0.482439842224E+02  0.292438049316E+02  0.000000000000E+00
  0.387563171387E+02  0.197561950684E+02  0.000000000000E+00
  0.566182289124E+02  0.376179962158E+02  0.000000000000E+00
  0.190000000000E+02  0.000000000000E+00  0.000000000000E+00
POLYGONS                 256                1024
3                  32                  33                  42
3                  32                  30                  33
3                  30                  28                  33
3                  30                  22                  28
3                  22                  17                  28
3                  22                  13                  17
3                  13                   6                  17
3                  17                   6                   9
3                   6                   1                   9
3                   9                   1                   4
3                   1                   0                   4
3                   4                   0                   3
3                   0                   5                   3
3                   0                   2                   5
3                   2                  10                   5
3                   2                   7                  10
[...]
CELL_DATA                 256
SCALARS C_p_inc float 1
LOOKUP_TABLE default
  0.112760942034E+00
  0.744499505364E-01
  0.247750006222E-01
 -0.828357387528E-02
 -0.634256189964E-01
 -0.878270981590E-01
 -0.848207204105E-01
 -0.101682210691E+00
  0.839934529210E-01
 -0.966000237927E-02
  0.500276350829E+00
  0.475208611009E+00
 -0.104735795859E+00
  0.202777150220E+00
 -0.439869649568E+00
 -0.279511706237E+00
 -0.355473382362E+00
 -0.355839206414E+00
 -0.265279916142E+00
 -0.216223663677E+00
 -0.114509601285E+00
 -0.506318915868E-01
  0.226611810543E-01
  0.947475131324E-01
  0.114126265391E+00
  0.111040640462E+00
  0.383594343525E-01
  0.247307714410E-01
 -0.443679430511E-01
 -0.633333371644E-01
 -0.102468697640E+00
 -0.105589441040E+00
 -0.645268207052E-02
 -0.251831093056E-01
  0.414448727607E+00
  0.420489623200E+00
 -0.261432421557E+00
 -0.115268865768E+00
 -0.524625946721E+00
 -0.431304416113E+00
 -0.363895080158E+00
 -0.365677000620E+00
 -0.216546034836E+00
 -0.173698420214E+00
 -0.504847958494E-01
 -0.144353199158E-01
  0.921011287025E-01
  0.105317638620E+00
  0.115248686445E+00
  0.113455521055E+00
  0.410680377551E-01
  0.381879804106E-01
 -0.360682154361E-01
 -0.441832090558E-01
 -0.106385341230E+00
 -0.949689557301E-01
 -0.251264362786E-01
 -0.138562243124E-01
  0.418278954165E+00
  0.429791618686E+00
 -0.343297275377E+00
 -0.262354404513E+00
 -0.564031722939E+00
 -0.526028097205E+00
 -0.359702805701E+00
 -0.372904990636E+00
 -0.174301568318E+00
 -0.153887138725E+00
 -0.144640887320E-01
 -0.296781517352E-02
  0.105080497011E+00
  0.110794589723E+00
  0.114487657280E+00
  0.114703282383E+00
  0.406597494324E-01
  0.408998809406E-01
 -0.344348551953E-01
 -0.359126812033E-01
 -0.953310040225E-01
 -0.893699161110E-01
 -0.138328272533E-01
 -0.459925267452E-03
  0.435284926851E+00
  0.443669380694E+00
 -0.378558068077E+00
 -0.343284187945E+00
 -0.578568256845E+00
 -0.567890880276E+00
 -0.359834146034E+00
 -0.364598702550E+00
 -0.154444944485E+00
 -0.148182127212E+00
 -0.290662776799E-02
  0.232635956260E-02
  0.111289367217E+00
  0.115186190521E+00
  0.109558399845E+00
  0.113695459458E+00
  0.351468383167E-01
  0.404049540462E-01
 -0.385153125142E-01
 -0.343085624286E-01
 -0.891775209655E-01
 -0.912574424648E-01
 -0.445933132769E-03
  0.176884825671E-02
  0.445972246298E+00
  0.448268721338E+00
 -0.386955969039E+00
 -0.378603011480E+00
 -0.579889409450E+00
 -0.580480049946E+00
 -0.355907762269E+00
 -0.361937519705E+00
 -0.148690733959E+00
 -0.141260466761E+00
  0.239054022119E-02
  0.109346543363E-01
  0.115963044465E+00
  0.123538542206E+00
  0.100537637776E+00
  0.107964329059E+00
  0.231066198166E-01
  0.345928761398E-01
 -0.509635205013E-01
 -0.383794125699E-01
 -0.905952464116E-01
 -0.103912649980E+00
  0.167526853689E-02
 -0.911758158000E-02
  0.447211849023E+00
  0.443874485951E+00
 -0.370528215347E+00
 -0.386980561358E+00
 -0.565355756108E+00
 -0.581321827274E+00
 -0.340618349644E+00
 -0.358109312158E+00
 -0.141782151667E+00
 -0.122650624563E+00
  0.109827771043E-01
  0.330850496278E-01
  0.124929824943E+00
  0.145120576587E+00
  0.890393214712E-01
  0.974926257594E-01
  0.117326897029E-01
  0.218304603658E-01
 -0.626856369672E-01
 -0.508905224271E-01
 -0.102403965823E+00
 -0.127617286488E+00
 -0.945900348506E-02
 -0.365788463655E-01
  0.438370234186E+00
  0.430021365829E+00
 -0.334725684493E+00
 -0.370530213194E+00
 -0.536504567148E+00
 -0.567215005872E+00
 -0.306852047122E+00
 -0.345031108189E+00
 -0.123278688598E+00
 -0.793315133188E-01
  0.329597736892E-01
  0.779162253823E-01
  0.148001102122E+00
  0.189014905957E+00
  0.333921646309E-01
  0.840377102982E-01
 -0.212327893345E-02
  0.943135691096E-02
 -0.631410584424E-01
 -0.634209227878E-01
 -0.125553334394E+00
 -0.132989686030E+00
 -0.381513049361E-01
 -0.878841282394E-01
  0.412877494131E+00
  0.399762148302E+00
 -0.291281025113E+00
 -0.334766023855E+00
 -0.494029947380E+00
 -0.538481286629E+00
 -0.232798247525E+00
 -0.320620716134E+00
 -0.812053969144E-01
 -0.231436545095E-01
  0.758472436377E-01
  0.136170016732E+00
  0.191670148688E+00
  0.236554193323E+00
 -0.262504660880E+03
 -0.248141458721E+00
 -0.661856636139E+00
 -0.636515711051E-02
 -0.622668139564E-01
 -0.665639153948E-01
 -0.133457030913E+00
 -0.112520817813E+00
 -0.957198806896E-01
 -0.949353426256E-01
  0.314742967329E+00
  0.295513558432E+00
 -0.251510994829E+00
 -0.294419384594E+00
 -0.338210855682E+00
 -0.511763872011E+00
 -0.145624423702E+00
 -0.281130206618E+00
 -0.348443514411E-01
  0.818015281715E-02
  0.116967476456E+00
 -0.327092641659E+00
  0.163312348709E+00
 -0.266304116210E+03
 -0.593097472124E+03
 -0.592011111698E+01
 -0.597111463045E+00
 -0.104309401278E+00
 -0.834646697606E-01
 -0.132513110221E+00
 -0.134688037930E+00
 -0.149033083432E+00
 -0.160192278064E+00
  0.198956836719E-01
 -0.274640422942E+00
 -0.255257028866E+00
 -0.379178033954E+00
 -0.142232826258E+00
 -0.266045830751E+00
 -0.504844727676E-01
 -0.134696081414E+00
 -0.806060369926E+00
 -0.229069746519E+01
 -0.565569071107E+03
 -0.396698947439E+03
 -0.823720091438E+01
 -0.884617659111E+00
 -0.205652832511E+00
 -0.117706033630E+00
 -0.187705108795E+00
 -0.180632613870E+00
 -0.217899404011E+00
 -0.227653275397E+00
 -0.128852314980E+00
 -0.230730710262E+00
 -0.258707647991E+00
 -0.289828071609E+00
 -0.172868931104E+00
 -0.247793347260E+00
 -0.116724633343E+00
 -0.227770455065E+00
 -0.115474962101E+01
 -0.270959406207E+01
 -0.373651019303E+03
SCALARS sigma float 1
LOOKUP_TABLE default
 -0.312203412765E-01
 -0.312204245077E-01
 -0.321851929521E-01
 -0.321851269198E-01
 -0.219396659359E-01
 -0.219396800736E-01
  0.543495414701E-01
  0.543495548507E-01
  0.209325209967E+00
  0.209325195020E+00
  0.505004151211E+00
  0.505004151947E+00
  0.389032675293E+00
  0.389032674315E+00
  0.621729882848E-01
  0.621730044398E-01
 -0.955439059401E-01
 -0.955439191270E-01
 -0.170494451517E+00
 -0.170494437242E+00
 -0.180428502259E+00
 -0.180428567890E+00
 -0.179494453116E+00
 -0.179494371590E+00
 -0.312203121949E-01
 -0.312203411841E-01
 -0.321851804238E-01
 -0.321851926887E-01
 -0.219396733987E-01
 -0.219396659721E-01
  0.543495547971E-01
  0.543495449714E-01
  0.209325195521E+00
  0.209325234118E+00
  0.505004146323E+00
  0.505004109695E+00
  0.389032624971E+00
  0.389032670960E+00
  0.621730294571E-01
  0.621729884336E-01
 -0.955439155665E-01
 -0.955439058458E-01
 -0.170494437523E+00
 -0.170494444891E+00
 -0.180428566413E+00
 -0.180428554368E+00
 -0.179494371059E+00
 -0.179494342812E+00
 -0.312203697948E-01
 -0.312203121889E-01
 -0.321851230957E-01
 -0.321851804835E-01
 -0.219396724525E-01
 -0.219396734121E-01
  0.543495449976E-01
  0.543495447156E-01
  0.209325233684E+00
  0.209325171823E+00
  0.505004107601E+00
  0.505004083481E+00
  0.389032593751E+00
  0.389032623358E+00
  0.621729640877E-01
  0.621730293282E-01
 -0.955439158919E-01
 -0.955439156124E-01
 -0.170494444995E+00
 -0.170494444051E+00
 -0.180428554702E+00
 -0.180428498662E+00
 -0.179494342777E+00
 -0.179494398770E+00
 -0.312203551642E-01
 -0.312203698240E-01
 -0.321850902572E-01
 -0.321851232146E-01
 -0.219396859359E-01
 -0.219396724429E-01
  0.543495447078E-01
  0.543495480546E-01
  0.209325172719E+00
  0.209325229697E+00
  0.505004096505E+00
  0.505004314494E+00
  0.389032868884E+00
  0.389032603784E+00
  0.621730242417E-01
  0.621729643537E-01
 -0.955439125583E-01
 -0.955439158780E-01
 -0.170494443976E+00
 -0.170494457200E+00
 -0.180428499328E+00
 -0.180428467226E+00
 -0.179494398938E+00
 -0.179494384704E+00
 -0.312203838149E-01
 -0.312203551919E-01
 -0.321851502484E-01
 -0.321850902100E-01
 -0.219396568163E-01
 -0.219396859200E-01
  0.543495480579E-01
  0.543495398678E-01
  0.209325229188E+00
  0.209325303831E+00
  0.505004290685E+00
  0.505003836031E+00
  0.389032299042E+00
  0.389032850542E+00
  0.621731024699E-01
  0.621730240903E-01
 -0.955439206898E-01
 -0.955439125642E-01
 -0.170494457076E+00
 -0.170494428584E+00
 -0.180428466962E+00
 -0.180428525400E+00
 -0.179494384864E+00
 -0.179494412646E+00
 -0.312203690423E-01
 -0.312203837021E-01
 -0.321851819727E-01
 -0.321851501032E-01
 -0.219396347284E-01
 -0.219396568016E-01
  0.543495398619E-01
  0.543495279503E-01
  0.209325303080E+00
  0.209325108503E+00
  0.505003850300E+00
  0.505004089125E+00
  0.389032600473E+00
  0.389032310034E+00
  0.621728977347E-01
  0.621731022471E-01
 -0.955439324944E-01
 -0.955439206793E-01
 -0.170494428470E+00
 -0.170494406838E+00
 -0.180428524586E+00
 -0.180428555628E+00
 -0.179494411998E+00
 -0.179494397764E+00
 -0.312205639227E-01
 -0.312203690930E-01
 -0.321851200412E-01
 -0.321851821305E-01
 -0.219396750981E-01
 -0.219396347658E-01
  0.543495279664E-01
  0.543495391314E-01
  0.209325107995E+00
  0.209325180064E+00
  0.505004060709E+00
  0.505003733320E+00
  0.389032176715E+00
  0.389032578582E+00
  0.621729735906E-01
  0.621728975838E-01
 -0.955439214570E-01
 -0.955439325227E-01
 -0.170494407128E+00
 -0.170494446804E+00
 -0.180428556513E+00
 -0.180428495881E+00
 -0.179494398055E+00
 -0.179494587430E+00
 -0.312203868177E-01
 -0.312205639216E-01
 -0.321851173486E-01
 -0.321851202041E-01
 -0.219396413125E-01
 -0.219396752289E-01
  0.543495391378E-01
  0.543495350388E-01
  0.209325186986E+00
  0.209325189086E+00
  0.505003880726E+00
  0.505004840622E+00
  0.389033495494E+00
  0.389032290270E+00
  0.621729778783E-01
  0.621729756464E-01
 -0.955439255233E-01
 -0.955439214682E-01
 -0.170494447820E+00
 -0.170494414172E+00
 -0.180428496794E+00
 -0.180428493990E+00
 -0.179494587424E+00
 -0.179494414850E+00
 -0.312204633831E-01
 -0.312203875078E-01
 -0.321851788110E-01
 -0.321851174965E-01
 -0.219396983694E-01
 -0.219396410663E-01
  0.543495350141E-01
  0.543495503063E-01
  0.209325179776E+00
  0.209325230478E+00
  0.505004677361E+00
  0.505004175399E+00
  0.389032703223E+00
  0.389033369725E+00
  0.621730299140E-01
  0.621729751130E-01
 -0.955439104089E-01
 -0.955439254798E-01
 -0.170494412259E+00
 -0.170494470117E+00
 -0.180428494819E+00
 -0.180428555760E+00
 -0.179494418818E+00
 -0.179494493139E+00
 -0.300253063807E-01
 -0.309644577103E-01
 -0.309649513327E-01
 -0.210223687043E-01
 -0.210222200157E-01
  0.505862579358E-01
  0.505863653568E-01
  0.185317557751E+00
  0.185317741375E+00
  0.428365937808E+00
  0.329994021580E+00
  0.550426555255E-01
  0.550423569836E-01
 -0.889280602336E-01
 -0.889282223845E-01
 -0.163364700914E+00
 -0.163364804756E+00
 -0.173588019534E+00
 -0.173587715905E+00
 -0.172623227401E+00
 -0.762374012747E-01
 -0.772925474915E-01
 -0.772878564313E-01
 -0.662085035733E-01
 -0.662097832597E-01
  0.982723154353E-02
  0.982708730996E-02
  0.138889213103E+00
  0.138889080283E+00
  0.351482486280E+00
  0.315637253439E+00
  0.879602008603E-01
  0.879605200509E-01
 -0.485770451989E-01
 -0.485766446518E-01
 -0.128456683344E+00
 -0.128456303976E+00
 -0.140060915514E+00
 -0.140061575412E+00
 -0.138956786530E+00
SCALARS inclination float 1
LOOKUP_TABLE default
  0.100000000000E+01
  0.100000000000E+01
  0.100000000000E+01
  0.100000000000E+01
  0.100000000000E+01
  0.100000000000E+01
  0.100000000000E+01
  0.100000000000E+01
  0.100000000000E+01
  0.100000000000E+01
  0.100000000000E+01
  0.100000000000E+01
  0.100000000000E+01
  0.100000000000E+01
  0.100000000000E+01
  0.100000000000E+01
  0.100000000000E+01
  0.100000000000E+01
  0.100000000000E+01
  0.100000000000E+01
  0.100000000000E+01
  0.100000000000E+01
  0.100000000000E+01
  0.100000000000E+01
  0.100000000000E+01
  0.100000000000E+01
  0.100000000000E+01
  0.100000000000E+01
  0.100000000000E+01
  0.100000000000E+01
  0.100000000000E+01
  0.100000000000E+01
  0.100000000000E+01
  0.100000000000E+01
  0.100000000000E+01
  0.100000000000E+01
  0.100000000000E+01
  0.100000000000E+01
  0.100000000000E+01
  0.100000000000E+01
  0.100000000000E+01
  0.100000000000E+01
  0.100000000000E+01
  0.100000000000E+01
  0.100000000000E+01
  0.100000000000E+01
  0.100000000000E+01
  0.100000000000E+01
  0.100000000000E+01
  0.100000000000E+01
  0.100000000000E+01
  0.100000000000E+01
  0.100000000000E+01
  0.100000000000E+01
  0.100000000000E+01
  0.100000000000E+01
  0.100000000000E+01
  0.100000000000E+01
  0.100000000000E+01
  0.100000000000E+01
  0.100000000000E+01
  0.100000000000E+01
  0.100000000000E+01
  0.100000000000E+01
  0.100000000000E+01
  0.100000000000E+01
  0.100000000000E+01
  0.100000000000E+01
  0.100000000000E+01
  0.100000000000E+01
  0.100000000000E+01
  0.100000000000E+01
  0.100000000000E+01
  0.100000000000E+01
  0.100000000000E+01
  0.100000000000E+01
  0.100000000000E+01
  0.100000000000E+01
  0.100000000000E+01
  0.100000000000E+01
  0.100000000000E+01
  0.100000000000E+01
  0.100000000000E+01
  0.100000000000E+01
  0.100000000000E+01
  0.100000000000E+01
  0.100000000000E+01
  0.100000000000E+01
  0.100000000000E+01
  0.100000000000E+01
  0.100000000000E+01
  0.100000000000E+01
  0.100000000000E+01
  0.100000000000E+01
  0.100000000000E+01
  0.100000000000E+01
  0.100000000000E+01
  0.100000000000E+01
  0.100000000000E+01
  0.100000000000E+01
  0.100000000000E+01
  0.100000000000E+01
  0.100000000000E+01
  0.100000000000E+01
  0.100000000000E+01
  0.100000000000E+01
  0.100000000000E+01
  0.100000000000E+01
  0.100000000000E+01
  0.100000000000E+01
  0.100000000000E+01
  0.100000000000E+01
  0.100000000000E+01
  0.100000000000E+01
  0.100000000000E+01
  0.100000000000E+01
  0.100000000000E+01
  0.100000000000E+01
  0.100000000000E+01
  0.100000000000E+01
  0.100000000000E+01
  0.100000000000E+01
  0.100000000000E+01
  0.100000000000E+01
  0.100000000000E+01
  0.100000000000E+01
  0.100000000000E+01
  0.100000000000E+01
  0.100000000000E+01
  0.100000000000E+01
  0.100000000000E+01
  0.100000000000E+01
  0.100000000000E+01
  0.100000000000E+01
  0.100000000000E+01
  0.100000000000E+01
  0.100000000000E+01
  0.100000000000E+01
  0.100000000000E+01
  0.100000000000E+01
  0.100000000000E+01
  0.100000000000E+01
  0.100000000000E+01
  0.100000000000E+01
  0.100000000000E+01
  0.100000000000E+01
  0.100000000000E+01
  0.100000000000E+01
  0.100000000000E+01
  0.100000000000E+01
  0.100000000000E+01
  0.100000000000E+01
  0.100000000000E+01
  0.100000000000E+01
  0.100000000000E+01
  0.100000000000E+01
  0.100000000000E+01
  0.100000000000E+01
  0.100000000000E+01
  0.100000000000E+01
  0.100000000000E+01
  0.100000000000E+01
  0.100000000000E+01
  0.100000000000E+01
  0.100000000000E+01
  0.100000000000E+01
  0.100000000000E+01
  0.100000000000E+01
  0.100000000000E+01
  0.100000000000E+01
  0.100000000000E+01
  0.100000000000E+01
  0.100000000000E+01
  0.100000000000E+01
  0.100000000000E+01
  0.100000000000E+01
  0.100000000000E+01
  0.100000000000E+01
  0.100000000000E+01
  0.100000000000E+01
  0.100000000000E+01
  0.100000000000E+01
  0.100000000000E+01
  0.100000000000E+01
  0.100000000000E+01
  0.100000000000E+01
  0.100000000000E+01
  0.100000000000E+01
  0.100000000000E+01
  0.100000000000E+01
  0.100000000000E+01
  0.100000000000E+01
  0.100000000000E+01
  0.100000000000E+01
  0.100000000000E+01
  0.100000000000E+01
  0.100000000000E+01
  0.100000000000E+01
  0.100000000000E+01
  0.100000000000E+01
  0.100000000000E+01
  0.100000000000E+01
  0.100000000000E+01
  0.100000000000E+01
  0.100000000000E+01
  0.100000000000E+01
  0.100000000000E+01
  0.100000000000E+01
  0.100000000000E+01
  0.100000000000E+01
  0.100000000000E+01
  0.100000000000E+01
  0.100000000000E+01
  0.100000000000E+01
  0.100000000000E+01
  0.100000000000E+01
  0.100000000000E+01
  0.100000000000E+01
  0.100000000000E+01
  0.100000000000E+01
  0.100000000000E+01
  0.100000000000E+01
  0.100000000000E+01
  0.100000000000E+01
  0.100000000000E+01
  0.100000000000E+01
  0.100000000000E+01
  0.100000000000E+01
  0.100000000000E+01
  0.100000000000E+01
  0.100000000000E+01
  0.100000000000E+01
  0.100000000000E+01
  0.100000000000E+01
  0.100000000000E+01
  0.100000000000E+01
  0.100000000000E+01
  0.100000000000E+01
  0.100000000000E+01
  0.100000000000E+01
  0.100000000000E+01
  0.100000000000E+01
  0.100000000000E+01
  0.100000000000E+01
  0.100000000000E+01
  0.100000000000E+01
  0.100000000000E+01
  0.100000000000E+01
  0.100000000000E+01
  0.100000000000E+01
  0.100000000000E+01
  0.100000000000E+01
  0.100000000000E+01
  0.100000000000E+01
  0.100000000000E+01
  0.100000000000E+01
VECTORS v float
  0.152658496542E+03  0.402400917932E+01  0.158822326778E+02
  0.155931678492E+03  0.308068035767E+01  0.163327987582E+02
  0.160025426589E+03 -0.101308798533E+01  0.173663325462E+02
  0.162736613276E+03  0.678306418082E+00  0.174762946308E+02
  0.167219041104E+03 -0.380414375752E+01  0.166576124808E+02
  0.169200908754E+03 -0.518554150860E+00  0.165306306395E+02
  0.169732274618E+03 -0.104992562382E+01  0.352906923497E+01
  0.170956935385E+03 -0.556908874460E+01  0.364775958909E+01
  0.154337749017E+03  0.110501109314E+02 -0.198779331433E+02
  0.161792667710E+03 -0.925773080449E+01 -0.237293847109E+02
  0.984381844074E+02  0.540967756259E+02 -0.257025359114E+02
  0.104521816379E+03  0.405249362380E+02 -0.370958469087E+02
  0.147568328864E+03 -0.252157624723E+01  0.869997432735E+02
  0.130033509316E+03  0.365964630983E+02  0.541608644642E+02
  0.191642629868E+03 -0.250126751322E+02  0.300560346597E+02
  0.182620520814E+03 -0.435671760609E+00  0.253949225384E+02
  0.189584413214E+03 -0.739956366132E+01 -0.407050611521E+01
  0.189606762383E+03 -0.748203526750E+01 -0.407267507369E+01
  0.182482729116E+03 -0.357976555451E+00 -0.178086360820E+02
  0.178731129452E+03 -0.657747152514E+01 -0.180490097572E+02
  0.171096590413E+03  0.105710540569E+01 -0.183369810402E+02
  0.166075628548E+03 -0.207526127971E+01 -0.181333289966E+02
  0.160228567791E+03  0.377182839751E+01 -0.167180876513E+02
  0.154171654426E+03  0.551742753298E+01 -0.158843409824E+02
  0.152428934856E+03  0.800207767081E+01  0.154326221539E+02
  0.152701520259E+03  0.783512063488E+01  0.154795936270E+02
  0.158932072897E+03  0.160453204386E+01  0.169661389281E+02
  0.160054077667E+03  0.147922846525E+01  0.171006502495E+02
  0.165700647452E+03 -0.416736797546E+01  0.165451006960E+02
  0.167222179097E+03 -0.347023065718E+01  0.166253948056E+02
  0.170956237417E+03 -0.720430465796E+01  0.368153638244E+01
  0.171174778861E+03 -0.774157437169E+01  0.369715664022E+01
  0.161994634199E+03  0.143857303020E+01 -0.222735338065E+02
  0.163443172751E+03 -0.134510477403E+01 -0.228606650267E+02
  0.107948371528E+03  0.541497171542E+02 -0.311844347851E+02
  0.106708007380E+03  0.561340232268E+02 -0.293152485679E+02
  0.159251103145E+03  0.359092746177E+01  0.902285398056E+02
  0.152016371144E+03  0.151648783434E+02  0.793260856439E+02
  0.196616245132E+03 -0.294350039597E+02  0.313595196178E+02
  0.191736203260E+03 -0.200569574653E+02  0.293815222249E+02
  0.189478662714E+03 -0.177994014370E+02 -0.428323116062E+01
  0.189579868022E+03 -0.180482079116E+02 -0.429046165707E+01
  0.178725338942E+03 -0.719364085294E+01 -0.181084607511E+02
  0.175461637410E+03 -0.868900799086E+01 -0.179362276981E+02
  0.166107136109E+03  0.665537315819E+00 -0.178411584410E+02
  0.163234257808E+03  0.986375748175E+00 -0.174967469986E+02
  0.154222240727E+03  0.999844483488E+01 -0.154109272137E+02
  0.153051204521E+03  0.107156985490E+02 -0.152091504976E+02
  0.152279949747E+03  0.915958009284E+01  0.152930261075E+02
  0.152440610580E+03  0.903633311996E+01  0.153233544207E+02
  0.158705417670E+03  0.277148921392E+01  0.168158423743E+02
  0.158944211727E+03  0.266047183604E+01  0.168535751833E+02
  0.165063364102E+03 -0.345870874067E+01  0.164140056419E+02
  0.165706579267E+03 -0.353616381572E+01  0.164841989337E+02
  0.171174240087E+03 -0.900384494156E+01  0.372322954176E+01
  0.170360772299E+03 -0.747880433488E+01  0.367490574522E+01
  0.163457700005E+03 -0.575730522003E+00 -0.227559471133E+02
  0.162581395754E+03  0.781850093130E+00 -0.224460350390E+02
  0.106812752724E+03  0.565505141308E+02 -0.291345443396E+02
  0.104457979030E+03  0.597136138307E+02 -0.259361027003E+02