# vtk DataFile Version 3.0
MachLine results file. Generated by MachLine, USU AeroLab (c) 2022.
ASCII
DATASET POLYDATA
POINTS                1848 float
  0.000000000000E+00  0.000000000000E+00  0.000000000000E+00
  0.147665724158E+00  0.000000000000E+00 -0.234920635819E+00
  0.147665724158E+00  0.000000000000E+00  0.234920635819E+00
  0.339639574289E+00  0.339639574289E+00  0.000000000000E+00
  0.473465979099E+00  0.000000000000E+00 -0.436293870211E+00
  0.473465979099E+00  0.000000000000E+00  0.436293870211E+00
  0.487305283546E+00  0.339639574289E+00 -0.234920650721E+00
  0.487305283546E+00  0.339639574289E+00  0.234920650721E+00
  0.735364913940E+00  0.735364913940E+00  0.000000000000E+00
  0.813105583191E+00  0.339639574289E+00 -0.436293929815E+00
  0.813105583191E+00  0.339639574289E+00  0.436293929815E+00
  0.883030653000E+00  0.735364913940E+00 -0.234920680523E+00
  0.883030653000E+00  0.735364913940E+00  0.234920680523E+00
  0.944064557552E+00  0.000000000000E+00 -0.604293465614E+00
  0.944064557552E+00  0.000000000000E+00  0.604293465614E+00
  0.119528055191E+01  0.119528055191E+01  0.000000000000E+00
  0.120883107185E+01  0.735364913940E+00 -0.436293989420E+00
  0.120883107185E+01  0.735364913940E+00  0.436293989420E+00
  0.128370416164E+01  0.339639574289E+00 -0.604293525219E+00
  0.128370416164E+01  0.339639574289E+00  0.604293525219E+00
  0.134294629097E+01  0.119528055191E+01 -0.234920725226E+00
  0.134294629097E+01  0.119528055191E+01  0.234920725226E+00
  0.157641971111E+01  0.000000000000E+00 -0.760520398617E+00
  0.157641971111E+01  0.000000000000E+00  0.760520398617E+00
  0.166874670982E+01  0.119528055191E+01 -0.436294049025E+00
  0.166874670982E+01  0.119528055191E+01  0.436294049025E+00
  0.167942965031E+01  0.735364913940E+00 -0.604293584824E+00
  0.167942965031E+01  0.735364913940E+00  0.604293584824E+00
  0.172824025154E+01  0.172824025154E+01  0.000000000000E+00
  0.187590610981E+01  0.172824025154E+01 -0.234920769930E+00
  0.187590610981E+01  0.172824025154E+01  0.234920769930E+00
  0.191605937481E+01  0.339639574289E+00 -0.760520458221E+00
  0.191605937481E+01  0.339639574289E+00  0.760520458221E+00
  0.213934540749E+01  0.119528055191E+01 -0.604293704033E+00
  0.213934540749E+01  0.119528055191E+01  0.604293704033E+00
  0.220170640945E+01  0.172824025154E+01 -0.436294138432E+00
  0.220170640945E+01  0.172824025154E+01  0.436294138432E+00
  0.231178498268E+01  0.735364913940E+00 -0.760520577431E+00
  0.231178498268E+01  0.735364913940E+00  0.760520577431E+00
  0.234375929832E+01  0.234375929832E+01  0.000000000000E+00
  0.239635515213E+01  0.000000000000E+00 -0.902061045170E+00
  0.239635515213E+01  0.000000000000E+00  0.902061045170E+00
  0.249142503738E+01  0.234375929832E+01 -0.234920814633E+00
  0.249142503738E+01  0.234375929832E+01  0.234920814633E+00
  0.267230534554E+01  0.172824025154E+01 -0.604293823242E+00
  0.267230534554E+01  0.172824025154E+01  0.604293823242E+00
  0.273599505424E+01  0.339639574289E+00 -0.902061164379E+00
  0.273599505424E+01  0.339639574289E+00  0.902061164379E+00
  0.277170085907E+01  0.119528055191E+01 -0.760520696640E+00
  0.277170085907E+01  0.119528055191E+01  0.760520696640E+00
  0.281722569466E+01  0.234375929832E+01 -0.436294227839E+00
  0.281722569466E+01  0.234375929832E+01  0.436294227839E+00
  0.305185556412E+01  0.305185556412E+01  0.000000000000E+00
  0.313172078133E+01  0.735364913940E+00 -0.902061283588E+00
  0.313172078133E+01  0.735364913940E+00  0.902061283588E+00
  0.319952154160E+01  0.305185556412E+01 -0.234920859337E+00
  0.319952154160E+01  0.305185556412E+01  0.234920859337E+00
  0.328782463074E+01  0.234375929832E+01 -0.604293942451E+00
  0.328782463074E+01  0.234375929832E+01  0.604293942451E+00
  0.330466079712E+01  0.172824025154E+01 -0.760520815849E+00
  0.330466079712E+01  0.172824025154E+01  0.760520815849E+00
  0.342464399338E+01  0.000000000000E+00 -0.102348911762E+01
  0.342464399338E+01  0.000000000000E+00  0.102348911762E+01
  0.352532196045E+01  0.305185556412E+01 -0.436294317245E+00
  0.352532196045E+01  0.305185556412E+01  0.436294317245E+00
  0.359163665771E+01  0.119528055191E+01 -0.902061402798E+00
  0.359163665771E+01  0.119528055191E+01  0.902061402798E+00
  0.376428389549E+01  0.339639574289E+00 -0.102348923683E+01
  0.376428389549E+01  0.339639574289E+00  0.102348923683E+01
  0.386280250549E+01  0.386280250549E+01  0.000000000000E+00
  0.392018008232E+01  0.234375929832E+01 -0.760520994663E+00
  0.392018008232E+01  0.234375929832E+01  0.760520994663E+00
  0.399592113495E+01  0.305185556412E+01 -0.604294061661E+00
  0.399592113495E+01  0.305185556412E+01  0.604294061661E+00
  0.401046848297E+01  0.386280250549E+01 -0.234920918941E+00
  0.401046848297E+01  0.386280250549E+01  0.234920918941E+00
  0.412459707260E+01  0.172824025154E+01 -0.902061522007E+00
  0.412459707260E+01  0.172824025154E+01  0.902061522007E+00
  0.416000986099E+01  0.735364913940E+00 -0.102348935604E+01
  0.416000986099E+01  0.735364913940E+00  0.102348935604E+01
  0.433626890182E+01  0.386280250549E+01 -0.436294436455E+00
  0.433626890182E+01  0.386280250549E+01  0.436294436455E+00
  0.461992597580E+01  0.119528055191E+01 -0.102348947525E+01
  0.461992597580E+01  0.119528055191E+01  0.102348947525E+01
  0.462827682495E+01  0.305185556412E+01 -0.760521173477E+00
  0.462827682495E+01  0.305185556412E+01  0.760521173477E+00
  0.466872262955E+01  0.000000000000E+00 -0.111146688461E+01
  0.466872262955E+01  0.000000000000E+00  0.111146688461E+01
  0.474011659622E+01  0.234375929832E+01 -0.902061700821E+00
  0.474011659622E+01  0.234375929832E+01  0.902061700821E+00
  0.478677463531E+01  0.478677463531E+01  0.000000000000E+00
  0.480686807632E+01  0.386280250549E+01 -0.604294240475E+00
  0.480686807632E+01  0.386280250549E+01  0.604294240475E+00
  0.493444061279E+01  0.478677463531E+01 -0.234920993447E+00
  0.493444061279E+01  0.478677463531E+01  0.234920993447E+00
  0.500836277008E+01  0.339639574289E+00 -0.111146700382E+01
  0.500836277008E+01  0.339639574289E+00  0.111146700382E+01
  0.515288639069E+01  0.172824025154E+01 -0.102348971367E+01
  0.515288639069E+01  0.172824025154E+01  0.102348971367E+01
  0.526024150848E+01  0.478677463531E+01 -0.436294555664E+00
  0.526024150848E+01  0.478677463531E+01  0.436294555664E+00
  0.540408849716E+01  0.735364913940E+00 -0.111146712303E+01
  0.540408849716E+01  0.735364913940E+00  0.111146712303E+01
  0.543922424316E+01  0.386280250549E+01 -0.760521352291E+00
  0.543922424316E+01  0.386280250549E+01  0.760521352291E+00
  0.544821310043E+01  0.305185556412E+01 -0.902061939240E+00
  0.544821310043E+01  0.305185556412E+01  0.902061939240E+00
  0.573084068298E+01  0.478677463531E+01 -0.604294419289E+00
  0.573084068298E+01  0.478677463531E+01  0.604294419289E+00
  0.576840591431E+01  0.234375929832E+01 -0.102348983288E+01
  0.576840591431E+01  0.234375929832E+01  0.102348983288E+01
  0.583337688446E+01  0.583337688446E+01  0.000000000000E+00
  0.586400508881E+01  0.119528055191E+01 -0.111146736145E+01
  0.586400508881E+01  0.119528055191E+01  0.111146736145E+01
  0.598104286194E+01  0.583337688446E+01 -0.234921067953E+00
  0.598104286194E+01  0.583337688446E+01  0.234921067953E+00
  0.611307668686E+01  0.000000000000E+00 -0.114008128643E+01
  0.611307668686E+01  0.000000000000E+00  0.114008128643E+01
  0.625916051865E+01  0.386280250549E+01 -0.902062177658E+00
  0.625916051865E+01  0.386280250549E+01  0.902062177658E+00
  0.630684375763E+01  0.583337688446E+01 -0.436294704676E+00
  0.630684375763E+01  0.583337688446E+01  0.436294704676E+00
  0.636319684982E+01  0.478677463531E+01 -0.760521590710E+00
  0.636319684982E+01  0.478677463531E+01  0.760521590710E+00
  0.639696550369E+01  0.172824025154E+01 -0.111146748066E+01
  0.639696550369E+01  0.172824025154E+01  0.111146748066E+01
  0.645271682739E+01  0.339639574289E+00 -0.114008140564E+01
  0.645271682739E+01  0.339639574289E+00  0.114008140564E+01
  0.647650289536E+01  0.305185556412E+01 -0.102349007130E+01
  0.647650289536E+01  0.305185556412E+01  0.102349007130E+01
  0.677744340897E+01  0.583337688446E+01 -0.604294598103E+00
  0.677744340897E+01  0.583337688446E+01  0.604294598103E+00
  0.684844303131E+01  0.735364913940E+00 -0.114008152485E+01
  0.684844303131E+01  0.735364913940E+00  0.114008152485E+01
  0.701104879379E+01  0.701104879379E+01  0.000000000000E+00
  0.701248550415E+01  0.234375929832E+01 -0.111146771908E+01
  0.701248550415E+01  0.234375929832E+01  0.111146771908E+01
  0.715871477127E+01  0.701104879379E+01 -0.234921157360E+00
  0.715871477127E+01  0.701104879379E+01  0.234921157360E+00
  0.718313360214E+01  0.478677463531E+01 -0.902062416077E+00
  0.718313360214E+01  0.478677463531E+01  0.902062416077E+00
  0.728745079041E+01  0.386280250549E+01 -0.102349042892E+01
  0.728745079041E+01  0.386280250549E+01  0.102349042892E+01
  0.730835962296E+01  0.119528055191E+01 -0.114008176327E+01
  0.730835962296E+01  0.119528055191E+01  0.114008176327E+01
  0.740979957581E+01  0.583337688446E+01 -0.760521829128E+00
  0.740979957581E+01  0.583337688446E+01  0.760521829128E+00
  0.748451566696E+01  0.701104879379E+01 -0.436294883490E+00
  0.748451566696E+01  0.701104879379E+01  0.436294883490E+00
  0.771254587173E+01  0.000000000000E+00 -0.108925735950E+01
  0.771254587173E+01  0.000000000000E+00  0.108925735950E+01
  0.772058296204E+01  0.305185556412E+01 -0.111146795750E+01
  0.772058296204E+01  0.305185556412E+01  0.111146795750E+01
  0.784132003784E+01  0.172824025154E+01 -0.114008188248E+01
  0.784132003784E+01  0.172824025154E+01  0.114008188248E+01
  0.795511531830E+01  0.701104879379E+01 -0.604294836521E+00
  0.795511531830E+01  0.701104879379E+01  0.604294836521E+00
  0.805218601227E+01  0.339639574289E+00 -0.108925747871E+01
  0.805218601227E+01  0.339639574289E+00  0.108925747871E+01
  0.821142387390E+01  0.478677463531E+01 -0.102349066734E+01
  0.821142387390E+01  0.478677463531E+01  0.102349066734E+01
[...]
CELL_DATA                3576
SCALARS C_p_inc float 1
LOOKUP_TABLE default
  0.178402341344E+00
  0.142272406201E+00
  0.110071119085E+00
  0.820971126762E-01
  0.712618845714E-01
  0.546105433590E-01
  0.438955708158E-01
  0.333506261139E-01
  0.215190642442E-01
  0.137222577628E-01
  0.449495667221E-03
 -0.590473508037E-02
 -0.211484149908E-01
 -0.269031044210E-01
 -0.443901575090E-01
 -0.499175909648E-01
 -0.689650815028E-01
 -0.742559476565E-01
 -0.903755290583E-01
 -0.942472295579E-01
 -0.105851001368E+00
 -0.104036875653E+00
 -0.102342580664E+00
 -0.105071440856E+00
 -0.613856004464E-01
 -0.751812914199E-01
  0.378839330795E-02
 -0.165016544232E-01
  0.744276219937E-01
  0.495171397586E-01
  0.152337413221E+00
  0.118841648318E+00
  0.250179118042E+00
  0.203323094399E+00
  0.380014423359E+00
  0.319308881161E+00
  0.577805367232E+00
  0.531775096817E+00
  0.754131495792E+00
  0.763307198691E+00
  0.412174743980E+00
  0.514172446111E+00
 -0.604338527062E-01
  0.140074106625E+00
 -0.215673548452E+00
 -0.882952082688E-01
 -0.263345120985E+00
 -0.192390743118E+00
 -0.301142636592E+00
 -0.261079235469E+00
 -0.333993808689E+00
 -0.309111606256E+00
 -0.370118777410E+00
 -0.352137318442E+00
 -0.399964593982E+00
 -0.390605910778E+00
 -0.396197217526E+00
 -0.400420245624E+00
 -0.359012485560E+00
 -0.367660333848E+00
 -0.321879807086E+00
 -0.311891101970E+00
 -0.271104588617E+00
 -0.259922022662E+00
 -0.219455308968E+00
 -0.208235515772E+00
 -0.172839713523E+00
 -0.161307391069E+00
 -0.131229230250E+00
 -0.118664229136E+00
 -0.931997937964E-01
 -0.783112818691E-01
 -0.566235360794E-01
 -0.374888195374E-01
 -0.190895297640E-01
  0.867991463215E-02
  0.252823439636E-01
  0.681793232786E-01
  0.106874903749E+00
  0.159467233083E+00
  0.174876810265E+00
  0.176142034405E+00
  0.117403907256E+00
  0.109672205272E+00
  0.852552345875E-01
  0.711753303949E-01
  0.558065294440E-01
  0.438698757720E-01
  0.304239757605E-01
  0.215137609343E-01
  0.749439463638E-02
  0.457518057114E-03
 -0.151435945645E-01
 -0.211270515114E-01
 -0.390521859870E-01
 -0.443564944352E-01
 -0.644250425586E-01
 -0.689374906006E-01
 -0.875265623572E-01
 -0.904313308396E-01
 -0.104357952278E+00
 -0.103869237920E+00
 -0.105356941120E+00
 -0.109904995968E+00
 -0.748402107871E-01
 -0.875983366510E-01
 -0.157401906208E-01
 -0.339469131525E-01
  0.502516220451E-01
  0.288826493313E-01
  0.119103184094E+00
  0.948938145412E-01
  0.200951869212E+00
  0.175633769755E+00
  0.306456311016E+00
  0.285771571660E+00
  0.472944385138E+00
  0.467710004069E+00
  0.624722772463E+00
  0.615208641506E+00
  0.254282577785E+00
  0.301080096458E+00
 -0.156696168942E+00
 -0.625854698043E-01
 -0.291458391477E+00
 -0.205922427452E+00
 -0.320592473226E+00
 -0.258844889603E+00
 -0.342149527145E+00
 -0.299619048503E+00
 -0.362939990461E+00
 -0.333724604190E+00
 -0.390528958341E+00
 -0.370450041065E+00
 -0.411388653850E+00
 -0.401104562525E+00
 -0.396704267860E+00
 -0.397832388699E+00
 -0.353115193026E+00
 -0.360193113690E+00
 -0.311869106985E+00
 -0.303277234342E+00
 -0.259786711417E+00
 -0.249434126701E+00
 -0.208120886885E+00
 -0.196820996396E+00
 -0.161234380794E+00
 -0.148902959749E+00
 -0.118628000097E+00
 -0.104566955499E+00
 -0.783082122075E-01
 -0.612732074894E-01
 -0.375304390382E-01
 -0.159494786902E-01
  0.852170976287E-02
  0.335382223778E-01
  0.674812788535E-01
  0.854791200359E-01
  0.155939987751E+00
  0.162778686945E+00
  0.173549095337E+00
  0.173789392113E+00
  0.118402630612E+00
  0.116858657446E+00
  0.910589202010E-01
  0.850034152216E-01
  0.652665223931E-01
  0.557219954221E-01
  0.396248412524E-01
  0.304010120762E-01
  0.151456864491E-01
  0.750058937038E-02
 -0.873887866704E-02
 -0.151154680971E-01
 -0.335667593633E-01
 -0.390051592070E-01
 -0.599554640220E-01
 -0.643824022828E-01
 -0.847997885795E-01
 -0.875813415787E-01
 -0.104245201271E+00
 -0.103916943164E+00
 -0.109934962473E+00
 -0.114290120356E+00
 -0.867537533734E-01
 -0.976329479179E-01
 -0.327526327692E-01
 -0.485439177802E-01
  0.296646221909E-01
  0.116101629238E-01
  0.944665773926E-01
  0.759662807651E-01
  0.172006952224E+00
  0.155512262792E+00
  0.274921801800E+00
  0.264373123348E+00
  0.441037194548E+00
  0.440210069824E+00
  0.575912723183E+00
  0.564435728468E+00
  0.169756532950E+00
  0.209083151032E+00
 -0.233535807377E+00
 -0.160467234580E+00
 -0.353971359119E+00
 -0.284368967880E+00
 -0.369512468180E+00
 -0.314732476459E+00
 -0.379701786593E+00
 -0.338431817566E+00
 -0.391012173287E+00
 -0.360939948498E+00
 -0.410293650166E+00
 -0.389843110125E+00
 -0.422184341965E+00
 -0.412238392464E+00
 -0.398359672564E+00
 -0.398729956347E+00
 -0.348359773432E+00
 -0.355037411024E+00
 -0.303255455786E+00
 -0.294969492073E+00
 -0.249251130598E+00
 -0.238895179907E+00
 -0.196657113866E+00
 -0.184881981190E+00
 -0.148795215871E+00
 -0.135515833384E+00
 -0.104515945732E+00
 -0.891513178878E-01
 -0.612891348812E-01
 -0.433884976569E-01
 -0.160908483625E-01
  0.259447226413E-02
  0.330754605264E-01
  0.472464177824E-01
  0.844180888380E-01
  0.916501780217E-01
  0.160560452400E+00
  0.162214712805E+00
  0.172169540034E+00
  0.172741446319E+00
  0.118574275890E+00
  0.117956111729E+00
  0.932352586521E-01
  0.907678412328E-01
  0.705685522191E-01
  0.651152905325E-01
  0.472360569319E-01
  0.395722164362E-01
  0.228082764918E-01
  0.151460616326E-01
 -0.202744422066E-02
 -0.870639291105E-02
 -0.278746548251E-01
 -0.335126226189E-01
 -0.554069890894E-01
 -0.599097007189E-01
 -0.819844835579E-01
 -0.848584027162E-01
 -0.104319587372E+00
 -0.103770349677E+00
 -0.114293062266E+00
 -0.117950000728E+00
 -0.968623540682E-01
 -0.105814870840E+00
 -0.474805928041E-01
 -0.606211820789E-01
  0.121674163341E-01
 -0.262698726502E-02
  0.752527829044E-01
  0.610284180332E-01
  0.152187547519E+00
  0.140920609227E+00
  0.256354765087E+00
  0.250713710863E+00
  0.423939035529E+00
  0.424795968733E+00
  0.544315311368E+00
  0.532603389357E+00
  0.104925166640E+00
  0.141455025172E+00
 -0.298203674833E+00
 -0.235689245238E+00
 -0.408427829341E+00
 -0.348303149555E+00
 -0.413459643342E+00
 -0.364158121945E+00
 -0.414706887976E+00
 -0.375794805121E+00
 -0.417852995428E+00
 -0.388697713623E+00
 -0.429217731589E+00
 -0.409541567408E+00
 -0.432539356390E+00
 -0.423224253065E+00
 -0.400434578162E+00
 -0.400663545066E+00
 -0.344104878780E+00
 -0.350725354500E+00
 -0.295029919247E+00
 -0.286772131337E+00
 -0.238719976723E+00
 -0.228169797687E+00
 -0.184694799190E+00
 -0.172390248250E+00
 -0.135383035070E+00
 -0.121344263114E+00
 -0.890940043937E-01
 -0.733832809534E-01
 -0.434461227415E-01
 -0.275301191436E-01
  0.233145378509E-02
  0.151130264513E-01
  0.466841764118E-01
  0.546265813397E-01
  0.907504871955E-01
  0.949220978451E-01
  0.160754157875E+00
  0.162599893890E+00
  0.172530565820E+00
  0.171597036324E+00
  0.118919503350E+00
  0.118216856708E+00
  0.943558671065E-01
  0.929775148083E-01
  0.733508193550E-01
  0.703987367559E-01
  0.523051448610E-01
  0.471525036591E-01
  0.294120586347E-01
  0.227949312362E-01
  0.459342002193E-02
 -0.199535011482E-02
 -0.220432588052E-01
 -0.278166741449E-01
 -0.507190738676E-01
 -0.553587039819E-01
 -0.789661305199E-01
 -0.820380326652E-01
 -0.104208091135E+00
 -0.103208139665E+00
 -0.118014460280E+00
 -0.120694513455E+00
 -0.105230709387E+00
 -0.112201985584E+00
 -0.597797828642E-01
 -0.700682266636E-01
 -0.224342737120E-02
 -0.137967306881E-01
  0.603014397162E-01
  0.496196738678E-01
  0.138199731175E+00
  0.130537064268E+00
  0.244879250139E+00
  0.242156927551E+00
  0.414271927709E+00
  0.416013121164E+00
  0.521335163046E+00
  0.509797831340E+00
  0.503305888407E-01
  0.855094628420E-01
 -0.355336021363E+00
 -0.299296077734E+00
 -0.457342755248E+00
 -0.403787793319E+00
 -0.453475018599E+00
 -0.408859454131E+00
 -0.447029137667E+00
 -0.411165233734E+00
 -0.442757607979E+00
 -0.415753112356E+00
 -0.446680863963E+00
 -0.428745911160E+00
 -0.442222277172E+00
 -0.433884461789E+00
 -0.402509691302E+00
 -0.403006817930E+00
 -0.340021675059E+00
 -0.346804498447E+00
 -0.286936230450E+00
 -0.278571468775E+00
 -0.228029476737E+00
 -0.217230014193E+00
 -0.172200538571E+00
 -0.159516452435E+00
 -0.121202804668E+00
 -0.107083551738E+00
 -0.733393376328E-01
 -0.590191919445E-01
 -0.276387140880E-01
 -0.155096837762E-01
  0.148144762539E-01
  0.232369472345E-01
  0.541389791073E-01
  0.593021159100E-01
  0.942373211978E-01
  0.970164765459E-01
  0.161517104275E+00
  0.161922744263E+00
  0.171865989719E+00
  0.172007966953E+00
  0.119127066284E+00
  0.118618873798E+00
  0.951148164429E-01
  0.941359130629E-01
  0.750013435072E-01
  0.731929870459E-01
  0.554290992492E-01
  0.522090150715E-01
  0.342776178732E-01
  0.293816152878E-01
  0.104560225629E-01
  0.461901821960E-02
 -0.163318450811E-01
 -0.219839104908E-01
 -0.459185056447E-01
 -0.506653995577E-01
 -0.756704500146E-01
 -0.790023313538E-01
 -0.103676519369E+00
 -0.102073258153E+00
 -0.120848784800E+00
 -0.122358504514E+00
 -0.111826373204E+00
 -0.116777572721E+00
 -0.694666695257E-01
 -0.769721102552E-01
 -0.135423870611E-01
 -0.219806357534E-01
  0.490071520254E-01
  0.414604379047E-01
  0.128468346684E+00
  0.123634287703E+00
  0.238018454320E+00
  0.237341179307E+00
  0.409180583643E+00
  0.411495344713E+00
  0.503620449698E+00
  0.492350963668E+00
  0.224718764465E-02
  0.365269985357E-01
 -0.407045956630E+00
 -0.355753089727E+00
 -0.501820014533E+00
 -0.453570261941E+00
 -0.489882259996E+00
 -0.449727156540E+00
 -0.476431685057E+00
 -0.444153072967E+00
 -0.465303036976E+00
 -0.441188243351E+00
 -0.462367816646E+00
 -0.446668494790E+00
 -0.450889667982E+00
 -0.443898039364E+00
 -0.404192174109E+00
 -0.405316070280E+00
 -0.335842079308E+00
 -0.342958412891E+00
 -0.278828223660E+00
 -0.270286741400E+00
 -0.217132536401E+00
 -0.206179453772E+00
 -0.159338397844E+00
 -0.146755148376E+00
 -0.106952327661E+00
 -0.939096139861E-01
 -0.590030261255E-01
 -0.473898123076E-01
 -0.156376363519E-01
 -0.690722128742E-02
  0.229784328323E-01
  0.288651226273E-01
  0.589314392728E-01
  0.627249450857E-01
  0.965366708709E-01
  0.989615117675E-01
  0.161270651925E+00
  0.162971567767E+00
  0.172024683706E+00
  0.171485057268E+00
  0.119440009400E+00
  0.118878186029E+00
  0.957044784875E-01
  0.949264988032E-01
  0.761108538741E-01
  0.748615508894E-01
  0.574225739369E-01
  0.553353239241E-01
  0.375688938398E-01
  0.342357138559E-01
  0.150494342596E-01
  0.104700498651E-01
 -0.111788477924E-01
 -0.162750350078E-01
 -0.411735569819E-01
 -0.458571846131E-01
 -0.721043623638E-01
 -0.756796888198E-01
 -0.102560248796E+00
 -0.100300861791E+00
 -0.122608604825E+00
 -0.122867335012E+00
 -0.116607249936E+00
 -0.119575195201E+00
 -0.765930427591E-01
 -0.815009258213E-01
 -0.218216765707E-01
 -0.273697159642E-01
  0.410095802011E-01
  0.362877151044E-01
  0.122183810546E+00
  0.119760433285E+00
  0.234567445675E+00
  0.235521006630E+00
  0.407298859297E+00
  0.410048325324E+00
  0.489543610764E+00
  0.478545615781E+00
 -0.409827326340E-01
 -0.761795657189E-02
 -0.454190904624E+00
 -0.407051180204E+00
 -0.542219780030E+00
 -0.498850946010E+00
 -0.522685512594E+00
 -0.487026521545E+00
 -0.502700331002E+00
 -0.474357940247E+00
 -0.485234477722E+00
 -0.464403302167E+00
 -0.476073217169E+00
 -0.462880631341E+00
 -0.458265157157E+00
 -0.452904609586E+00
 -0.405193381645E+00
 -0.407192596805E+00
 -0.331399764072E+00
 -0.338918569720E+00
 -0.270607226838E+00
 -0.261943525536E+00
 -0.206121401422E+00
 -0.195354451787E+00
 -0.146601467657E+00
 -0.134928731259E+00
 -0.938067126383E-01
 -0.828562645073E-01
 -0.473965924621E-01
 -0.385906376452E-01
 -0.701927502237E-02
 -0.664182063173E-03
  0.286737112808E-01
  0.330726387486E-01
  0.624696567472E-01
  0.654922252293E-01
  0.986387474200E-01
  0.100666913940E+00
  0.162491513861E+00
  0.163540370062E+00
  0.172038431804E+00
  0.171688090211E+00
  0.119786043817E+00
  0.119228792191E+00
  0.962459058579E-01
  0.955432085557E-01
  0.769563715542E-01
  0.759883261692E-01
  0.587926457843E-01
  0.573362963801E-01
  0.397809857462E-01
  0.375229798076E-01
  0.183555904647E-01
  0.150515988080E-01
 -0.696847421415E-02
 -0.111296349315E-01
 -0.367894824212E-01
 -0.411057191331E-01
 -0.684003253158E-01
 -0.720823350237E-01
 -0.100783991017E+00
 -0.979367769929E-01
 -0.123197325897E+00
 -0.122251877960E+00
 -0.119584139429E+00
 -0.120693742386E+00
 -0.813103600762E-01
 -0.838666789988E-01
 -0.272813179706E-01
 -0.302486295854E-01
  0.359996744591E-01
  0.337822907045E-01
  0.118853438187E+00
  0.118531308078E+00
  0.233858267707E+00
  0.236192622851E+00
  0.407856634857E+00
  0.410955673980E+00
  0.478175047228E+00
  0.467445465442E+00
 -0.801011070589E-01
 -0.479120550071E-01
 -0.497022674175E+00
 -0.453977719873E+00
 -0.578572550796E+00
 -0.540016530689E+00
 -0.551806482691E+00
 -0.520707342510E+00
 -0.525707534625E+00
 -0.501446430503E+00
 -0.502427081590E+00
 -0.485017399654E+00
 -0.487648008678E+00
 -0.477095264730E+00
 -0.464157119264E+00
 -0.460583735655E+00
 -0.405355169376E+00
 -0.408316784450E+00
 -0.326677555037E+00
 -0.334498520110E+00
 -0.262292380237E+00
 -0.253760610041E+00
 -0.195330489482E+00
 -0.185337500488E+00
 -0.134812960619E+00
 -0.124838638324E+00
 -0.827890602399E-01
 -0.742281832118E-01
 -0.386055520021E-01
 -0.320530552472E-01
 -0.744150707172E-03
  0.400497431599E-02
  0.329483845101E-01
  0.363510662529E-01
  0.653331945640E-01
  0.677816247107E-01
  0.100472697752E+00
  0.102244562666E+00
  0.163280032482E+00
  0.164535369171E+00
  0.172433755789E+00
  0.171761308670E+00
  0.120243809016E+00
  0.119603891671E+00
  0.967837175671E-01
  0.961047636608E-01
  0.776667159677E-01
  0.768478163439E-01
  0.598161992073E-01
  0.587141689080E-01
  0.413286584341E-01
  0.397351166896E-01
  0.206728636872E-01
  0.183491503490E-01
 -0.378775918435E-02
 -0.692994289346E-02
 -0.330638621104E-01
 -0.367199375809E-01
 -0.648084572526E-01
 -0.683492876440E-01
 -0.983844416920E-01
 -0.951517462282E-01
 -0.122627900880E+00
 -0.120660237907E+00
 -0.120839589037E+00
 -0.120321685483E+00
 -0.838236354881E-01
 -0.843379753541E-01
 -0.302114187342E-01
 -0.309595553648E-01
  0.336351873966E-01
  0.335627971163E-01
  0.118070578743E+00
  0.119536929111E+00
  0.235414097603E+00
  0.238902387708E+00
  0.410303688028E+00
  0.413666742765E+00
  0.468875233284E+00
  0.458440410373E+00
 -0.115442007306E+00
 -0.847974814604E-01
 -0.535558291030E+00
 -0.496734734003E+00
 -0.610826784847E+00
 -0.577082753976E+00
 -0.577204246541E+00
 -0.550635361029E+00
 -0.545421514431E+00
 -0.525205399564E+00
 -0.516850673068E+00
 -0.502823475113E+00
 -0.497039498662E+00
 -0.489103506146E+00
 -0.468508957907E+00
 -0.466692027398E+00
 -0.404691089418E+00
 -0.408487966180E+00
 -0.321856496765E+00
 -0.329652625212E+00
 -0.254107828582E+00
 -0.246161638655E+00
 -0.185347045686E+00
 -0.176740174573E+00
 -0.124769218579E+00
 -0.116840699533E+00
 -0.741918953130E-01
 -0.677459579656E-01
 -0.320654324932E-01
 -0.271850886557E-01
  0.395890597682E-02
  0.756637437420E-02
  0.362849418624E-01
  0.389538362246E-01
  0.677016530459E-01
  0.696829451507E-01
  0.102150176535E+00
  0.103589406551E+00
  0.164404223809E+00
  0.165269740180E+00
  0.172842571536E+00
  0.172179406748E+00
  0.120729007256E+00
  0.120079804078E+00
  0.973169564838E-01
  0.966567443577E-01
  0.783017317848E-01
  0.775684067695E-01
  0.606396468905E-01
  0.597439744453E-01
  0.424771070187E-01
  0.412840418281E-01
  0.223290850170E-01
  0.206610664335E-01
 -0.146447756684E-02
 -0.375955179799E-02
 -0.301110385632E-01
 -0.329981191750E-01
 -0.615910849431E-01
 -0.647365114322E-01
 -0.955308794497E-01
 -0.922151524391E-01
 -0.121038273743E+00
 -0.118356032541E+00
 -0.120552200228E+00
 -0.118747369137E+00
 -0.843981939374E-01
 -0.832527856273E-01
 -0.309570349674E-01
 -0.298944024697E-01
  0.335262373285E-01
  0.351998563980E-01
  0.119418002707E+00
  0.122325659022E+00
  0.238792962864E+00
  0.243181155997E+00
  0.414152670443E+00
  0.417675073110E+00
  0.461138771891E+00
  0.451065169164E+00
 -0.147177501633E+00
 -0.118460176191E+00
 -0.569777627036E+00
 -0.535293791631E+00
 -0.638971432269E+00
 -0.609967175276E+00
 -0.598924590201E+00
 -0.576722687652E+00
 -0.561915856386E+00
 -0.545545881011E+00
 -0.528589390186E+00
 -0.517735721980E+00
 -0.504336275543E+00
 -0.498800910025E+00
 -0.471443209538E+00
 -0.471123033811E+00
 -0.403416303580E+00
 -0.407682115308E+00
 -0.317296739654E+00
 -0.324549155527E+00
 -0.246491276826E+00
 -0.239621108463E+00
 -0.176785233830E+00
 -0.169894247060E+00
 -0.116815753728E+00
 -0.110816022825E+00
 -0.677317701219E-01
 -0.629585364638E-01
 -0.271909146456E-01
 -0.235482469153E-01
  0.754952217594E-02
  0.103036112113E-01
  0.389339683599E-01
  0.410261352948E-01
  0.696644453081E-01
  0.712594419880E-01
  0.103574844217E+00
  0.104772259687E+00
  0.165263421501E+00
  0.166049964539E+00
  0.173182824282E+00
  0.172607224032E+00
  0.121171735267E+00
  0.120576424867E+00
  0.978082638315E-01
  0.971987335354E-01
  0.788668741983E-01
  0.782099846687E-01
  0.613302701714E-01
  0.605716228865E-01
  0.433780035700E-01
  0.424335601509E-01
  0.235645008307E-01
  0.223138913518E-01
  0.247276673165E-03
 -0.144451254229E-02
 -0.278473942795E-01
 -0.300522168232E-01
 -0.588890532147E-01
 -0.615086460850E-01
 -0.925038121207E-01
 -0.893993302776E-01
 -0.118693180961E+00
 -0.115675050331E+00
 -0.119008469834E+00
 -0.116343039583E+00
 -0.833722287766E-01
 -0.810173612314E-01
 -0.299118635086E-01
 -0.274934731641E-01
  0.352422429995E-01
  0.382258629988E-01
  0.122447300035E+00
  0.126415419731E+00
  0.243539433713E+00
  0.248541842961E+00
  0.418933770073E+00
  0.422494939797E+00
  0.454550799702E+00
  0.444937861948E+00
 -0.175434164563E+00
 -0.148977976711E+00
 -0.599724367929E+00
 -0.569591334111E+00
 -0.663099672844E+00
 -0.638627806490E+00
 -0.617131858917E+00
 -0.598980726454E+00
 -0.575396463721E+00
 -0.562503441265E+00
 -0.537873848687E+00
 -0.529798954319E+00
 -0.509797809734E+00
 -0.506236807826E+00
 -0.473268351401E+00
 -0.473966530006E+00
 -0.401902715539E+00
 -0.406104564804E+00
 -0.313389012791E+00
 -0.319578815570E+00
 -0.239930668696E+00
 -0.234429375352E+00
 -0.169972892099E+00
 -0.164762896306E+00
 -0.110826655186E+00
 -0.106418921199E+00
 -0.629591172763E-01
 -0.594559329214E-01
 -0.235476101686E-01
 -0.208292390915E-01
  0.103092413081E-01
  0.124170794407E-01
  0.410411998407E-01
  0.426910491973E-01
  0.712875044899E-01
  0.725918405027E-01
  0.104817492597E+00
  0.105847689605E+00
  0.166129160330E+00
  0.166889379843E+00
  0.173484006182E+00
  0.172963334803E+00
  0.121569355556E+00
  0.121027636082E+00
  0.982483951809E-01
  0.976958733629E-01
  0.793632563194E-01
  0.787791619807E-01
  0.619165041075E-01
  0.612646634460E-01
  0.441105343956E-01
  0.433348909753E-01
  0.245274062410E-01
  0.235468489353E-01
  0.154942660502E-02
  0.261050185645E-03
 -0.261065562168E-01
 -0.277960390634E-01
 -0.566924459297E-01
 -0.588047024037E-01
 -0.895956550861E-01
 -0.868760742567E-01
 -0.115942547232E+00
 -0.112933865112E+00
 -0.116588856157E+00
 -0.113508340877E+00
 -0.811569662903E-01
 -0.780745258275E-01
 -0.275184459993E-01
 -0.242269592310E-01
  0.383175269398E-01
  0.421526148241E-01
  0.126685410981E+00
  0.131314152201E+00
  0.249185843724E+00
  0.254499761277E+00
  0.424199058534E+00
  0.427674961341E+00
  0.448778486195E+00
  0.439742045689E+00
 -0.200356533549E+00
 -0.176400139771E+00
 -0.625564523515E+00
 -0.599632809675E+00
 -0.683452145669E+00
 -0.663135072008E+00
 -0.632133683085E+00
 -0.617553442334E+00
 -0.586218099393E+00
 -0.576263532783E+00
 -0.545086484325E+00
 -0.539224558230E+00
 -0.513831892744E+00
 -0.511657659622E+00
 -0.474407997966E+00
 -0.475536012109E+00
 -0.400535390549E+00
 -0.404166307494E+00
 -0.310368804774E+00
 -0.315207565220E+00
 -0.234721646156E+00
 -0.230595633456E+00
 -0.164867931618E+00
 -0.161082896178E+00
 -0.106454885044E+00
 -0.103275075372E+00
 -0.594663985388E-01
 -0.569092689855E-01