# vtk DataFile Version 3.0
TriPan results file. Generated by TriPan, USU AeroLab (c) 2021.
ASCII
DATASET POLYDATA
POINTS                1848 float
  0.000000000000E+00  0.000000000000E+00  0.000000000000E+00
  0.147665724158E+00  0.000000000000E+00 -0.234920635819E+00
  0.147665724158E+00  0.000000000000E+00  0.234920635819E+00
  0.339639574289E+00  0.339639574289E+00  0.000000000000E+00
  0.473465979099E+00  0.000000000000E+00 -0.436293870211E+00
  0.473465979099E+00  0.000000000000E+00  0.436293870211E+00
  0.487305283546E+00  0.339639574289E+00 -0.234920650721E+00
  0.487305283546E+00  0.339639574289E+00  0.234920650721E+00
  0.735364913940E+00  0.735364913940E+00  0.000000000000E+00
  0.813105583191E+00  0.339639574289E+00 -0.436293929815E+00
  0.813105583191E+00  0.339639574289E+00  0.436293929815E+00
  0.883030653000E+00  0.735364913940E+00 -0.234920680523E+00
  0.883030653000E+00  0.735364913940E+00  0.234920680523E+00
  0.944064557552E+00  0.000000000000E+00 -0.604293465614E+00
  0.944064557552E+00  0.000000000000E+00  0.604293465614E+00
  0.119528055191E+01  0.119528055191E+01  0.000000000000E+00
  0.120883107185E+01  0.735364913940E+00 -0.436293989420E+00
  0.120883107185E+01  0.735364913940E+00  0.436293989420E+00
  0.128370416164E+01  0.339639574289E+00 -0.604293525219E+00
  0.128370416164E+01  0.339639574289E+00  0.604293525219E+00
  0.134294629097E+01  0.119528055191E+01 -0.234920725226E+00
  0.134294629097E+01  0.119528055191E+01  0.234920725226E+00
  0.157641971111E+01  0.000000000000E+00 -0.760520398617E+00
  0.157641971111E+01  0.000000000000E+00  0.760520398617E+00
  0.166874670982E+01  0.119528055191E+01 -0.436294049025E+00
  0.166874670982E+01  0.119528055191E+01  0.436294049025E+00
  0.167942965031E+01  0.735364913940E+00 -0.604293584824E+00
  0.167942965031E+01  0.735364913940E+00  0.604293584824E+00
  0.172824025154E+01  0.172824025154E+01  0.000000000000E+00
  0.187590610981E+01  0.172824025154E+01 -0.234920769930E+00
  0.187590610981E+01  0.172824025154E+01  0.234920769930E+00
  0.191605937481E+01  0.339639574289E+00 -0.760520458221E+00
  0.191605937481E+01  0.339639574289E+00  0.760520458221E+00
  0.213934540749E+01  0.119528055191E+01 -0.604293704033E+00
  0.213934540749E+01  0.119528055191E+01  0.604293704033E+00
  0.220170640945E+01  0.172824025154E+01 -0.436294138432E+00
  0.220170640945E+01  0.172824025154E+01  0.436294138432E+00
  0.231178498268E+01  0.735364913940E+00 -0.760520577431E+00
  0.231178498268E+01  0.735364913940E+00  0.760520577431E+00
  0.234375929832E+01  0.234375929832E+01  0.000000000000E+00
  0.239635515213E+01  0.000000000000E+00 -0.902061045170E+00
  0.239635515213E+01  0.000000000000E+00  0.902061045170E+00
  0.249142503738E+01  0.234375929832E+01 -0.234920814633E+00
  0.249142503738E+01  0.234375929832E+01  0.234920814633E+00
  0.267230534554E+01  0.172824025154E+01 -0.604293823242E+00
  0.267230534554E+01  0.172824025154E+01  0.604293823242E+00
  0.273599505424E+01  0.339639574289E+00 -0.902061164379E+00
  0.273599505424E+01  0.339639574289E+00  0.902061164379E+00
  0.277170085907E+01  0.119528055191E+01 -0.760520696640E+00
  0.277170085907E+01  0.119528055191E+01  0.760520696640E+00
  0.281722569466E+01  0.234375929832E+01 -0.436294227839E+00
  0.281722569466E+01  0.234375929832E+01  0.436294227839E+00
  0.305185556412E+01  0.305185556412E+01  0.000000000000E+00
  0.313172078133E+01  0.735364913940E+00 -0.902061283588E+00
  0.313172078133E+01  0.735364913940E+00  0.902061283588E+00
  0.319952154160E+01  0.305185556412E+01 -0.234920859337E+00
  0.319952154160E+01  0.305185556412E+01  0.234920859337E+00
  0.328782463074E+01  0.234375929832E+01 -0.604293942451E+00
  0.328782463074E+01  0.234375929832E+01  0.604293942451E+00
  0.330466079712E+01  0.172824025154E+01 -0.760520815849E+00
  0.330466079712E+01  0.172824025154E+01  0.760520815849E+00
  0.342464399338E+01  0.000000000000E+00 -0.102348911762E+01
  0.342464399338E+01  0.000000000000E+00  0.102348911762E+01
  0.352532196045E+01  0.305185556412E+01 -0.436294317245E+00
  0.352532196045E+01  0.305185556412E+01  0.436294317245E+00
  0.359163665771E+01  0.119528055191E+01 -0.902061402798E+00
  0.359163665771E+01  0.119528055191E+01  0.902061402798E+00
  0.376428389549E+01  0.339639574289E+00 -0.102348923683E+01
  0.376428389549E+01  0.339639574289E+00  0.102348923683E+01
  0.386280250549E+01  0.386280250549E+01  0.000000000000E+00
  0.392018008232E+01  0.234375929832E+01 -0.760520994663E+00
  0.392018008232E+01  0.234375929832E+01  0.760520994663E+00
  0.399592113495E+01  0.305185556412E+01 -0.604294061661E+00
  0.399592113495E+01  0.305185556412E+01  0.604294061661E+00
  0.401046848297E+01  0.386280250549E+01 -0.234920918941E+00
  0.401046848297E+01  0.386280250549E+01  0.234920918941E+00
  0.412459707260E+01  0.172824025154E+01 -0.902061522007E+00
  0.412459707260E+01  0.172824025154E+01  0.902061522007E+00
  0.416000986099E+01  0.735364913940E+00 -0.102348935604E+01
  0.416000986099E+01  0.735364913940E+00  0.102348935604E+01
  0.433626890182E+01  0.386280250549E+01 -0.436294436455E+00
  0.433626890182E+01  0.386280250549E+01  0.436294436455E+00
  0.461992597580E+01  0.119528055191E+01 -0.102348947525E+01
  0.461992597580E+01  0.119528055191E+01  0.102348947525E+01
  0.462827682495E+01  0.305185556412E+01 -0.760521173477E+00
  0.462827682495E+01  0.305185556412E+01  0.760521173477E+00
  0.466872262955E+01  0.000000000000E+00 -0.111146688461E+01
  0.466872262955E+01  0.000000000000E+00  0.111146688461E+01
  0.474011659622E+01  0.234375929832E+01 -0.902061700821E+00
  0.474011659622E+01  0.234375929832E+01  0.902061700821E+00
  0.478677463531E+01  0.478677463531E+01  0.000000000000E+00
  0.480686807632E+01  0.386280250549E+01 -0.604294240475E+00
  0.480686807632E+01  0.386280250549E+01  0.604294240475E+00
  0.493444061279E+01  0.478677463531E+01 -0.234920993447E+00
  0.493444061279E+01  0.478677463531E+01  0.234920993447E+00
  0.500836277008E+01  0.339639574289E+00 -0.111146700382E+01
  0.500836277008E+01  0.339639574289E+00  0.111146700382E+01
  0.515288639069E+01  0.172824025154E+01 -0.102348971367E+01
  0.515288639069E+01  0.172824025154E+01  0.102348971367E+01
  0.526024150848E+01  0.478677463531E+01 -0.436294555664E+00
  0.526024150848E+01  0.478677463531E+01  0.436294555664E+00
  0.540408849716E+01  0.735364913940E+00 -0.111146712303E+01
  0.540408849716E+01  0.735364913940E+00  0.111146712303E+01
  0.543922424316E+01  0.386280250549E+01 -0.760521352291E+00
  0.543922424316E+01  0.386280250549E+01  0.760521352291E+00
  0.544821310043E+01  0.305185556412E+01 -0.902061939240E+00
  0.544821310043E+01  0.305185556412E+01  0.902061939240E+00
  0.573084068298E+01  0.478677463531E+01 -0.604294419289E+00
  0.573084068298E+01  0.478677463531E+01  0.604294419289E+00
  0.576840591431E+01  0.234375929832E+01 -0.102348983288E+01
  0.576840591431E+01  0.234375929832E+01  0.102348983288E+01
  0.583337688446E+01  0.583337688446E+01  0.000000000000E+00
  0.586400508881E+01  0.119528055191E+01 -0.111146736145E+01
  0.586400508881E+01  0.119528055191E+01  0.111146736145E+01
  0.598104286194E+01  0.583337688446E+01 -0.234921067953E+00
  0.598104286194E+01  0.583337688446E+01  0.234921067953E+00
  0.611307668686E+01  0.000000000000E+00 -0.114008128643E+01
  0.611307668686E+01  0.000000000000E+00  0.114008128643E+01
  0.625916051865E+01  0.386280250549E+01 -0.902062177658E+00
  0.625916051865E+01  0.386280250549E+01  0.902062177658E+00
  0.630684375763E+01  0.583337688446E+01 -0.436294704676E+00
  0.630684375763E+01  0.583337688446E+01  0.436294704676E+00
  0.636319684982E+01  0.478677463531E+01 -0.760521590710E+00
  0.636319684982E+01  0.478677463531E+01  0.760521590710E+00
  0.639696550369E+01  0.172824025154E+01 -0.111146748066E+01
  0.639696550369E+01  0.172824025154E+01  0.111146748066E+01
  0.645271682739E+01  0.339639574289E+00 -0.114008140564E+01
  0.645271682739E+01  0.339639574289E+00  0.114008140564E+01
  0.647650289536E+01  0.305185556412E+01 -0.102349007130E+01
  0.647650289536E+01  0.305185556412E+01  0.102349007130E+01
  0.677744340897E+01  0.583337688446E+01 -0.604294598103E+00
  0.677744340897E+01  0.583337688446E+01  0.604294598103E+00
  0.684844303131E+01  0.735364913940E+00 -0.114008152485E+01
  0.684844303131E+01  0.735364913940E+00  0.114008152485E+01
  0.701104879379E+01  0.701104879379E+01  0.000000000000E+00
  0.701248550415E+01  0.234375929832E+01 -0.111146771908E+01
  0.701248550415E+01  0.234375929832E+01  0.111146771908E+01
  0.715871477127E+01  0.701104879379E+01 -0.234921157360E+00
  0.715871477127E+01  0.701104879379E+01  0.234921157360E+00
  0.718313360214E+01  0.478677463531E+01 -0.902062416077E+00
  0.718313360214E+01  0.478677463531E+01  0.902062416077E+00
  0.728745079041E+01  0.386280250549E+01 -0.102349042892E+01
  0.728745079041E+01  0.386280250549E+01  0.102349042892E+01
  0.730835962296E+01  0.119528055191E+01 -0.114008176327E+01
  0.730835962296E+01  0.119528055191E+01  0.114008176327E+01
  0.740979957581E+01  0.583337688446E+01 -0.760521829128E+00
  0.740979957581E+01  0.583337688446E+01  0.760521829128E+00
  0.748451566696E+01  0.701104879379E+01 -0.436294883490E+00
  0.748451566696E+01  0.701104879379E+01  0.436294883490E+00
  0.771254587173E+01  0.000000000000E+00 -0.108925735950E+01
  0.771254587173E+01  0.000000000000E+00  0.108925735950E+01
  0.772058296204E+01  0.305185556412E+01 -0.111146795750E+01
  0.772058296204E+01  0.305185556412E+01  0.111146795750E+01
  0.784132003784E+01  0.172824025154E+01 -0.114008188248E+01
  0.784132003784E+01  0.172824025154E+01  0.114008188248E+01
  0.795511531830E+01  0.701104879379E+01 -0.604294836521E+00
  0.795511531830E+01  0.701104879379E+01  0.604294836521E+00
  0.805218601227E+01  0.339639574289E+00 -0.108925747871E+01
  0.805218601227E+01  0.339639574289E+00  0.108925747871E+01
  0.821142387390E+01  0.478677463531E+01 -0.102349066734E+01
  0.821142387390E+01  0.478677463531E+01  0.102349066734E+01
[...]
CELL_DATA                3576
SCALARS sigma float 1
LOOKUP_TABLE default
 -0.309458234095E-01
 -0.309450968213E-01
 -0.311141935816E-01
 -0.311147174067E-01
 -0.313386443821E-01
 -0.313386296429E-01
 -0.316351356822E-01
 -0.316351129949E-01
 -0.322163890330E-01
 -0.322165990025E-01
 -0.324464185588E-01
 -0.324463481162E-01
 -0.320378521869E-01
 -0.320378283582E-01
 -0.298338096561E-01
 -0.298338096561E-01
 -0.239154021653E-01
 -0.239154021653E-01
 -0.106748775896E-01
 -0.106748423720E-01
  0.106235822137E-01
  0.106236004498E-01
  0.432490281491E-01
  0.432490281493E-01
  0.946970119267E-01
  0.946970119267E-01
  0.144774671456E+00
  0.144774658787E+00
  0.190101178155E+00
  0.190101178156E+00
  0.240066710969E+00
  0.240066728882E+00
  0.303356189280E+00
  0.303356173361E+00
  0.384715864485E+00
  0.384715864488E+00
  0.520506450350E+00
  0.520506461411E+00
  0.674790396741E+00
  0.674790389900E+00
  0.613883857198E+00
  0.613883853864E+00
  0.407602108360E+00
  0.407602091166E+00
  0.250851181822E+00
  0.250851181819E+00
  0.161790644190E+00
  0.161790662912E+00
  0.943875581484E-01
  0.943875378778E-01
  0.421920790245E-01
  0.421920790235E-01
 -0.443845136035E-02
 -0.443843788921E-02
 -0.552016213882E-01
 -0.552016213882E-01
 -0.106557243147E+00
 -0.106557243147E+00
 -0.138713996619E+00
 -0.138714013641E+00
 -0.159536008517E+00
 -0.159536045053E+00
 -0.172412553970E+00
 -0.172412553970E+00
 -0.178151411502E+00
 -0.178151411502E+00
 -0.180285904604E+00
 -0.180285929052E+00
 -0.180681380294E+00
 -0.180681451886E+00
 -0.180458977358E+00
 -0.180458765940E+00
 -0.179895997403E+00
 -0.179896020058E+00
 -0.179608915894E+00
 -0.179608930509E+00
 -0.179392086676E+00
 -0.179391570236E+00
 -0.179227812377E+00
 -0.179228525523E+00
 -0.309458368917E-01
 -0.309458238208E-01
 -0.311142057064E-01
 -0.311141959482E-01
 -0.313390617522E-01
 -0.313386430913E-01
 -0.316348251035E-01
 -0.316351361601E-01
 -0.322166507841E-01
 -0.322163877803E-01
 -0.324462477647E-01
 -0.324464170393E-01
 -0.320378514211E-01
 -0.320378514219E-01
 -0.298338498992E-01
 -0.298338087751E-01
 -0.239154015192E-01
 -0.239154015192E-01
 -0.106748291286E-01
 -0.106748775448E-01
  0.106236004609E-01
  0.106235640044E-01
  0.432490280900E-01
  0.432490471204E-01
  0.946970118142E-01
  0.946970053640E-01
  0.144774658273E+00
  0.144774671013E+00
  0.190101175480E+00
  0.190101151302E+00
  0.240066728968E+00
  0.240066708649E+00
  0.303356172024E+00
  0.303356205456E+00
  0.384715850482E+00
  0.384715850477E+00
  0.520506433488E+00
  0.520506401719E+00
  0.674790382018E+00
  0.674790383838E+00
  0.613883847323E+00
  0.613883850028E+00
  0.407602039685E+00
  0.407602086494E+00
  0.250851172684E+00
  0.250851172689E+00
  0.161790682257E+00
  0.161790643476E+00
  0.943875354374E-01
  0.943875581820E-01
  0.421920521130E-01
  0.421920784306E-01
 -0.443843787564E-02
 -0.443845134458E-02
 -0.552016278826E-01
 -0.552016213227E-01
 -0.106557224514E+00
 -0.106557243001E+00
 -0.138714031038E+00
 -0.138713996764E+00
 -0.159536044384E+00
 -0.159535994586E+00
 -0.172412549312E+00
 -0.172412549312E+00
 -0.178151406241E+00
 -0.178151448400E+00
 -0.180285924747E+00
 -0.180285924746E+00
 -0.180681443425E+00
 -0.180681272537E+00
 -0.180458758922E+00
 -0.180459022304E+00
 -0.179896022775E+00
 -0.179895713502E+00
 -0.179608923111E+00
 -0.179609336858E+00
 -0.179391583881E+00
 -0.179391593477E+00
 -0.179228527905E+00
 -0.179228540710E+00
 -0.309458555369E-01
 -0.309458359370E-01
 -0.311142096100E-01
 -0.311142047611E-01
 -0.313386732910E-01
 -0.313390622280E-01
 -0.316351592341E-01
 -0.316348257809E-01
 -0.322164062517E-01
 -0.322166512354E-01
 -0.324464745534E-01
 -0.324462483777E-01
 -0.320378164949E-01
 -0.320378508408E-01
 -0.298337401233E-01
 -0.298338504452E-01
 -0.239154390564E-01
 -0.239154019610E-01
 -0.106748292814E-01
 -0.106748292820E-01
  0.106235640980E-01
  0.106236005397E-01
  0.432490472281E-01
  0.432489629139E-01
  0.946970057304E-01
  0.946970057304E-01
  0.144774672862E+00
  0.144774737768E+00
  0.190101150235E+00
  0.190101125837E+00
  0.240066708081E+00
  0.240066708083E+00
  0.303356210368E+00
  0.303356177022E+00
  0.384715866945E+00
  0.384715887205E+00
  0.520506420110E+00
  0.520506431858E+00
  0.674790401051E+00
  0.674790399225E+00
  0.613883872389E+00
  0.613883862983E+00
  0.407602070735E+00
  0.407602054086E+00
  0.250851207852E+00
  0.250851183422E+00
  0.161790646632E+00
  0.161790684876E+00
  0.943875352171E-01
  0.943875352140E-01
  0.421920255074E-01
  0.421920518762E-01
 -0.443836964853E-02
 -0.443843793231E-02
 -0.552016280961E-01
 -0.552016280961E-01
 -0.106557306908E+00
 -0.106557224779E+00
 -0.138713997794E+00
 -0.138714032260E+00
 -0.159535996878E+00
 -0.159535996878E+00
 -0.172412552497E+00
 -0.172412590385E+00
 -0.178151451661E+00
 -0.178151339422E+00
 -0.180285921481E+00
 -0.180285886757E+00
 -0.180681275950E+00
 -0.180681502981E+00
 -0.180459024832E+00
 -0.180458780630E+00
 -0.179895717354E+00
 -0.179896047690E+00
 -0.179609339584E+00
 -0.179608956290E+00
 -0.179391588027E+00
 -0.179391592785E+00
 -0.179228535181E+00
 -0.179228554351E+00
 -0.309458690731E-01
 -0.309458560100E-01
 -0.311142393375E-01
 -0.311142100585E-01
 -0.313386884453E-01
 -0.313386737122E-01
 -0.316351920294E-01
 -0.316351581005E-01
 -0.322164243353E-01
 -0.322164066203E-01
 -0.324462773131E-01
 -0.324464747159E-01
 -0.320378994727E-01
 -0.320378177282E-01
 -0.298337816130E-01
 -0.298337406082E-01
 -0.239154754180E-01
 -0.239154383641E-01
 -0.106747809108E-01
 -0.106748292803E-01
  0.106236004353E-01
  0.106235651300E-01
  0.432489630043E-01
  0.432490472635E-01
  0.946970052051E-01
  0.946970052051E-01
  0.144774737189E+00
  0.144774646322E+00
  0.190101127822E+00
  0.190101231899E+00
  0.240066701133E+00
  0.240066617774E+00
  0.303356171545E+00
  0.303356171545E+00
  0.384715880022E+00
  0.384715812482E+00
  0.520506444726E+00
  0.520506544491E+00
  0.674790351062E+00
  0.674790349332E+00
  0.613883791116E+00
  0.613883828573E+00
  0.407602218113E+00
  0.407602080812E+00
  0.250851122724E+00
  0.250851203169E+00
  0.161790643710E+00
  0.161790643710E+00
  0.943874406947E-01
  0.943875324845E-01
  0.421921377658E-01
  0.421920259480E-01
 -0.443846483715E-02
 -0.443836963079E-02
 -0.552016277899E-01
 -0.552016277899E-01
 -0.106557224867E+00
 -0.106557307130E+00
 -0.138714029991E+00
 -0.138713996430E+00
 -0.159535996861E+00
 -0.159535947783E+00
 -0.172412585394E+00
 -0.172412622983E+00
 -0.178151342318E+00
 -0.178151383765E+00
 -0.180285893697E+00
 -0.180285975864E+00
 -0.180681503886E+00
 -0.180681306698E+00
 -0.180458782695E+00
 -0.180458800284E+00
 -0.179896041244E+00
 -0.179896074752E+00
 -0.179608958704E+00
 -0.179608973189E+00
 -0.179391595371E+00
 -0.179391624052E+00
 -0.179228557091E+00
 -0.179228569851E+00
 -0.309458952891E-01
 -0.309458691689E-01
 -0.311142588844E-01
 -0.311142394177E-01
 -0.313387179685E-01
 -0.313386885160E-01
 -0.316351921492E-01
 -0.316351921477E-01
 -0.322164598782E-01
 -0.322164244351E-01
 -0.324463058501E-01
 -0.324462773440E-01
 -0.320379217350E-01
 -0.320378980397E-01
 -0.298338215614E-01
 -0.298337806100E-01
 -0.239153796229E-01
 -0.239154755234E-01
 -0.106748161169E-01
 -0.106747809634E-01
  0.106235651648E-01
  0.106235662898E-01
  0.432490469962E-01
  0.432490469964E-01
  0.946970054754E-01
  0.946969990092E-01
  0.144774645565E+00
  0.144774710947E+00
  0.190101232707E+00
  0.190101180342E+00
  0.240066618178E+00
  0.240066576094E+00
  0.303356176999E+00
  0.303356246673E+00
  0.384715800184E+00
  0.384715837400E+00
  0.520506537233E+00
  0.520506380527E+00
  0.674790416759E+00
  0.674790430001E+00
  0.613883922520E+00
  0.613883852457E+00
  0.407602001564E+00
  0.407602212429E+00
  0.250851158589E+00
  0.250851114705E+00
  0.161790725188E+00
  0.161790646619E+00
  0.943873947994E-01
  0.943874408535E-01
  0.421920819649E-01
  0.421921379451E-01
 -0.443839654479E-02
 -0.443846481395E-02
 -0.552016344981E-01
 -0.552016279475E-01
 -0.106557224208E+00
 -0.106557224208E+00
 -0.138714029372E+00
 -0.138714030446E+00
 -0.159535948569E+00
 -0.159535984048E+00
 -0.172412623743E+00
 -0.172412527018E+00
 -0.178151377775E+00
 -0.178151418939E+00
 -0.180285967800E+00
 -0.180285991501E+00
 -0.180681306870E+00
 -0.180681335228E+00
 -0.180458800843E+00
 -0.180458835917E+00
 -0.179896075425E+00
 -0.179896075426E+00
 -0.179608973594E+00
 -0.179609002492E+00
 -0.179391624515E+00
 -0.179391643554E+00
 -0.179228570406E+00
 -0.179228595891E+00
 -0.309452027005E-01
 -0.309458956231E-01
 -0.311142835796E-01
 -0.311142592179E-01
 -0.313391352560E-01
 -0.313387173666E-01
 -0.316349160667E-01
 -0.316351924725E-01
 -0.322164778455E-01
 -0.322164601399E-01
 -0.324465307093E-01
 -0.324463051386E-01
 -0.320377825425E-01
 -0.320379220369E-01
 -0.298337533882E-01
 -0.298338224156E-01
 -0.239154540478E-01
 -0.239153800696E-01
 -0.106748160487E-01
 -0.106748160531E-01
  0.106235662933E-01
  0.106235662927E-01
  0.432490470351E-01
  0.432490660245E-01
  0.946969989093E-01
  0.946969989026E-01
  0.144774711745E+00
  0.144774685883E+00
  0.190101180744E+00
  0.190101131014E+00
  0.240066578242E+00
  0.240066682112E+00
  0.303356245884E+00
  0.303356246713E+00
  0.384715841908E+00
  0.384715771561E+00
  0.520506368479E+00
  0.520506546598E+00
  0.674790346318E+00
  0.674790314827E+00
  0.613883734908E+00
  0.613883846391E+00
  0.407602227622E+00
  0.407601992130E+00
  0.250851079255E+00
  0.250851161529E+00
  0.161790725696E+00
  0.161790724767E+00
  0.943875087246E-01
  0.943873956442E-01
  0.421920291117E-01
  0.421920820541E-01
 -0.443842349547E-02
 -0.443839656927E-02
 -0.552016344466E-01
 -0.552016344398E-01
 -0.106557205697E+00
 -0.106557224303E+00
 -0.138714029417E+00
 -0.138714029417E+00
 -0.159535983095E+00
 -0.159535983090E+00
 -0.172412530239E+00
 -0.172412604487E+00
 -0.178151424040E+00
 -0.178151354981E+00
 -0.180285993200E+00
 -0.180285854255E+00
 -0.180681331266E+00
 -0.180681554875E+00
 -0.180458837382E+00
 -0.180458854854E+00
 -0.179896077265E+00
 -0.179895805607E+00
 -0.179608999042E+00
 -0.179609408361E+00
 -0.179391645477E+00
 -0.179391669274E+00
 -0.179228597825E+00
 -0.179227922420E+00
 -0.309459409758E-01
 -0.309452024739E-01
 -0.311143213535E-01
 -0.311142823832E-01
 -0.313387612401E-01
 -0.313391348537E-01
 -0.316349504594E-01
 -0.316349165606E-01
 -0.322164774611E-01
 -0.322164774751E-01
 -0.324463910001E-01
 -0.324465310265E-01
 -0.320379461635E-01
 -0.320377831184E-01
 -0.298337938176E-01
 -0.298337529309E-01
 -0.239153948796E-01
 -0.239154536746E-01
 -0.106748029044E-01
 -0.106748160943E-01
  0.106235663257E-01
  0.106235663245E-01
  0.432490660283E-01
  0.432490103536E-01
  0.946969990951E-01
  0.946969861557E-01
  0.144774687243E+00
  0.144774713166E+00
  0.190101131127E+00
  0.190101186920E+00
  0.240066684311E+00
  0.240066746169E+00
  0.303356246049E+00
  0.303356105262E+00
  0.384715781874E+00
  0.384715858851E+00
  0.520506599847E+00
  0.520506657070E+00
  0.674790327843E+00
  0.674790335343E+00
  0.613883768329E+00
  0.613883746749E+00
  0.407602343927E+00
  0.407602269322E+00
  0.250851175403E+00
  0.250851085980E+00
  0.161790568413E+00
  0.161790725342E+00
  0.943875766419E-01
  0.943875095889E-01
  0.421920883266E-01
  0.421920291367E-01
 -0.443839661283E-02
 -0.443842353716E-02
 -0.552016476450E-01
 -0.552016345589E-01
 -0.106557260332E+00
 -0.106557205707E+00
 -0.138714029849E+00
 -0.138714029848E+00
 -0.159535983773E+00
 -0.159535970571E+00
 -0.172412601796E+00
 -0.172412543033E+00
 -0.178151352250E+00
 -0.178151392992E+00
 -0.180285857496E+00
 -0.180286019324E+00
 -0.180681556642E+00
 -0.180681418245E+00
 -0.180458852779E+00
 -0.180458852765E+00
 -0.179895808415E+00
 -0.179895841669E+00
 -0.179609406055E+00
 -0.179609040631E+00
 -0.179391662376E+00
 -0.179391700402E+00
 -0.179227921107E+00
 -0.179228640353E+00
 -0.309452613667E-01
 -0.309459409884E-01
 -0.311143368027E-01
 -0.311143221918E-01
 -0.313392084306E-01
 -0.313387613452E-01
 -0.316349610381E-01
 -0.316349497634E-01
 -0.322162862746E-01
 -0.322164774302E-01
 -0.324463909690E-01
 -0.324463909690E-01
 -0.320378539407E-01
 -0.320379459498E-01
 -0.298338350402E-01
 -0.298337941883E-01
 -0.239153953071E-01
 -0.239153953010E-01
 -0.106748380055E-01
 -0.106748028914E-01
  0.106235662982E-01
  0.106235674250E-01
  0.432490104145E-01
  0.432490104084E-01
  0.946969859997E-01
  0.946969859995E-01
  0.144774711983E+00
  0.144774751860E+00
  0.190101184989E+00
  0.190101184990E+00
  0.240066744638E+00
  0.240066658725E+00
  0.303356099253E+00
  0.303356171086E+00
  0.384715843780E+00
  0.384715921743E+00
  0.520506609022E+00
  0.520506362115E+00
  0.674790349624E+00
  0.674790360990E+00
  0.613883810105E+00
  0.613883781320E+00
  0.407601987972E+00
  0.407602306301E+00
  0.250851255642E+00
  0.250851165576E+00
  0.161790644928E+00
  0.161790565208E+00
  0.943874832473E-01
  0.943875760401E-01
  0.421920878990E-01
  0.421920878981E-01
 -0.443835524462E-02
 -0.443839657655E-02
 -0.552016475544E-01
 -0.552016475541E-01
 -0.106557260488E+00
 -0.106557260483E+00
 -0.138714028421E+00
 -0.138714029506E+00
 -0.159535970376E+00
 -0.159536005409E+00
 -0.172412546070E+00
 -0.172412546077E+00
 -0.178151395206E+00
 -0.178151435775E+00
 -0.180286018121E+00
 -0.180285927073E+00
 -0.180681418072E+00
 -0.180681418072E+00
 -0.180458852592E+00
 -0.180458664797E+00
 -0.179895837711E+00
 -0.179895848754E+00
 -0.179609041234E+00
 -0.179609477987E+00
 -0.179391705235E+00
 -0.179391719478E+00
 -0.179228640426E+00
 -0.179227978980E+00
 -0.309460126385E-01
 -0.309452613101E-01
 -0.311138530634E-01
 -0.311143366368E-01
 -0.313392229699E-01
 -0.313392082594E-01
 -0.316350179973E-01
 -0.316349615612E-01
 -0.322163044740E-01
 -0.322162867928E-01
 -0.324464475756E-01
 -0.324463906991E-01
 -0.320378772075E-01
 -0.320378535796E-01
 -0.298337378141E-01
 -0.298338347568E-01
 -0.239154905599E-01
 -0.239153949066E-01
 -0.106747764733E-01
 -0.106748379581E-01
  0.106235674265E-01
  0.106235674292E-01
  0.432490104415E-01
  0.432490104415E-01
  0.946969858896E-01
  0.946969729343E-01
  0.144774752142E+00
  0.144774752143E+00
  0.190101184779E+00
  0.190101187725E+00
  0.240066654026E+00
  0.240066543889E+00
  0.303356174373E+00
  0.303356246710E+00
  0.384715928684E+00
  0.384715743059E+00
  0.520506373374E+00
  0.520506448674E+00
  0.674790373597E+00
  0.674790386636E+00
  0.613883851881E+00
  0.613883821574E+00
  0.407602092998E+00
  0.407601996789E+00
  0.250851046706E+00
  0.250851260168E+00
  0.161790726669E+00
  0.161790646681E+00
  0.943873628019E-01
  0.943874813999E-01
  0.421920909605E-01
  0.421920878522E-01
 -0.443835525212E-02
 -0.443835525325E-02
 -0.552016605768E-01
 -0.552016474903E-01
 -0.106557260570E+00
 -0.106557260570E+00
 -0.138714028438E+00
 -0.138714028440E+00
 -0.159536004700E+00
 -0.159535943524E+00
 -0.172412543189E+00
 -0.172412638170E+00
 -0.178151434083E+00
 -0.178151338085E+00
 -0.180285925041E+00
 -0.180285948363E+00
 -0.180681416569E+00
 -0.180681472523E+00
 -0.180458667699E+00
 -0.180458685040E+00
 -0.179895851729E+00
 -0.179895906930E+00
 -0.179609477005E+00
 -0.179609491361E+00
 -0.179391718521E+00
 -0.179391247475E+00
 -0.179227978652E+00
 -0.179228709464E+00
 -0.309453399680E-01
 -0.309460129562E-01
 -0.311144148985E-01
 -0.311138534580E-01
 -0.313388793126E-01
 -0.313392232734E-01
 -0.316350521203E-01
 -0.316350182662E-01
 -0.322166012473E-01
 -0.322163041499E-01
 -0.324462795597E-01
 -0.324464478102E-01
 -0.320379011532E-01
 -0.320378775436E-01
 -0.298337788619E-01
 -0.298337380456E-01
 -0.239154101854E-01
 -0.239154906889E-01
 -0.106748599263E-01
 -0.106747765271E-01
  0.106235674151E-01
  0.106236401840E-01
  0.432490105245E-01
  0.432489549027E-01
  0.946969730753E-01
  0.946970548397E-01
  0.144774752193E+00
  0.144774700082E+00
  0.190101190619E+00
  0.190101190618E+00
  0.240066547199E+00
  0.240066609955E+00
  0.303356253038E+00
  0.303356181990E+00
  0.384715749634E+00
  0.384715829116E+00
  0.520506463382E+00
  0.520506555475E+00
  0.674790400080E+00
  0.674790417411E+00
  0.613883902013E+00
  0.613883864112E+00
  0.407602221324E+00
  0.407602104516E+00
  0.250851142050E+00
  0.250851050993E+00
  0.161790651718E+00
  0.161790730044E+00
  0.943874315111E-01
  0.943873641032E-01
  0.421920916014E-01
  0.421920916028E-01
 -0.443840909536E-02
 -0.443835525366E-02
 -0.552015781045E-01
 -0.552016606590E-01
 -0.106557315510E+00
 -0.106557260774E+00
 -0.138713957879E+00
 -0.138714028254E+00
 -0.159535944328E+00
 -0.159536027118E+00
 -0.172412639100E+00
 -0.172412559362E+00
 -0.178151339468E+00
 -0.178151379789E+00
 -0.180285950254E+00
 -0.180285973509E+00
 -0.180681473830E+00
 -0.180681308600E+00
 -0.180458683225E+00
 -0.180458974183E+00
 -0.179895908459E+00
 -0.179895941536E+00
 -0.179609493101E+00
 -0.179609157722E+00
 -0.179391249750E+00
 -0.179391796291E+00
 -0.179228711304E+00
 -0.179228057010E+00
 -0.309453853295E-01
 -0.309453396561E-01
 -0.311144578276E-01
 -0.311144140119E-01
 -0.313389230775E-01
 -0.313388789592E-01
 -0.316347757349E-01
 -0.316350517290E-01
 -0.322166537964E-01
 -0.322166007938E-01
 -0.324463365118E-01
 -0.324462796762E-01
 -0.320377856458E-01
 -0.320379011379E-01
 -0.298338195831E-01
 -0.298337787831E-01
 -0.239154470302E-01
 -0.239154101315E-01
 -0.106747984200E-01
 -0.106748598914E-01
  0.106236401523E-01
  0.106236048925E-01
  0.432489549032E-01
  0.432489549032E-01
  0.946970549009E-01
  0.946970419375E-01
  0.144774699670E+00
  0.144774647504E+00
  0.190101190143E+00
  0.190101243639E+00
  0.240066607855E+00
  0.240066733770E+00
  0.303356165656E+00
  0.303355949759E+00
  0.384715818173E+00
  0.384716126892E+00
  0.520506484693E+00
  0.520505945931E+00
  0.674790431455E+00
  0.674790453315E+00
  0.613883960499E+00
  0.613883914789E+00
  0.407601486596E+00
  0.407602165895E+00
  0.250851487485E+00
  0.250851134914E+00
  0.161790405588E+00
  0.161790643006E+00
  0.943875656518E-01
  0.943874306853E-01
  0.421921477329E-01
  0.421920914959E-01
 -0.443846291684E-02
 -0.443840908272E-02
 -0.552015912238E-01
 -0.552015781402E-01
 -0.106557315511E+00
 -0.106557315511E+00
 -0.138713991616E+00
 -0.138713957466E+00
 -0.159536026595E+00
 -0.159535965690E+00
 -0.172412558974E+00
 -0.172412595445E+00
 -0.178151379319E+00
 -0.178151419543E+00
 -0.180285973422E+00
 -0.180285859870E+00
 -0.180681309249E+00
 -0.180681364981E+00
 -0.180458971643E+00
 -0.180459023489E+00
 -0.179895939311E+00
 -0.179895669911E+00
 -0.179609155697E+00
 -0.179609198683E+00
 -0.179391791179E+00
 -0.179391833809E+00
 -0.179228055204E+00
 -0.179228099590E+00
 -0.309454315757E-01
 -0.309453858681E-01
 -0.311145021495E-01
 -0.311144583657E-01
 -0.313389677243E-01
 -0.313389236134E-01
 -0.316348326532E-01
 -0.316347762505E-01
 -0.322166891326E-01
 -0.322166537845E-01
 -0.324463932874E-01
 -0.324463364762E-01
 -0.320378328280E-01
 -0.320377856254E-01
 -0.298337227055E-01
 -0.298338195309E-01
 -0.239154036369E-01
 -0.239154472081E-01
 -0.106748335736E-01
 -0.106747984764E-01
  0.106236049129E-01
  0.106235344056E-01
  0.432489548358E-01
  0.432490672993E-01
  0.946970418902E-01
  0.946969600895E-01
  0.144774647817E+00
  0.144774740117E+00
  0.190101243288E+00
  0.190101094380E+00
  0.240066743452E+00
  0.240066806595E+00
  0.303355960030E+00
  0.303356033424E+00
  0.384716162732E+00
  0.384715823524E+00
  0.520506031371E+00
  0.520506750752E+00
  0.674790467806E+00
  0.674790494349E+00
  0.613884027341E+00
  0.613883973682E+00
  0.407602456168E+00
  0.407601553503E+00
  0.250851124458E+00
  0.250851510854E+00
  0.161790491609E+00
  0.161790411066E+00
  0.943876370234E-01
  0.943875694586E-01
  0.421919913408E-01
  0.421921476550E-01
 -0.443836776950E-02
 -0.443846292645E-02
 -0.552016737294E-01
 -0.552015911962E-01
 -0.106557204535E+00
 -0.106557315345E+00
 -0.138714060254E+00
 -0.138713991882E+00
 -0.159535966533E+00
 -0.159536001251E+00
 -0.172412596727E+00
 -0.172412553737E+00
 -0.178151419231E+00
 -0.178151323933E+00
 -0.180285859755E+00
 -0.180285906096E+00