# vtk DataFile Version 3.0
TriPan results file. Generated by TriPan, USU AeroLab (c) 2021.
ASCII
DATASET POLYDATA
POINTS                  20 float
     20.924055099500      1.923753738400      0.000000000000
     98.982575608203      1.923753738400     14.749310568553
     19.000301361100      0.000000000000      0.000000000000
     98.916259792215      0.000000000000     15.100277107516
     24.470632553100      5.470331668850      0.000000000000
     99.104833552712      5.470331668850     14.102278680216
     30.382303237900     11.382001876800      0.000000000000
     99.308621208839     11.382001876800     13.023762985450
     38.756496429400     19.756195068400      0.000000000000
     99.597297167537     19.756195068400     11.495988643882
     48.244106292700     29.243804931600      0.000000000000
     99.924354928257     29.243804931600      9.765084354896
     56.618297576900     37.617996215800      0.000000000000
    100.213030821207     37.617996215800      8.237310361293
     62.529968261700     43.529666900600      0.000000000000
    100.416818477334     43.529666900600      7.158794666526
     66.076545715300     47.076248168900      0.000000000000
    100.539076421843     47.076248168900      6.511762778190
     68.000297546400     49.000000000000      0.000000000000
    100.605392172082     49.000000000000      6.160796587192
POLYGONS                  18                  72
3                   0                   1                   3
3                   0                   3                   2
3                   4                   5                   1
3                   4                   1                   0
3                   6                   7                   5
3                   6                   5                   4
3                   8                   9                   7
3                   8                   7                   6
3                  10                  11                   9
3                  10                   9                   8
3                  12                  13                  11
3                  12                  11                  10
3                  14                  15                  13
3                  14                  13                  12
3                  16                  17                  15
3                  16                  15                  14
3                  18                  19                  17
3                  18                  17                  16
POINT_DATA                  20
SCALARS mu float 1
LOOKUP_TABLE default
     -5.873525643016
     -5.873525643016
     -6.072589504506
     -6.072589504506
     -5.848786335060
     -5.848786335060
     -5.934838330887
     -5.934838330887
     -5.952652043152
     -5.952652043152
     -5.710437215719
     -5.710437215719
     -4.987678634788
     -4.987678634788
     -3.713857180106
     -3.713857180106
     -2.013572782184
     -2.013572782184
      0.000000000000
      0.000000000000
