# vtk DataFile Version 3.0
MachLine results file. Generated by MachLine, USU AeroLab (c) 2023.
ASCII
DATASET POLYDATA
POINTS                 424 float
  0.409777000000E-15  0.499312000000E-01  0.299257000000E+01
  0.409777000000E-15  0.499312000000E-01  0.303030000000E+01
 -0.204888500000E-15  0.499312000000E-01  0.299257000000E+01
 -0.204888500000E-15  0.499312000000E-01  0.303030000000E+01
  0.409777000000E-15  0.499312000000E-01  0.295483000000E+01
  0.409777000000E-15  0.499312000000E-01  0.299257000000E+01
 -0.204888500000E-15  0.499312000000E-01  0.295483000000E+01
 -0.204888500000E-15  0.499312000000E-01  0.299257000000E+01
  0.409777000000E-15  0.499312000000E-01  0.291710000000E+01
  0.409777000000E-15  0.499312000000E-01  0.295483000000E+01
 -0.204888500000E-15  0.499312000000E-01  0.291710000000E+01
 -0.204888500000E-15  0.499312000000E-01  0.295483000000E+01
  0.409777000000E-15  0.499312000000E-01  0.287936000000E+01
  0.409777000000E-15  0.499312000000E-01  0.291710000000E+01
 -0.204888500000E-15  0.499312000000E-01  0.287936000000E+01
 -0.204888500000E-15  0.499312000000E-01  0.291710000000E+01
  0.409777000000E-15  0.499312000000E-01  0.284162000000E+01
  0.409777000000E-15  0.499312000000E-01  0.287936000000E+01
 -0.204888500000E-15  0.499312000000E-01  0.284162000000E+01
 -0.204888500000E-15  0.499312000000E-01  0.287936000000E+01
  0.409777000000E-15  0.499312000000E-01  0.280389000000E+01
  0.409777000000E-15  0.499312000000E-01  0.284162000000E+01
 -0.204888500000E-15  0.499312000000E-01  0.280389000000E+01
 -0.204888500000E-15  0.499312000000E-01  0.284162000000E+01
  0.409777000000E-15  0.499312000000E-01  0.276615000000E+01
  0.409777000000E-15  0.499312000000E-01  0.280389000000E+01
 -0.204888500000E-15  0.499312000000E-01  0.276615000000E+01
 -0.204888500000E-15  0.499312000000E-01  0.280389000000E+01
  0.409777000000E-15  0.499312000000E-01  0.272842000000E+01
  0.409777000000E-15  0.499312000000E-01  0.276615000000E+01
 -0.204888500000E-15  0.499312000000E-01  0.272842000000E+01
 -0.204888500000E-15  0.499312000000E-01  0.276615000000E+01
  0.409777000000E-15  0.499312000000E-01  0.269068000000E+01
  0.409777000000E-15  0.499312000000E-01  0.272842000000E+01
 -0.204888500000E-15  0.499312000000E-01  0.269068000000E+01
 -0.204888500000E-15  0.499312000000E-01  0.272842000000E+01
  0.409777000000E-15  0.499312000000E-01  0.265295000000E+01
  0.409777000000E-15  0.499312000000E-01  0.269068000000E+01
 -0.204888500000E-15  0.499312000000E-01  0.265295000000E+01
 -0.204888500000E-15  0.499312000000E-01  0.269068000000E+01
  0.409777000000E-15  0.499312000000E-01  0.261521000000E+01
  0.409777000000E-15  0.499312000000E-01  0.265295000000E+01
 -0.204888500000E-15  0.499312000000E-01  0.261521000000E+01
 -0.204888500000E-15  0.499312000000E-01  0.265295000000E+01
  0.409777000000E-15  0.499312000000E-01  0.257748000000E+01
  0.409777000000E-15  0.499312000000E-01  0.261521000000E+01
 -0.204888500000E-15  0.499312000000E-01  0.257748000000E+01
 -0.204888500000E-15  0.499312000000E-01  0.261521000000E+01
  0.409777000000E-15  0.499312000000E-01  0.253974000000E+01
  0.409777000000E-15  0.499312000000E-01  0.257748000000E+01
 -0.204888500000E-15  0.499312000000E-01  0.253974000000E+01
 -0.204888500000E-15  0.499312000000E-01  0.257748000000E+01
  0.409777000000E-15  0.499312000000E-01  0.250200000000E+01
  0.409777000000E-15  0.499312000000E-01  0.253974000000E+01
 -0.204888500000E-15  0.499312000000E-01  0.250200000000E+01
 -0.204888500000E-15  0.499312000000E-01  0.253974000000E+01
  0.409777000000E-15  0.499312000000E-01  0.246427000000E+01
  0.409777000000E-15  0.499312000000E-01  0.250200000000E+01
 -0.204888500000E-15  0.499312000000E-01  0.246427000000E+01
 -0.204888500000E-15  0.499312000000E-01  0.250200000000E+01
  0.409777000000E-15  0.499312000000E-01  0.242653000000E+01
  0.409777000000E-15  0.499312000000E-01  0.246427000000E+01
 -0.204888500000E-15  0.499312000000E-01  0.242653000000E+01
 -0.204888500000E-15  0.499312000000E-01  0.246427000000E+01
  0.409777000000E-15  0.499312000000E-01  0.238879000000E+01
  0.409777000000E-15  0.499312000000E-01  0.242653000000E+01
 -0.204888500000E-15  0.499312000000E-01  0.238879000000E+01
 -0.204888500000E-15  0.499312000000E-01  0.242653000000E+01
  0.409777000000E-15  0.499312000000E-01  0.235106000000E+01
  0.409777000000E-15  0.499312000000E-01  0.238879000000E+01
 -0.204888500000E-15  0.499312000000E-01  0.235106000000E+01
 -0.204888500000E-15  0.499312000000E-01  0.238879000000E+01
  0.409777000000E-15  0.499312000000E-01  0.231332000000E+01
  0.409777000000E-15  0.499312000000E-01  0.235106000000E+01
 -0.204888500000E-15  0.499312000000E-01  0.231332000000E+01
 -0.204888500000E-15  0.499312000000E-01  0.235106000000E+01
  0.409777000000E-15  0.499312000000E-01  0.227559000000E+01
  0.409777000000E-15  0.499312000000E-01  0.231332000000E+01
 -0.204888500000E-15  0.499312000000E-01  0.227559000000E+01
 -0.204888500000E-15  0.499312000000E-01  0.231332000000E+01
  0.409777000000E-15  0.499312000000E-01  0.223785000000E+01
  0.409777000000E-15  0.499312000000E-01  0.227559000000E+01
 -0.204888500000E-15  0.499312000000E-01  0.223785000000E+01
 -0.204888500000E-15  0.499312000000E-01  0.227559000000E+01
  0.409777000000E-15  0.499312000000E-01  0.220012000000E+01
  0.409777000000E-15  0.499312000000E-01  0.223785000000E+01
 -0.204888500000E-15  0.499312000000E-01  0.220012000000E+01
 -0.204888500000E-15  0.499312000000E-01  0.223785000000E+01
  0.409777000000E-15  0.499312000000E-01  0.216238000000E+01
  0.409777000000E-15  0.499312000000E-01  0.220012000000E+01
 -0.204888500000E-15  0.499312000000E-01  0.216238000000E+01
 -0.204888500000E-15  0.499312000000E-01  0.220012000000E+01
  0.409777000000E-15  0.499312000000E-01  0.212464000000E+01
  0.409777000000E-15  0.499312000000E-01  0.216238000000E+01
 -0.204888500000E-15  0.499312000000E-01  0.212464000000E+01
 -0.204888500000E-15  0.499312000000E-01  0.216238000000E+01
  0.409777000000E-15  0.499312000000E-01  0.208691000000E+01
  0.409777000000E-15  0.499312000000E-01  0.212464000000E+01
 -0.204888500000E-15  0.499312000000E-01  0.208691000000E+01
 -0.204888500000E-15  0.499312000000E-01  0.212464000000E+01
  0.409777000000E-15  0.499312000000E-01  0.204917000000E+01
  0.409777000000E-15  0.499312000000E-01  0.208691000000E+01
 -0.204888500000E-15  0.499312000000E-01  0.204917000000E+01
 -0.204888500000E-15  0.499312000000E-01  0.208691000000E+01
  0.409777000000E-15  0.499312000000E-01  0.201144000000E+01
  0.409777000000E-15  0.499312000000E-01  0.204917000000E+01
 -0.204888500000E-15  0.499312000000E-01  0.201144000000E+01
 -0.204888500000E-15  0.499312000000E-01  0.204917000000E+01
  0.409777000000E-15  0.499312000000E-01  0.197370000000E+01
  0.409777000000E-15  0.499312000000E-01  0.201144000000E+01
 -0.204888500000E-15  0.499312000000E-01  0.197370000000E+01
 -0.204888500000E-15  0.499312000000E-01  0.201144000000E+01
  0.409777000000E-15  0.499312000000E-01  0.193596000000E+01
  0.409777000000E-15  0.499312000000E-01  0.197370000000E+01
 -0.204888500000E-15  0.499312000000E-01  0.193596000000E+01
 -0.204888500000E-15  0.499312000000E-01  0.197370000000E+01
  0.409777000000E-15  0.499312000000E-01  0.189823000000E+01
  0.409777000000E-15  0.499312000000E-01  0.193596000000E+01
 -0.204888500000E-15  0.499312000000E-01  0.189823000000E+01
 -0.204888500000E-15  0.499312000000E-01  0.193596000000E+01
  0.409777000000E-15  0.499312000000E-01  0.186049000000E+01
  0.409777000000E-15  0.499312000000E-01  0.189823000000E+01
 -0.204888500000E-15  0.499312000000E-01  0.186049000000E+01
 -0.204888500000E-15  0.499312000000E-01  0.189823000000E+01
  0.409777000000E-15  0.499312000000E-01  0.182276000000E+01
  0.409777000000E-15  0.499312000000E-01  0.186049000000E+01
 -0.204888500000E-15  0.499312000000E-01  0.182276000000E+01
 -0.204888500000E-15  0.499312000000E-01  0.186049000000E+01
  0.409777000000E-15  0.499312000000E-01  0.178502000000E+01
  0.409777000000E-15  0.499312000000E-01  0.182276000000E+01
 -0.204888500000E-15  0.499312000000E-01  0.178502000000E+01
 -0.204888500000E-15  0.499312000000E-01  0.182276000000E+01
  0.409777000000E-15  0.499312000000E-01  0.174729000000E+01
  0.409777000000E-15  0.499312000000E-01  0.178502000000E+01
 -0.204888500000E-15  0.499312000000E-01  0.174729000000E+01
 -0.204888500000E-15  0.499312000000E-01  0.178502000000E+01
  0.409777000000E-15  0.499312000000E-01  0.170955000000E+01
  0.409777000000E-15  0.499312000000E-01  0.174729000000E+01
 -0.204888500000E-15  0.499312000000E-01  0.170955000000E+01
 -0.204888500000E-15  0.499312000000E-01  0.174729000000E+01
  0.409777000000E-15  0.499312000000E-01  0.167181000000E+01
  0.409777000000E-15  0.499312000000E-01  0.170955000000E+01
 -0.204888500000E-15  0.499312000000E-01  0.167181000000E+01
 -0.204888500000E-15  0.499312000000E-01  0.170955000000E+01
  0.409777000000E-15  0.499312000000E-01  0.163408000000E+01
  0.409777000000E-15  0.499312000000E-01  0.167181000000E+01
 -0.204888500000E-15  0.499312000000E-01  0.163408000000E+01
 -0.204888500000E-15  0.499312000000E-01  0.167181000000E+01
  0.409777000000E-15  0.499312000000E-01  0.159634000000E+01
  0.409777000000E-15  0.499312000000E-01  0.163408000000E+01
 -0.204888500000E-15  0.499312000000E-01  0.159634000000E+01
 -0.204888500000E-15  0.499312000000E-01  0.163408000000E+01
  0.409777000000E-15  0.499312000000E-01  0.155861000000E+01
  0.409777000000E-15  0.499312000000E-01  0.159634000000E+01
 -0.204888500000E-15  0.499312000000E-01  0.155861000000E+01
 -0.204888500000E-15  0.499312000000E-01  0.159634000000E+01
  0.409777000000E-15  0.499312000000E-01  0.152087000000E+01
  0.409777000000E-15  0.499312000000E-01  0.155861000000E+01
 -0.204888500000E-15  0.499312000000E-01  0.152087000000E+01
 -0.204888500000E-15  0.499312000000E-01  0.155861000000E+01
  0.409777000000E-15  0.499312000000E-01  0.144540000000E+01
[...]
POINT_DATA                 424
SCALARS mu float 1
LOOKUP_TABLE default
 -0.789520667195E-11
 -0.190151200327E-11
 -0.789520667195E-11
 -0.190151200327E-11
 -0.428081619010E-11
 -0.789520667195E-11
 -0.428081619010E-11
 -0.789520667195E-11
 -0.288437781841E-13
 -0.428081619010E-11
 -0.288437781841E-13
 -0.428081619010E-11
 -0.560559244757E-11
 -0.288437781841E-13
 -0.560559244757E-11
 -0.288437781841E-13
 -0.639425431948E-11
 -0.560559244757E-11
 -0.639425431948E-11
 -0.560559244757E-11
 -0.205611528159E-11
 -0.639425431948E-11
 -0.205611528159E-11
 -0.639425431948E-11
 -0.579980577989E-11
 -0.205611528159E-11
 -0.579980577989E-11
 -0.205611528159E-11
  0.309928814365E-11
 -0.579980577989E-11
  0.309928814365E-11
 -0.579980577989E-11
 -0.415180068429E-12
  0.309928814365E-11
 -0.415180068429E-12
  0.309928814365E-11
 -0.970408966605E-11
 -0.415180068429E-12
 -0.970408966605E-11
 -0.415180068429E-12
 -0.193332096987E-11
 -0.970408966605E-11
 -0.193332096987E-11
 -0.970408966605E-11
  0.251284208955E-11
 -0.193332096987E-11
  0.251284208955E-11
 -0.193332096987E-11
 -0.351005036014E-11
  0.251284208955E-11
 -0.351005036014E-11
  0.251284208955E-11
 -0.104080479041E-11
 -0.351005036014E-11
 -0.104080479041E-11
 -0.351005036014E-11
  0.642538889568E-12
 -0.104080479041E-11
  0.642538889568E-12
 -0.104080479041E-11
 -0.525489847505E-11
  0.642538889568E-12
 -0.525489847505E-11
  0.642538889568E-12
 -0.349555311675E-11
 -0.525489847505E-11
 -0.349555311675E-11
 -0.525489847505E-11
 -0.450623616810E-12
 -0.349555311675E-11
 -0.450623616810E-12
 -0.349555311675E-11
 -0.582628009585E-11
 -0.450623616810E-12
 -0.582628009585E-11
 -0.450623616810E-12
 -0.235007521689E-11
 -0.582628009585E-11
 -0.235007521689E-11
 -0.582628009585E-11
  0.934064957837E-12
 -0.235007521689E-11
  0.934064957837E-12
 -0.235007521689E-11
  0.260133430841E-11
  0.934064957837E-12
  0.260133430841E-11
  0.934064957837E-12
 -0.362142261973E-11
  0.260133430841E-11
 -0.362142261973E-11
  0.260133430841E-11
 -0.749797697132E-12
 -0.362142261973E-11
 -0.749797697132E-12
 -0.362142261973E-11
 -0.453745573216E-11
 -0.749797697132E-12
 -0.453745573216E-11
 -0.749797697132E-12
 -0.651373796353E-11
 -0.453745573216E-11
 -0.651373796353E-11
 -0.453745573216E-11
 -0.403128418229E-11
 -0.651373796353E-11
 -0.403128418229E-11
 -0.651373796353E-11
 -0.172862145832E-11
 -0.403128418229E-11
 -0.172862145832E-11
 -0.403128418229E-11
  0.213394645499E-12
 -0.172862145832E-11
  0.213394645499E-12
 -0.172862145832E-11
 -0.581469032681E-11
  0.213394645499E-12
 -0.581469032681E-11
  0.213394645499E-12
 -0.834938718526E-11
 -0.581469032681E-11
 -0.834938718526E-11
 -0.581469032681E-11
  0.123722725751E-11
 -0.834938718526E-11
  0.123722725751E-11
 -0.834938718526E-11
 -0.193743648644E-11
  0.123722725751E-11
 -0.193743648644E-11
  0.123722725751E-11
 -0.193416321907E-12
 -0.193743648644E-11
 -0.193416321907E-12
 -0.193743648644E-11
  0.826499266913E-12
 -0.193416321907E-12
  0.826499266913E-12
 -0.193416321907E-12
 -0.757858691842E-11
  0.826499266913E-12
 -0.757858691842E-11
  0.826499266913E-12
 -0.458765836113E-11
 -0.757858691842E-11
 -0.458765836113E-11
 -0.757858691842E-11
 -0.535332098335E-11
 -0.458765836113E-11
 -0.535332098335E-11
 -0.458765836113E-11
 -0.113439631668E-10
 -0.535332098335E-11
 -0.113439631668E-10
 -0.535332098335E-11
 -0.271308127176E-11
 -0.113439631668E-10
 -0.271308127176E-11
 -0.113439631668E-10
 -0.753562313932E-11
 -0.434229527208E-11
 -0.753562313932E-11
 -0.434229527208E-11
 -0.434229527208E-11
 -0.271308127176E-11
 -0.434229527208E-11
 -0.271308127176E-11
 -0.635502452901E-11
 -0.753562313932E-11
 -0.635502452901E-11
 -0.753562313932E-11
 -0.961755433908E-11
 -0.635502452901E-11
 -0.961755433908E-11
 -0.635502452901E-11
 -0.408670598168E-11
 -0.961755433908E-11
 -0.408670598168E-11
 -0.961755433908E-11
  0.380745406077E-11
 -0.408670598168E-11
  0.380745406077E-11
 -0.408670598168E-11
 -0.653617235855E-11
  0.380745406077E-11
 -0.653617235855E-11
  0.380745406077E-11
 -0.102680097700E-10
 -0.653617235855E-11
 -0.102680097700E-10
 -0.653617235855E-11
 -0.492310223074E-12
 -0.102680097700E-10
 -0.492310223074E-12
 -0.102680097700E-10
 -0.630883519653E-11
 -0.492310223074E-12
 -0.630883519653E-11
 -0.492310223074E-12
 -0.776984581614E-11
 -0.630883519653E-11
 -0.776984581614E-11
 -0.630883519653E-11
 -0.774725575183E-11
 -0.776984581614E-11
 -0.774725575183E-11
 -0.776984581614E-11
 -0.441775394706E-11
 -0.774725575183E-11
 -0.441775394706E-11
 -0.774725575183E-11
 -0.887435353907E-11
 -0.441775394706E-11
 -0.887435353907E-11
 -0.441775394706E-11
 -0.114460224328E-10
 -0.887435353907E-11
 -0.114460224328E-10
 -0.887435353907E-11
  0.259441915481E-11
 -0.114460224328E-10
  0.259441915481E-11
 -0.114460224328E-10
 -0.963832506967E-11
  0.259441915481E-11
 -0.963832506967E-11
  0.259441915481E-11
 -0.104868638001E-10
 -0.963832506967E-11
 -0.104868638001E-10
 -0.963832506967E-11
 -0.542631447694E-11
 -0.104868638001E-10
 -0.542631447694E-11
 -0.104868638001E-10
 -0.750704192962E-11
 -0.542631447694E-11
 -0.750704192962E-11
 -0.542631447694E-11
 -0.129538427605E-10
 -0.750704192962E-11
 -0.129538427605E-10
 -0.750704192962E-11
 -0.784160564931E-11
 -0.129538427605E-10
 -0.784160564931E-11
 -0.129538427605E-10
 -0.513428333645E-11
 -0.784160564931E-11
 -0.513428333645E-11
 -0.784160564931E-11
 -0.275153171712E-11
 -0.513428333645E-11
 -0.275153171712E-11
 -0.513428333645E-11
 -0.823694721994E-11
 -0.275153171712E-11
 -0.823694721994E-11
 -0.275153171712E-11
 -0.572838653908E-11
 -0.823694721994E-11
 -0.572838653908E-11
 -0.823694721994E-11
  0.262844312489E-09
 -0.572838653908E-11
  0.262844312489E-09
 -0.572838653908E-11
 -0.696352209658E-08
  0.262844312489E-09
 -0.696352209658E-08
  0.262844312489E-09
 -0.489488857289E-07
 -0.696352209658E-08
 -0.489488857289E-07
 -0.696352209658E-08
 -0.279664773063E-06
 -0.489488857289E-07
 -0.279664773063E-06
 -0.489488857289E-07
 -0.272940989631E-05
 -0.279664773063E-06
 -0.272940989631E-05
 -0.279664773063E-06
  0.939871387929E-05
 -0.272940989631E-05
  0.939871387929E-05
 -0.272940989631E-05
  0.566360091387E-04
  0.939871387929E-05
  0.566360091387E-04
  0.939871387929E-05
  0.684811619332E-04
  0.566360091387E-04
  0.684811619332E-04
  0.566360091387E-04
  0.349420130674E-04
  0.684811619332E-04
  0.349420130674E-04
  0.684811619332E-04
 -0.636096984955E-05
  0.349420130674E-04
 -0.636096984955E-05
  0.349420130674E-04
 -0.861267030505E-04
 -0.636096984955E-05
 -0.861267030505E-04
 -0.636096984955E-05
 -0.315860023835E-03
 -0.861267030505E-04
 -0.315860023835E-03
 -0.861267030505E-04
  0.000000000000E+00
 -0.315860023835E-03
  0.000000000000E+00
 -0.315860023835E-03
  0.315790549105E-03
  0.000000000000E+00
  0.315790549105E-03
  0.000000000000E+00
  0.860022253803E-04
  0.315790549105E-03
  0.860022253803E-04
  0.315790549105E-03
  0.628776247760E-05
  0.860022253803E-04
  0.628776247760E-05
  0.860022253803E-04
 -0.350137997809E-04
  0.628776247760E-05
 -0.350137997809E-04
  0.628776247760E-05
 -0.685699913282E-04
 -0.350137997809E-04
 -0.685699913282E-04
 -0.350137997809E-04
 -0.566667544547E-04
 -0.685699913282E-04
 -0.566667544547E-04
 -0.685699913282E-04
 -0.940569896800E-05
 -0.566667544547E-04
 -0.940569896800E-05
 -0.566667544547E-04
  0.273015925698E-05
 -0.940569896800E-05
  0.273015925698E-05
 -0.940569896800E-05
  0.279829747271E-06
  0.273015925698E-05
  0.279829747271E-06
  0.273015925698E-05
  0.489626158125E-07
  0.279829747271E-06
  0.489626158125E-07
  0.279829747271E-06
  0.696302378817E-08
  0.489626158125E-07
  0.696302378817E-08
  0.489626158125E-07
 -0.274305578085E-09
  0.696302378817E-08
 -0.274305578085E-09
  0.696302378817E-08
 -0.280960877385E-12
 -0.274305578085E-09
 -0.280960877385E-12
 -0.274305578085E-09
  0.467540921297E-12
 -0.280960877385E-12
  0.467540921297E-12
 -0.280960877385E-12
 -0.297181431611E-11
  0.467540921297E-12
 -0.297181431611E-11
  0.467540921297E-12
  0.671037442291E-13
 -0.297181431611E-11
  0.671037442291E-13
 -0.297181431611E-11
 -0.948394113399E-12
  0.671037442291E-13
 -0.948394113399E-12
  0.671037442291E-13
 -0.898470935912E-13
 -0.948394113399E-12
 -0.898470935912E-13
 -0.948394113399E-12
 -0.885867306342E-12
 -0.898470935912E-13
 -0.885867306342E-12
 -0.898470935912E-13
 -0.107585927628E-11
 -0.885867306342E-12
 -0.107585927628E-11
 -0.885867306342E-12
 -0.825090292644E-11
 -0.107585927628E-11
 -0.825090292644E-11
 -0.107585927628E-11
 -0.544493938025E-12
 -0.825090292644E-11
 -0.544493938025E-12
 -0.825090292644E-11
 -0.327031318243E-11
 -0.544493938025E-12
 -0.327031318243E-11
 -0.544493938025E-12
 -0.400902470258E-11
 -0.327031318243E-11
 -0.400902470258E-11
 -0.327031318243E-11
 -0.529159555331E-11
 -0.400902470258E-11
 -0.529159555331E-11
 -0.400902470258E-11
 -0.133920285063E-12
 -0.529159555331E-11
 -0.133920285063E-12
 -0.529159555331E-11
 -0.190151200327E-11
 -0.133920285063E-12
 -0.190151200327E-11
 -0.133920285063E-12
