# vtk DataFile Version 3.0
MachLine results file. Generated by MachLine, USU AeroLab (c) 2022.
ASCII
DATASET POLYDATA
POINTS                 317 float
  0.499439107854E+01 -0.159233962127E-17  0.000000000000E+00
  0.449925503571E+01  0.962751785481E-01  0.000000000000E+00
  0.449932633134E+01  0.954502546495E-01  0.150641554014E-01
  0.449932633134E+01  0.919185505326E-01  0.298104001750E-01
  0.449932633134E+01  0.861235066414E-01  0.438226139612E-01
  0.449932633134E+01  0.782078161893E-01  0.567557695526E-01
  0.449932633134E+01  0.683663897457E-01  0.682914097362E-01
  0.449932633134E+01  0.568415558914E-01  0.781454887658E-01
  0.449932633134E+01  0.439170942849E-01  0.860753665120E-01
  0.449932633134E+01  0.299112480645E-01  0.918857830670E-01
  0.449932633134E+01  0.151688876471E-01  0.954336666914E-01
  0.449932633134E+01  0.530188731307E-04  0.966316567156E-01
  0.449932633134E+01 -0.150641554014E-01  0.954502546495E-01
  0.449932633134E+01 -0.298104001750E-01  0.919185505326E-01
  0.449932633134E+01 -0.438226139612E-01  0.861235066414E-01
  0.449932633134E+01 -0.567557695526E-01  0.782078161893E-01
  0.449932633134E+01 -0.682914097362E-01  0.683663897457E-01
  0.449932633134E+01 -0.781454887658E-01  0.568415558914E-01
  0.449932633134E+01 -0.860753665120E-01  0.439170942849E-01
  0.449932633134E+01 -0.918857830670E-01  0.299112480645E-01
  0.449932633134E+01 -0.954336666914E-01  0.151688876471E-01
  0.449943307420E+01 -0.971653709796E-01  0.122464679915E-16
  0.399924305865E+01  0.196215293239E+00  0.000000000000E+00
  0.399924340524E+01  0.193801269024E+00  0.306951055285E-01
  0.399924340524E+01  0.186613481395E+00  0.606343956877E-01
  0.399924340524E+01  0.174830650519E+00  0.890806657910E-01
  0.399924340524E+01  0.158742908798E+00  0.115333474260E+00
  0.399924340524E+01  0.138746389824E+00  0.138746389824E+00
  0.399924340524E+01  0.115333474260E+00  0.158742908798E+00
  0.399924340524E+01  0.890806657910E-01  0.174830650519E+00
  0.399924340524E+01  0.606343956877E-01  0.186613481395E+00
  0.399924340524E+01  0.306951055285E-01  0.193801269024E+00
  0.399924340524E+01 -0.678005596438E-14  0.196217026220E+00
  0.399924340524E+01 -0.306951055285E-01  0.193801269024E+00
  0.399924340524E+01 -0.606343956877E-01  0.186613481395E+00
  0.399924340524E+01 -0.890806657910E-01  0.174830650519E+00
  0.399924340524E+01 -0.115333474260E+00  0.158742908798E+00
  0.399924340524E+01 -0.138746389824E+00  0.138746389824E+00
  0.399924340524E+01 -0.158742908798E+00  0.115333474260E+00
  0.399924340524E+01 -0.174830650519E+00  0.890806657910E-01
  0.399924340524E+01 -0.186613481395E+00  0.606343956877E-01
  0.399924340524E+01 -0.193801269024E+00  0.306951055285E-01
  0.399924375184E+01 -0.196218759201E+00  0.244929359829E-16
  0.349923073743E+01  0.296153687165E+00  0.000000000000E+00
  0.349923125611E+01  0.292510105273E+00  0.463290493129E-01
  0.349923125611E+01  0.281661360439E+00  0.915173236743E-01
  0.349923125611E+01  0.263877178131E+00  0.134452137798E+00
  0.349923125611E+01  0.239595463938E+00  0.174076294069E+00
  0.349923125611E+01  0.209414114253E+00  0.209414114253E+00
  0.349923125611E+01  0.174076294069E+00  0.239595463938E+00
  0.349923125611E+01  0.134452137798E+00  0.263877178131E+00
  0.349923125611E+01  0.915173236743E-01  0.281661360439E+00
  0.349923125611E+01  0.463290493129E-01  0.292510105273E+00
  0.349923125611E+01 -0.431563111032E-16  0.296156280529E+00
  0.349923125611E+01 -0.463290493129E-01  0.292510105273E+00
  0.349923125611E+01 -0.915173236743E-01  0.281661360439E+00
  0.349923125611E+01 -0.134452137798E+00  0.263877178131E+00
  0.349923125611E+01 -0.174076294069E+00  0.239595463938E+00
  0.349923125611E+01 -0.209414114253E+00  0.209414114253E+00
  0.349923125611E+01 -0.239595463938E+00  0.174076294069E+00
  0.349923125611E+01 -0.263877178131E+00  0.134452137798E+00
  0.349923125611E+01 -0.281661360439E+00  0.915173236743E-01
  0.349923125611E+01 -0.292510105273E+00  0.463290493129E-01
  0.349923177478E+01 -0.296158873892E+00  0.367394039744E-16
  0.299921807496E+01  0.396090374796E+00  0.000000000000E+00
  0.299921876426E+01  0.391217249087E+00  0.619627250419E-01
  0.299921876426E+01  0.376707609818E+00  0.122399722151E+00
  0.299921876426E+01  0.352922178975E+00  0.179822831879E+00
  0.299921876426E+01  0.320446632804E+00  0.232818106689E+00
  0.299921876426E+01  0.280080627033E+00  0.280080627033E+00
  0.299921876426E+01  0.232818106689E+00  0.320446632804E+00
  0.299921876426E+01  0.179822831879E+00  0.352922178975E+00
  0.299921876426E+01  0.122399722151E+00  0.376707609818E+00
  0.299921876426E+01  0.619627250419E-01  0.391217249087E+00
  0.299921876426E+01  0.280620680090E-14  0.396093821307E+00
  0.299921876426E+01 -0.619627250419E-01  0.391217249087E+00
  0.299921876426E+01 -0.122399722151E+00  0.376707609818E+00
  0.299921876426E+01 -0.179822831879E+00  0.352922178975E+00
  0.299921876426E+01 -0.232818106689E+00  0.320446632804E+00
  0.299921876426E+01 -0.280080627033E+00  0.280080627033E+00
  0.299921876426E+01 -0.320446632804E+00  0.232818106689E+00
  0.299921876426E+01 -0.352922178975E+00  0.179822831879E+00
  0.299921876426E+01 -0.376707609818E+00  0.122399722151E+00
  0.299921876426E+01 -0.391217249087E+00  0.619627250419E-01
  0.299921945356E+01 -0.396097267818E+00  0.489858719659E-16
  0.249920507502E+01  0.496025375108E+00  0.000000000000E+00
  0.249920593306E+01  0.489922716985E+00  0.775961353319E-01
  0.249920593306E+01  0.471752245439E+00  0.153281596285E+00
  0.249920593306E+01  0.441965667954E+00  0.225192755626E+00
  0.249920593306E+01  0.401296428924E+00  0.291558921950E+00
  0.249920593306E+01  0.350745939988E+00  0.350745939988E+00
  0.249920593306E+01  0.291558921950E+00  0.401296428924E+00
  0.249920593306E+01  0.225192755626E+00  0.441965667954E+00
  0.249920593306E+01  0.153281596285E+00  0.471752245439E+00
  0.249920593306E+01  0.775961353319E-01  0.489922716985E+00
  0.249920593306E+01  0.777688015162E-16  0.496029665279E+00
  0.249920593306E+01 -0.775961353319E-01  0.489922716985E+00
  0.249920593306E+01 -0.153281596285E+00  0.471752245439E+00
  0.249920593306E+01 -0.225192755626E+00  0.441965667954E+00
  0.249920593306E+01 -0.291558921950E+00  0.401296428924E+00
  0.249920593306E+01 -0.350745939988E+00  0.350745939988E+00
  0.249920593306E+01 -0.401296428924E+00  0.291558921950E+00
  0.249920593306E+01 -0.441965667954E+00  0.225192755626E+00
  0.249920593306E+01 -0.471752245439E+00  0.153281596285E+00
  0.249920593306E+01 -0.489922716985E+00  0.775961353319E-01
  0.249920679109E+01 -0.496033955449E+00  0.612323399574E-16
  0.199919174227E+01  0.595958711336E+00  0.000000000000E+00
  0.199919276671E+01  0.588626529812E+00  0.932292834845E-01
  0.199919276671E+01  0.566795287373E+00  0.184162952599E+00
  0.199919276671E+01  0.531007663872E+00  0.270561918620E+00
  0.199919276671E+01  0.482144869374E+00  0.350298752259E+00
  0.199919276671E+01  0.421410068044E+00  0.421410068044E+00
  0.199919276671E+01  0.350298752259E+00  0.482144869374E+00
  0.199919276671E+01  0.270561918620E+00  0.531007663872E+00
  0.199919276671E+01  0.184162952599E+00  0.566795287373E+00
  0.199919276671E+01  0.932292834845E-01  0.588626529812E+00
  0.199919276671E+01  0.130338376156E-14  0.595963833549E+00
  0.199919276671E+01 -0.932292834845E-01  0.588626529812E+00
  0.199919276671E+01 -0.184162952599E+00  0.566795287373E+00
  0.199919276671E+01 -0.270561918620E+00  0.531007663872E+00
  0.199919276671E+01 -0.350298752259E+00  0.482144869374E+00
  0.199919276671E+01 -0.421410068044E+00  0.421410068044E+00
  0.199919276671E+01 -0.482144869374E+00  0.350298752259E+00
  0.199919276671E+01 -0.531007663872E+00  0.270561918620E+00
  0.199919276671E+01 -0.566795287373E+00  0.184162952599E+00
  0.199919276671E+01 -0.588626529812E+00  0.932292834845E-01
  0.199919379115E+01 -0.595968955761E+00  0.734788079488E-16
  0.149917808213E+01  0.695890410664E+00  0.000000000000E+00
  0.149917927027E+01  0.687328712468E+00  0.108862173443E+00
  0.149917927027E+01  0.661836759596E+00  0.215043798883E+00
  0.149917927027E+01  0.620048189191E+00  0.315930332306E+00
  0.149917927027E+01  0.562991974546E+00  0.409037612434E+00
  0.149917927027E+01  0.492073029026E+00  0.492073029026E+00
  0.149917927027E+01  0.409037612434E+00  0.562991974546E+00
  0.149917927027E+01  0.315930332306E+00  0.620048189191E+00
  0.149917927027E+01  0.215043798883E+00  0.661836759596E+00
  0.149917927027E+01  0.108862173443E+00  0.687328712468E+00
  0.149917927027E+01  0.120141076177E-15  0.695896351327E+00
  0.149917927027E+01 -0.108862173443E+00  0.687328712468E+00
  0.149917927027E+01 -0.215043798883E+00  0.661836759596E+00
  0.149917927027E+01 -0.315930332306E+00  0.620048189191E+00
  0.149917927027E+01 -0.409037612434E+00  0.562991974546E+00
  0.149917927027E+01 -0.492073029026E+00  0.492073029026E+00
  0.149917927027E+01 -0.562991974546E+00  0.409037612434E+00
  0.149917927027E+01 -0.620048189191E+00  0.315930332306E+00
  0.149917927027E+01 -0.661836759596E+00  0.215043798883E+00
  0.149917927027E+01 -0.687328712468E+00  0.108862173443E+00
  0.149918045840E+01 -0.695902291989E+00  0.857252759403E-16
  0.999164100777E+00  0.795820503883E+00  0.000000000000E+00
  0.999165449520E+00  0.786029293582E+00  0.124494809743E+00
  0.999165449520E+00  0.756876689675E+00  0.245924144095E+00
  0.999165449520E+00  0.709087269739E+00  0.361298009845E+00
  0.999165449520E+00  0.643837767895E+00  0.467775519512E+00
  0.999165449520E+00  0.562734843431E+00  0.562734843431E+00
  0.999165449520E+00  0.467775519512E+00  0.643837767895E+00
  0.999165449520E+00  0.361298009845E+00  0.709087269739E+00
  0.999165449520E+00  0.245924144095E+00  0.756876689675E+00
  0.999165449520E+00  0.124494809743E+00  0.786029293582E+00
  0.999165449520E+00  0.727930920891E-15  0.795827247600E+00
  0.999165449520E+00 -0.124494809743E+00  0.786029293582E+00
  0.999165449520E+00 -0.245924144095E+00  0.756876689675E+00
[...]
POINT_DATA                 317
SCALARS phi float 1
LOOKUP_TABLE default
 -0.208166817117E-16
  0.277555756156E-16
  0.693889390391E-16
  0.111022302463E-15
 -0.693889390391E-16
 -0.555111512313E-16
 -0.832667268469E-16
 -0.111022302463E-15
 -0.138777878078E-16
 -0.138777878078E-16
  0.277555756156E-16
  0.000000000000E+00
 -0.832667268469E-16
  0.277555756156E-16
 -0.124900090270E-15
  0.277555756156E-16
  0.124900090270E-15
  0.971445146547E-16
  0.971445146547E-16
  0.693889390391E-16
 -0.194289029309E-15
  0.000000000000E+00
 -0.180411241502E-15
  0.138777878078E-16
 -0.124900090270E-15
 -0.180411241502E-15
  0.971445146547E-16
 -0.277555756156E-16
  0.277555756156E-16
 -0.277555756156E-16
  0.000000000000E+00
 -0.111022302463E-15
 -0.693889390391E-16
  0.277555756156E-16
 -0.555111512313E-16
 -0.416333634234E-16
  0.180411241502E-15
 -0.416333634234E-16
  0.138777878078E-16
  0.277555756156E-16
  0.555111512313E-16
  0.416333634234E-16
  0.555111512313E-16
  0.222044604925E-15
  0.277555756156E-15
 -0.832667268469E-16
  0.000000000000E+00
  0.000000000000E+00
 -0.138777878078E-15
 -0.111022302463E-15
 -0.555111512313E-16
  0.138777878078E-15
  0.166533453694E-15
  0.277555756156E-16
  0.277555756156E-16
 -0.111022302463E-15
  0.249800180541E-15
  0.166533453694E-15
  0.194289029309E-15
  0.832667268469E-16
  0.388578058619E-15
  0.249800180541E-15
 -0.832667268469E-16
 -0.555111512313E-16
  0.000000000000E+00
  0.277555756156E-16
  0.138777878078E-15
  0.166533453694E-15
  0.166533453694E-15
  0.111022302463E-15
  0.249800180541E-15
 -0.111022302463E-15
 -0.166533453694E-15
  0.000000000000E+00
  0.194289029309E-15
  0.111022302463E-15
 -0.111022302463E-15
 -0.138777878078E-15
  0.138777878078E-15
  0.000000000000E+00
  0.832667268469E-16
  0.277555756156E-16
  0.000000000000E+00
  0.555111512313E-16
 -0.277555756156E-16
 -0.305311331772E-15
 -0.194289029309E-15
  0.832667268469E-16
  0.194289029309E-15
 -0.277555756156E-16
  0.832667268469E-16
  0.277555756156E-16
  0.138777878078E-15
  0.138777878078E-15
  0.000000000000E+00
  0.138777878078E-15
 -0.277555756156E-16
  0.277555756156E-16
 -0.555111512313E-16
  0.000000000000E+00
 -0.277555756156E-16
  0.249800180541E-15
  0.832667268469E-16
  0.832667268469E-16
  0.249800180541E-15
 -0.111022302463E-15
  0.111022302463E-15
  0.194289029309E-15
  0.277555756156E-16
 -0.194289029309E-15
 -0.693889390391E-16
 -0.416333634234E-16
  0.971445146547E-16
  0.138777878078E-16
 -0.249800180541E-15
 -0.208166817117E-15
  0.152655665886E-15
  0.416333634234E-16
 -0.693889390391E-16
 -0.693889390391E-16
 -0.180411241502E-15
 -0.166533453694E-15
 -0.971445146547E-16
 -0.277555756156E-16
  0.000000000000E+00
 -0.152655665886E-15
 -0.277555756156E-16
 -0.222044604925E-15
 -0.971445146547E-16
  0.360822483003E-15
  0.971445146547E-16
  0.582867087928E-15
  0.693889390391E-16
 -0.971445146547E-16
  0.652256026967E-15
 -0.360822483003E-15
 -0.222044604925E-15
 -0.124900090270E-15
 -0.693889390391E-16
  0.416333634234E-16
 -0.305311331772E-15
  0.152655665886E-15
 -0.124900090270E-15
  0.277555756156E-16
  0.277555756156E-16
  0.277555756156E-15
 -0.402455846427E-15
  0.138777878078E-15
  0.367761376907E-15
  0.506539254985E-15
 -0.416333634234E-16
  0.277555756156E-16
 -0.277555756156E-16
 -0.693889390391E-16
 -0.360822483003E-15
  0.707767178199E-15
  0.381639164715E-15
 -0.562050406216E-15
  0.277555756156E-15
  0.902056207508E-16
  0.124900090270E-15
 -0.249800180541E-15
  0.291433543964E-15
  0.402455846427E-15
 -0.111022302463E-15
  0.381639164715E-15
 -0.215105711021E-15
 -0.430211422042E-15
 -0.124900090270E-15
 -0.124206200880E-14
 -0.950628464835E-15
 -0.624500451352E-15
  0.756339435526E-15
  0.235922392733E-15
  0.109634523682E-14
 -0.228983498829E-15
  0.520417042793E-15
 -0.360822483003E-15
  0.201227923213E-15
 -0.374700270811E-15
  0.256739074445E-15
  0.111022302463E-15
  0.112410081243E-14
 -0.340005801291E-15
  0.242861286637E-15
  0.645317133063E-15
 -0.416333634234E-16
 -0.277555756156E-16
  0.680011602583E-15
  0.999200722163E-15
  0.360822483003E-15
 -0.555111512313E-15
 -0.305311331772E-15
  0.152655665886E-14
  0.194289029309E-15
 -0.804911692853E-15
 -0.527355936697E-15
  0.499600361081E-15
 -0.915933995316E-15
 -0.138777878078E-15
  0.141553435640E-14
 -0.277555756156E-16
 -0.971445146547E-15
 -0.277555756156E-14
  0.141553435640E-14
 -0.174860126378E-14
 -0.222044604925E-15
 -0.638378239159E-15
 -0.915933995316E-15
 -0.194289029309E-14
  0.516253706451E-14
 -0.593969318174E-14
 -0.158206781009E-14
  0.635602681598E-14
 -0.216493489802E-14
 -0.291433543964E-14
 -0.169309011255E-14
  0.360822483003E-15
 -0.516253706451E-14
 -0.413558076673E-14
 -0.449640324973E-14
 -0.224820162487E-14
  0.180411241502E-14
  0.718869408445E-14
 -0.638378239159E-15
  0.888178419700E-15
 -0.999200722163E-15
  0.491273688397E-14
 -0.241473507856E-14
 -0.333066907388E-14
  0.235922392733E-14
 -0.258126853225E-14
  0.943689570931E-15
  0.727196081129E-14
  0.488498130835E-14
  0.244249065418E-14
  0.260902410787E-14
 -0.216493489802E-14
  0.277555756156E-14
 -0.832667268469E-15
 -0.127675647832E-14
 -0.294209101526E-14
  0.555111512313E-16
  0.649480469406E-14
 -0.127675647832E-14
  0.277555756156E-15
 -0.610622663544E-15
 -0.266453525910E-14
  0.366373598126E-14
  0.199840144433E-14
 -0.111022302463E-15
  0.199840144433E-14
 -0.177635683940E-14
 -0.194289029309E-14
 -0.544009282066E-14
 -0.777156117238E-14
  0.277555756156E-15
 -0.188737914186E-14
  0.277555756156E-15
  0.571764857682E-14
  0.160982338571E-14
 -0.188737914186E-14
  0.000000000000E+00
  0.865973959208E-14
  0.294209101526E-14
  0.799360577730E-14
  0.249800180541E-14
 -0.216493489802E-14
  0.888178419700E-15
  0.555111512313E-15
 -0.222044604925E-14
  0.999200722163E-15
 -0.943689570931E-15
  0.333066907388E-15
 -0.488498130835E-14
 -0.616173778667E-14
 -0.222044604925E-15
 -0.133226762955E-14
 -0.210942374679E-14
 -0.660582699652E-14
 -0.111022302463E-15
  0.116573417586E-14
 -0.160982338571E-14
  0.316413562018E-14
  0.000000000000E+00
 -0.116573417586E-14
  0.394129173742E-14
 -0.349720252757E-14
  0.177635683940E-14
 -0.571764857682E-14
 -0.105471187339E-14
 -0.660582699652E-14
 -0.299760216649E-14
  0.166533453694E-15
 -0.333066907388E-15
 -0.105471187339E-14
  0.888178419700E-15
 -0.693889390391E-15
 -0.444089209850E-15
 -0.277555756156E-15
  0.277555756156E-16
  0.111022302463E-14
  0.888178419700E-15
  0.163757896132E-14
 -0.130451205393E-14
 -0.222044604925E-15
  0.388578058619E-15
  0.174860126378E-14
 -0.305311331772E-15
  0.205391259556E-14
 -0.113797860024E-14
  0.155431223448E-14
 -0.249800180541E-15
  0.138777878078E-15
  0.277555756156E-16
  0.105471187339E-14
  0.274780198595E-14
SCALARS phi_mu float 1
LOOKUP_TABLE default
  0.492939156178E-01
  0.886358337620E-01
  0.886320732874E-01
  0.886320732874E-01
  0.886320732874E-01
  0.886320732874E-01
  0.886320732874E-01
  0.886320732874E-01
  0.886320732874E-01
  0.886320732874E-01
  0.886320732874E-01
  0.886320732874E-01
  0.886320732874E-01
  0.886320732874E-01
  0.886320732874E-01
  0.886320732874E-01
  0.886320732874E-01
  0.886320732874E-01
  0.886320732874E-01
  0.886320732874E-01
  0.886320732874E-01
  0.886262735424E-01
  0.112596505844E+00
  0.112596493349E+00
  0.112596493349E+00
  0.112596493349E+00
  0.112596493349E+00
  0.112596493349E+00
  0.112596493349E+00
  0.112596493349E+00
  0.112596493349E+00
  0.112596493349E+00
  0.112596493349E+00
  0.112596493349E+00
  0.112596493349E+00
  0.112596493349E+00
  0.112596493349E+00
  0.112596493349E+00
  0.112596493349E+00
  0.112596493349E+00
  0.112596493349E+00
  0.112596493349E+00
  0.112596480851E+00
  0.127607515055E+00
  0.127607505717E+00
  0.127607505717E+00
  0.127607505717E+00
  0.127607505717E+00
  0.127607505717E+00
  0.127607505717E+00
  0.127607505717E+00
  0.127607505717E+00
  0.127607505717E+00
  0.127607505717E+00
  0.127607505717E+00
  0.127607505717E+00
  0.127607505717E+00
  0.127607505717E+00
  0.127607505717E+00
  0.127607505717E+00
  0.127607505717E+00
  0.127607505717E+00
  0.127607505717E+00
  0.127607496372E+00
  0.134259564275E+00
  0.134259569519E+00
  0.134259569519E+00
  0.134259569519E+00
  0.134259569519E+00
  0.134259569519E+00
  0.134259569519E+00
  0.134259569519E+00
  0.134259569519E+00
  0.134259569519E+00
  0.134259569519E+00
  0.134259569519E+00
  0.134259569519E+00
  0.134259569519E+00
  0.134259569519E+00
  0.134259569519E+00
  0.134259569519E+00
  0.134259569519E+00
  0.134259569519E+00
  0.134259569519E+00
  0.134259574752E+00
  0.131705676250E+00
  0.131705716996E+00
  0.131705716996E+00
  0.131705716997E+00
  0.131705716997E+00
  0.131705716996E+00
  0.131705716997E+00
  0.131705716996E+00
  0.131705716996E+00
  0.131705716996E+00
  0.131705716996E+00
  0.131705716996E+00
  0.131705716996E+00
  0.131705716997E+00
  0.131705716997E+00
  0.131705716996E+00
  0.131705716997E+00
  0.131705716996E+00
  0.131705716996E+00
  0.131705716996E+00
  0.131705757724E+00
  0.117906798226E+00
  0.117906915500E+00
  0.117906915500E+00
  0.117906915500E+00
  0.117906915500E+00
  0.117906915500E+00
  0.117906915500E+00
  0.117906915500E+00
  0.117906915500E+00
  0.117906915500E+00
  0.117906915500E+00
  0.117906915500E+00
  0.117906915500E+00
  0.117906915500E+00
  0.117906915500E+00
  0.117906915500E+00
  0.117906915500E+00
  0.117906915500E+00
  0.117906915500E+00
  0.117906915500E+00
  0.117907032747E+00
  0.892948833718E-01
  0.892951637751E-01
  0.892951637751E-01
  0.892951637751E-01
  0.892951637751E-01
  0.892951637751E-01
  0.892951637751E-01
  0.892951637751E-01
  0.892951637751E-01
  0.892951637751E-01
  0.892951637751E-01
  0.892951637751E-01
  0.892951637751E-01
  0.892951637751E-01
  0.892951637751E-01
  0.892951637751E-01
  0.892951637751E-01
  0.892951637751E-01
  0.892951637751E-01
  0.892951637751E-01
  0.892954441418E-01
  0.401215529973E-01
  0.401221940992E-01
  0.401221940992E-01
  0.401221940992E-01
  0.401221940992E-01
  0.401221940991E-01
  0.401221940991E-01
  0.401221940992E-01
  0.401221940992E-01
  0.401221940992E-01
  0.401221940992E-01
  0.401221940992E-01
  0.401221940992E-01
  0.401221940992E-01
  0.401221940992E-01
  0.401221940991E-01
  0.401221940991E-01
  0.401221940992E-01
  0.401221940992E-01
  0.401221940992E-01
  0.401228351537E-01
 -0.384472838287E-01
 -0.384457632243E-01
 -0.384457632243E-01
 -0.384457632243E-01
 -0.384457632244E-01
 -0.384457632243E-01
 -0.384457632244E-01
 -0.384457632243E-01
 -0.384457632243E-01
 -0.384457632243E-01
 -0.384457632243E-01
 -0.384457632243E-01
 -0.384457632243E-01
 -0.384457632243E-01
 -0.384457632244E-01
 -0.384457632243E-01
 -0.384457632244E-01
 -0.384457632243E-01
 -0.384457632243E-01
 -0.384457632243E-01
 -0.384442426807E-01
 -0.157994767920E+00
 -0.159159333544E+00
 -0.159159333544E+00
 -0.159159333544E+00
 -0.159159333544E+00
 -0.159159333544E+00
 -0.159159333544E+00
 -0.159159333544E+00
 -0.159159333544E+00
 -0.159159333544E+00
 -0.159159333544E+00
 -0.159159333544E+00
 -0.159159333544E+00
 -0.159159333544E+00
 -0.159159333544E+00
 -0.159159333544E+00
 -0.159159333544E+00
 -0.159159333544E+00
 -0.159159333544E+00
 -0.159159333544E+00
 -0.160602280169E+00
 -0.244812019746E+00
 -0.244793885531E+00
 -0.244793885531E+00
 -0.244793885530E+00
 -0.244793885531E+00
 -0.244793885531E+00
 -0.244793885531E+00
 -0.244793885530E+00
 -0.244793885531E+00
 -0.244793885531E+00
 -0.244793885531E+00
 -0.244793885531E+00
 -0.244793885531E+00
 -0.244793885530E+00
 -0.244793885531E+00
 -0.244793885531E+00
 -0.244793885531E+00
 -0.244793885530E+00
 -0.244793885531E+00
 -0.244793885531E+00
 -0.244775752365E+00
 -0.289922146162E+00
 -0.289907974388E+00
 -0.289907974388E+00
 -0.289907974387E+00
 -0.289907974388E+00
 -0.289907974387E+00
 -0.289907974388E+00
 -0.289907974387E+00
 -0.289907974388E+00
 -0.289907974388E+00
 -0.289907974388E+00
 -0.289907974388E+00
 -0.289907974388E+00
 -0.289907974387E+00
 -0.289907974388E+00
 -0.289907974387E+00
 -0.289907974388E+00
 -0.289907974387E+00
 -0.289907974388E+00
 -0.289907974388E+00
 -0.289893803035E+00
 -0.317977318822E+00
 -0.317967472826E+00
 -0.317967472826E+00
 -0.317967472826E+00
 -0.317967472826E+00
 -0.317967472825E+00
 -0.317967472825E+00
 -0.317967472826E+00
 -0.317967472826E+00
 -0.317967472826E+00
 -0.317967472826E+00
 -0.317967472826E+00
 -0.317967472826E+00
 -0.317967472826E+00
 -0.317967472826E+00
 -0.317967472825E+00
 -0.317967472826E+00
 -0.317967472826E+00
 -0.317967472826E+00
 -0.317967472826E+00
 -0.317957626999E+00
 -0.333858430103E+00
 -0.333746951044E+00
 -0.333746951044E+00
 -0.333746951044E+00
 -0.333746951044E+00
 -0.333746951044E+00
 -0.333746951044E+00
 -0.333746951044E+00
 -0.333746951044E+00
 -0.333746951044E+00
 -0.333746951044E+00
 -0.333746951044E+00
 -0.333746951044E+00
 -0.333746951044E+00
 -0.333746951044E+00
 -0.333746951044E+00
 -0.333746951044E+00
 -0.333746951044E+00
 -0.333746951044E+00
 -0.333746951044E+00
 -0.333672642715E+00
 -0.338381502219E+00
 -0.159385107170E+00
 -0.160890784319E+00
 -0.160890784319E+00
 -0.160890784319E+00
 -0.160890784319E+00
 -0.160890784319E+00
 -0.160890784319E+00
 -0.160890784319E+00
 -0.160890784319E+00
 -0.160890784319E+00
 -0.160890784319E+00
 -0.160890784319E+00
 -0.160890784319E+00
 -0.160890784319E+00
 -0.160890784319E+00
 -0.160890784319E+00
 -0.160890784319E+00
 -0.160890784319E+00
 -0.160890784319E+00
 -0.160890784319E+00
 -0.162598947329E+00
SCALARS phi_sigma float 1
LOOKUP_TABLE default
 -0.492939156178E-01
 -0.886358337620E-01
 -0.886320732874E-01
 -0.886320732874E-01
 -0.886320732874E-01
 -0.886320732874E-01
 -0.886320732874E-01
 -0.886320732874E-01
 -0.886320732874E-01
 -0.886320732874E-01
 -0.886320732874E-01
 -0.886320732874E-01
 -0.886320732874E-01
 -0.886320732874E-01
 -0.886320732874E-01
 -0.886320732874E-01
 -0.886320732874E-01
 -0.886320732874E-01
 -0.886320732874E-01
 -0.886320732874E-01
 -0.886320732874E-01
 -0.886262735424E-01
 -0.112596505844E+00
 -0.112596493349E+00
 -0.112596493349E+00
 -0.112596493349E+00
 -0.112596493349E+00
 -0.112596493349E+00
 -0.112596493349E+00
 -0.112596493349E+00
 -0.112596493349E+00
 -0.112596493349E+00
 -0.112596493349E+00
 -0.112596493349E+00
 -0.112596493349E+00
 -0.112596493349E+00
 -0.112596493349E+00
 -0.112596493349E+00
 -0.112596493349E+00
 -0.112596493349E+00
 -0.112596493349E+00
 -0.112596493349E+00
 -0.112596480851E+00
 -0.127607515055E+00
 -0.127607505717E+00
 -0.127607505717E+00
 -0.127607505717E+00
 -0.127607505717E+00
 -0.127607505717E+00
 -0.127607505717E+00
 -0.127607505717E+00
 -0.127607505717E+00
 -0.127607505717E+00
 -0.127607505717E+00
 -0.127607505717E+00
 -0.127607505717E+00
 -0.127607505717E+00
 -0.127607505717E+00
 -0.127607505717E+00
 -0.127607505717E+00
 -0.127607505717E+00
 -0.127607505717E+00
 -0.127607505717E+00
 -0.127607496372E+00
 -0.134259564275E+00
 -0.134259569519E+00
 -0.134259569519E+00
 -0.134259569519E+00
 -0.134259569519E+00
 -0.134259569519E+00
 -0.134259569519E+00
 -0.134259569519E+00
 -0.134259569519E+00
 -0.134259569519E+00
 -0.134259569519E+00
 -0.134259569519E+00
 -0.134259569519E+00
 -0.134259569519E+00
 -0.134259569519E+00
 -0.134259569519E+00
 -0.134259569519E+00
 -0.134259569519E+00
 -0.134259569519E+00
 -0.134259569519E+00
 -0.134259574752E+00
 -0.131705676250E+00
 -0.131705716996E+00
 -0.131705716996E+00
 -0.131705716997E+00
 -0.131705716997E+00
 -0.131705716996E+00
 -0.131705716997E+00
 -0.131705716996E+00
 -0.131705716996E+00
 -0.131705716996E+00
 -0.131705716996E+00
 -0.131705716996E+00
 -0.131705716996E+00
 -0.131705716997E+00
 -0.131705716997E+00
 -0.131705716996E+00
 -0.131705716997E+00
 -0.131705716996E+00
 -0.131705716996E+00
 -0.131705716996E+00
 -0.131705757724E+00
 -0.117906798226E+00
 -0.117906915500E+00
 -0.117906915500E+00
 -0.117906915500E+00
 -0.117906915500E+00
 -0.117906915500E+00
 -0.117906915500E+00
 -0.117906915500E+00
 -0.117906915500E+00
 -0.117906915500E+00
 -0.117906915500E+00
 -0.117906915500E+00
 -0.117906915500E+00
 -0.117906915500E+00
 -0.117906915500E+00
 -0.117906915500E+00
 -0.117906915500E+00
 -0.117906915500E+00
 -0.117906915500E+00
 -0.117906915500E+00
 -0.117907032747E+00
 -0.892948833718E-01
 -0.892951637751E-01
 -0.892951637751E-01
 -0.892951637751E-01
 -0.892951637751E-01
 -0.892951637751E-01
 -0.892951637751E-01
 -0.892951637751E-01
 -0.892951637751E-01
 -0.892951637751E-01
 -0.892951637751E-01
 -0.892951637751E-01
 -0.892951637751E-01
 -0.892951637751E-01
 -0.892951637751E-01
 -0.892951637751E-01
 -0.892951637751E-01
 -0.892951637751E-01
 -0.892951637751E-01
 -0.892951637751E-01
 -0.892954441418E-01
 -0.401215529973E-01
 -0.401221940992E-01
 -0.401221940992E-01
 -0.401221940992E-01
 -0.401221940992E-01
 -0.401221940991E-01
 -0.401221940991E-01
 -0.401221940992E-01
 -0.401221940992E-01
 -0.401221940992E-01
 -0.401221940992E-01
 -0.401221940992E-01
 -0.401221940992E-01
 -0.401221940992E-01
 -0.401221940992E-01
 -0.401221940991E-01
 -0.401221940991E-01
 -0.401221940992E-01
 -0.401221940992E-01
 -0.401221940992E-01
 -0.401228351537E-01
  0.384472838287E-01
  0.384457632243E-01
  0.384457632243E-01
  0.384457632243E-01
  0.384457632244E-01
  0.384457632243E-01
  0.384457632244E-01
  0.384457632243E-01
  0.384457632243E-01
  0.384457632243E-01
  0.384457632243E-01
  0.384457632243E-01
  0.384457632243E-01
  0.384457632243E-01
  0.384457632244E-01
  0.384457632243E-01
  0.384457632244E-01
  0.384457632243E-01
  0.384457632243E-01
  0.384457632243E-01
  0.384442426807E-01
  0.157994767920E+00
  0.159159333544E+00
  0.159159333544E+00
  0.159159333544E+00
  0.159159333544E+00
  0.159159333544E+00
  0.159159333544E+00
  0.159159333544E+00
  0.159159333544E+00
  0.159159333544E+00
  0.159159333544E+00
  0.159159333544E+00
  0.159159333544E+00
  0.159159333544E+00
  0.159159333544E+00
  0.159159333544E+00
  0.159159333544E+00
  0.159159333544E+00
  0.159159333544E+00
  0.159159333544E+00
  0.160602280169E+00
  0.244812019746E+00
  0.244793885531E+00
  0.244793885531E+00
  0.244793885530E+00
  0.244793885531E+00
  0.244793885531E+00
  0.244793885531E+00
  0.244793885530E+00
  0.244793885531E+00
  0.244793885531E+00
  0.244793885531E+00
  0.244793885531E+00
  0.244793885531E+00
  0.244793885530E+00
  0.244793885531E+00
  0.244793885531E+00
  0.244793885531E+00
  0.244793885530E+00
  0.244793885531E+00
  0.244793885531E+00
  0.244775752365E+00
  0.289922146162E+00
  0.289907974388E+00
  0.289907974388E+00
  0.289907974387E+00
  0.289907974388E+00
  0.289907974387E+00
  0.289907974388E+00
  0.289907974387E+00
  0.289907974388E+00
  0.289907974388E+00
  0.289907974388E+00
  0.289907974388E+00
  0.289907974388E+00
  0.289907974387E+00
  0.289907974388E+00
  0.289907974387E+00
  0.289907974388E+00
  0.289907974387E+00
  0.289907974388E+00
  0.289907974388E+00
  0.289893803035E+00
  0.317977318822E+00
  0.317967472826E+00
  0.317967472826E+00
  0.317967472826E+00
  0.317967472826E+00
  0.317967472825E+00
  0.317967472826E+00
  0.317967472826E+00
  0.317967472826E+00
  0.317967472826E+00
  0.317967472826E+00
  0.317967472826E+00
  0.317967472826E+00
  0.317967472826E+00
  0.317967472826E+00
  0.317967472825E+00
  0.317967472826E+00
  0.317967472826E+00
  0.317967472826E+00
  0.317967472826E+00
  0.317957626999E+00
  0.333858430103E+00
  0.333746951044E+00
  0.333746951044E+00
  0.333746951044E+00
  0.333746951044E+00
  0.333746951044E+00
  0.333746951044E+00
  0.333746951044E+00
  0.333746951044E+00
  0.333746951044E+00
  0.333746951044E+00
  0.333746951044E+00
  0.333746951044E+00
  0.333746951044E+00
  0.333746951044E+00
  0.333746951044E+00
  0.333746951044E+00
  0.333746951044E+00
  0.333746951044E+00
  0.333746951044E+00
  0.333672642715E+00
  0.338381502219E+00
  0.159385107170E+00
  0.160890784319E+00
  0.160890784319E+00
  0.160890784319E+00
  0.160890784319E+00
  0.160890784319E+00
  0.160890784319E+00
  0.160890784319E+00
  0.160890784319E+00
  0.160890784319E+00
  0.160890784319E+00
  0.160890784319E+00
  0.160890784319E+00
  0.160890784319E+00