# vtk DataFile Version 3.0
MachLine results file. Generated by MachLine, USU AeroLab (c) 2022.
ASCII
DATASET POLYDATA
POINTS                 317 float
  0.499999439108E+01 -0.159233962127E-20  0.000000000000E+00
  0.449999925504E+01  0.999962751785E-01  0.000000000000E+00
  0.449999932633E+01  0.987655154801E-01  0.156428672129E-01
  0.449999932633E+01  0.951024645284E-01  0.309006081382E-01
  0.449999932633E+01  0.890976752730E-01  0.453974735380E-01
  0.449999932633E+01  0.808990055543E-01  0.587765024735E-01
  0.449999932633E+01  0.707083338303E-01  0.707082588503E-01
  0.449999932633E+01  0.587765882599E-01  0.808989432268E-01
  0.449999932633E+01  0.453975680183E-01  0.890976271329E-01
  0.449999932633E+01  0.309007089861E-01  0.951024317609E-01
  0.449999932633E+01  0.156429719451E-01  0.987654988921E-01
  0.449999932633E+01  0.530188731369E-07  0.999966316567E-01
  0.449999932633E+01 -0.156428672129E-01  0.987655154801E-01
  0.449999932633E+01 -0.309006081382E-01  0.951024645284E-01
  0.449999932633E+01 -0.453974735380E-01  0.890976752730E-01
  0.449999932633E+01 -0.587765024735E-01  0.808990055543E-01
  0.449999932633E+01 -0.707082588503E-01  0.707083338303E-01
  0.449999932633E+01 -0.808989432268E-01  0.587765882599E-01
  0.449999932633E+01 -0.890976271329E-01  0.453975680183E-01
  0.449999932633E+01 -0.951024317609E-01  0.309007089861E-01
  0.449999932633E+01 -0.987654988921E-01  0.156429719451E-01
  0.449999943307E+01 -0.999971653710E-01  0.122464679915E-16
  0.399999924306E+01  0.199996215293E+00  0.000000000000E+00
  0.399999924341E+01  0.197533931720E+00  0.312863012205E-01
  0.399999924341E+01  0.190207705437E+00  0.618022298718E-01
  0.399999924341E+01  0.178197934184E+00  0.907963825137E-01
  0.399999924341E+01  0.161800338385E+00  0.117554826882E+00
  0.399999924341E+01  0.141418681271E+00  0.141418681271E+00
  0.399999924341E+01  0.117554826882E+00  0.161800338385E+00
  0.399999924341E+01  0.907963825137E-01  0.178197934184E+00
  0.399999924341E+01  0.618022298718E-01  0.190207705437E+00
  0.399999924341E+01  0.312863012205E-01  0.197533931720E+00
  0.399999924341E+01  0.545416555913E-17  0.199996217026E+00
  0.399999924341E+01 -0.312863012205E-01  0.197533931720E+00
  0.399999924341E+01 -0.618022298718E-01  0.190207705437E+00
  0.399999924341E+01 -0.907963825137E-01  0.178197934184E+00
  0.399999924341E+01 -0.117554826882E+00  0.161800338385E+00
  0.399999924341E+01 -0.141418681271E+00  0.141418681271E+00
  0.399999924341E+01 -0.161800338385E+00  0.117554826882E+00
  0.399999924341E+01 -0.178197934184E+00  0.907963825137E-01
  0.399999924341E+01 -0.190207705437E+00  0.618022298718E-01
  0.399999924341E+01 -0.197533931720E+00  0.312863012205E-01
  0.399999924375E+01 -0.199996218759E+00  0.244929359829E-16
  0.349999923074E+01  0.299996153687E+00  0.000000000000E+00
  0.349999923126E+01  0.296302705782E+00  0.469297382219E-01
  0.349999923126E+01  0.285313299295E+00  0.927039105379E-01
  0.349999923126E+01  0.267298532478E+00  0.136195404910E+00
  0.349999923126E+01  0.242701988678E+00  0.176333316406E+00
  0.349999923126E+01  0.212129316436E+00  0.212129316436E+00
  0.349999923126E+01  0.176333316406E+00  0.242701988678E+00
  0.349999923126E+01  0.136195404910E+00  0.267298532478E+00
  0.349999923126E+01  0.927039105379E-01  0.285313299295E+00
  0.349999923126E+01  0.469297382219E-01  0.296302705782E+00
  0.349999923126E+01  0.183081759741E-16  0.299996156281E+00
  0.349999923126E+01 -0.469297382219E-01  0.296302705782E+00
  0.349999923126E+01 -0.927039105379E-01  0.285313299295E+00
  0.349999923126E+01 -0.136195404910E+00  0.267298532478E+00
  0.349999923126E+01 -0.176333316406E+00  0.242701988678E+00
  0.349999923126E+01 -0.212129316436E+00  0.212129316436E+00
  0.349999923126E+01 -0.242701988678E+00  0.176333316406E+00
  0.349999923126E+01 -0.267298532478E+00  0.136195404910E+00
  0.349999923126E+01 -0.285313299295E+00  0.927039105379E-01
  0.349999923126E+01 -0.296302705782E+00  0.469297382219E-01
  0.349999923177E+01 -0.299996158874E+00  0.367394039744E-16
  0.299999921807E+01  0.399996090375E+00  0.000000000000E+00
  0.299999921876E+01  0.395071478151E+00  0.625731749551E-01
  0.299999921876E+01  0.380418891521E+00  0.123605590674E+00
  0.299999921876E+01  0.356399129244E+00  0.181594426528E+00
  0.299999921876E+01  0.323603637585E+00  0.235111804923E+00
  0.299999921876E+01  0.282839950390E+00  0.282839950390E+00
  0.299999921876E+01  0.235111804923E+00  0.323603637585E+00
  0.299999921876E+01  0.181594426528E+00  0.356399129244E+00
  0.299999921876E+01  0.123605590674E+00  0.380418891521E+00
  0.299999921876E+01  0.625731749551E-01  0.395071478151E+00
  0.299999921876E+01  0.272746498478E-16  0.399996093821E+00
  0.299999921876E+01 -0.625731749551E-01  0.395071478151E+00
  0.299999921876E+01 -0.123605590674E+00  0.380418891521E+00
  0.299999921876E+01 -0.181594426528E+00  0.356399129244E+00
  0.299999921876E+01 -0.235111804923E+00  0.323603637585E+00
  0.299999921876E+01 -0.282839950390E+00  0.282839950390E+00
  0.299999921876E+01 -0.323603637585E+00  0.235111804923E+00
  0.299999921876E+01 -0.356399129244E+00  0.181594426528E+00
  0.299999921876E+01 -0.380418891521E+00  0.123605590674E+00
  0.299999921876E+01 -0.395071478151E+00  0.625731749551E-01
  0.299999921945E+01 -0.399996097268E+00  0.489858719659E-16
  0.249999920508E+01  0.499996025375E+00  0.000000000000E+00
  0.249999920593E+01  0.493840248845E+00  0.782166114229E-01
  0.249999920593E+01  0.475524482135E+00  0.154507270286E+00
  0.249999920593E+01  0.445499724500E+00  0.226993447376E+00
  0.249999920593E+01  0.404505285119E+00  0.293890292442E+00
  0.249999920593E+01  0.353550583142E+00  0.353550583142E+00
  0.249999920593E+01  0.293890292442E+00  0.404505285119E+00
  0.249999920593E+01  0.226993447376E+00  0.445499724500E+00
  0.249999920593E+01  0.154507270286E+00  0.475524482135E+00
  0.249999920593E+01  0.782166114229E-01  0.493840248845E+00
  0.249999920593E+01  0.306633226102E-16  0.499996029665E+00
  0.249999920593E+01 -0.782166114229E-01  0.493840248845E+00
  0.249999920593E+01 -0.154507270286E+00  0.475524482135E+00
  0.249999920593E+01 -0.226993447376E+00  0.445499724500E+00
  0.249999920593E+01 -0.293890292442E+00  0.404505285119E+00
  0.249999920593E+01 -0.353550583142E+00  0.353550583142E+00
  0.249999920593E+01 -0.404505285119E+00  0.293890292442E+00
  0.249999920593E+01 -0.445499724500E+00  0.226993447376E+00
  0.249999920593E+01 -0.475524482135E+00  0.154507270286E+00
  0.249999920593E+01 -0.493840248845E+00  0.782166114229E-01
  0.249999920679E+01 -0.499996033955E+00  0.612323399574E-16
  0.199999919174E+01  0.599995958711E+00  0.000000000000E+00
  0.199999919277E+01  0.592609017882E+00  0.938600476286E-01
  0.199999919277E+01  0.570630071155E+00  0.185408949381E+00
  0.199999919277E+01  0.534600318262E+00  0.272392467463E+00
  0.199999919277E+01  0.485406931298E+00  0.352668778976E+00
  0.199999919277E+01  0.424261214711E+00  0.424261214711E+00
  0.199999919277E+01  0.352668778976E+00  0.485406931298E+00
  0.199999919277E+01  0.272392467463E+00  0.534600318262E+00
  0.199999919277E+01  0.185408949381E+00  0.570630071155E+00
  0.199999919277E+01  0.938600476286E-01  0.592609017882E+00
  0.199999919277E+01  0.380060483320E-16  0.599995963834E+00
  0.199999919277E+01 -0.938600476286E-01  0.592609017882E+00
  0.199999919277E+01 -0.185408949381E+00  0.570630071155E+00
  0.199999919277E+01 -0.272392467463E+00  0.534600318262E+00
  0.199999919277E+01 -0.352668778976E+00  0.485406931298E+00
  0.199999919277E+01 -0.424261214711E+00  0.424261214711E+00
  0.199999919277E+01 -0.485406931298E+00  0.352668778976E+00
  0.199999919277E+01 -0.534600318262E+00  0.272392467463E+00
  0.199999919277E+01 -0.570630071155E+00  0.185408949381E+00
  0.199999919277E+01 -0.592609017882E+00  0.938600476286E-01
  0.199999919379E+01 -0.599995968956E+00  0.734788079488E-16
  0.149999917808E+01  0.699995890411E+00  0.000000000000E+00
  0.149999917927E+01  0.691377785291E+00  0.109503483576E+00
  0.149999917927E+01  0.665735658605E+00  0.216310627965E+00
  0.149999917927E+01  0.623700910554E+00  0.317791486800E+00
  0.149999917927E+01  0.566308576140E+00  0.411447264541E+00
  0.149999917927E+01  0.494971845113E+00  0.494971845113E+00
  0.149999917927E+01  0.411447264541E+00  0.566308576140E+00
  0.149999917927E+01  0.317791486800E+00  0.623700910554E+00
  0.149999917927E+01  0.216310627965E+00  0.665735658605E+00
  0.149999917927E+01  0.109503483576E+00  0.691377785291E+00
  0.149999917927E+01  0.429399164084E-16  0.699995896351E+00
  0.149999917927E+01 -0.109503483576E+00  0.691377785291E+00
  0.149999917927E+01 -0.216310627965E+00  0.665735658605E+00
  0.149999917927E+01 -0.317791486800E+00  0.623700910554E+00
  0.149999917927E+01 -0.411447264541E+00  0.566308576140E+00
  0.149999917927E+01 -0.494971845113E+00  0.494971845113E+00
  0.149999917927E+01 -0.566308576140E+00  0.411447264541E+00
  0.149999917927E+01 -0.623700910554E+00  0.317791486800E+00
  0.149999917927E+01 -0.665735658605E+00  0.216310627965E+00
  0.149999917927E+01 -0.691377785291E+00  0.109503483576E+00
  0.149999918046E+01 -0.699995902292E+00  0.857252759403E-16
  0.999999164101E+00  0.799995820504E+00  0.000000000000E+00
  0.999999165450E+00  0.790146551097E+00  0.125146919270E+00
  0.999999165450E+00  0.760841244513E+00  0.247212306049E+00
  0.999999165450E+00  0.712801501401E+00  0.363190505402E+00
  0.999999165450E+00  0.647210219672E+00  0.470225749152E+00
  0.999999165450E+00  0.565682474367E+00  0.565682474367E+00
  0.999999165450E+00  0.470225749152E+00  0.647210219672E+00
  0.999999165450E+00  0.363190505402E+00  0.712801501401E+00
  0.999999165450E+00  0.247212306049E+00  0.760841244513E+00
  0.999999165450E+00  0.125146919270E+00  0.790146551097E+00
  0.999999165450E+00  0.496648170148E-16  0.799995827248E+00
  0.999999165450E+00 -0.125146919270E+00  0.790146551097E+00
  0.999999165450E+00 -0.247212306049E+00  0.760841244513E+00
[...]
POINT_DATA                 317
SCALARS phi float 1
LOOKUP_TABLE default
 -0.104083408559E-15
  0.000000000000E+00
  0.693889390391E-16
  0.152655665886E-15
 -0.152655665886E-15
  0.208166817117E-15
  0.194289029309E-15
 -0.693889390391E-16
 -0.124900090270E-15
  0.555111512313E-16
 -0.138777878078E-16
  0.693889390391E-16
  0.180411241502E-15
  0.124900090270E-15
  0.138777878078E-16
 -0.138777878078E-16
  0.111022302463E-15
  0.138777878078E-15
 -0.138777878078E-16
  0.832667268469E-16
  0.000000000000E+00
  0.693889390391E-16
 -0.138777878078E-16
 -0.277555756156E-15
 -0.235922392733E-15
  0.152655665886E-15
  0.138777878078E-16
  0.138777878078E-15
 -0.166533453694E-15
 -0.138777878078E-16
  0.693889390391E-16
 -0.832667268469E-16
  0.208166817117E-15
  0.208166817117E-15
  0.693889390391E-16
 -0.277555756156E-16
  0.000000000000E+00
 -0.416333634234E-16
 -0.111022302463E-15
 -0.111022302463E-15
  0.124900090270E-15
 -0.832667268469E-16
 -0.124900090270E-15
 -0.138777878078E-15
  0.832667268469E-16
 -0.235922392733E-15
  0.000000000000E+00
 -0.277555756156E-15
  0.277555756156E-16
 -0.124900090270E-15
 -0.402455846427E-15
 -0.555111512313E-16
 -0.416333634234E-15
  0.693889390391E-16
  0.971445146547E-16
  0.000000000000E+00
  0.832667268469E-16
 -0.152655665886E-15
 -0.416333634234E-16
 -0.166533453694E-15
 -0.166533453694E-15
  0.277555756156E-16
  0.555111512313E-16
 -0.277555756156E-16
  0.416333634234E-15
  0.277555756156E-16
  0.138777878078E-15
  0.138777878078E-15
  0.416333634234E-16
  0.124900090270E-15
 -0.138777878078E-15
 -0.138777878078E-16
 -0.138777878078E-16
  0.222044604925E-15
 -0.249800180541E-15
  0.277555756156E-16
  0.138777878078E-16
  0.693889390391E-16
  0.152655665886E-15
 -0.971445146547E-16
  0.832667268469E-16
  0.111022302463E-15
  0.111022302463E-15
 -0.194289029309E-15
  0.832667268469E-16
  0.166533453694E-15
  0.277555756156E-16
  0.194289029309E-15
  0.152655665886E-15
  0.194289029309E-15
  0.180411241502E-15
 -0.416333634234E-16
  0.138777878078E-16
 -0.555111512313E-16
  0.416333634234E-16
 -0.971445146547E-16
  0.319189119580E-15
  0.277555756156E-15
  0.208166817117E-15
 -0.124900090270E-15
  0.138777878078E-16
  0.263677968348E-15
  0.277555756156E-16
 -0.693889390391E-16
 -0.166533453694E-15
  0.888178419700E-15
  0.680011602583E-15
  0.277555756156E-16
  0.693889390391E-16
  0.249800180541E-15
 -0.319189119580E-15
 -0.832667268469E-16
 -0.693889390391E-16
  0.277555756156E-16
 -0.360822483003E-15
  0.138777878078E-15
 -0.152655665886E-15
 -0.971445146547E-16
  0.277555756156E-16
  0.000000000000E+00
 -0.693889390391E-16
 -0.971445146547E-16
 -0.346944695195E-15
  0.416333634234E-16
  0.277555756156E-15
 -0.277555756156E-16
 -0.288657986403E-14
  0.467681449123E-14
 -0.222044604925E-15
  0.555111512313E-15
  0.138777878078E-16
 -0.555111512313E-16
  0.249800180541E-15
 -0.346944695195E-15
  0.180411241502E-15
  0.277555756156E-15
  0.645317133063E-15
  0.756339435526E-15
 -0.263677968348E-15
 -0.173472347598E-15
 -0.340005801291E-15
 -0.666133814775E-15
 -0.568989300120E-15
 -0.568989300120E-15
  0.263677968348E-15
  0.249800180541E-15
  0.124900090270E-15
 -0.179023462721E-14
  0.565519853168E-14
  0.208166817117E-16
 -0.197758476261E-15
  0.721644966006E-15
  0.242861286637E-16
  0.218575157973E-15
  0.607153216592E-16
 -0.714706072102E-15
 -0.125767452008E-14
 -0.861290205822E-15
  0.139385031295E-14
 -0.405925293379E-15
 -0.350414142147E-15
 -0.112757025938E-15
 -0.813585310233E-15
 -0.267147415300E-15
 -0.294902990916E-15
  0.104083408559E-15
 -0.416333634234E-15
  0.117961196366E-15
  0.624500451352E-16
  0.240085729075E-14
  0.645317133063E-15
 -0.131838984174E-15
 -0.721644966006E-15
  0.346944695195E-16
  0.134614541736E-14
  0.166533453694E-15
 -0.430211422042E-15
  0.181799020282E-14
  0.652256026967E-15
  0.104083408559E-14
  0.137390099297E-14
  0.971445146547E-16
  0.541233724505E-15
  0.155431223448E-14
  0.895117313604E-15
 -0.319189119580E-15
 -0.763278329430E-15
  0.832667268469E-16
  0.589805981832E-15
 -0.304617442382E-14
 -0.138777878078E-15
 -0.185962356625E-14
  0.138777878078E-14
 -0.308086889333E-14
 -0.160982338571E-14
 -0.233146835171E-14
  0.413558076673E-14
  0.416333634234E-15
 -0.235922392733E-14
  0.488498130835E-14
 -0.308086889333E-14
 -0.172084568817E-14
  0.277555756156E-16
 -0.804911692853E-15
 -0.999200722163E-15
  0.999200722163E-15
 -0.355271367880E-14
 -0.832667268469E-16
 -0.180411241502E-14
 -0.119348975147E-14
 -0.349720252757E-14
  0.144328993201E-14
  0.474620343027E-14
 -0.446864767412E-14
  0.782707232361E-14
 -0.982547376793E-14
 -0.549560397189E-14
 -0.144328993201E-14
 -0.754951656745E-14
  0.693889390391E-14
  0.127675647832E-14
  0.782707232361E-14
 -0.416333634234E-14
 -0.249800180541E-14
 -0.571764857682E-14
  0.721644966006E-14
 -0.388578058619E-15
 -0.199840144433E-14
  0.194289029309E-14
  0.352495810318E-14
  0.324740234703E-14
 -0.305311331772E-15
 -0.588418203051E-14
 -0.101030295241E-13
  0.111022302463E-14
  0.194289029309E-14
  0.255351295664E-14
  0.133226762955E-14
  0.660582699652E-14
 -0.832667268469E-14
 -0.466293670343E-14
  0.444089209850E-15
 -0.122124532709E-14
  0.399680288865E-14
 -0.127675647832E-14
  0.877076189454E-14
  0.499600361081E-15
  0.294209101526E-14
 -0.394129173742E-14
 -0.321964677141E-14
  0.111022302463E-14
 -0.510702591328E-14
 -0.610622663544E-15
 -0.188737914186E-14
 -0.482947015712E-14
 -0.277555756156E-15
 -0.288657986403E-14
  0.932587340685E-14
 -0.277555756156E-15
  0.227595720048E-14
  0.222044604925E-14
 -0.666133814775E-15
  0.904831765070E-14
  0.149880108324E-14
  0.155431223448E-14
 -0.471844785466E-14
 -0.277555756156E-15
  0.471844785466E-14
 -0.421884749358E-14
 -0.111022302463E-14
  0.555111512313E-16
  0.183186799063E-14
 -0.122124532709E-14
 -0.277555756156E-15
 -0.555111512313E-16
 -0.115463194561E-13
 -0.366373598126E-14
  0.704991620637E-14
 -0.238697950294E-14
 -0.943689570931E-14
  0.111022302463E-14
 -0.305311331772E-14
 -0.399680288865E-14
  0.444089209850E-15
 -0.588418203051E-14
  0.727196081129E-14
  0.199840144433E-14
 -0.105471187339E-14
  0.516253706451E-14
 -0.410782519111E-14
  0.227595720048E-14
  0.560662627436E-14
  0.305311331772E-14
  0.888178419700E-14
 -0.216493489802E-14
 -0.177635683940E-14
  0.222044604925E-14
  0.471844785466E-15
  0.582867087928E-15
 -0.507927033766E-14
 -0.291433543964E-14
 -0.532907051820E-14
  0.699440505514E-14
  0.247024622979E-14
  0.832667268469E-16
 -0.535682609382E-14
  0.402455846427E-14
 -0.371924713249E-14
  0.294209101526E-14
  0.116573417586E-14
 -0.260902410787E-14
 -0.238697950294E-14
 -0.444089209850E-15
  0.380251385934E-14
 -0.280331313718E-14
  0.249800180541E-14
 -0.610622663544E-15
SCALARS phi_mu float 1
LOOKUP_TABLE default
  0.481163372417E-01
  0.881449632835E-01
  0.873229452743E-01
  0.865211786963E-01
  0.857593947235E-01
  0.850563510056E-01
  0.844293588123E-01
  0.838938567722E-01
  0.834630307227E-01
  0.831474890311E-01
  0.829550013809E-01
  0.828903074570E-01
  0.829550002385E-01
  0.831474867744E-01
  0.834630274074E-01
  0.838938524798E-01
  0.844293536485E-01
  0.850563450976E-01
  0.857593882167E-01
  0.865211717510E-01
  0.873229380616E-01
  0.881449263921E-01
  0.111995513802E+00
  0.110383297866E+00
  0.108810780103E+00
  0.107316681052E+00
  0.105937790390E+00
  0.104708060981E+00
  0.103657772844E+00
  0.102812787560E+00
  0.102193911469E+00
  0.101816383356E+00
  0.101689499216E+00
  0.101816383356E+00
  0.102193911469E+00
  0.102812787560E+00
  0.103657772844E+00
  0.104708060981E+00
  0.105937790390E+00
  0.107316681052E+00
  0.108810780103E+00
  0.110383297866E+00
  0.111995513666E+00
  0.126944184038E+00
  0.124565752689E+00
  0.122245886304E+00
  0.120041707600E+00
  0.118007490771E+00
  0.116193324988E+00
  0.114643881032E+00
  0.113397311356E+00
  0.112484310643E+00
  0.111927360000E+00
  0.111740173400E+00
  0.111927360000E+00
  0.112484310643E+00
  0.113397311356E+00
  0.114643881032E+00
  0.116193324988E+00
  0.118007490771E+00
  0.120041707600E+00
  0.122245886304E+00
  0.124565752689E+00
  0.126944183852E+00
  0.133582143550E+00
  0.130466794721E+00
  0.127428156224E+00
  0.124541049316E+00
  0.121876564152E+00
  0.119500309198E+00
  0.117470795738E+00
  0.115837997129E+00
  0.114642118292E+00
  0.113912605732E+00
  0.113667422471E+00
  0.113912605732E+00
  0.114642118292E+00
  0.115837997129E+00
  0.117470795738E+00
  0.119500309198E+00
  0.121876564152E+00
  0.124541049316E+00
  0.127428156224E+00
  0.130466794721E+00
  0.133582143336E+00
  0.131071969267E+00
  0.127261781544E+00
  0.123545413386E+00
  0.120014374010E+00
  0.116755609325E+00
  0.113849360933E+00
  0.111367190314E+00
  0.109370216746E+00
  0.107907612348E+00
  0.107015391292E+00
  0.106715523023E+00
  0.107015391292E+00
  0.107907612348E+00
  0.109370216746E+00
  0.111367190314E+00
  0.113849360933E+00
  0.116755609325E+00
  0.120014374010E+00
  0.123545413386E+00
  0.127261781544E+00
  0.131071969067E+00
  0.117395544870E+00
  0.112958135186E+00
  0.108629989305E+00
  0.104517680493E+00
  0.100722467439E+00
  0.973378008853E-01
  0.944470225549E-01
  0.921213130045E-01
  0.904179389217E-01
  0.893788430296E-01
  0.890296113176E-01
  0.893788430296E-01
  0.904179389217E-01
  0.921213130045E-01
  0.944470225549E-01
  0.973378008853E-01
  0.100722467439E+00
  0.104517680493E+00
  0.108629989305E+00
  0.112958135186E+00
  0.117395544766E+00
  0.890260315177E-01
  0.840809000369E-01
  0.792575340239E-01
  0.746747008409E-01
  0.704452450506E-01
  0.666733098913E-01
  0.634517729250E-01
  0.608599590833E-01
  0.589616874248E-01
  0.578036996978E-01
  0.574145094032E-01
  0.578036996978E-01
  0.589616874248E-01
  0.608599590833E-01
  0.634517729250E-01
  0.666733098913E-01
  0.704452450507E-01
  0.746747008409E-01
  0.792575340239E-01
  0.840809000369E-01
  0.890260316843E-01
  0.402983958124E-01
  0.350761642666E-01
  0.299825209881E-01
  0.251428887945E-01
  0.206764354921E-01
  0.166931399845E-01
  0.132910842270E-01
  0.105540381232E-01
  0.854939683167E-02
  0.732652127416E-02
  0.691552270541E-02
  0.732652127417E-02
  0.854939683165E-02
  0.105540381232E-01
  0.132910842271E-01
  0.166931399845E-01
  0.206764354920E-01
  0.251428887945E-01
  0.299825209881E-01
  0.350761642666E-01
  0.402983966427E-01
 -0.374228940160E-01
 -0.424287438281E-01
 -0.473113342361E-01
 -0.519504383969E-01
 -0.562318261699E-01
 -0.600500755787E-01
 -0.633111686513E-01
 -0.659348064528E-01
 -0.678563863135E-01
 -0.690285925597E-01
 -0.694225615834E-01
 -0.690285925597E-01
 -0.678563863135E-01
 -0.659348064528E-01
 -0.633111686512E-01
 -0.600500755787E-01
 -0.562318261699E-01
 -0.519504383969E-01
 -0.473113342361E-01
 -0.424287438281E-01
 -0.374228914904E-01
 -0.158037936658E+00
 -0.161183330225E+00
 -0.164249009074E+00
 -0.167161807843E+00
 -0.169850003761E+00
 -0.172247404521E+00
 -0.174294978163E+00
 -0.175942306625E+00
 -0.177148827215E+00
 -0.177884831391E+00
 -0.178132196288E+00
 -0.177884830961E+00
 -0.177148826366E+00
 -0.175942305378E+00
 -0.174294976548E+00
 -0.172247402579E+00
 -0.169850001538E+00
 -0.167161805395E+00
 -0.164249006461E+00
 -0.161183327512E+00
 -0.158042856441E+00
 -0.244793960972E+00
 -0.247415850265E+00
 -0.249973197609E+00
 -0.252403014512E+00
 -0.254645470818E+00
 -0.256645349811E+00
 -0.258353407831E+00
 -0.259727586823E+00
 -0.260734049939E+00
 -0.261348014716E+00
 -0.261554363304E+00
 -0.261348014716E+00
 -0.260734049939E+00
 -0.259727586823E+00
 -0.258353407831E+00
 -0.256645349811E+00
 -0.254645470818E+00
 -0.252403014512E+00
 -0.249973197609E+00
 -0.247415850265E+00
 -0.244793924745E+00
 -0.289555690283E+00
 -0.291548846528E+00
 -0.293492938437E+00
 -0.295340081881E+00
 -0.297044794059E+00
 -0.298565099299E+00
 -0.299863562641E+00
 -0.300908211607E+00
 -0.301673323474E+00
 -0.302140058647E+00
 -0.302296924557E+00
 -0.302140058647E+00
 -0.301673323474E+00
 -0.300908211607E+00
 -0.299863562641E+00
 -0.298565099299E+00
 -0.297044794059E+00
 -0.295340081881E+00
 -0.293492938437E+00
 -0.291548846528E+00
 -0.289555662015E+00
 -0.317373927076E+00
 -0.318712397850E+00
 -0.320017920604E+00
 -0.321258339220E+00
 -0.322403110476E+00
 -0.323424046305E+00
 -0.324296007877E+00
 -0.324997524605E+00
 -0.325511322819E+00
 -0.325824751102E+00
 -0.325930091809E+00
 -0.325824751102E+00
 -0.325511322819E+00
 -0.324997524605E+00
 -0.324296007877E+00
 -0.323424046305E+00
 -0.322403110476E+00
 -0.321258339220E+00
 -0.320017920604E+00
 -0.318712397850E+00
 -0.317373907448E+00
 -0.332920876708E+00
 -0.333592533543E+00
 -0.334247760287E+00
 -0.334870312018E+00
 -0.335444859448E+00
 -0.335957255311E+00
 -0.336394882721E+00
 -0.336746965839E+00
 -0.337004835209E+00
 -0.337162141233E+00
 -0.337215010513E+00
 -0.337162141232E+00
 -0.337004835209E+00
 -0.336746965839E+00
 -0.336394882721E+00
 -0.335957255311E+00
 -0.335444859448E+00
 -0.334870312018E+00
 -0.334247760287E+00
 -0.333592533543E+00
 -0.332920691602E+00
 -0.337942965660E+00
 -0.158040428381E+00
 -0.161186335406E+00
 -0.164251978694E+00
 -0.167164743657E+00
 -0.169852908354E+00
 -0.172250281249E+00
 -0.174297831066E+00
 -0.175945140331E+00
 -0.177151646825E+00
 -0.177887642352E+00
 -0.178135004260E+00
 -0.177887641679E+00
 -0.177151645496E+00
 -0.175945138379E+00
 -0.174297828539E+00
 -0.172250278209E+00
 -0.169852904876E+00
 -0.167164739826E+00
 -0.164251974605E+00
 -0.161186331159E+00
 -0.158046371305E+00
SCALARS phi_sigma float 1
LOOKUP_TABLE default
 -0.481163372417E-01
 -0.881449632835E-01
 -0.873229452743E-01
 -0.865211786963E-01
 -0.857593947235E-01
 -0.850563510056E-01
 -0.844293588123E-01
 -0.838938567722E-01
 -0.834630307227E-01
 -0.831474890311E-01
 -0.829550013809E-01
 -0.828903074570E-01
 -0.829550002385E-01
 -0.831474867744E-01
 -0.834630274074E-01
 -0.838938524798E-01
 -0.844293536485E-01
 -0.850563450976E-01
 -0.857593882167E-01
 -0.865211717510E-01
 -0.873229380616E-01
 -0.881449263921E-01
 -0.111995513802E+00
 -0.110383297866E+00
 -0.108810780103E+00
 -0.107316681052E+00
 -0.105937790390E+00
 -0.104708060981E+00
 -0.103657772844E+00
 -0.102812787560E+00
 -0.102193911469E+00
 -0.101816383356E+00
 -0.101689499216E+00
 -0.101816383356E+00
 -0.102193911469E+00
 -0.102812787560E+00
 -0.103657772844E+00
 -0.104708060981E+00
 -0.105937790390E+00
 -0.107316681052E+00
 -0.108810780103E+00
 -0.110383297866E+00
 -0.111995513666E+00
 -0.126944184038E+00
 -0.124565752689E+00
 -0.122245886304E+00
 -0.120041707600E+00
 -0.118007490771E+00
 -0.116193324988E+00
 -0.114643881032E+00
 -0.113397311356E+00
 -0.112484310643E+00
 -0.111927360000E+00
 -0.111740173400E+00
 -0.111927360000E+00
 -0.112484310643E+00
 -0.113397311356E+00
 -0.114643881032E+00
 -0.116193324988E+00
 -0.118007490771E+00
 -0.120041707600E+00
 -0.122245886304E+00
 -0.124565752689E+00
 -0.126944183852E+00
 -0.133582143550E+00
 -0.130466794721E+00
 -0.127428156224E+00
 -0.124541049316E+00
 -0.121876564152E+00
 -0.119500309198E+00
 -0.117470795738E+00
 -0.115837997129E+00
 -0.114642118292E+00
 -0.113912605732E+00
 -0.113667422471E+00
 -0.113912605732E+00
 -0.114642118292E+00
 -0.115837997129E+00
 -0.117470795738E+00
 -0.119500309198E+00
 -0.121876564152E+00
 -0.124541049316E+00
 -0.127428156224E+00
 -0.130466794721E+00
 -0.133582143336E+00
 -0.131071969267E+00
 -0.127261781544E+00
 -0.123545413386E+00
 -0.120014374010E+00
 -0.116755609325E+00
 -0.113849360933E+00
 -0.111367190314E+00
 -0.109370216746E+00
 -0.107907612348E+00
 -0.107015391292E+00
 -0.106715523023E+00
 -0.107015391292E+00
 -0.107907612348E+00
 -0.109370216746E+00
 -0.111367190314E+00
 -0.113849360933E+00
 -0.116755609325E+00
 -0.120014374010E+00
 -0.123545413386E+00
 -0.127261781544E+00
 -0.131071969067E+00
 -0.117395544870E+00
 -0.112958135186E+00
 -0.108629989305E+00
 -0.104517680493E+00
 -0.100722467439E+00
 -0.973378008853E-01
 -0.944470225549E-01
 -0.921213130045E-01
 -0.904179389217E-01
 -0.893788430296E-01
 -0.890296113176E-01
 -0.893788430296E-01
 -0.904179389217E-01
 -0.921213130045E-01
 -0.944470225549E-01
 -0.973378008853E-01
 -0.100722467439E+00
 -0.104517680493E+00
 -0.108629989305E+00
 -0.112958135186E+00
 -0.117395544766E+00
 -0.890260315177E-01
 -0.840809000369E-01
 -0.792575340239E-01
 -0.746747008409E-01
 -0.704452450506E-01
 -0.666733098913E-01
 -0.634517729250E-01
 -0.608599590833E-01
 -0.589616874248E-01
 -0.578036996978E-01
 -0.574145094032E-01
 -0.578036996978E-01
 -0.589616874248E-01
 -0.608599590833E-01
 -0.634517729250E-01
 -0.666733098913E-01
 -0.704452450507E-01
 -0.746747008409E-01
 -0.792575340239E-01
 -0.840809000369E-01
 -0.890260316843E-01
 -0.402983958124E-01
 -0.350761642666E-01
 -0.299825209881E-01
 -0.251428887945E-01
 -0.206764354921E-01
 -0.166931399845E-01
 -0.132910842270E-01
 -0.105540381232E-01
 -0.854939683167E-02
 -0.732652127416E-02
 -0.691552270541E-02
 -0.732652127417E-02
 -0.854939683165E-02
 -0.105540381232E-01
 -0.132910842271E-01
 -0.166931399845E-01
 -0.206764354920E-01
 -0.251428887945E-01
 -0.299825209881E-01
 -0.350761642666E-01
 -0.402983966427E-01
  0.374228940160E-01
  0.424287438281E-01
  0.473113342361E-01
  0.519504383969E-01
  0.562318261699E-01
  0.600500755787E-01
  0.633111686513E-01
  0.659348064528E-01
  0.678563863135E-01
  0.690285925597E-01
  0.694225615834E-01
  0.690285925597E-01
  0.678563863135E-01
  0.659348064528E-01
  0.633111686512E-01
  0.600500755787E-01
  0.562318261699E-01
  0.519504383969E-01
  0.473113342361E-01
  0.424287438281E-01
  0.374228914904E-01
  0.158037936658E+00
  0.161183330225E+00
  0.164249009074E+00
  0.167161807843E+00
  0.169850003761E+00
  0.172247404521E+00
  0.174294978163E+00
  0.175942306625E+00
  0.177148827215E+00
  0.177884831391E+00
  0.178132196288E+00
  0.177884830961E+00
  0.177148826366E+00
  0.175942305378E+00
  0.174294976548E+00
  0.172247402579E+00
  0.169850001538E+00
  0.167161805395E+00
  0.164249006461E+00
  0.161183327512E+00
  0.158042856441E+00
  0.244793960972E+00
  0.247415850265E+00
  0.249973197609E+00
  0.252403014512E+00
  0.254645470818E+00
  0.256645349811E+00
  0.258353407831E+00
  0.259727586823E+00
  0.260734049939E+00
  0.261348014716E+00
  0.261554363304E+00
  0.261348014716E+00
  0.260734049939E+00
  0.259727586823E+00
  0.258353407831E+00
  0.256645349811E+00
  0.254645470818E+00
  0.252403014512E+00
  0.249973197609E+00
  0.247415850265E+00
  0.244793924745E+00
  0.289555690283E+00
  0.291548846528E+00
  0.293492938437E+00
  0.295340081881E+00
  0.297044794059E+00
  0.298565099299E+00
  0.299863562641E+00
  0.300908211607E+00
  0.301673323474E+00
  0.302140058647E+00
  0.302296924557E+00
  0.302140058647E+00
  0.301673323474E+00
  0.300908211607E+00
  0.299863562641E+00
  0.298565099299E+00
  0.297044794059E+00
  0.295340081881E+00
  0.293492938437E+00
  0.291548846528E+00
  0.289555662015E+00
  0.317373927076E+00
  0.318712397850E+00
  0.320017920604E+00
  0.321258339220E+00
  0.322403110476E+00
  0.323424046305E+00
  0.324296007877E+00
  0.324997524605E+00
  0.325511322819E+00
  0.325824751102E+00
  0.325930091809E+00
  0.325824751102E+00
  0.325511322819E+00
  0.324997524605E+00
  0.324296007877E+00
  0.323424046305E+00
  0.322403110476E+00
  0.321258339220E+00
  0.320017920604E+00
  0.318712397850E+00
  0.317373907448E+00
  0.332920876708E+00
  0.333592533543E+00
  0.334247760287E+00
  0.334870312018E+00
  0.335444859448E+00
  0.335957255311E+00
  0.336394882721E+00
  0.336746965839E+00
  0.337004835209E+00
  0.337162141233E+00
  0.337215010513E+00
  0.337162141233E+00
  0.337004835209E+00
  0.336746965839E+00
  0.336394882721E+00
  0.335957255311E+00
  0.335444859448E+00
  0.334870312018E+00
  0.334247760287E+00
  0.333592533543E+00
  0.332920691602E+00
  0.337942965660E+00
  0.158040428381E+00
  0.161186335406E+00
  0.164251978694E+00
  0.167164743657E+00
  0.169852908354E+00
  0.172250281249E+00
  0.174297831066E+00
  0.175945140331E+00
  0.177151646825E+00
  0.177887642352E+00
  0.178135004260E+00
  0.177887641679E+00
  0.177151645496E+00
  0.175945138379E+00