# vtk DataFile Version 3.0
MachLine results file. Generated by MachLine, USU AeroLab (c) 2022.
ASCII
DATASET POLYDATA
POINTS                 317 float
  0.500000000000E+01  0.000000000000E+00  0.000000000000E+00
  0.450000000000E+01  0.100000000000E+00  0.000000000000E+00
  0.450000000000E+01  0.987688340595E-01  0.156434465040E-01
  0.450000000000E+01  0.951056516295E-01  0.309016994375E-01
  0.450000000000E+01  0.891006524188E-01  0.453990499740E-01
  0.450000000000E+01  0.809016994375E-01  0.587785252292E-01
  0.450000000000E+01  0.707106781187E-01  0.707106781187E-01
  0.450000000000E+01  0.587785252292E-01  0.809016994375E-01
  0.450000000000E+01  0.453990499740E-01  0.891006524188E-01
  0.450000000000E+01  0.309016994375E-01  0.951056516295E-01
  0.450000000000E+01  0.156434465040E-01  0.987688340595E-01
  0.450000000000E+01  0.612323399574E-17  0.100000000000E+00
  0.450000000000E+01 -0.156434465040E-01  0.987688340595E-01
  0.450000000000E+01 -0.309016994375E-01  0.951056516295E-01
  0.450000000000E+01 -0.453990499740E-01  0.891006524188E-01
  0.450000000000E+01 -0.587785252292E-01  0.809016994375E-01
  0.450000000000E+01 -0.707106781187E-01  0.707106781187E-01
  0.450000000000E+01 -0.809016994375E-01  0.587785252292E-01
  0.450000000000E+01 -0.891006524188E-01  0.453990499740E-01
  0.450000000000E+01 -0.951056516295E-01  0.309016994375E-01
  0.450000000000E+01 -0.987688340595E-01  0.156434465040E-01
  0.450000000000E+01 -0.100000000000E+00  0.122464679915E-16
  0.400000000000E+01  0.200000000000E+00  0.000000000000E+00
  0.400000000000E+01  0.197537668119E+00  0.312868930080E-01
  0.400000000000E+01  0.190211303259E+00  0.618033988750E-01
  0.400000000000E+01  0.178201304838E+00  0.907980999479E-01
  0.400000000000E+01  0.161803398875E+00  0.117557050458E+00
  0.400000000000E+01  0.141421356237E+00  0.141421356237E+00
  0.400000000000E+01  0.117557050458E+00  0.161803398875E+00
  0.400000000000E+01  0.907980999479E-01  0.178201304838E+00
  0.400000000000E+01  0.618033988750E-01  0.190211303259E+00
  0.400000000000E+01  0.312868930080E-01  0.197537668119E+00
  0.400000000000E+01  0.122464679915E-16  0.200000000000E+00
  0.400000000000E+01 -0.312868930080E-01  0.197537668119E+00
  0.400000000000E+01 -0.618033988750E-01  0.190211303259E+00
  0.400000000000E+01 -0.907980999479E-01  0.178201304838E+00
  0.400000000000E+01 -0.117557050458E+00  0.161803398875E+00
  0.400000000000E+01 -0.141421356237E+00  0.141421356237E+00
  0.400000000000E+01 -0.161803398875E+00  0.117557050458E+00
  0.400000000000E+01 -0.178201304838E+00  0.907980999479E-01
  0.400000000000E+01 -0.190211303259E+00  0.618033988750E-01
  0.400000000000E+01 -0.197537668119E+00  0.312868930080E-01
  0.400000000000E+01 -0.200000000000E+00  0.244929359829E-16
  0.350000000000E+01  0.300000000000E+00  0.000000000000E+00
  0.350000000000E+01  0.296306502179E+00  0.469303395121E-01
  0.350000000000E+01  0.285316954889E+00  0.927050983125E-01
  0.350000000000E+01  0.267301957257E+00  0.136197149922E+00
  0.350000000000E+01  0.242705098312E+00  0.176335575688E+00
  0.350000000000E+01  0.212132034356E+00  0.212132034356E+00
  0.350000000000E+01  0.176335575688E+00  0.242705098312E+00
  0.350000000000E+01  0.136197149922E+00  0.267301957257E+00
  0.350000000000E+01  0.927050983125E-01  0.285316954889E+00
  0.350000000000E+01  0.469303395121E-01  0.296306502179E+00
  0.350000000000E+01  0.183697019872E-16  0.300000000000E+00
  0.350000000000E+01 -0.469303395121E-01  0.296306502179E+00
  0.350000000000E+01 -0.927050983125E-01  0.285316954889E+00
  0.350000000000E+01 -0.136197149922E+00  0.267301957257E+00
  0.350000000000E+01 -0.176335575688E+00  0.242705098312E+00
  0.350000000000E+01 -0.212132034356E+00  0.212132034356E+00
  0.350000000000E+01 -0.242705098312E+00  0.176335575688E+00
  0.350000000000E+01 -0.267301957257E+00  0.136197149922E+00
  0.350000000000E+01 -0.285316954889E+00  0.927050983125E-01
  0.350000000000E+01 -0.296306502179E+00  0.469303395121E-01
  0.350000000000E+01 -0.300000000000E+00  0.367394039744E-16
  0.300000000000E+01  0.400000000000E+00  0.000000000000E+00
  0.300000000000E+01  0.395075336238E+00  0.625737860161E-01
  0.300000000000E+01  0.380422606518E+00  0.123606797750E+00
  0.300000000000E+01  0.356402609675E+00  0.181596199896E+00
  0.300000000000E+01  0.323606797750E+00  0.235114100917E+00
  0.300000000000E+01  0.282842712475E+00  0.282842712475E+00
  0.300000000000E+01  0.235114100917E+00  0.323606797750E+00
  0.300000000000E+01  0.181596199896E+00  0.356402609675E+00
  0.300000000000E+01  0.123606797750E+00  0.380422606518E+00
  0.300000000000E+01  0.625737860161E-01  0.395075336238E+00
  0.300000000000E+01  0.244929359829E-16  0.400000000000E+00
  0.300000000000E+01 -0.625737860161E-01  0.395075336238E+00
  0.300000000000E+01 -0.123606797750E+00  0.380422606518E+00
  0.300000000000E+01 -0.181596199896E+00  0.356402609675E+00
  0.300000000000E+01 -0.235114100917E+00  0.323606797750E+00
  0.300000000000E+01 -0.282842712475E+00  0.282842712475E+00
  0.300000000000E+01 -0.323606797750E+00  0.235114100917E+00
  0.300000000000E+01 -0.356402609675E+00  0.181596199896E+00
  0.300000000000E+01 -0.380422606518E+00  0.123606797750E+00
  0.300000000000E+01 -0.395075336238E+00  0.625737860161E-01
  0.300000000000E+01 -0.400000000000E+00  0.489858719659E-16
  0.250000000000E+01  0.500000000000E+00  0.000000000000E+00
  0.250000000000E+01  0.493844170298E+00  0.782172325201E-01
  0.250000000000E+01  0.475528258148E+00  0.154508497187E+00
  0.250000000000E+01  0.445503262094E+00  0.226995249870E+00
  0.250000000000E+01  0.404508497187E+00  0.293892626146E+00
  0.250000000000E+01  0.353553390593E+00  0.353553390593E+00
  0.250000000000E+01  0.293892626146E+00  0.404508497187E+00
  0.250000000000E+01  0.226995249870E+00  0.445503262094E+00
  0.250000000000E+01  0.154508497187E+00  0.475528258148E+00
  0.250000000000E+01  0.782172325201E-01  0.493844170298E+00
  0.250000000000E+01  0.306161699787E-16  0.500000000000E+00
  0.250000000000E+01 -0.782172325201E-01  0.493844170298E+00
  0.250000000000E+01 -0.154508497187E+00  0.475528258148E+00
  0.250000000000E+01 -0.226995249870E+00  0.445503262094E+00
  0.250000000000E+01 -0.293892626146E+00  0.404508497187E+00
  0.250000000000E+01 -0.353553390593E+00  0.353553390593E+00
  0.250000000000E+01 -0.404508497187E+00  0.293892626146E+00
  0.250000000000E+01 -0.445503262094E+00  0.226995249870E+00
  0.250000000000E+01 -0.475528258148E+00  0.154508497187E+00
  0.250000000000E+01 -0.493844170298E+00  0.782172325201E-01
  0.250000000000E+01 -0.500000000000E+00  0.612323399574E-16
  0.200000000000E+01  0.600000000000E+00  0.000000000000E+00
  0.200000000000E+01  0.592613004357E+00  0.938606790241E-01
  0.200000000000E+01  0.570633909777E+00  0.185410196625E+00
  0.200000000000E+01  0.534603914513E+00  0.272394299844E+00
  0.200000000000E+01  0.485410196625E+00  0.352671151375E+00
  0.200000000000E+01  0.424264068712E+00  0.424264068712E+00
  0.200000000000E+01  0.352671151375E+00  0.485410196625E+00
  0.200000000000E+01  0.272394299844E+00  0.534603914513E+00
  0.200000000000E+01  0.185410196625E+00  0.570633909777E+00
  0.200000000000E+01  0.938606790241E-01  0.592613004357E+00
  0.200000000000E+01  0.367394039744E-16  0.600000000000E+00
  0.200000000000E+01 -0.938606790241E-01  0.592613004357E+00
  0.200000000000E+01 -0.185410196625E+00  0.570633909777E+00
  0.200000000000E+01 -0.272394299844E+00  0.534603914513E+00
  0.200000000000E+01 -0.352671151375E+00  0.485410196625E+00
  0.200000000000E+01 -0.424264068712E+00  0.424264068712E+00
  0.200000000000E+01 -0.485410196625E+00  0.352671151375E+00
  0.200000000000E+01 -0.534603914513E+00  0.272394299844E+00
  0.200000000000E+01 -0.570633909777E+00  0.185410196625E+00
  0.200000000000E+01 -0.592613004357E+00  0.938606790241E-01
  0.200000000000E+01 -0.600000000000E+00  0.734788079488E-16
  0.150000000000E+01  0.700000000000E+00  0.000000000000E+00
  0.150000000000E+01  0.691381838417E+00  0.109504125528E+00
  0.150000000000E+01  0.665739561407E+00  0.216311896062E+00
  0.150000000000E+01  0.623704566932E+00  0.317793349818E+00
  0.150000000000E+01  0.566311896062E+00  0.411449676605E+00
  0.150000000000E+01  0.494974746831E+00  0.494974746831E+00
  0.150000000000E+01  0.411449676605E+00  0.566311896062E+00
  0.150000000000E+01  0.317793349818E+00  0.623704566932E+00
  0.150000000000E+01  0.216311896062E+00  0.665739561407E+00
  0.150000000000E+01  0.109504125528E+00  0.691381838417E+00
  0.150000000000E+01  0.428626379702E-16  0.700000000000E+00
  0.150000000000E+01 -0.109504125528E+00  0.691381838417E+00
  0.150000000000E+01 -0.216311896062E+00  0.665739561407E+00
  0.150000000000E+01 -0.317793349818E+00  0.623704566932E+00
  0.150000000000E+01 -0.411449676605E+00  0.566311896062E+00
  0.150000000000E+01 -0.494974746831E+00  0.494974746831E+00
  0.150000000000E+01 -0.566311896062E+00  0.411449676605E+00
  0.150000000000E+01 -0.623704566932E+00  0.317793349818E+00
  0.150000000000E+01 -0.665739561407E+00  0.216311896062E+00
  0.150000000000E+01 -0.691381838417E+00  0.109504125528E+00
  0.150000000000E+01 -0.700000000000E+00  0.857252759403E-16
  0.100000000000E+01  0.800000000000E+00  0.000000000000E+00
  0.100000000000E+01  0.790150672476E+00  0.125147572032E+00
  0.100000000000E+01  0.760845213036E+00  0.247213595500E+00
  0.100000000000E+01  0.712805219351E+00  0.363192399792E+00
  0.100000000000E+01  0.647213595500E+00  0.470228201834E+00
  0.100000000000E+01  0.565685424949E+00  0.565685424949E+00
  0.100000000000E+01  0.470228201834E+00  0.647213595500E+00
  0.100000000000E+01  0.363192399792E+00  0.712805219351E+00
  0.100000000000E+01  0.247213595500E+00  0.760845213036E+00
  0.100000000000E+01  0.125147572032E+00  0.790150672476E+00
  0.100000000000E+01  0.489858719659E-16  0.800000000000E+00
  0.100000000000E+01 -0.125147572032E+00  0.790150672476E+00
  0.100000000000E+01 -0.247213595500E+00  0.760845213036E+00
[...]
CELL_DATA                 560
SCALARS sigma float 1
LOOKUP_TABLE default
  0.195534723577E+00
  0.195534723577E+00
  0.195534723577E+00
  0.195534723577E+00
  0.195534723577E+00
  0.195534723577E+00
  0.195534723577E+00
  0.195534723577E+00
  0.195534723577E+00
  0.195534723577E+00
  0.195534723577E+00
  0.195534723577E+00
  0.195534723577E+00
  0.195534723577E+00
  0.195534723577E+00
  0.195534723577E+00
  0.195534723577E+00
  0.195534723577E+00
  0.195534723577E+00
  0.195534723577E+00
  0.195534723577E+00
  0.195534723577E+00
  0.195534723577E+00
  0.195534723577E+00
  0.195534723577E+00
  0.195534723578E+00
  0.195534723577E+00
  0.195534723577E+00
  0.195534723576E+00
  0.195534723576E+00
  0.195534723576E+00
  0.195534723577E+00
  0.195534723577E+00
  0.195534723577E+00
  0.195534723577E+00
  0.195534723577E+00
  0.195534723577E+00
  0.195534723577E+00
  0.195534723577E+00
  0.195534723577E+00
  0.195534723577E+00
  0.195534723577E+00
  0.195534723577E+00
  0.195534723577E+00
  0.195534723577E+00
  0.195534723578E+00
  0.195534723577E+00
  0.195534723577E+00
  0.195534723576E+00
  0.195534723576E+00
  0.195534723576E+00
  0.195534723577E+00
  0.195534723577E+00
  0.195534723577E+00
  0.195534723577E+00
  0.195534723577E+00
  0.195534723577E+00
  0.195534723577E+00
  0.195534723577E+00
  0.195534723577E+00
  0.195534723577E+00
  0.195534723578E+00
  0.195534723578E+00
  0.195534723578E+00
  0.195534723578E+00
  0.195534723577E+00
  0.195534723577E+00
  0.195534723577E+00
  0.195534723577E+00
  0.195534723578E+00
  0.195534723578E+00
  0.195534723577E+00
  0.195534723577E+00
  0.195534723577E+00
  0.195534723577E+00
  0.195534723578E+00
  0.195534723578E+00
  0.195534723578E+00
  0.195534723578E+00
  0.195534723577E+00
  0.195534723577E+00
  0.195534723578E+00
  0.195534723578E+00
  0.195534723578E+00
  0.195534723578E+00
  0.195534723577E+00
  0.195534723577E+00
  0.195534723577E+00
  0.195534723577E+00
  0.195534723578E+00
  0.195534723578E+00
  0.195534723577E+00
  0.195534723577E+00
  0.195534723577E+00
  0.195534723577E+00
  0.195534723578E+00
  0.195534723578E+00
  0.195534723578E+00
  0.195534723578E+00
  0.195534723577E+00
  0.195534723577E+00
  0.195534723576E+00
  0.195534723576E+00
  0.195534723576E+00
  0.195534723576E+00
  0.195534723576E+00
  0.195534723576E+00
  0.195534723578E+00
  0.195534723578E+00
  0.195534723578E+00
  0.195534723578E+00
  0.195534723577E+00
  0.195534723577E+00
  0.195534723575E+00
  0.195534723576E+00
  0.195534723576E+00
  0.195534723576E+00
  0.195534723576E+00
  0.195534723576E+00
  0.195534723577E+00
  0.195534723577E+00
  0.195534723576E+00
  0.195534723576E+00
  0.195534723576E+00
  0.195534723576E+00
  0.195534723576E+00
  0.195534723576E+00
  0.195534723578E+00
  0.195534723578E+00
  0.195534723578E+00
  0.195534723578E+00
  0.195534723577E+00
  0.195534723577E+00
  0.195534723575E+00
  0.195534723576E+00
  0.195534723576E+00
  0.195534723576E+00
  0.195534723576E+00
  0.195534723576E+00
  0.195534723577E+00
  0.195534723577E+00
  0.195534723578E+00
  0.195534723578E+00
  0.195534723578E+00
  0.195534723577E+00
  0.195534723577E+00
  0.195534723577E+00
  0.195534723576E+00
  0.195534723576E+00
  0.195534723575E+00
  0.195534723575E+00
  0.195534723576E+00
  0.195534723576E+00
  0.195534723577E+00
  0.195534723577E+00
  0.195534723577E+00
  0.195534723578E+00
  0.195534723578E+00
  0.195534723578E+00
  0.195534723577E+00
  0.195534723577E+00
  0.195534723578E+00
  0.195534723578E+00
  0.195534723578E+00
  0.195534723577E+00
  0.195534723577E+00
  0.195534723577E+00
  0.195534723576E+00
  0.195534723576E+00
  0.195534723575E+00
  0.195534723575E+00
  0.195534723576E+00
  0.195534723576E+00
  0.195534723577E+00
  0.195534723577E+00
  0.195534723577E+00
  0.195534723578E+00
  0.195534723578E+00
  0.195534723578E+00
  0.195534723577E+00
  0.195534723577E+00
  0.195534723576E+00
  0.195534723576E+00
  0.195534723576E+00
  0.195534723576E+00
  0.195534723577E+00
  0.195534723577E+00
  0.195534723578E+00
  0.195534723577E+00
  0.195534723578E+00
  0.195534723578E+00
  0.195534723577E+00
  0.195534723578E+00
  0.195534723577E+00
  0.195534723577E+00
  0.195534723576E+00
  0.195534723576E+00
  0.195534723576E+00
  0.195534723576E+00
  0.195534723577E+00
  0.195534723577E+00
  0.195534723576E+00
  0.195534723576E+00
  0.195534723576E+00
  0.195534723576E+00
  0.195534723577E+00
  0.195534723577E+00
  0.195534723578E+00
  0.195534723577E+00
  0.195534723578E+00
  0.195534723578E+00
  0.195534723577E+00
  0.195534723578E+00
  0.195534723577E+00
  0.195534723577E+00
  0.195534723576E+00
  0.195534723576E+00
  0.195534723576E+00
  0.195534723576E+00
  0.195534723577E+00
  0.195534723577E+00
  0.195534723578E+00
  0.195534723578E+00
  0.195534723578E+00
  0.195534723577E+00
  0.195534723577E+00
  0.195534723577E+00
  0.195534723577E+00
  0.195534723577E+00
  0.195534723578E+00
  0.195534723578E+00
  0.195534723577E+00
  0.195534723577E+00
  0.195534723577E+00
  0.195534723577E+00
  0.195534723577E+00
  0.195534723578E+00
  0.195534723578E+00
  0.195534723578E+00
  0.195534723577E+00
  0.195534723577E+00
  0.195534723578E+00
  0.195534723578E+00
  0.195534723578E+00
  0.195534723577E+00
  0.195534723577E+00
  0.195534723577E+00
  0.195534723577E+00
  0.195534723577E+00
  0.195534723578E+00
  0.195534723578E+00
  0.195534723577E+00
  0.195534723577E+00
  0.195534723577E+00
  0.195534723577E+00
  0.195534723577E+00
  0.195534723578E+00
  0.195534723578E+00
  0.195534723578E+00
  0.195534723577E+00
  0.195534723577E+00
  0.195534723576E+00
  0.195534723576E+00
  0.195534723576E+00
  0.195534723576E+00
  0.195534723577E+00
  0.195534723577E+00
  0.195534723578E+00
  0.195534723577E+00
  0.195534723575E+00
  0.195534723575E+00
  0.195534723577E+00
  0.195534723578E+00
  0.195534723577E+00
  0.195534723577E+00
  0.195534723576E+00
  0.195534723576E+00
  0.195534723576E+00
  0.195534723576E+00
  0.195534723577E+00
  0.195534723577E+00
  0.195534723576E+00
  0.195534723576E+00
  0.195534723576E+00
  0.195534723576E+00
  0.195534723577E+00
  0.195534723577E+00
  0.195534723578E+00
  0.195534723577E+00
  0.195534723575E+00
  0.195534723575E+00
  0.195534723577E+00
  0.195534723578E+00
  0.195534723577E+00
  0.195534723577E+00
  0.195534723576E+00
  0.195534723576E+00
  0.195534723576E+00
  0.195534723576E+00
  0.195534723577E+00
  0.195534723577E+00
  0.195534723578E+00
  0.195534723578E+00
  0.195534723578E+00
  0.195534723578E+00
  0.195534723577E+00
  0.195534723577E+00
  0.195534723576E+00
  0.195534723576E+00
  0.195534723578E+00
  0.195534723578E+00
  0.195534723576E+00
  0.195534723576E+00
  0.195534723577E+00
  0.195534723577E+00
  0.195534723578E+00
  0.195534723578E+00
  0.195534723578E+00
  0.195534723578E+00
  0.195534723577E+00
  0.195534723577E+00
  0.195534723578E+00
  0.195534723578E+00
  0.195534723578E+00
  0.195534723578E+00
  0.195534723577E+00
  0.195534723577E+00
  0.195534723576E+00
  0.195534723576E+00
  0.195534723578E+00
  0.195534723578E+00
  0.195534723576E+00
  0.195534723576E+00
  0.195534723577E+00
  0.195534723577E+00
  0.195534723578E+00
  0.195534723578E+00
  0.195534723578E+00
  0.195534723578E+00
  0.195534723577E+00
  0.195534723577E+00
  0.195534723576E+00
  0.195534723576E+00
  0.195534723576E+00
  0.195534723576E+00
  0.195534723575E+00
  0.195534723576E+00
  0.195534723578E+00
  0.195534723577E+00
  0.195534723578E+00
  0.195534723578E+00
  0.195534723577E+00
  0.195534723578E+00
  0.195534723576E+00
  0.195534723576E+00
  0.195534723576E+00
  0.195534723576E+00
  0.195534723576E+00
  0.195534723576E+00
  0.195534723577E+00
  0.195534723577E+00
  0.195534723576E+00
  0.195534723576E+00
  0.195534723576E+00
  0.195534723576E+00
  0.195534723575E+00
  0.195534723576E+00
  0.195534723578E+00
  0.195534723577E+00
  0.195534723578E+00
  0.195534723578E+00
  0.195534723577E+00
  0.195534723578E+00
  0.195534723576E+00
  0.195534723576E+00
  0.195534723576E+00
  0.195534723576E+00
  0.195534723576E+00
  0.195534723576E+00
  0.195534723577E+00
 -0.100000000000E+01
 -0.100000000000E+01
 -0.100000000000E+01
 -0.100000000000E+01
 -0.100000000000E+01
 -0.100000000000E+01
 -0.100000000000E+01
 -0.100000000000E+01
 -0.100000000000E+01
 -0.100000000000E+01
 -0.100000000000E+01
 -0.100000000000E+01
 -0.100000000000E+01
 -0.100000000000E+01
 -0.100000000000E+01
 -0.100000000000E+01
 -0.100000000000E+01
 -0.100000000000E+01
 -0.100000000000E+01
 -0.100000000000E+01
 -0.100000000000E+01
 -0.100000000000E+01
 -0.100000000000E+01
 -0.100000000000E+01
 -0.100000000000E+01
 -0.100000000000E+01
 -0.100000000000E+01
 -0.100000000000E+01
 -0.100000000000E+01
 -0.100000000000E+01
 -0.100000000000E+01
 -0.100000000000E+01
 -0.100000000000E+01
 -0.100000000000E+01
 -0.100000000000E+01
 -0.100000000000E+01
 -0.100000000000E+01
 -0.100000000000E+01
 -0.100000000000E+01
 -0.100000000000E+01
 -0.100000000000E+01
 -0.100000000000E+01
 -0.100000000000E+01
 -0.100000000000E+01
 -0.100000000000E+01
 -0.100000000000E+01
 -0.100000000000E+01
 -0.100000000000E+01
 -0.100000000000E+01
 -0.100000000000E+01
 -0.100000000000E+01
 -0.100000000000E+01
 -0.100000000000E+01
 -0.100000000000E+01
 -0.100000000000E+01
 -0.100000000000E+01
 -0.100000000000E+01
 -0.100000000000E+01
 -0.100000000000E+01
 -0.100000000000E+01
 -0.100000000000E+01
 -0.100000000000E+01
 -0.100000000000E+01
 -0.100000000000E+01
 -0.100000000000E+01
 -0.100000000000E+01
 -0.100000000000E+01
 -0.100000000000E+01
 -0.100000000000E+01
 -0.100000000000E+01
 -0.100000000000E+01
 -0.100000000000E+01
 -0.100000000000E+01
 -0.100000000000E+01
 -0.100000000000E+01
 -0.100000000000E+01
 -0.100000000000E+01
 -0.100000000000E+01
 -0.100000000000E+01
 -0.100000000000E+01
 -0.100000000000E+01
 -0.100000000000E+01
 -0.100000000000E+01
 -0.100000000000E+01
 -0.100000000000E+01
 -0.100000000000E+01
 -0.100000000000E+01
 -0.100000000000E+01
 -0.100000000000E+01
 -0.100000000000E+01
 -0.100000000000E+01
 -0.100000000000E+01
 -0.100000000000E+01
 -0.100000000000E+01
 -0.100000000000E+01
 -0.100000000000E+01
 -0.100000000000E+01
 -0.100000000000E+01
 -0.100000000000E+01
 -0.100000000000E+01
 -0.100000000000E+01
 -0.100000000000E+01
 -0.100000000000E+01
 -0.100000000000E+01
 -0.100000000000E+01
 -0.100000000000E+01
 -0.100000000000E+01
 -0.100000000000E+01
 -0.100000000000E+01
 -0.100000000000E+01
 -0.100000000000E+01
 -0.100000000000E+01
 -0.100000000000E+01
 -0.100000000000E+01
 -0.100000000000E+01
 -0.100000000000E+01
 -0.100000000000E+01
 -0.100000000000E+01
 -0.100000000000E+01
 -0.100000000000E+01
 -0.100000000000E+01
 -0.100000000000E+01
 -0.100000000000E+01
 -0.100000000000E+01
 -0.100000000000E+01
 -0.100000000000E+01
 -0.100000000000E+01
 -0.100000000000E+01
 -0.100000000000E+01
 -0.100000000000E+01
 -0.100000000000E+01
 -0.100000000000E+01
 -0.100000000000E+01
 -0.100000000000E+01
 -0.100000000000E+01
 -0.100000000000E+01
 -0.100000000000E+01
 -0.100000000000E+01
 -0.100000000000E+01
 -0.100000000000E+01
 -0.100000000000E+01
 -0.100000000000E+01
 -0.100000000000E+01
 -0.100000000000E+01
 -0.100000000000E+01
 -0.100000000000E+01
 -0.100000000000E+01
 -0.100000000000E+01
 -0.100000000000E+01
 -0.100000000000E+01
 -0.100000000000E+01
 -0.100000000000E+01
 -0.100000000000E+01
 -0.100000000000E+01
 -0.100000000000E+01
 -0.100000000000E+01
 -0.100000000000E+01
 -0.100000000000E+01
 -0.100000000000E+01
 -0.100000000000E+01
 -0.100000000000E+01
 -0.100000000000E+01
 -0.100000000000E+01
 -0.100000000000E+01
 -0.100000000000E+01
 -0.100000000000E+01
 -0.100000000000E+01
 -0.100000000000E+01
 -0.100000000000E+01
 -0.100000000000E+01
 -0.100000000000E+01
 -0.100000000000E+01
 -0.100000000000E+01
 -0.100000000000E+01
 -0.100000000000E+01
 -0.100000000000E+01
 -0.100000000000E+01
 -0.100000000000E+01
 -0.100000000000E+01
 -0.100000000000E+01
SCALARS C_p_inc float 1
LOOKUP_TABLE default
  0.204301402444E+00
  0.203798979991E+00
  0.202839326315E+00
  0.201445218061E+00
  0.199667305950E+00
  0.197570410484E+00
  0.195227742581E+00
  0.192717964926E+00
  0.190121069333E+00
  0.187514645763E+00
  0.184970572688E+00
  0.182552400373E+00
  0.180313589467E+00
  0.178296691059E+00
  0.176533475205E+00
  0.175045813120E+00
  0.173847848487E+00
  0.172944183115E+00
  0.172358391689E+00
  0.171983654537E+00
  0.161234946584E+00
  0.161270536777E+00
  0.160630601191E+00
  0.160479969576E+00
  0.159253494118E+00
  0.159083336957E+00
  0.157245607538E+00
  0.157081876056E+00
  0.154663289298E+00
  0.154539998177E+00
  0.151596690454E+00
  0.151535800969E+00
  0.148148171292E+00
  0.148159744806E+00
  0.144429502629E+00
  0.144511185474E+00
  0.140556348499E+00
  0.140694265881E+00
  0.136643056227E+00
  0.136813967353E+00
  0.132797764097E+00
  0.132972403634E+00
  0.129118234203E+00
  0.129265595108E+00
  0.125688727303E+00
  0.125780882283E+00
  0.122578157401E+00
  0.122595081756E+00
  0.119839637189E+00
  0.119773414817E+00
  0.117511362187E+00
  0.117369177455E+00
  0.115618673972E+00
  0.115423807443E+00
  0.114176473611E+00
  0.113969838451E+00
  0.113195314157E+00
  0.113004212438E+00
  0.112657276637E+00
  0.112742897608E+00
  0.146340594668E+00
  0.146215012827E+00
  0.145418593267E+00
  0.145097049342E+00
  0.143497470545E+00
  0.143051199371E+00
  0.140639095978E+00
  0.140132798388E+00
  0.136933971827E+00
  0.136422284184E+00
  0.132498486593E+00
  0.132022317402E+00
  0.127470363326E+00
  0.127054437373E+00
  0.122003407647E+00
  0.121655001088E+00
  0.116261255228E+00
  0.115970575123E+00
  0.110410475020E+00
  0.110153001159E+00
  0.104613448515E+00
  0.104354381608E+00
  0.990215876282E-01
  0.987222573616E-01
  0.937695226699E-01
  0.933952456052E-01
  0.889708701949E-01
  0.884993726482E-01
  0.847160547124E-01
  0.841452734735E-01
  0.810724091993E-01
  0.804263415390E-01
  0.780864450705E-01
  0.774178114913E-01
  0.757878249058E-01
  0.751766465733E-01
  0.741942140173E-01
  0.737420792653E-01
  0.733164547808E-01
  0.731370350074E-01
  0.138809584695E+00
  0.138596935553E+00
  0.137565501231E+00
  0.137005627552E+00
  0.134917109233E+00
  0.134110507256E+00
  0.130932557422E+00
  0.129971925968E+00
  0.125714170915E+00
  0.124680463921E+00
  0.119397864712E+00
  0.118356202991E+00
  0.112151691590E+00
  0.111147293810E+00
  0.104172732865E+00
  0.103227513405E+00
  0.956818417853E-01
  0.947926646401E-01
  0.869160610000E-01
  0.860557809739E-01
  0.781189401874E-01
  0.772412307832E-01
  0.695294532528E-01
  0.685779526987E-01
  0.613706637172E-01
  0.602921738076E-01
  0.538395990901E-01
  0.526000457217E-01
  0.470998515914E-01
  0.457006637670E-01
  0.412781341546E-01
  0.397699040284E-01
  0.364653697987E-01
  0.349554233883E-01
  0.327219739371E-01
  0.313730351380E-01
  0.300859591546E-01
  0.291044529958E-01
  0.285823890000E-01
  0.281979375762E-01
  0.137190212227E+00
  0.136886920159E+00
  0.135570395350E+00
  0.134759234630E+00
  0.132069690498E+00
  0.130873104793E+00
  0.126735046333E+00
  0.125265821011E+00
  0.119641880941E+00
  0.118003374369E+00
  0.110902610834E+00
  0.109186023917E+00
  0.100675309028E+00
  0.989537998518E-01
  0.891704078389E-01
  0.874908998460E-01
  0.766533821343E-01
  0.750280877979E-01
  0.634417158074E-01
  0.618423724803E-01
  0.498951324162E-01
  0.482534628441E-01
  0.363991007720E-01
  0.346167505580E-01
  0.233429592030E-01
  0.213128435227E-01
  0.110954669553E-01
  0.873396313647E-02
 -0.181617333357E-04
 -0.273217537859E-02
 -0.973316125767E-02
 -0.127200606089E-01
 -0.178521855746E-01
 -0.209044145707E-01
 -0.242406484836E-01
 -0.270170659265E-01
 -0.288121308137E-01
 -0.308612340182E-01
 -0.315075702302E-01
 -0.323179390508E-01
  0.141142577959E+00
  0.140801751682E+00
  0.139195889141E+00
  0.138264951756E+00
  0.134956174996E+00
  0.133533391469E+00
  0.128372348511E+00
  0.126545360401E+00
  0.119382857283E+00
  0.117245233986E+00
  0.107947002267E+00
  0.105604610465E+00
  0.940790851171E-01
  0.916447025325E-01
  0.778815036665E-01
  0.754577308192E-01
  0.595723879029E-01
  0.572256833097E-01
  0.395036541986E-01
  0.372352452553E-01
  0.181654620812E-01
  0.158878480212E-01
 -0.382665270944E-02
 -0.629641354970E-02
 -0.257644681272E-01
 -0.286827218726E-01
 -0.468990254873E-01
 -0.505356130829E-01
 -0.665059534409E-01
 -0.710457163093E-01
 -0.839516002932E-01
 -0.893710829993E-01
 -0.987422366997E-01
 -0.104693022343E+00
 -0.110539250547E+00
 -0.116282734386E+00
 -0.119133345756E+00
 -0.123570905342E+00
 -0.124384752679E+00
 -0.126197492447E+00
  0.149528129345E+00
  0.149369784347E+00
  0.147625740865E+00
  0.147132932336E+00
  0.143513344506E+00
  0.142594151529E+00
  0.136836530508E+00
  0.135389507576E+00
  0.127110733218E+00
  0.125098490409E+00
  0.113815282254E+00
  0.111305501665E+00
  0.964835912896E-01
  0.936538857165E-01
  0.747828084104E-01
  0.718901353415E-01
  0.485820649438E-01
  0.459013778380E-01
  0.180133792888E-01
  0.157516506791E-01
 -0.164724455634E-01
 -0.182775938304E-01
 -0.540601694712E-01
 -0.556392545630E-01
 -0.935512334063E-01
 -0.954650676044E-01
 -0.133398978310E+00
 -0.136510193641E+00
 -0.171827544622E+00
 -0.177116207851E+00
 -0.207045500433E+00
 -0.215224580866E+00
 -0.237516311756E+00
 -0.248482632002E+00
 -0.262180409295E+00
 -0.274476247217E+00
 -0.280490728851E+00
 -0.291085070382E+00
 -0.292182746436E+00
 -0.296843221368E+00
  0.155907233475E+00
  0.156801953819E+00
  0.155510103073E+00
  0.157668105813E+00
  0.154926993752E+00
  0.157330620210E+00
  0.152683184404E+00
  0.154326262025E+00
  0.146906661474E+00
  0.147167219128E+00
  0.135756535071E+00
  0.134530664042E+00
  0.117641401501E+00
  0.115303459752E+00
  0.912619695276E-01
  0.885507280151E-01
  0.555778249949E-01
  0.534673954313E-01
  0.979092488212E-02
  0.934952280457E-02
 -0.465906661046E-01
 -0.443907566847E-01
 -0.113567802291E+00
 -0.108143152945E+00
 -0.190323830695E+00
 -0.181916186829E+00
 -0.274780562166E+00
 -0.265003959435E+00
 -0.363164680982E+00
 -0.355448950359E+00
 -0.449901024118E+00
 -0.449296590651E+00
 -0.528346727566E+00
 -0.539823639245E+00
 -0.592757279177E+00
 -0.617337470740E+00
 -0.640622753714E+00
 -0.670394295767E+00
 -0.672888103622E+00
 -0.688895576006E+00
  0.124157052761E+00
  0.131586617277E+00
  0.131604203244E+00
  0.152094799957E+00
  0.152152101025E+00
  0.175400700444E+00
  0.175181675419E+00
  0.193181981618E+00
  0.190773573562E+00
  0.201303756794E+00
  0.193876348679E+00
  0.197956011108E+00
  0.182307797536E+00
  0.182174489595E+00
  0.154749594827E+00
  0.153012552862E+00
  0.109565986697E+00
  0.109099124457E+00
  0.441783252404E-01
  0.483585547703E-01
 -0.452992607582E-01
 -0.322319797036E-01
 -0.164266509347E+00
 -0.136906967832E+00
 -0.319556848167E+00
 -0.271398454970E+00
 -0.518575692925E+00
 -0.443111798842E+00
 -0.766496357433E+00
 -0.660683005756E+00
 -0.105938556008E+01
 -0.931407471799E+00
 -0.137116587917E+01
 -0.125287293474E+01
 -0.163974577159E+01
 -0.159252116588E+01
 -0.178169187567E+01
 -0.184843169233E+01
 -0.185965145843E+01
 -0.192217702349E+01
 -0.408560497525E+01
 -0.354365586219E+00
 -0.858361751070E+00
  0.105758705622E+00
 -0.186398861812E-01
  0.302675059712E+00
  0.277316132102E+00
  0.396657482286E+00
  0.395436022518E+00
  0.440002493149E+00
  0.438264312506E+00
  0.452768547701E+00
  0.440521485962E+00
  0.443178772662E+00
  0.414159836395E+00
  0.413947006335E+00
  0.361147779723E+00
  0.364335867554E+00
  0.276982990409E+00
  0.290558292269E+00
  0.150348724994E+00
  0.185132024103E+00
 -0.403866690286E-01
  0.349848911937E-01
 -0.335761562284E+00
 -0.182740100682E+00
 -0.815136947402E+00
 -0.510141193084E+00
 -0.164588221992E+01
 -0.103184145247E+01
 -0.321850768154E+01
 -0.193932394541E+01
 -0.657578804343E+01
 -0.373311090351E+01
 -0.150750842236E+02
 -0.795764361425E+01
 -0.429649397269E+02
 -0.204585442824E+02
 -0.198161888121E+03
 -0.739139994763E+02
 -0.968829117488E+01
 -0.125126180679E+02
  0.528892321010E-01
 -0.153411611895E+01
  0.698080373772E+00
  0.263980381155E+00