# vtk DataFile Version 3.0
MachLine results file. Generated by MachLine, USU AeroLab (c) 2022.
ASCII
DATASET POLYDATA
POINTS                  84 float
  0.000000000000E+00  0.100000000000E+01  0.000000000000E+00
 -0.100990099010E+03  0.100000000000E+01  0.100990099010E+02
  0.000000000000E+00  0.987688340595E+00  0.156434465040E+00
 -0.100974610449E+03  0.987688340595E+00  0.102538955099E+02
  0.000000000000E+00  0.951056516295E+00  0.309016994375E+00
 -0.100959503268E+03  0.951056516295E+00  0.104049673212E+02
  0.000000000000E+00  0.891006524188E+00  0.453990499740E+00
 -0.100945149455E+03  0.891006524188E+00  0.105485054453E+02
  0.000000000000E+00  0.809016994375E+00  0.587785252292E+00
 -0.100931902450E+03  0.809016994375E+00  0.106809754973E+02
  0.000000000000E+00  0.707106781187E+00  0.707106781187E+00
 -0.100920088438E+03  0.707106781187E+00  0.107991156249E+02
  0.000000000000E+00  0.587785252292E+00  0.809016994375E+00
 -0.100909998317E+03  0.587785252292E+00  0.109000168261E+02
  0.000000000000E+00  0.453990499740E+00  0.891006524188E+00
 -0.100901880542E+03  0.453990499740E+00  0.109811945784E+02
  0.000000000000E+00  0.309016994375E+00  0.951056516295E+00
 -0.100895934998E+03  0.309016994375E+00  0.110406500161E+02
  0.000000000000E+00  0.156434465040E+00  0.987688340595E+00
 -0.100892308085E+03  0.156434465040E+00  0.110769191491E+02
  0.000000000000E+00  0.612323399574E-16  0.100000000000E+01
 -0.100891089109E+03  0.612323399574E-16  0.110891089109E+02
  0.000000000000E+00 -0.156434465040E+00  0.987688340595E+00
 -0.100892308085E+03 -0.156434465040E+00  0.110769191491E+02
  0.000000000000E+00 -0.309016994375E+00  0.951056516295E+00
 -0.100895934998E+03 -0.309016994375E+00  0.110406500161E+02
  0.000000000000E+00 -0.453990499740E+00  0.891006524188E+00
 -0.100901880542E+03 -0.453990499740E+00  0.109811945784E+02
  0.000000000000E+00 -0.587785252292E+00  0.809016994375E+00
 -0.100909998317E+03 -0.587785252292E+00  0.109000168261E+02
  0.000000000000E+00 -0.707106781187E+00  0.707106781187E+00
 -0.100920088438E+03 -0.707106781187E+00  0.107991156249E+02
  0.000000000000E+00 -0.809016994375E+00  0.587785252292E+00
 -0.100931902450E+03 -0.809016994375E+00  0.106809754973E+02
  0.000000000000E+00 -0.891006524188E+00  0.453990499740E+00
 -0.100945149455E+03 -0.891006524188E+00  0.105485054453E+02
  0.000000000000E+00 -0.951056516295E+00  0.309016994375E+00
 -0.100959503268E+03 -0.951056516295E+00  0.104049673212E+02
  0.000000000000E+00 -0.987688340595E+00  0.156434465040E+00
 -0.100974610449E+03 -0.987688340595E+00  0.102538955099E+02
  0.000000000000E+00 -0.100000000000E+01  0.122464679915E-15
 -0.100990099010E+03 -0.100000000000E+01  0.100990099010E+02
  0.000000000000E+00  0.100000000000E+01  0.000000000000E+00
 -0.100990099010E+03  0.100000000000E+01  0.100990099010E+02
  0.000000000000E+00  0.987688340595E+00 -0.156434465040E+00
 -0.101005587571E+03  0.987688340595E+00  0.994412429204E+01
  0.000000000000E+00  0.951056516295E+00 -0.309016994375E+00
 -0.101020694752E+03  0.951056516295E+00  0.979305248082E+01
  0.000000000000E+00  0.891006524188E+00 -0.453990499740E+00
 -0.101035048564E+03  0.891006524188E+00  0.964951435669E+01
  0.000000000000E+00  0.809016994375E+00 -0.587785252292E+00
 -0.101048295570E+03  0.809016994375E+00  0.951704430466E+01
  0.000000000000E+00  0.707106781187E+00 -0.707106781187E+00
 -0.101060109582E+03  0.707106781187E+00  0.939890417704E+01
  0.000000000000E+00  0.587785252292E+00 -0.809016994375E+00
 -0.101070199702E+03  0.587785252292E+00  0.929800297587E+01
  0.000000000000E+00  0.453990499740E+00 -0.891006524188E+00
 -0.101078317478E+03  0.453990499740E+00  0.921682522358E+01
  0.000000000000E+00  0.309016994375E+00 -0.951056516295E+00
 -0.101084263021E+03  0.309016994375E+00  0.915736978585E+01
  0.000000000000E+00  0.156434465040E+00 -0.987688340595E+00
 -0.101087889935E+03  0.156434465040E+00  0.912110065288E+01
  0.000000000000E+00  0.612323399574E-16 -0.100000000000E+01
 -0.101089108911E+03  0.612323399574E-16  0.910891089109E+01
  0.000000000000E+00 -0.156434465040E+00 -0.987688340595E+00
 -0.101087889935E+03 -0.156434465040E+00  0.912110065288E+01
  0.000000000000E+00 -0.309016994375E+00 -0.951056516295E+00
 -0.101084263021E+03 -0.309016994375E+00  0.915736978585E+01
  0.000000000000E+00 -0.453990499740E+00 -0.891006524188E+00
 -0.101078317478E+03 -0.453990499740E+00  0.921682522358E+01
  0.000000000000E+00 -0.587785252292E+00 -0.809016994375E+00
 -0.101070199702E+03 -0.587785252292E+00  0.929800297587E+01
  0.000000000000E+00 -0.707106781187E+00 -0.707106781187E+00
 -0.101060109582E+03 -0.707106781187E+00  0.939890417704E+01
  0.000000000000E+00 -0.809016994375E+00 -0.587785252292E+00
 -0.101048295570E+03 -0.809016994375E+00  0.951704430466E+01
  0.000000000000E+00 -0.891006524188E+00 -0.453990499740E+00
 -0.101035048564E+03 -0.891006524188E+00  0.964951435669E+01
  0.000000000000E+00 -0.951056516295E+00 -0.309016994375E+00
 -0.101020694752E+03 -0.951056516295E+00  0.979305248082E+01
  0.000000000000E+00 -0.987688340595E+00 -0.156434465040E+00
 -0.101005587571E+03 -0.987688340595E+00  0.994412429204E+01
  0.000000000000E+00 -0.100000000000E+01 -0.122464679915E-15
 -0.100990099010E+03 -0.100000000000E+01  0.100990099010E+02
POLYGONS                  80                 320
3                   0                   1                   3
3                   0                   3                   2
3                   2                   3                   5
3                   2                   5                   4
3                   4                   5                   7
3                   4                   7                   6
3                   6                   7                   9
3                   6                   9                   8
3                   8                   9                  11
3                   8                  11                  10
3                  10                  11                  13
3                  10                  13                  12
3                  14                  15                  17
3                  14                  17                  16
3                  12                  13                  15
3                  12                  15                  14
3                  16                  17                  19
3                  16                  19                  18
3                  18                  19                  21
3                  18                  21                  20
3                  20                  21                  23
3                  20                  23                  22
3                  22                  23                  25
3                  22                  25                  24
3                  24                  25                  27
3                  24                  27                  26
3                  26                  27                  29
3                  26                  29                  28
3                  28                  29                  31
3                  28                  31                  30
3                  30                  31                  33
3                  30                  33                  32
3                  32                  33                  35
3                  32                  35                  34
3                  34                  35                  37
3                  34                  37                  36
3                  36                  37                  39
3                  36                  39                  38
3                  38                  39                  41
3                  38                  41                  40
3                  45                  43                  42
3                  44                  45                  42
3                  47                  45                  44
3                  46                  47                  44
3                  49                  47                  46
3                  48                  49                  46
3                  51                  49                  48
3                  50                  51                  48
3                  53                  51                  50
3                  52                  53                  50
3                  55                  53                  52
3                  54                  55                  52
3                  59                  57                  56
3                  58                  59                  56
3                  57                  55                  54
3                  56                  57                  54
3                  61                  59                  58
3                  60                  61                  58
3                  63                  61                  60
3                  62                  63                  60
3                  65                  63                  62
3                  64                  65                  62
3                  67                  65                  64
3                  66                  67                  64
3                  69                  67                  66
3                  68                  69                  66
3                  71                  69                  68
3                  70                  71                  68
3                  73                  71                  70
3                  72                  73                  70
3                  75                  73                  72
3                  74                  75                  72
3                  77                  75                  74
3                  76                  77                  74
3                  79                  77                  76
3                  78                  79                  76
3                  81                  79                  78
3                  80                  81                  78
3                  83                  81                  80
3                  82                  83                  80
CELL_DATA                  80
NORMALS normals float
  0.784566809362E-02  0.996886650883E+00  0.784566809362E-01
  0.784566809362E-02  0.996886650883E+00  0.784566809362E-01
  0.233381779789E-01  0.972105073699E+00  0.233381779789E+00
  0.233381779789E-01  0.972105073699E+00  0.233381779789E+00
  0.382403526307E-01  0.923203779509E+00  0.382403526307E+00
  0.382403526307E-01  0.923203779509E+00  0.382403526307E+00
  0.521786798801E-01  0.851478667944E+00  0.521786798801E+00
  0.521786798801E-01  0.851478667944E+00  0.521786798801E+00
  0.648082735825E-01  0.758807390054E+00  0.648082735825E+00
  0.648082735825E-01  0.758807390054E+00  0.648082735825E+00
  0.758217054374E-01  0.647578541523E+00  0.758217054374E+00
  0.758217054374E-01  0.647578541523E+00  0.758217054374E+00
  0.919961692850E-01  0.381060610042E+00  0.919961692850E+00
  0.919961692850E-01  0.381060610042E+00  0.919961692850E+00
  0.849557634844E-01  0.520609588204E+00  0.849557634844E+00
  0.849557634844E-01  0.520609588204E+00  0.849557634844E+00
  0.967805368843E-01  0.232349511983E+00  0.967805368843E+00
  0.967805368843E-01  0.232349511983E+00  0.967805368843E+00
  0.992000053701E-01  0.780720973974E-01  0.992000053701E+00
  0.992000053701E-01  0.780720973974E-01  0.992000053701E+00
  0.992000053701E-01 -0.780720973974E-01  0.992000053701E+00
  0.992000053701E-01 -0.780720973974E-01  0.992000053701E+00
  0.967805368843E-01 -0.232349511983E+00  0.967805368843E+00
  0.967805368843E-01 -0.232349511983E+00  0.967805368843E+00
  0.919961692850E-01 -0.381060610042E+00  0.919961692850E+00
  0.919961692850E-01 -0.381060610042E+00  0.919961692850E+00
  0.849557634844E-01 -0.520609588204E+00  0.849557634844E+00
  0.849557634844E-01 -0.520609588204E+00  0.849557634844E+00
  0.758217054374E-01 -0.647578541523E+00  0.758217054374E+00
  0.758217054374E-01 -0.647578541523E+00  0.758217054374E+00
  0.648082735825E-01 -0.758807390054E+00  0.648082735825E+00
  0.648082735825E-01 -0.758807390054E+00  0.648082735825E+00
  0.521786798801E-01 -0.851478667944E+00  0.521786798801E+00
  0.521786798801E-01 -0.851478667944E+00  0.521786798801E+00
  0.382403526307E-01 -0.923203779509E+00  0.382403526307E+00
  0.382403526307E-01 -0.923203779509E+00  0.382403526307E+00
  0.233381779789E-01 -0.972105073699E+00  0.233381779789E+00
  0.233381779789E-01 -0.972105073699E+00  0.233381779789E+00
  0.784566809362E-02 -0.996886650883E+00  0.784566809362E-01
  0.784566809362E-02 -0.996886650883E+00  0.784566809362E-01
 -0.784566809362E-02  0.996886650883E+00 -0.784566809362E-01
 -0.784566809362E-02  0.996886650883E+00 -0.784566809362E-01
 -0.233381779789E-01  0.972105073699E+00 -0.233381779789E+00
 -0.233381779789E-01  0.972105073699E+00 -0.233381779789E+00
 -0.382403526307E-01  0.923203779509E+00 -0.382403526307E+00
 -0.382403526307E-01  0.923203779509E+00 -0.382403526307E+00
 -0.521786798801E-01  0.851478667944E+00 -0.521786798801E+00
 -0.521786798801E-01  0.851478667944E+00 -0.521786798801E+00
 -0.648082735825E-01  0.758807390054E+00 -0.648082735825E+00
 -0.648082735825E-01  0.758807390054E+00 -0.648082735825E+00
 -0.758217054374E-01  0.647578541523E+00 -0.758217054374E+00
 -0.758217054374E-01  0.647578541523E+00 -0.758217054374E+00
 -0.919961692850E-01  0.381060610042E+00 -0.919961692850E+00
 -0.919961692850E-01  0.381060610042E+00 -0.919961692850E+00
 -0.849557634844E-01  0.520609588204E+00 -0.849557634844E+00
 -0.849557634844E-01  0.520609588204E+00 -0.849557634844E+00
 -0.967805368843E-01  0.232349511983E+00 -0.967805368843E+00
 -0.967805368843E-01  0.232349511983E+00 -0.967805368843E+00
 -0.992000053701E-01  0.780720973974E-01 -0.992000053701E+00
 -0.992000053701E-01  0.780720973974E-01 -0.992000053701E+00
 -0.992000053701E-01 -0.780720973974E-01 -0.992000053701E+00
 -0.992000053701E-01 -0.780720973974E-01 -0.992000053701E+00
 -0.967805368843E-01 -0.232349511983E+00 -0.967805368843E+00
 -0.967805368843E-01 -0.232349511983E+00 -0.967805368843E+00
 -0.919961692850E-01 -0.381060610042E+00 -0.919961692850E+00
 -0.919961692850E-01 -0.381060610042E+00 -0.919961692850E+00
 -0.849557634844E-01 -0.520609588204E+00 -0.849557634844E+00
 -0.849557634844E-01 -0.520609588204E+00 -0.849557634844E+00
 -0.758217054374E-01 -0.647578541523E+00 -0.758217054374E+00
 -0.758217054374E-01 -0.647578541523E+00 -0.758217054374E+00
 -0.648082735825E-01 -0.758807390054E+00 -0.648082735825E+00
 -0.648082735825E-01 -0.758807390054E+00 -0.648082735825E+00
 -0.521786798801E-01 -0.851478667944E+00 -0.521786798801E+00
 -0.521786798801E-01 -0.851478667944E+00 -0.521786798801E+00
 -0.382403526307E-01 -0.923203779509E+00 -0.382403526307E+00
 -0.382403526307E-01 -0.923203779509E+00 -0.382403526307E+00
 -0.233381779789E-01 -0.972105073699E+00 -0.233381779789E+00
 -0.233381779789E-01 -0.972105073699E+00 -0.233381779789E+00
 -0.784566809362E-02 -0.996886650883E+00 -0.784566809362E-01
 -0.784566809362E-02 -0.996886650883E+00 -0.784566809362E-01
POINT_DATA                  84
SCALARS mu float 1
LOOKUP_TABLE default
 -0.963503857172E+01
 -0.963503857172E+01
 -0.102941327179E+02
 -0.102941327179E+02
 -0.106144938145E+02
 -0.106144938145E+02
 -0.107706317457E+02
 -0.107706317457E+02
 -0.108312866814E+02
 -0.108312866814E+02
 -0.108273800984E+02
 -0.108273800984E+02
 -0.107738469675E+02
 -0.107738469675E+02
 -0.106777501643E+02
 -0.106777501643E+02
 -0.105414034208E+02
 -0.105414034208E+02
 -0.103640520128E+02
 -0.103640520128E+02
 -0.101426575850E+02
 -0.101426575850E+02
 -0.987149553011E+01
 -0.987149553011E+01
 -0.954123008716E+01
 -0.954123008716E+01
 -0.913732812242E+01
 -0.913732812242E+01
 -0.863730672097E+01
 -0.863730672097E+01
 -0.800498212022E+01
 -0.800498212022E+01
 -0.717841872505E+01
 -0.717841872505E+01
 -0.604182900301E+01
 -0.604182900301E+01
 -0.435165498559E+01
 -0.435165498559E+01
 -0.150440890900E+01
 -0.150440890900E+01
  0.430960052141E+01
  0.430960052141E+01
 -0.963503857172E+01
 -0.963503857172E+01
 -0.104517185791E+02
 -0.104517185791E+02
 -0.108582640499E+02
 -0.108582640499E+02
 -0.110758783028E+02
 -0.110758783028E+02
 -0.111893078496E+02
 -0.111893078496E+02
 -0.112357984166E+02
 -0.112357984166E+02
 -0.112323309545E+02
 -0.112323309545E+02
 -0.111866077783E+02
 -0.111866077783E+02
 -0.111015066191E+02
 -0.111015066191E+02
 -0.109764505308E+02
 -0.109764505308E+02
 -0.108083330160E+02
 -0.108083330160E+02
 -0.105914177796E+02
 -0.105914177796E+02
 -0.103162862234E+02
 -0.103162862234E+02
 -0.996859635380E+01
 -0.996859635380E+01
 -0.952510776707E+01
 -0.952510776707E+01
 -0.894767128515E+01
 -0.894767128515E+01
 -0.816894937258E+01
 -0.816894937258E+01
 -0.705950215894E+01
 -0.705950215894E+01
 -0.533872210419E+01
 -0.533872210419E+01
 -0.228913622202E+01
 -0.228913622202E+01
  0.430960052141E+01
  0.430960052141E+01
