# vtk DataFile Version 3.0
MachLine results file. Generated by MachLine, USU AeroLab (c) 2022.
ASCII
DATASET POLYDATA
POINTS                 785 float
  0.999999966559E+00  0.814670558526E-09  0.000000000000E+00
  0.986029586582E+00  0.681438425530E-03 -0.972833836564E-28
  0.945070412751E+00  0.267943449911E-02  0.000000000000E+00
  0.879913776894E+00  0.585779483711E-02 -0.300341939229E-27
  0.794999996134E+00  0.999992074832E-02  0.171145304466E-27
  0.696115804325E+00  0.148235336767E-01 -0.368937073795E-27
  0.589999995737E+00  0.199999126079E-01  0.000000000000E+00
  0.483884187363E+00  0.251762959297E-01  0.000000000000E+00
  0.384999996168E+00  0.299999214438E-01 -0.169643385649E-27
  0.300086216332E+00  0.341420662885E-01 -0.149730453996E-27
  0.234929581606E+00  0.373204498051E-01  0.000000000000E+00
  0.193970409076E+00  0.393184725632E-01  0.000000000000E+00
  0.180000006999E+00  0.399999509033E-01  0.000000000000E+00
  0.171087207603E+00  0.380193346446E-01  0.395471341968E-24
  0.146114092886E+00  0.324697478000E-01 -0.223307271858E-24
  0.110026895248E+00  0.244503683159E-01  0.466298650409E-24
  0.699731272199E-01  0.155495305791E-01 -0.469804537524E-24
  0.338859273769E-01  0.753016101404E-02  0.397651048211E-24
  0.891281122899E-02  0.198058061102E-02  0.000000000000E+00
  0.419262868147E-07 -0.000000000000E+00  0.000000000000E+00
  0.891281122899E-02 -0.198058061102E-02  0.000000000000E+00
  0.338859273769E-01 -0.753016101404E-02  0.397651048211E-24
  0.699731272199E-01 -0.155495305791E-01  0.000000000000E+00
  0.110026895248E+00 -0.244503683159E-01  0.000000000000E+00
  0.146114092886E+00 -0.324697478000E-01  0.446614543717E-24
  0.171087207603E+00 -0.380193346446E-01 -0.395471341968E-24
  0.180000006999E+00 -0.399999509033E-01  0.102076872804E-24
  0.193970409076E+00 -0.393184725632E-01  0.949379720169E-28
  0.234929581606E+00 -0.373204498051E-01  0.629181098527E-28
  0.300086216332E+00 -0.341420662885E-01 -0.748652269982E-28
  0.384999996168E+00 -0.299999214438E-01  0.000000000000E+00
  0.483884187363E+00 -0.251762959297E-01  0.275248847187E-27
  0.589999995737E+00 -0.199999126079E-01  0.000000000000E+00
  0.696115804325E+00 -0.148235336767E-01  0.276702805346E-27
  0.794999996134E+00 -0.999992074832E-02  0.171145304466E-27
  0.879913776894E+00 -0.585779483711E-02  0.000000000000E+00
  0.945070412751E+00 -0.267943449911E-02 -0.124010670982E-27
  0.986029586582E+00 -0.681438425530E-03  0.000000000000E+00
  0.100006655294E+01  0.108608057788E-08  0.529748284313E-01
  0.984332813240E+00  0.767451346961E-03  0.529748283784E-01
  0.938406124488E+00  0.300776325235E-02  0.529748283793E-01
  0.866007236765E+00  0.653940444794E-02  0.529748283800E-01
  0.773001477397E+00  0.110762627243E-01  0.529748283805E-01
  0.666923619885E+00  0.162507888579E-01  0.529748283807E-01
  0.556367461372E+00  0.216437734868E-01  0.529748283806E-01
  0.450289604313E+00  0.268183089089E-01  0.529748283803E-01
  0.357283845790E+00  0.313551844991E-01  0.529748283797E-01
  0.284884959195E+00  0.348868488404E-01  0.529748283790E-01
  0.238958271955E+00  0.371271917013E-01  0.529748283780E-01
  0.223224496318E+00  0.378946882341E-01  0.529748231268E-01
  0.214780794290E+00  0.360183165931E-01  0.529748193330E-01
  0.191122053366E+00  0.307608162666E-01  0.529748188394E-01
  0.156934182564E+00  0.231635064804E-01  0.529748177516E-01
  0.118988507775E+00  0.147311330538E-01  0.529748174880E-01
  0.848006348337E-01  0.713383290141E-02  0.529748185299E-01
  0.611418918579E-01  0.187634180650E-02  0.529748200770E-01
  0.526982142786E-01  0.315107371630E-23  0.529747907577E-01
  0.611418918579E-01 -0.187634180650E-02  0.529748200770E-01
  0.848006348337E-01 -0.713383290141E-02  0.529748185299E-01
  0.118988507775E+00 -0.147311330538E-01  0.529748174880E-01
  0.156934182564E+00 -0.231635064804E-01  0.529748177516E-01
  0.191122053366E+00 -0.307608162666E-01  0.529748188394E-01
  0.214780794290E+00 -0.360183165931E-01  0.529748193330E-01
  0.223224496318E+00 -0.378946882341E-01  0.529748231268E-01
  0.238958271955E+00 -0.371271917013E-01  0.529748283780E-01
  0.284884959195E+00 -0.348868488404E-01  0.529748283790E-01
  0.357283845790E+00 -0.313551844991E-01  0.529748283797E-01
  0.450289604313E+00 -0.268183089089E-01  0.529748283803E-01
  0.556367461372E+00 -0.216437734868E-01  0.529748283806E-01
  0.666923619885E+00 -0.162507888579E-01  0.529748283807E-01
  0.773001477397E+00 -0.110762627243E-01  0.529748283805E-01
  0.866007236765E+00 -0.653940444794E-02  0.529748283800E-01
  0.938406124488E+00 -0.300776325235E-02  0.529748283793E-01
  0.984332813240E+00 -0.767451346961E-03  0.529748283784E-01
  0.100013316114E+01  0.825502461510E-09  0.105949656794E+00
  0.985273509967E+00  0.724816907143E-03  0.105949656754E+00
  0.941898303941E+00  0.284066737948E-02  0.105949656755E+00
  0.873521576575E+00  0.617610482127E-02  0.105949656755E+00
  0.785682803744E+00  0.104609134625E-01  0.105949656756E+00
  0.685498160450E+00  0.153479641376E-01  0.105949656756E+00
  0.581084010684E+00  0.204413372615E-01  0.105949656756E+00
  0.480899367881E+00  0.253283979706E-01  0.105949656756E+00
  0.393060595954E+00  0.296132251867E-01  0.105949656755E+00
  0.324683869788E+00  0.329486872161E-01  0.105949656755E+00
  0.281308665254E+00  0.350645682811E-01  0.105949656754E+00
  0.266448988601E+00  0.357894247127E-01  0.105949651463E+00
  0.255660513155E+00  0.333919917255E-01  0.105949647507E+00
  0.226185837169E+00  0.268420577507E-01  0.105949646248E+00
  0.185922680033E+00  0.178946859138E-01  0.105949645493E+00
  0.145659521430E+00  0.894732068628E-02  0.105949646199E+00
  0.116184842227E+00  0.239740118673E-02  0.105949648139E+00
  0.105396391033E+00 -0.952605873546E-23  0.105949618844E+00
  0.116184842227E+00 -0.239740118673E-02  0.105949648139E+00
  0.145659521430E+00 -0.894732068628E-02  0.105949646199E+00
  0.185922680033E+00 -0.178946859138E-01  0.105949645493E+00
  0.226185837169E+00 -0.268420577507E-01  0.105949646248E+00
  0.255660513155E+00 -0.333919917255E-01  0.105949647507E+00
  0.266448988601E+00 -0.357894247127E-01  0.105949651463E+00
  0.281308665254E+00 -0.350645682811E-01  0.105949656754E+00
  0.324683869788E+00 -0.329486872161E-01  0.105949656755E+00
  0.393060595954E+00 -0.296132251867E-01  0.105949656755E+00
  0.480899367881E+00 -0.253283979706E-01  0.105949656756E+00
  0.581084010684E+00 -0.204413372615E-01  0.105949656756E+00
  0.685498160450E+00 -0.153479641376E-01  0.105949656756E+00
  0.785682803744E+00 -0.104609134625E-01  0.105949656756E+00
  0.873521576575E+00 -0.617610482127E-02  0.105949656755E+00
  0.941898303941E+00 -0.284066737948E-02  0.105949656755E+00
  0.985273509967E+00 -0.724816907143E-03  0.105949656754E+00
  0.100019975095E+01  0.101332627784E-08  0.158924485178E+00
  0.983301408411E+00  0.824262202489E-03  0.158924485129E+00
  0.934260393803E+00  0.321649193974E-02  0.158924485130E+00
  0.857877223294E+00  0.694248770549E-02  0.158924485131E+00
  0.761628813851E+00  0.116375239666E-01  0.158924485131E+00
  0.654936630405E+00  0.168420181516E-01  0.158924485131E+00
  0.548244447244E+00  0.220465181865E-01  0.158924485131E+00
  0.451996038608E+00  0.267415710136E-01  0.158924485131E+00
  0.375612869318E+00  0.304675917752E-01  0.158924485130E+00
  0.326571856330E+00  0.328598547257E-01  0.158924485129E+00
  0.309673480868E+00  0.336841613964E-01  0.158924479821E+00
  0.299519621779E+00  0.314277550804E-01  0.158924476020E+00
  0.271778750290E+00  0.252631112154E-01  0.158924474807E+00
  0.233884013801E+00  0.168420569964E-01  0.158924474456E+00
  0.195989276834E+00  0.842100492672E-02  0.158924474580E+00
  0.168248402973E+00  0.225637173743E-02  0.158924475728E+00
  0.158094566232E+00  0.306989617186E-23  0.158924448478E+00
  0.168248402973E+00 -0.225637173743E-02  0.158924475728E+00
  0.195989276834E+00 -0.842100492672E-02  0.158924474580E+00
  0.233884013801E+00 -0.168420569964E-01  0.158924474456E+00
  0.271778750290E+00 -0.252631112154E-01  0.158924474807E+00
  0.299519621779E+00 -0.314277550804E-01  0.158924476020E+00
  0.309673480868E+00 -0.336841613964E-01  0.158924479821E+00
  0.326571856330E+00 -0.328598547257E-01  0.158924485129E+00
  0.375612869318E+00 -0.304675917752E-01  0.158924485130E+00
  0.451996038608E+00 -0.267415710136E-01  0.158924485131E+00
  0.548244447244E+00 -0.220465181865E-01  0.158924485131E+00
  0.654936630405E+00 -0.168420181516E-01  0.158924485131E+00
  0.761628813851E+00 -0.116375239666E-01  0.158924485131E+00
  0.857877223294E+00 -0.694248770549E-02  0.158924485131E+00
  0.934260393803E+00 -0.321649193974E-02  0.158924485130E+00
  0.983301408411E+00 -0.824262202489E-03  0.158924485129E+00
  0.100026634408E+01  0.112023436815E-08  0.211899313559E+00
  0.980745840988E+00  0.952167507835E-03  0.211899313504E+00
  0.924538666870E+00  0.369396404478E-02  0.211899313505E+00
  0.838424280753E+00  0.789465386652E-02  0.211899313506E+00
  0.732789348526E+00  0.130475719953E-01  0.211899313506E+00
  0.620375002016E+00  0.185312003965E-01  0.211899313506E+00
  0.514740070455E+00  0.236841322074E-01  0.211899313506E+00
  0.428625685553E+00  0.278848469434E-01  0.211899313505E+00
  0.372418513165E+00  0.306266789127E-01  0.211899313504E+00
  0.352897973142E+00  0.315788979867E-01  0.211899308169E+00
  0.343378729534E+00  0.294635223393E-01  0.211899305395E+00
  0.317371663532E+00  0.236841641328E-01  0.211899303245E+00
  0.281845348294E+00  0.157894248082E-01  0.211899302696E+00
  0.246319031640E+00  0.789469185765E-02  0.211899303557E+00
  0.220311962812E+00  0.211534636900E-02  0.211899304218E+00
  0.210792742737E+00 -0.614688660102E-23  0.211899276810E+00
  0.220311962812E+00 -0.211534636900E-02  0.211899304218E+00
  0.246319031640E+00 -0.789469185765E-02  0.211899303557E+00
  0.281845348294E+00 -0.157894248082E-01  0.211899302696E+00
  0.317371663532E+00 -0.236841641328E-01  0.211899303245E+00
  0.343378729534E+00 -0.294635223393E-01  0.211899305395E+00
[...]
POINT_DATA                 785
SCALARS phi float 1
LOOKUP_TABLE default
 -0.358220397789E-15
 -0.206700975780E-13
 -0.153861298702E-13
 -0.201401395561E-14
 -0.191170863861E-13
 -0.378048287120E-13
 -0.402906874530E-13
  0.251985932120E-13
 -0.383304499252E-13
  0.505151476204E-14
  0.408700850940E-14
  0.839606162373E-15
  0.801442245901E-15
  0.119002030452E-14
  0.139645239816E-14
 -0.817054757185E-15
 -0.519549681055E-15
 -0.251534904017E-15
 -0.659194920871E-16
  0.193229391092E-20
 -0.660279123044E-16
 -0.251968584886E-15
 -0.522151766269E-15
 -0.815320033709E-15
  0.139298295121E-14
  0.118134668714E-14
  0.810115863281E-15
  0.829197821517E-15
  0.408353906245E-14
  0.505845365595E-14
 -0.383443277130E-13
  0.251864501477E-13
 -0.401866040445E-13
 -0.375758452131E-13
 -0.202418377199E-13
 -0.505541788987E-14
 -0.168103378440E-13
 -0.207403538788E-13
  0.163931368480E-15
 -0.180584713849E-14
  0.156125112838E-14
  0.253204575362E-14
  0.145924938799E-13
  0.282976767019E-13
 -0.414251966063E-14
  0.719563297835E-14
  0.119800003251E-13
  0.476355066503E-14
  0.117961196366E-14
 -0.471844785466E-15
 -0.301841884820E-15
  0.138777878078E-16
 -0.182666382020E-14
  0.104083408559E-16
 -0.348679418671E-15
 -0.211636264069E-15
  0.632958604726E-20
 -0.211202583200E-15
 -0.351281503885E-15
  0.156125112838E-16
 -0.182319437325E-14
  0.173472347598E-16
 -0.298372437868E-15
 -0.457966997658E-15
  0.118308141062E-14
  0.477395900589E-14
  0.119661225373E-13
  0.718348991402E-14
 -0.410955991459E-14
  0.284954351781E-13
  0.137685002288E-13
  0.174903494465E-14
 -0.551642065361E-14
  0.601081684426E-14
 -0.150728388104E-12
 -0.238663255825E-13
 -0.268066818743E-13
  0.168354913344E-14
 -0.380771802977E-14
 -0.570463815075E-14
 -0.258473797921E-15
 -0.607847105982E-14
 -0.447558656802E-14
  0.584601811404E-14
  0.902056207508E-15
 -0.150227053020E-14
 -0.153349555276E-14
 -0.213370987545E-14
  0.256739074445E-15
 -0.688685219963E-15
 -0.150920942410E-15
  0.778542392535E-20
 -0.151354623279E-15
 -0.693889390391E-15
  0.256739074445E-15
 -0.212677098155E-14
 -0.153002610581E-14
 -0.148839274239E-14
  0.912464548364E-15
  0.585642645490E-14
 -0.447211712107E-14
 -0.605245020768E-14
 -0.163064006742E-15
 -0.555371720834E-14
 -0.530977171953E-14
  0.108788845987E-14
 -0.176291273246E-13
 -0.170011574263E-13
  0.237426397987E-12
 -0.752349571531E-14
 -0.123690120646E-13
 -0.161437703483E-14
 -0.245203163329E-14
 -0.118403550853E-13
 -0.915933995316E-15
  0.269818889453E-13
 -0.244942954808E-14
  0.360475538308E-14
 -0.156125112838E-15
 -0.607153216592E-15
 -0.117961196366E-14
 -0.378169717763E-15
 -0.572458747072E-15
 -0.212503625807E-16
  0.106276165101E-19
 -0.203830008427E-16
 -0.568989300120E-15
 -0.385108611667E-15
 -0.117267306976E-14
 -0.596744875736E-15
 -0.149186218934E-15
  0.359087759527E-14
 -0.243902120722E-14
  0.270027056271E-13
 -0.884708972748E-15
 -0.116929035898E-13
 -0.334844998950E-14
 -0.389835733139E-14
  0.893035645433E-14
  0.124206200880E-14
  0.408527378593E-15
 -0.858861592956E-14
 -0.174747369353E-13
 -0.335701518667E-14
  0.958694928999E-14
  0.241629632969E-13
 -0.542968447981E-15
 -0.266869859544E-13
  0.216146545107E-14
 -0.402455846427E-15
 -0.693889390391E-17
 -0.447558656802E-15
 -0.964506252643E-15
 -0.256739074445E-15
 -0.403323208165E-16
  0.111735557144E-19
 -0.377302356025E-16
 -0.255004350969E-15
 -0.957567358739E-15
 -0.451028103754E-15
  0.138777878078E-16
 -0.398986399475E-15
  0.219615992059E-14
 -0.266453525910E-13
 -0.542968447981E-15
  0.242913328341E-13
  0.918796289051E-14
 -0.581858779908E-14
 -0.291129967356E-14
 -0.101047642476E-14
 -0.114838694110E-14
 -0.234465225013E-13
  0.130906570306E-13
  0.563991128105E-14
 -0.109452377717E-13
 -0.144502465549E-13
 -0.402976263469E-13
 -0.253963516883E-14
  0.621031004400E-15
  0.510008701937E-15
  0.117961196366E-15
 -0.850014503229E-15
 -0.189084858881E-15
 -0.659194920871E-16
  0.116433943023E-19
 -0.615826833972E-16
 -0.178676518026E-15
 -0.818789480661E-15
  0.135308431126E-15
  0.496130914129E-15
  0.627969898304E-15
 -0.249800180541E-14
 -0.402525235366E-13
 -0.143270811881E-13
 -0.116686174612E-13
  0.165611881847E-14
  0.154420747023E-13
 -0.165440577904E-13
  0.910452269132E-13
 -0.103302782994E-13
  0.564413966953E-14
  0.823343129785E-14
  0.708634539937E-14
  0.201384048326E-13
  0.548831813330E-13
 -0.119002030452E-14
  0.128022592527E-14
 -0.277555756156E-16
 -0.119695919842E-14
 -0.251534904017E-15
 -0.724247051220E-16
  0.109981934245E-19
 -0.667868538251E-16
 -0.227248775353E-15
 -0.118655085757E-14
  0.000000000000E+00
  0.129063426613E-14
 -0.115879528195E-14
  0.549109369086E-13
  0.202407535177E-13
  0.695537377693E-14
  0.349720252757E-14
 -0.190585394688E-13
  0.247111359153E-14
 -0.364291929955E-15
  0.749834222491E-15
  0.513021238142E-14
 -0.524320170614E-14
 -0.783921538794E-14
 -0.511639342005E-13
  0.509661757242E-14
 -0.244249065418E-14
 -0.192901250529E-14
 -0.797972798949E-15
  0.468375338514E-16
 -0.511743425413E-16
  0.110643678735E-19
 -0.459701721134E-16
  0.693889390391E-16
 -0.773686670286E-15
 -0.188737914186E-14
 -0.239391839685E-14
  0.515906761756E-14
 -0.510876063675E-13
 -0.773860142633E-14
 -0.862677984603E-14
 -0.287529473819E-13
  0.805041797114E-14
 -0.719350794209E-13
  0.490059381963E-15
  0.238643740186E-13
  0.104456374106E-13
  0.706726344113E-14
  0.225583440816E-13
  0.142594269725E-14
  0.427782809176E-14
  0.235922392733E-15
 -0.296637714392E-15
 -0.131405303305E-15
  0.120404409963E-19
 -0.124900090270E-15
 -0.268882138776E-15
  0.260208521397E-15
  0.429170587957E-14
  0.146757606068E-14
  0.226520191493E-13
  0.707246761156E-14
  0.427869545350E-14
 -0.246109556346E-13
  0.585902854011E-14
 -0.439318720291E-15
  0.921571846613E-16
  0.102253275291E-13
 -0.421537804662E-15
 -0.409394740331E-15
 -0.117232612507E-13
 -0.551295120665E-14
  0.902056207508E-16
 -0.858688120609E-15
 -0.190819582357E-15
  0.119908101596E-19
 -0.185615411930E-15
 -0.846545056277E-15
  0.100613961607E-15
 -0.548172618409E-14
 -0.116920362281E-13
 -0.402455846427E-15
 -0.259514632006E-14
 -0.311595367564E-13
  0.181504117291E-13
 -0.921571846613E-16
 -0.446691295064E-15
  0.927730114952E-14
 -0.159247615095E-14
 -0.177115266897E-13
  0.342434414158E-14
 -0.215452655716E-14
 -0.700828284295E-15
 -0.116226472890E-15
  0.132249636335E-19
 -0.114491749414E-15
 -0.695624113867E-15
 -0.212677098155E-14
  0.346597750500E-14
 -0.176837711141E-13
 -0.181799020282E-14
 -0.138552364026E-13
  0.147713872384E-13
  0.466206934169E-17
  0.623901971752E-13
  0.101134378649E-14
 -0.225514051877E-15
  0.505845365595E-14
 -0.194289029309E-14
 -0.146584133720E-14
 -0.329597460436E-16
  0.151837273240E-19
 -0.294902990916E-16
 -0.145890244330E-14
 -0.192901250529E-14
  0.505845365595E-14
 -0.791033905045E-15
 -0.149776024916E-13
 -0.395577667844E-13
  0.100136912651E-14
  0.963690932609E-13
 -0.499600361081E-15
  0.130798150089E-14
 -0.457966997658E-15
  0.111022302463E-15
 -0.121430643318E-16
  0.137080371112E-19
 -0.138777878078E-16
  0.109287578987E-15
 -0.457966997658E-15
  0.129410371308E-14
 -0.132185928869E-14
 -0.793063531512E-13
  0.248065457065E-15
  0.717134684969E-13
 -0.425354196310E-14
  0.106165076730E-14
  0.346944695195E-17
 -0.118828558104E-15
  0.128477692742E-19
 -0.124900090270E-15
 -0.190819582357E-16
  0.105124242644E-14
 -0.184574577844E-14
 -0.599676558410E-13
 -0.468156763356E-12
  0.640806852026E-14
  0.454497550706E-15
 -0.149186218934E-15
 -0.251534904017E-16
  0.111437772123E-19
 -0.364291929955E-16
 -0.161329283266E-15
  0.341740524767E-15
 -0.765013052906E-14
 -0.113615714059E-12
  0.176594849854E-14
 -0.815320033709E-16
 -0.390312782095E-16
  0.105846031182E-19
 -0.537764277553E-16
 -0.105818132035E-15
 -0.413558076673E-14
  0.361169427698E-14
  0.375047215506E-14
 -0.234187669257E-15
 -0.120996962449E-15
  0.109948847021E-19
 -0.129236898960E-15
 -0.248065457065E-15
 -0.492314522482E-14
 -0.494396190653E-15
  0.278943534937E-14
 -0.223779328401E-15
 -0.111455983332E-15
  0.125135883067E-19
 -0.116660153759E-15
 -0.231585584043E-15
 -0.449727061147E-14
  0.293601948309E-15
  0.348245737802E-15
 -0.884708972748E-16
 -0.444522890719E-16
  0.132315810784E-19
 -0.492227786308E-16
 -0.980118763927E-16
 -0.228593186047E-14
  0.145732680320E-19
  0.119695919842E-15
  0.621031004400E-14
 -0.380858539151E-14
  0.464168634084E-14
  0.143201422942E-13
  0.282647169558E-13
 -0.417374468320E-14
  0.716267323231E-14
  0.119800003251E-13
  0.477048955894E-14
  0.117267306976E-14
 -0.454497550706E-15
 -0.291433543964E-15
  0.693889390391E-17
 -0.182492909673E-14
  0.867361737988E-17
 -0.348679418671E-15
 -0.212069944938E-15
  0.633289476971E-20
 -0.212069944938E-15
 -0.349546780409E-15
  0.121430643318E-16
 -0.182492909673E-14
  0.104083408559E-16
 -0.294902990916E-15
 -0.471844785466E-15
  0.115879528195E-14
  0.476008121808E-14
  0.119626530903E-13
  0.720951076616E-14
 -0.408180433897E-14
  0.285023740720E-13
  0.140425865380E-13
 -0.360171961700E-15
 -0.160461921528E-15
 -0.200707506171E-14
 -0.105471187339E-14
 -0.167669697571E-13
 -0.158926691252E-13
  0.393218443917E-14
 -0.440121029899E-14
 -0.575407776982E-14
 -0.277555756156E-15
 -0.606459327201E-14
 -0.446864767412E-14
  0.586336534880E-14
  0.912464548364E-15
 -0.150573997715E-14
 -0.153002610581E-14
 -0.213370987545E-14
  0.267147415300E-15
 -0.695624113867E-15
 -0.150053580672E-15
  0.779204137025E-20
 -0.150053580672E-15
 -0.690419943439E-15
  0.265412691824E-15
 -0.213717932240E-14
 -0.153002610581E-14
 -0.148839274239E-14
  0.902056207508E-15
  0.586336534880E-14
 -0.446170878021E-14
 -0.605591965464E-14
 -0.173472347598E-15
 -0.550427758927E-14
 -0.471996573770E-14
 -0.115684371804E-14
 -0.285570178615E-13
 -0.240935743578E-13
 -0.444956571588E-15
  0.132793082086E-14
  0.110020499655E-13
 -0.135449377409E-14
 -0.297548444217E-14
 -0.118689780226E-13
 -0.935015953551E-15
  0.269749500514E-13
 -0.246330733589E-14
  0.360128593613E-14
 -0.173472347598E-15
 -0.617561557448E-15
 -0.118308141062E-14
 -0.388578058619E-15
 -0.575928194024E-15
 -0.212503625807E-16
  0.106342339550E-19
 -0.199493199737E-16
 -0.572458747072E-15
 -0.364291929955E-15
 -0.117961196366E-14
 -0.610622663544E-15
 -0.145716771982E-15
  0.359087759527E-14
 -0.247024622979E-14
  0.270200528618E-13
 -0.870831184940E-15
 -0.116634132907E-13
 -0.282933398932E-14
 -0.415878269322E-14
 -0.144368024479E-13
 -0.761109925085E-14
  0.392914867309E-15
 -0.201835076430E-14
 -0.900321484032E-15
 -0.384691193830E-14
  0.926689280867E-14
  0.241716369143E-13
 -0.551642065361E-15
 -0.266765776136E-13
  0.217881268583E-14
 -0.398986399475E-15
 -0.138777878078E-16
 -0.461436444610E-15
 -0.974914593499E-15
 -0.260208521397E-15
 -0.398986399475E-16
  0.111669382695E-19
 -0.368628738645E-16
 -0.249800180541E-15
 -0.964506252643E-15
 -0.451028103754E-15
 -0.104083408559E-16
 -0.385108611667E-15
  0.217534323887E-14
 -0.266349442501E-13
 -0.499600361081E-15
  0.243121495158E-13
  0.950715201009E-14
 -0.533069682146E-14
 -0.194852814439E-13
 -0.759114993087E-14
 -0.174339709336E-15
 -0.179196935068E-13
  0.147451495458E-13
  0.365907391192E-14
 -0.113789186407E-13
 -0.145057577061E-13
 -0.402906874530E-13
 -0.257432963835E-14
  0.641847686111E-15
  0.482253126322E-15
  0.104083408559E-15
 -0.846545056277E-15
 -0.183880688454E-15
 -0.663531729561E-16
  0.116433943023E-19
 -0.611490025282E-16
 -0.175207071074E-15
 -0.829197821517E-15
  0.142247325030E-15
  0.510008701937E-15
  0.648786580015E-15
 -0.254657406273E-14
 -0.402455846427E-13
 -0.142906519951E-13
 -0.112427428478E-13
  0.363825723021E-14
  0.137823780166E-13
 -0.220847645727E-13
 -0.717308157316E-15
  0.108593689596E-14
 -0.219342773111E-13
  0.490059381963E-14
  0.691720986046E-14
  0.201262617683E-13
  0.549178758025E-13
 -0.117614251671E-14
  0.127328703137E-14
 -0.416333634234E-16
 -0.121083698623E-14
 -0.244596010113E-15
 -0.724247051220E-16
  0.110015021470E-19
 -0.659194920871E-16
 -0.232452945781E-15
 -0.118308141062E-14
  0.346944695195E-17
  0.131145094784E-14
 -0.115185638805E-14
  0.549144063555E-13
  0.202667743698E-13
  0.713491765669E-14
  0.683134104840E-14
  0.852443116095E-14
 -0.894423424214E-14
 -0.373832909073E-15
  0.583300768797E-14
 -0.316111793825E-13
 -0.793549254086E-14
 -0.789646126265E-14
 -0.511639342005E-13
  0.511396480718E-14
 -0.244942954808E-14
 -0.192554305833E-14
 -0.801442245901E-15
  0.503069808033E-16
 -0.529090660173E-16
  0.110577504286E-19
 -0.455364912444E-16
  0.728583859910E-16
 -0.777156117238E-15
 -0.189431803577E-14
 -0.241820452551E-14
  0.516253706451E-14
 -0.510702591328E-13
 -0.770217223334E-14
 -0.592494803220E-14
  0.798751793975E-14
  0.297591812304E-14
  0.552509427099E-15
  0.375654368723E-14
 -0.290944568784E-13
  0.472625411030E-14
  0.696491475605E-14
  0.225444662938E-13
  0.139471767469E-14
  0.426741975090E-14
  0.208166817117E-15
 -0.296637714392E-15
 -0.131838984174E-15
  0.120404409963E-19
 -0.124032728532E-15
 -0.268882138776E-15
  0.249800180541E-15
  0.429864477347E-14
  0.147104550763E-14
  0.226242635737E-13
  0.718522463750E-14
  0.100058850094E-13
  0.283477668422E-13
  0.259688104354E-14
 -0.441487124636E-15
  0.152044175861E-13
 -0.344728585955E-13
 -0.259514632006E-14
 -0.457966997658E-15
 -0.117440779324E-13
 -0.554070678227E-14
  0.728583859910E-16
 -0.862157567560E-15
 -0.191253263226E-15
  0.119908101596E-19
 -0.184314369323E-15
 -0.834401991945E-15
  0.121430643318E-15
 -0.546437894933E-14
 -0.116677500994E-13
 -0.336536354340E-15
 -0.381639164715E-15
  0.135399504109E-13
  0.303923552991E-14
 -0.522585447138E-16
  0.124321126310E-13
 -0.163185437385E-13
 -0.193942084614E-14
 -0.177427517123E-13
  0.341740524767E-14
 -0.217881268583E-14
 -0.706032454723E-15
 -0.119262238973E-15
  0.132282723559E-19
 -0.111455983332E-15
 -0.680011602583E-15
 -0.211983208764E-14
  0.347638584586E-14
 -0.176837711141E-13
 -0.149186218934E-14
  0.117666293376E-13
  0.189171595055E-14
  0.137693675906E-16
 -0.372683654770E-13
 -0.186066440033E-13
 -0.863892291036E-15
  0.503416752728E-14
 -0.195676808090E-14
 -0.148665801891E-14
 -0.364291929955E-16
  0.151671837118E-19
 -0.268882138776E-16
 -0.145543299634E-14
 -0.191513471748E-14
  0.510008701937E-14
 -0.138777878078E-15
  0.463691585129E-14
  0.600951580165E-13
  0.997465998687E-15
 -0.766348789982E-13
 -0.266453525910E-14
  0.125940924356E-14
 -0.464905891562E-15
  0.919403442268E-16
 -0.173472347598E-16
  0.136981109439E-19
 -0.867361737988E-17
  0.124900090270E-15
 -0.444089209850E-15
  0.132532873565E-14
  0.811850586757E-15
  0.937062927253E-13
  0.220309881449E-15
 -0.582086462364E-13
 -0.330638294521E-14
  0.103042574473E-14
 -0.190819582357E-16
 -0.128369537222E-15
  0.128576954415E-19
 -0.115359111152E-15
  0.520417042793E-17
  0.108246744901E-14
 -0.276514922071E-14
  0.699457852749E-13
 -0.212677098155E-14
 -0.961036805691E-14
  0.371230823859E-15
 -0.163064006742E-15
 -0.381639164715E-16
  0.111404684899E-19
 -0.268882138776E-16
 -0.147451495458E-15
  0.411129463807E-15
  0.834055047250E-14
  0.113563672355E-12
 -0.370363462121E-14
 -0.988792381307E-16
 -0.477048955894E-16
  0.105945292856E-19
 -0.451028103754E-16
 -0.832667268469E-16
  0.135134958779E-14
  0.361863317089E-14
 -0.340005801291E-14
 -0.237657116209E-15
 -0.124466409401E-15
  0.110015021470E-19
 -0.124466409401E-15
 -0.238524477947E-15
  0.222738494315E-14
 -0.503069808033E-15
 -0.243121495158E-14
 -0.222911966663E-15
 -0.112323345069E-15
  0.125168970292E-19
 -0.115792792021E-15
 -0.229850860567E-15
  0.724247051220E-15
  0.289265139619E-15
 -0.119392343234E-14
 -0.884708972748E-16
 -0.442354486374E-16
  0.132481246906E-19
 -0.492227786308E-16
 -0.984455572617E-16
 -0.738992200766E-15
  0.145757495738E-19
 -0.306178693510E-15
 -0.133053290607E-14
  0.149785565895E-12
 -0.238032683841E-12
 -0.150660733889E-14
  0.272351585728E-15
 -0.917451878357E-13
 -0.386843335143E-15
  0.713955804199E-13
  0.135742111995E-15
 -0.264545330086E-16
  0.127719015919E-15
 -0.655291793050E-15
  0.508273978461E-15
  0.469704136696E-12
  0.115723403082E-12
 -0.207299455379E-14
  0.166533453694E-14
  0.205131051034E-15
 -0.126895022268E-14
  0.962771529167E-16
 -0.163064006742E-15
 -0.149359691282E-14
 -0.707767178199E-15
  0.260208521397E-17
 -0.375567632549E-15
 -0.109200842813E-14
  0.136609473733E-15
 -0.689552581701E-16
  0.118936978322E-15
 -0.646184494801E-15
  0.532560107125E-15
  0.366373598126E-14
 -0.111429962479E-12
 -0.209034178855E-14
  0.167227343084E-14
  0.209034178855E-15
SCALARS phi_mu float 1
LOOKUP_TABLE default
 -0.667880135452E-02
 -0.616225222227E-02
 -0.464800121880E-02
 -0.223992854900E-02
  0.896268527453E-03
  0.454326554286E-02
  0.844395078740E-02
  0.123099361864E-01
  0.158074129361E-01
  0.183674035214E-01
  0.173102332091E-01
  0.159939640083E-01
  0.154577154781E-01
  0.146923175049E-01
  0.125477240899E-01
  0.944869537149E-02
  0.600903240864E-02
  0.291000119601E-02
  0.765405434368E-03
  0.365914161223E-08
  0.765405434368E-03
  0.291000119601E-02
  0.600903240864E-02
  0.944869537149E-02
  0.125477240899E-01
  0.146923175049E-01
  0.154577154781E-01
  0.159939640083E-01
  0.173102332091E-01
  0.183674035214E-01
  0.158074129361E-01
  0.123099361864E-01
  0.844395078740E-02
  0.454326554286E-02
  0.896268527452E-03
 -0.223992854901E-02
 -0.464800121880E-02
 -0.616225222227E-02
 -0.663753057093E-02
 -0.605422217449E-02
 -0.435127151974E-02
 -0.166574303659E-02
  0.178655911705E-02
  0.572909396136E-02
  0.984804934813E-02
  0.138197822162E-01
  0.173385199933E-01
  0.193613495109E-01
  0.191986991819E-01
  0.196263438543E-01
  0.188682381765E-01
  0.167289968814E-01
  0.135793861653E-01
  0.991973432156E-02
  0.617197536709E-02
  0.200078203769E-02
  0.178275897795E-07
  0.200078203769E-02
  0.617197536709E-02
  0.991973432156E-02
  0.135793861653E-01
  0.167289968814E-01
  0.188682381765E-01
  0.196263438543E-01
  0.191986991819E-01
  0.193613495109E-01
  0.173385199933E-01
  0.138197822162E-01
  0.984804934813E-02
  0.572909396136E-02
  0.178655911705E-02
 -0.166574303659E-02
 -0.435127151974E-02
 -0.605422217448E-02
 -0.650814554829E-02
 -0.595273022587E-02
 -0.432980074767E-02
 -0.176519497290E-02
  0.154516283909E-02
  0.535654602588E-02
  0.940826304954E-02
  0.134788859078E-01
  0.175160825587E-01
  0.215409771764E-01
  0.223405737198E-01
  0.226482772940E-01
  0.215955273164E-01
  0.186422222952E-01
  0.142992474188E-01
  0.899469911679E-02
  0.255638787352E-02
  0.179649523379E-07
  0.255638787352E-02
  0.899469911679E-02
  0.142992474188E-01
  0.186422222952E-01
  0.215955273164E-01
  0.226482772940E-01
  0.223405737198E-01
  0.215409771764E-01
  0.175160825587E-01
  0.134788859078E-01
  0.940826304954E-02
  0.535654602588E-02
  0.154516283909E-02
 -0.176519497290E-02
 -0.432980074766E-02
 -0.595273022586E-02
 -0.628760435670E-02
 -0.564707134086E-02
 -0.378267366773E-02
 -0.858057045511E-03
  0.288159950108E-02
  0.715632269148E-02
  0.117387699515E-01
  0.166724665336E-01
  0.238191475552E-01
  0.246776181739E-01
  0.248612950251E-01
  0.237613995745E-01
  0.206227712798E-01
  0.158012189307E-01
  0.897935012389E-02
  0.240601272913E-02
  0.173683177689E-07
  0.240601272913E-02
  0.897935012389E-02
  0.158012189307E-01
  0.206227712798E-01
  0.237613995745E-01
  0.248612950251E-01
  0.246776181739E-01
  0.238191475552E-01
  0.166724665336E-01
  0.117387699515E-01
  0.715632269148E-02
  0.288159950108E-02
 -0.858057045513E-03
 -0.378267366771E-02
 -0.564707134085E-02
 -0.597045873330E-02
 -0.521518077147E-02
 -0.302613343227E-02
  0.382941840447E-03
  0.471597998384E-02
  0.971186743059E-02
  0.154506437088E-01
  0.241840236066E-01
  0.263980249195E-01
  0.263702111796E-01
  0.252083136155E-01
  0.218346280702E-01
  0.163850130776E-01
  0.841814076838E-02
  0.225563715721E-02
  0.173883860921E-07
  0.225563715721E-02
  0.841814076838E-02
  0.163850130776E-01
  0.218346280702E-01
  0.252083136155E-01