# vtk DataFile Version 3.0
MachLine results file. Generated by MachLine, USU AeroLab (c) 2023.
ASCII
DATASET POLYDATA
POINTS                 372 float
  0.976892831378E+00  0.113175114444E-02  0.745571658613E-01
  0.950744955689E+00  0.240497118194E-02  0.372785829307E-01
  0.866850181406E+00  0.649968528934E-02  0.745571658613E-01
  0.795569870846E+00  0.997448751573E-02  0.372785829307E-01
  0.662696422773E+00  0.164584052227E-01  0.745571658613E-01
  0.567692207824E+00  0.210904710778E-01  0.372785829307E-01
  0.442411352343E+00  0.272040184143E-01  0.745571658613E-01
  0.354153488621E+00  0.315069939657E-01  0.372785829307E-01
  0.290136379808E+00  0.346320658551E-01  0.745571658613E-01
  0.236518246058E+00  0.372452984810E-01  0.372785829307E-01
  0.227501137245E+00  0.340740740741E-01  0.745571658613E-01
  0.187501137245E+00  0.251851851852E-01  0.745571658613E-01
  0.161630438725E+00  0.276770081709E-01  0.372785829307E-01
  0.138714340680E+00  0.143436748375E-01  0.745571658613E-01
  0.118297105391E+00  0.180473785412E-01  0.372785829307E-01
  0.758706985201E-01  0.861928812542E-02  0.372785829307E-01
  0.458706985201E-01  0.195262145876E-02  0.372785829307E-01
  0.976986561214E+00  0.113175114444E-02  0.149114331723E+00
  0.945899961762E+00  0.265045672348E-02  0.186392914654E+00
  0.861911457642E+00  0.674517083088E-02  0.149114331723E+00
  0.778862924726E+00  0.107986048716E-01  0.186392914654E+00
  0.650928200416E+00  0.170370370370E-01  0.149114331723E+00
  0.553457576314E+00  0.217939877210E-01  0.186392914654E+00
  0.439944943190E+00  0.273289032432E-01  0.149114331723E+00
  0.386420539277E+00  0.299421358691E-01  0.186392914654E+00
  0.324869839618E+00  0.329423229296E-01  0.149114331723E+00
  0.320419509779E+00  0.300000000000E-01  0.186392914654E+00
  0.285419509779E+00  0.222222222222E-01  0.186392914654E+00
  0.253335607823E+00  0.233333333334E-01  0.149114331723E+00
  0.237086176446E+00  0.114814814815E-01  0.186392914654E+00
  0.201668941156E+00  0.118518518519E-01  0.149114331723E+00
  0.161668941156E+00  0.296296296296E-02  0.149114331723E+00
  0.973689092747E+00  0.130174763917E-02  0.298228663446E+00
  0.942508763457E+00  0.282045321820E-02  0.260950080516E+00
  0.851444517266E+00  0.726489766264E-02  0.298228663446E+00
  0.771787182654E+00  0.111483352087E-01  0.260950080516E+00
  0.647431116324E+00  0.172167708794E-01  0.298228663446E+00
  0.557036234293E+00  0.216239912263E-01  0.260950080516E+00
  0.481157173286E+00  0.253276949300E-01  0.298228663446E+00
  0.424054111394E+00  0.281109240506E-01  0.260950080516E+00
  0.403337882313E+00  0.237037037037E-01  0.298228663446E+00
  0.363337882313E+00  0.148148148148E-01  0.298228663446E+00
  0.341253980357E+00  0.181481481481E-01  0.260950080516E+00
  0.306253980357E+00  0.103703703704E-01  0.260950080516E+00
  0.271253980357E+00  0.259259259259E-02  0.260950080516E+00
  0.973782822587E+00  0.130174763917E-02  0.372785829308E+00
  0.935866724542E+00  0.315359949102E-02  0.410064412238E+00
  0.844708748511E+00  0.759804393546E-02  0.372785829308E+00
  0.757552551143E+00  0.118518518519E-01  0.410064412238E+00
  0.639932253568E+00  0.175871412497E-01  0.372785829308E+00
  0.579238377746E+00  0.205501042127E-01  0.410064412238E+00
  0.510858179494E+00  0.238834375460E-01  0.372785829308E+00
  0.497922921514E+00  0.200000000000E-01  0.410064412238E+00
  0.464589588181E+00  0.125925925926E-01  0.410064412238E+00
  0.430839019558E+00  0.133333333333E-01  0.372785829308E+00
  0.390839019558E+00  0.444444444443E-02  0.372785829308E+00
  0.962646280982E+00  0.185185185185E-02  0.484621578100E+00
  0.901952405158E+00  0.481481481482E-02  0.521900161030E+00
  0.788016651351E+00  0.103703703704E-01  0.484621578100E+00
  0.704544997751E+00  0.144444444445E-01  0.521900161030E+00
  0.613387021722E+00  0.188888888889E-01  0.484621578100E+00
  0.592507960715E+00  0.162962962963E-01  0.521900161030E+00
  0.565841294048E+00  0.103703703704E-01  0.521900161030E+00
  0.532090725426E+00  0.111111111111E-01  0.484621578100E+00
  0.498757392092E+00  0.370370370370E-02  0.484621578100E+00
  0.955241148064E+00  0.222222222222E-02  0.633735909823E+00
  0.894453542403E+00  0.518518518519E-02  0.596457326892E+00
  0.803389296211E+00  0.962962962962E-02  0.633735909823E+00
  0.727416505367E+00  0.133333333333E-01  0.596457326892E+00
  0.687092999915E+00  0.125925925926E-01  0.633735909823E+00
  0.667092999915E+00  0.814814814816E-02  0.633735909823E+00
  0.633342431293E+00  0.888888888890E-02  0.596457326892E+00
  0.606675764626E+00  0.296296296296E-02  0.596457326892E+00
  0.970566928004E+00  0.148148148148E-02  0.745571658615E+00
  0.924964507531E+00  0.370370370370E-02  0.708293075685E+00
  0.864270631709E+00  0.666666666667E-02  0.745571658615E+00
  0.803483026049E+00  0.962962962962E-02  0.708293075685E+00
  0.781678039116E+00  0.888888888888E-02  0.745571658615E+00
  0.768344705783E+00  0.592592592591E-02  0.745571658615E+00
  0.734594137160E+00  0.666666666666E-02  0.708293075685E+00
  0.714594137160E+00  0.222222222222E-02  0.708293075685E+00
  0.985892707945E+00  0.740740740740E-03  0.857407407407E+00
  0.955475472656E+00  0.222222222222E-02  0.820128824477E+00
  0.925151967206E+00  0.370370370370E-02  0.857407407407E+00
  0.879549546731E+00  0.592592592592E-02  0.820128824477E+00
  0.876263078317E+00  0.518518518518E-02  0.857407407407E+00
  0.869596411650E+00  0.370370370370E-02  0.857407407407E+00
  0.835845843028E+00  0.444444444444E-02  0.820128824477E+00
  0.822512509694E+00  0.148148148148E-02  0.820128824477E+00
  0.985986437785E+00  0.740740740740E-03  0.931964573269E+00
  0.955616067415E+00  0.222222222222E-02  0.931964573269E+00
  0.937097548896E+00  0.222222222222E-02  0.931964573269E+00
  0.930430882229E+00  0.740740740740E-03  0.931964573269E+00
  0.458706985201E-01 -0.195262145876E-02  0.372785829307E-01
  0.758706985201E-01 -0.861928812542E-02  0.372785829307E-01
  0.118297105391E+00 -0.180473785412E-01  0.372785829307E-01
  0.138714340680E+00 -0.143436748375E-01  0.745571658613E-01
  0.161630438725E+00 -0.276770081709E-01  0.372785829307E-01
  0.187501137245E+00 -0.251851851852E-01  0.745571658613E-01
  0.227501137245E+00 -0.340740740741E-01  0.745571658613E-01
  0.236518246058E+00 -0.372452984810E-01  0.372785829307E-01
  0.290136379808E+00 -0.346320658551E-01  0.745571658613E-01
  0.354153488621E+00 -0.315069939657E-01  0.372785829307E-01
  0.442411352343E+00 -0.272040184143E-01  0.745571658613E-01
  0.567692207824E+00 -0.210904710778E-01  0.372785829307E-01
  0.662696422773E+00 -0.164584052227E-01  0.745571658613E-01
  0.795569870846E+00 -0.997448751573E-02  0.372785829307E-01
  0.866850181406E+00 -0.649968528934E-02  0.745571658613E-01
  0.950744955689E+00 -0.240497118194E-02  0.372785829307E-01
  0.976892831378E+00 -0.113175114444E-02  0.745571658613E-01
  0.161668941156E+00 -0.296296296296E-02  0.149114331723E+00
  0.201668941156E+00 -0.118518518519E-01  0.149114331723E+00
  0.237086176446E+00 -0.114814814815E-01  0.186392914654E+00
  0.253335607823E+00 -0.233333333334E-01  0.149114331723E+00
  0.285419509779E+00 -0.222222222222E-01  0.186392914654E+00
  0.320419509779E+00 -0.300000000000E-01  0.186392914654E+00
  0.324869839618E+00 -0.329423229296E-01  0.149114331723E+00
  0.386420539277E+00 -0.299421358691E-01  0.186392914654E+00
  0.439944943190E+00 -0.273289032432E-01  0.149114331723E+00
  0.553457576314E+00 -0.217939877210E-01  0.186392914654E+00
  0.650928200416E+00 -0.170370370370E-01  0.149114331723E+00
  0.778862924726E+00 -0.107986048716E-01  0.186392914654E+00
  0.861911457642E+00 -0.674517083088E-02  0.149114331723E+00
  0.945899961762E+00 -0.265045672348E-02  0.186392914654E+00
  0.976986561214E+00 -0.113175114444E-02  0.149114331723E+00
  0.271253980357E+00 -0.259259259259E-02  0.260950080516E+00
  0.306253980357E+00 -0.103703703704E-01  0.260950080516E+00
  0.341253980357E+00 -0.181481481481E-01  0.260950080516E+00
  0.363337882313E+00 -0.148148148148E-01  0.298228663446E+00
  0.403337882313E+00 -0.237037037037E-01  0.298228663446E+00
  0.424054111394E+00 -0.281109240506E-01  0.260950080516E+00
  0.481157173286E+00 -0.253276949300E-01  0.298228663446E+00
  0.557036234293E+00 -0.216239912263E-01  0.260950080516E+00
  0.647431116324E+00 -0.172167708794E-01  0.298228663446E+00
  0.771787182654E+00 -0.111483352087E-01  0.260950080516E+00
  0.851444517266E+00 -0.726489766264E-02  0.298228663446E+00
  0.942508763457E+00 -0.282045321820E-02  0.260950080516E+00
  0.973689092747E+00 -0.130174763917E-02  0.298228663446E+00
  0.390839019558E+00 -0.444444444443E-02  0.372785829308E+00
  0.430839019558E+00 -0.133333333333E-01  0.372785829308E+00
  0.464589588181E+00 -0.125925925926E-01  0.410064412238E+00
  0.497922921514E+00 -0.200000000000E-01  0.410064412238E+00
  0.510858179494E+00 -0.238834375460E-01  0.372785829308E+00
  0.579238377746E+00 -0.205501042127E-01  0.410064412238E+00
  0.639932253568E+00 -0.175871412497E-01  0.372785829308E+00
  0.757552551143E+00 -0.118518518519E-01  0.410064412238E+00
  0.844708748511E+00 -0.759804393546E-02  0.372785829308E+00
  0.935866724542E+00 -0.315359949102E-02  0.410064412238E+00
  0.973782822587E+00 -0.130174763917E-02  0.372785829308E+00
  0.498757392092E+00 -0.370370370370E-02  0.484621578100E+00
  0.532090725426E+00 -0.111111111111E-01  0.484621578100E+00
  0.565841294048E+00 -0.103703703704E-01  0.521900161030E+00
  0.592507960715E+00 -0.162962962963E-01  0.521900161030E+00
  0.613387021722E+00 -0.188888888889E-01  0.484621578100E+00
  0.704544997751E+00 -0.144444444445E-01  0.521900161030E+00
  0.788016651351E+00 -0.103703703704E-01  0.484621578100E+00
  0.901952405158E+00 -0.481481481482E-02  0.521900161030E+00
  0.962646280982E+00 -0.185185185185E-02  0.484621578100E+00
  0.606675764626E+00 -0.296296296296E-02  0.596457326892E+00
  0.633342431293E+00 -0.888888888890E-02  0.596457326892E+00
  0.667092999915E+00 -0.814814814816E-02  0.633735909823E+00
[...]
POINT_DATA                 372
SCALARS BC_type int 1
LOOKUP_TABLE default
           3
           3
           3
           3
           3
           3
           3
           3
           3
           3
           3
           3
           3
           3
           3
           3
           3
           3
           3
           3
           3
           3
           3
           3
           3
           3
           3
           3
           3
           3
           3
           3
           3
           3
           3
           3
           3
           3
           3
           3
           3
           3
           3
           3
           3
           3
           3
           3
           3
           3
           3
           3
           3
           3
           3
           3
           3
           3
           3
           3
           3
           3
           3
           3
           3
           3
           3
           3
           3
           3
           3
           3
           3
           3
           3
           3
           3
           3
           3
           3
           3
           3
           3
           3
           3
           3
           3
           3
           3
           3
           3
           3
           3
           3
           3
           3
           3
           3
           3
           3
           3
           3
           3
           3
           3
           3
           3
           3
           3
           3
           3
           3
           3
           3
           3
           3
           3
           3
           3
           3
           3
           3
           3
           3
           3
           3
           3
           3
           3
           3
           3
           3
           3
           3
           3
           3
           3
           3
           3
           3
           3
           3
           3
           3
           3
           3
           3
           3
           3
           3
           3
           3
           3
           3
           3
           3
           3
           3
           3
           3
           3
           3
           3
           3
           3
           3
           3
           3
           3
           3
           3
           3
           3
           3
           3
           3
           3
           3
           3
           3
           3
           3
           3
           3
           3
           3
           3
           3
           3
           3
           3
           3
           3
           3
           3
           3
           3
           3
           3
           3
           3
           3
           3
           3
           3
           3
           3
           3
           3
           3
           3
           3
           3
           3
           3
           3
           3
           3
           3
           3
           3
           3
           3
           3
           3
           3
           3
           3
           3
           3
           3
           3
           3
           3
           3
           3
           3
           3
           3
           3
           3
           3
           3
           3
           3
           3
           3
           3
           3
           3
           3
           3
           3
           3
           3
           3
           3
           3
           3
           3
           3
           3
           3
           3
           3
           3
           3
           3
           3
           3
           3
           3
           3
           3
           3
           3
           3
           3
           3
           3
           3
           3
           3
           3
           3
           3
           3
           3
           3
           3
           3
           3
           3
           3
           3
           3
           3
           3
           3
           3
           3
           3
           3
           3
           3
           3
           3
           3
           3
           3
           3
           3
           3
           3
           3
           3
           3
           3
           3
           3
           3
           3
           3
           3
           3
           3
           3
           3
           3
           3
           3
           3
           3
           3
           3
           3
           3
           3
           3
           3
           3
           3
           3
           3
           3
           3
           3
           3
           3
           3
           3
           3
           3
           3
           3
           3
           3
           3
           3
           3
           3
           3
           3
           3
           3
           3
           3
           3
           3
           3
           3
           3
SCALARS residual float 1
LOOKUP_TABLE default
 -0.487353203073E-04
  0.329868691321E-06
 -0.547269311846E-03
  0.297283561967E-03
 -0.412334554452E-03
 -0.382995448287E-02
 -0.275812280243E-02
 -0.931497274680E-03
  0.689152435238E-03
  0.689722388169E-03
  0.830247765420E-03
 -0.328657954788E-03
  0.681833035562E-03
  0.120228908049E-03
  0.392829290785E-03
  0.222147573748E-03
 -0.720178101835E-04
  0.487830488909E-04
 -0.262165343247E-02
 -0.719939074852E-04
  0.106500566176E-02
 -0.564678214973E-03
  0.672459391651E-04
 -0.196472217551E-02
  0.447953667012E-03
 -0.150514965013E-02
 -0.527919474808E-03
  0.622898717005E-03
 -0.264422704659E-02
  0.751911112566E-03
  0.331172868730E-03
 -0.126654790634E-02
  0.198790363313E-03
  0.261608684585E-02
 -0.532819889466E-03
 -0.256286174192E-02
  0.259266805714E-02
 -0.393124978015E-02
 -0.216698348205E-02
 -0.189765710142E-02
  0.147051939704E-02
 -0.622140305092E-04
  0.441022754579E-03
 -0.637172646425E-03
 -0.143734134630E-02
 -0.199057871125E-03
  0.147165004545E-02
  0.247790087328E-02
 -0.972848276297E-03
 -0.455982371323E-02
 -0.266640109685E-02
 -0.711033396600E-03
  0.171589793420E-02
  0.659351358969E-03
 -0.167240354221E-02
 -0.460327561188E-02
 -0.154891433048E-02
 -0.103929983798E-03
 -0.259477209442E-02
 -0.303727844197E-02
  0.356846518652E-02
  0.134375955739E-02
  0.121420404798E-02
 -0.735403029792E-03
 -0.347451187584E-02
 -0.273655143528E-02
  0.749644052005E-04
  0.226822967448E-02
  0.636477674534E-02
  0.408030082388E-04
  0.147350063825E-03
  0.117986501160E-02
 -0.490701560708E-03
 -0.167698290503E-02
  0.284956013866E-02
  0.645001619800E-03
  0.626094969399E-03
  0.582485475108E-04
  0.394985951065E-04
  0.142805223887E-03
  0.189388348192E-03
 -0.354138901340E-04
  0.159805618745E-02
 -0.700989400043E-04
 -0.101093954551E-02
 -0.106746367430E-04
 -0.531865824660E-05
 -0.206144871149E-04
  0.313204607616E-04
  0.354363612095E-04
  0.776424504744E-04
  0.282669579998E-05
  0.760291866497E-05
 -0.720178101752E-04
  0.222147573750E-03
  0.392829290811E-03
  0.120228908054E-03
  0.681833035583E-03
 -0.328657954798E-03
  0.830247765431E-03
  0.689722388182E-03
  0.689152435222E-03
 -0.931497274661E-03
 -0.275812280243E-02
 -0.382995448287E-02
 -0.412334554451E-03
  0.297283561964E-03
 -0.547269311843E-03
  0.329868680649E-06
 -0.487353203058E-04
 -0.126654790635E-02
  0.331172868716E-03
  0.751911112574E-03
 -0.264422704658E-02
  0.622898717016E-03
 -0.527919474813E-03
 -0.150514965013E-02
  0.447953667007E-03
 -0.196472217552E-02
  0.672459391605E-04
 -0.564678214978E-03
  0.106500566177E-02
 -0.719939074753E-04
 -0.262165343247E-02
  0.487830488927E-04
 -0.143734134629E-02
 -0.637172646411E-03
  0.441022754574E-03
 -0.622140305130E-04
  0.147051939705E-02
 -0.189765710141E-02
 -0.216698348205E-02
 -0.393124978015E-02
  0.259266805714E-02
 -0.256286174192E-02
 -0.532819889469E-03
  0.261608684585E-02
  0.198790363311E-03
 -0.460327561188E-02
 -0.167240354221E-02
  0.659351358968E-03
  0.171589793420E-02
 -0.711033396604E-03
 -0.266640109685E-02
 -0.455982371323E-02
 -0.972848276298E-03
  0.247790087328E-02
  0.147165004545E-02
 -0.199057871124E-03
 -0.347451187584E-02
 -0.735403029794E-03
  0.121420404799E-02
  0.134375955739E-02
  0.356846518653E-02
 -0.303727844197E-02
 -0.259477209442E-02
 -0.103929983799E-03
 -0.154891433048E-02
 -0.490701560706E-03
  0.117986501160E-02
  0.147350063826E-03
  0.408030082430E-04
  0.636477674534E-02
  0.226822967448E-02
  0.749644051991E-04
 -0.273655143528E-02
  0.189388348193E-03
  0.142805223891E-03
  0.394985950905E-04
  0.582485475097E-04
  0.626094969399E-03
  0.645001619795E-03
  0.284956013867E-02
 -0.167698290503E-02
  0.313204607409E-04
 -0.206144871124E-04
 -0.531865824216E-05
 -0.106746367384E-04
 -0.101093954551E-02
 -0.700989400094E-04
  0.159805618745E-02
 -0.354138901252E-04
  0.760291865670E-05
  0.282669579227E-05
  0.776424504740E-04
  0.354363612193E-04
 -0.487353241179E-04
  0.329874416762E-06
 -0.547269354722E-03
  0.297283551674E-03
 -0.412334556856E-03
 -0.382995448503E-02
 -0.275812281169E-02
 -0.931497276013E-03
  0.689152434798E-03
  0.689722386108E-03
  0.830247765006E-03
 -0.328657948742E-03
  0.681833044038E-03
  0.120228910143E-03
  0.392829300046E-03
  0.222147584588E-03
 -0.720177979953E-04
  0.487830440511E-04
 -0.262165344027E-02
 -0.719939485623E-04
  0.106500565329E-02
 -0.564678225783E-03
  0.672459214104E-04
 -0.196472218087E-02
  0.447953668088E-03
 -0.150514964670E-02
 -0.527919472612E-03
  0.622898722492E-03
 -0.264422704000E-02
  0.751911116147E-03
  0.331172883082E-03
 -0.126654788987E-02
  0.198790359916E-03
  0.261608683900E-02
 -0.532819926164E-03
 -0.256286175064E-02
  0.259266805397E-02
 -0.393124979771E-02
 -0.216698348000E-02
 -0.189765709668E-02
  0.147051940034E-02
 -0.622140227499E-04
  0.441022759225E-03
 -0.637172639623E-03
 -0.143734134014E-02
 -0.199057874473E-03
  0.147165004446E-02
  0.247790083953E-02
 -0.972848256391E-03
 -0.455982371347E-02
 -0.266640108807E-02
 -0.711033394780E-03
  0.171589794363E-02
  0.659351368278E-03
 -0.167240353920E-02
 -0.460327560572E-02
 -0.154891433432E-02
 -0.103929966549E-03
 -0.259477207521E-02
 -0.303727843558E-02
  0.356846517544E-02
  0.134375957007E-02
  0.121420405591E-02
 -0.735403031024E-03
 -0.347451188226E-02
 -0.273655143098E-02
  0.749644217054E-04
  0.226822968216E-02
  0.636477675316E-02
  0.408030265256E-04
  0.147350076744E-03
  0.117986500118E-02
 -0.490701585004E-03
 -0.167698293171E-02
  0.284956014220E-02
  0.645001557923E-03
  0.626094977494E-03
  0.582485687935E-04
  0.394986076657E-04
  0.142805216086E-03
  0.189388316979E-03
 -0.354138834818E-04
  0.159805616333E-02
 -0.700989234360E-04
 -0.101093957983E-02
 -0.106746357614E-04
 -0.531866042175E-05
 -0.206145076909E-04
  0.313204113481E-04
  0.354363651367E-04
  0.776424549079E-04
  0.282669302992E-05
  0.760291327767E-05
 -0.720177979862E-04
  0.222147584589E-03
  0.392829300072E-03
  0.120228910143E-03
  0.681833044059E-03
 -0.328657948740E-03
  0.830247765016E-03
  0.689722386124E-03
  0.689152434787E-03
 -0.931497275999E-03
 -0.275812281169E-02
 -0.382995448503E-02
 -0.412334556858E-03
  0.297283551670E-03
 -0.547269354728E-03
  0.329874407776E-06
 -0.487353241249E-04
 -0.126654788988E-02
  0.331172883084E-03
  0.751911116144E-03
 -0.264422704000E-02
  0.622898722478E-03
 -0.527919472624E-03
 -0.150514964671E-02
  0.447953668085E-03
 -0.196472218088E-02
  0.672459214062E-04
 -0.564678225788E-03
  0.106500565329E-02
 -0.719939485604E-04
 -0.262165344027E-02
  0.487830440485E-04
 -0.143734134015E-02
 -0.637172639632E-03
  0.441022759219E-03
 -0.622140227480E-04
  0.147051940034E-02
 -0.189765709668E-02
 -0.216698348000E-02
 -0.393124979771E-02
  0.259266805397E-02
 -0.256286175064E-02
 -0.532819926162E-03
  0.261608683900E-02
  0.198790359922E-03
 -0.460327560571E-02
 -0.167240353920E-02
  0.659351368276E-03
  0.171589794363E-02
 -0.711033394777E-03
 -0.266640108807E-02
 -0.455982371347E-02
 -0.972848256394E-03
  0.247790083952E-02
  0.147165004447E-02
 -0.199057874470E-03
 -0.347451188227E-02
 -0.735403031023E-03
  0.121420405591E-02
  0.134375957007E-02
  0.356846517544E-02
 -0.303727843558E-02
 -0.259477207521E-02
 -0.103929966550E-03
 -0.154891433432E-02
 -0.490701585005E-03
  0.117986500118E-02
  0.147350076746E-03
  0.408030265273E-04
  0.636477675316E-02
  0.226822968216E-02
  0.749644217076E-04
 -0.273655143098E-02
  0.189388316981E-03
  0.142805216088E-03
  0.394986076732E-04
  0.582485687931E-04
  0.626094977495E-03
  0.645001557923E-03
  0.284956014220E-02
 -0.167698293170E-02
  0.313204113565E-04
 -0.206145076942E-04
 -0.531866043774E-05
 -0.106746357703E-04
 -0.101093957983E-02
 -0.700989234218E-04
  0.159805616334E-02
 -0.354138834892E-04
  0.760291326346E-05
  0.282669302637E-05
  0.776424549239E-04
  0.354363651255E-04
