# vtk DataFile Version 3.0
MachLine results file. Generated by MachLine, USU AeroLab (c) 2023.
ASCII
DATASET POLYDATA
POINTS                 488 float
  0.100001989534E+01  0.399896086805E-07  0.165003278689E-01
  0.999999166550E+00  0.406561021585E-07  0.000000000000E+00
  0.294999900523E+02  0.399896086805E-07  0.165003278689E-01
  0.295000004167E+02  0.406561021585E-07  0.000000000000E+00
  0.100004062413E+01  0.393231152025E-07  0.330006557377E-01
  0.100001989534E+01  0.399896086805E-07  0.165003278689E-01
  0.294999796879E+02  0.393231152025E-07  0.330006557377E-01
  0.294999900523E+02  0.399896086805E-07  0.165003278689E-01
  0.100006135292E+01  0.386566217245E-07  0.495009836066E-01
  0.100004062413E+01  0.393231152025E-07  0.330006557377E-01
  0.294999693235E+02  0.386566217245E-07  0.495009836066E-01
  0.294999796879E+02  0.393231152025E-07  0.330006557377E-01
  0.100008208171E+01  0.379901282464E-07  0.660013114754E-01
  0.100006135292E+01  0.386566217245E-07  0.495009836066E-01
  0.294999589591E+02  0.379901282464E-07  0.660013114754E-01
  0.294999693235E+02  0.386566217245E-07  0.495009836066E-01
  0.100010281050E+01  0.373236347684E-07  0.825016393443E-01
  0.100008208171E+01  0.379901282464E-07  0.660013114754E-01
  0.294999485947E+02  0.373236347684E-07  0.825016393443E-01
  0.294999589591E+02  0.379901282464E-07  0.660013114754E-01
  0.100012353929E+01  0.366571412904E-07  0.990019672131E-01
  0.100010281050E+01  0.373236347684E-07  0.825016393443E-01
  0.294999382304E+02  0.366571412904E-07  0.990019672131E-01
  0.294999485947E+02  0.373236347684E-07  0.825016393443E-01
  0.100014426808E+01  0.359906478124E-07  0.115502295082E+00
  0.100012353929E+01  0.366571412904E-07  0.990019672131E-01
  0.294999278660E+02  0.359906478124E-07  0.115502295082E+00
  0.294999382304E+02  0.366571412904E-07  0.990019672131E-01
  0.100016499687E+01  0.353241543344E-07  0.132002622951E+00
  0.100014426808E+01  0.359906478124E-07  0.115502295082E+00
  0.294999175016E+02  0.353241543344E-07  0.132002622951E+00
  0.294999278660E+02  0.359906478124E-07  0.115502295082E+00
  0.100018572566E+01  0.346576608564E-07  0.148502950820E+00
  0.100016499687E+01  0.353241543344E-07  0.132002622951E+00
  0.294999071372E+02  0.346576608564E-07  0.148502950820E+00
  0.294999175016E+02  0.353241543344E-07  0.132002622951E+00
  0.100020645445E+01  0.339911673784E-07  0.165003278689E+00
  0.100018572566E+01  0.346576608564E-07  0.148502950820E+00
  0.294998967728E+02  0.339911673784E-07  0.165003278689E+00
  0.294999071372E+02  0.346576608564E-07  0.148502950820E+00
  0.100022718324E+01  0.333246739004E-07  0.181503606557E+00
  0.100020645445E+01  0.339911673784E-07  0.165003278689E+00
  0.294998864084E+02  0.333246739004E-07  0.181503606557E+00
  0.294998967728E+02  0.339911673784E-07  0.165003278689E+00
  0.100024791203E+01  0.326581804224E-07  0.198003934426E+00
  0.100022718324E+01  0.333246739004E-07  0.181503606557E+00
  0.294998760440E+02  0.326581804224E-07  0.198003934426E+00
  0.294998864084E+02  0.333246739004E-07  0.181503606557E+00
  0.100026864082E+01  0.319916869444E-07  0.214504262295E+00
  0.100024791203E+01  0.326581804224E-07  0.198003934426E+00
  0.294998656796E+02  0.319916869444E-07  0.214504262295E+00
  0.294998760440E+02  0.326581804224E-07  0.198003934426E+00
  0.100028936961E+01  0.313251934664E-07  0.231004590164E+00
  0.100026864082E+01  0.319916869444E-07  0.214504262295E+00
  0.294998553152E+02  0.313251934664E-07  0.231004590164E+00
  0.294998656796E+02  0.319916869444E-07  0.214504262295E+00
  0.100031009840E+01  0.306586999884E-07  0.247504918033E+00
  0.100028936961E+01  0.313251934664E-07  0.231004590164E+00
  0.294998449508E+02  0.306586999884E-07  0.247504918033E+00
  0.294998553152E+02  0.313251934664E-07  0.231004590164E+00
  0.100033082719E+01  0.299922065104E-07  0.264005245902E+00
  0.100031009840E+01  0.306586999884E-07  0.247504918033E+00
  0.294998345864E+02  0.299922065104E-07  0.264005245902E+00
  0.294998449508E+02  0.306586999884E-07  0.247504918033E+00
  0.100035155599E+01  0.293257130323E-07  0.280505573770E+00
  0.100033082719E+01  0.299922065104E-07  0.264005245902E+00
  0.294998242220E+02  0.293257130323E-07  0.280505573770E+00
  0.294998345864E+02  0.299922065104E-07  0.264005245902E+00
  0.100037228478E+01  0.286592195543E-07  0.297005901639E+00
  0.100035155599E+01  0.293257130323E-07  0.280505573770E+00
  0.294998138576E+02  0.286592195543E-07  0.297005901639E+00
  0.294998242220E+02  0.293257130323E-07  0.280505573770E+00
  0.100039301357E+01  0.279927260763E-07  0.313506229508E+00
  0.100037228478E+01  0.286592195543E-07  0.297005901639E+00
  0.294998034932E+02  0.279927260763E-07  0.313506229508E+00
  0.294998138576E+02  0.286592195543E-07  0.297005901639E+00
  0.100041374236E+01  0.273262325983E-07  0.330006557377E+00
  0.100039301357E+01  0.279927260763E-07  0.313506229508E+00
  0.294997931288E+02  0.273262325983E-07  0.330006557377E+00
  0.294998034932E+02  0.279927260763E-07  0.313506229508E+00
  0.100043447115E+01  0.266597391203E-07  0.346506885246E+00
  0.100041374236E+01  0.273262325983E-07  0.330006557377E+00
  0.294997827644E+02  0.266597391203E-07  0.346506885246E+00
  0.294997931288E+02  0.273262325983E-07  0.330006557377E+00
  0.100045519994E+01  0.259932456423E-07  0.363007213115E+00
  0.100043447115E+01  0.266597391203E-07  0.346506885246E+00
  0.294997724000E+02  0.259932456423E-07  0.363007213115E+00
  0.294997827644E+02  0.266597391203E-07  0.346506885246E+00
  0.100047592873E+01  0.253267521643E-07  0.379507540984E+00
  0.100045519994E+01  0.259932456423E-07  0.363007213115E+00
  0.294997620356E+02  0.253267521643E-07  0.379507540984E+00
  0.294997724000E+02  0.259932456423E-07  0.363007213115E+00
  0.100049665752E+01  0.246602586863E-07  0.396007868852E+00
  0.100047592873E+01  0.253267521643E-07  0.379507540984E+00
  0.294997516712E+02  0.246602586863E-07  0.396007868852E+00
  0.294997620356E+02  0.253267521643E-07  0.379507540984E+00
  0.100051738631E+01  0.239937652083E-07  0.412508196721E+00
  0.100049665752E+01  0.246602586863E-07  0.396007868852E+00
  0.294997413068E+02  0.239937652083E-07  0.412508196721E+00
  0.294997516712E+02  0.246602586863E-07  0.396007868852E+00
  0.100053811510E+01  0.233272717303E-07  0.429008524590E+00
  0.100051738631E+01  0.239937652083E-07  0.412508196721E+00
  0.294997309425E+02  0.233272717303E-07  0.429008524590E+00
  0.294997413068E+02  0.239937652083E-07  0.412508196721E+00
  0.100055884389E+01  0.226607782523E-07  0.445508852459E+00
  0.100053811510E+01  0.233272717303E-07  0.429008524590E+00
  0.294997205781E+02  0.226607782523E-07  0.445508852459E+00
  0.294997309425E+02  0.233272717303E-07  0.429008524590E+00
  0.100057957268E+01  0.219942847743E-07  0.462009180328E+00
  0.100055884389E+01  0.226607782523E-07  0.445508852459E+00
  0.294997102137E+02  0.219942847743E-07  0.462009180328E+00
  0.294997205781E+02  0.226607782523E-07  0.445508852459E+00
  0.100060030147E+01  0.213277912962E-07  0.478509508197E+00
  0.100057957268E+01  0.219942847743E-07  0.462009180328E+00
  0.294996998493E+02  0.213277912962E-07  0.478509508197E+00
  0.294997102137E+02  0.219942847743E-07  0.462009180328E+00
  0.100062103026E+01  0.206612978182E-07  0.495009836066E+00
  0.100060030147E+01  0.213277912962E-07  0.478509508197E+00
  0.294996894849E+02  0.206612978182E-07  0.495009836066E+00
  0.294996998493E+02  0.213277912962E-07  0.478509508197E+00
  0.100064175905E+01  0.199948043402E-07  0.511510163934E+00
  0.100062103026E+01  0.206612978182E-07  0.495009836066E+00
  0.294996791205E+02  0.199948043402E-07  0.511510163934E+00
  0.294996894849E+02  0.206612978182E-07  0.495009836066E+00
  0.100066248784E+01  0.193283108622E-07  0.528010491803E+00
  0.100064175905E+01  0.199948043402E-07  0.511510163934E+00
  0.294996687561E+02  0.193283108622E-07  0.528010491803E+00
  0.294996791205E+02  0.199948043402E-07  0.511510163934E+00
  0.100068321663E+01  0.186618173842E-07  0.544510819672E+00
  0.100066248784E+01  0.193283108622E-07  0.528010491803E+00
  0.294996583917E+02  0.186618173842E-07  0.544510819672E+00
  0.294996687561E+02  0.193283108622E-07  0.528010491803E+00
  0.100070394542E+01  0.179953239062E-07  0.561011147541E+00
  0.100068321663E+01  0.186618173842E-07  0.544510819672E+00
  0.294996480273E+02  0.179953239062E-07  0.561011147541E+00
  0.294996583917E+02  0.186618173842E-07  0.544510819672E+00
  0.100072467421E+01  0.173288304282E-07  0.577511475410E+00
  0.100070394542E+01  0.179953239062E-07  0.561011147541E+00
  0.294996376629E+02  0.173288304282E-07  0.577511475410E+00
  0.294996480273E+02  0.179953239062E-07  0.561011147541E+00
  0.100074540300E+01  0.166623369502E-07  0.594011803279E+00
  0.100072467421E+01  0.173288304282E-07  0.577511475410E+00
  0.294996272985E+02  0.166623369502E-07  0.594011803279E+00
  0.294996376629E+02  0.173288304282E-07  0.577511475410E+00
  0.100076613179E+01  0.159958434722E-07  0.610512131148E+00
  0.100074540300E+01  0.166623369502E-07  0.594011803279E+00
  0.294996169341E+02  0.159958434722E-07  0.610512131148E+00
  0.294996272985E+02  0.166623369502E-07  0.594011803279E+00
  0.100078686058E+01  0.153293499942E-07  0.627012459016E+00
  0.100076613179E+01  0.159958434722E-07  0.610512131148E+00
  0.294996065697E+02  0.153293499942E-07  0.627012459016E+00
  0.294996169341E+02  0.159958434722E-07  0.610512131148E+00
  0.100080758937E+01  0.146628565162E-07  0.643512786885E+00
  0.100078686058E+01  0.153293499942E-07  0.627012459016E+00
  0.294995962053E+02  0.146628565162E-07  0.643512786885E+00
  0.294996065697E+02  0.153293499942E-07  0.627012459016E+00
  0.100082831816E+01  0.139963630382E-07  0.660013114754E+00
  0.100080758937E+01  0.146628565162E-07  0.643512786885E+00
  0.294995858409E+02  0.139963630382E-07  0.660013114754E+00
  0.294995962053E+02  0.146628565162E-07  0.643512786885E+00
  0.100084904695E+01  0.133298695602E-07  0.676513442623E+00
[...]
POINT_DATA                 152
SCALARS mu float 1
LOOKUP_TABLE default
  0.865613136725E-12
  0.919653242448E-12
  0.865613136725E-12
  0.919653242448E-12
  0.862032667470E-12
  0.865613136725E-12
  0.862032667470E-12
  0.865613136725E-12
  0.805855382424E-12
  0.862032667470E-12
  0.805855382424E-12
  0.862032667470E-12
  0.763444862883E-12
  0.805855382424E-12
  0.763444862883E-12
  0.805855382424E-12
  0.698052726733E-12
  0.763444862883E-12
  0.698052726733E-12
  0.763444862883E-12
  0.619060358531E-12
  0.698052726733E-12
  0.619060358531E-12
  0.698052726733E-12
  0.558164625630E-12
  0.619060358531E-12
  0.558164625630E-12
  0.619060358531E-12
  0.504207786634E-12
  0.558164625630E-12
  0.504207786634E-12
  0.558164625630E-12
  0.445338210753E-12
  0.504207786634E-12
  0.445338210753E-12
  0.504207786634E-12
  0.377947673158E-12
  0.445338210753E-12
  0.377947673158E-12
  0.445338210753E-12
  0.285466095207E-12
  0.377947673158E-12
  0.285466095207E-12
  0.377947673158E-12
  0.138750122503E-12
  0.204947170346E-12
  0.138750122503E-12
  0.204947170346E-12
  0.204947170346E-12
  0.285466095207E-12
  0.204947170346E-12
  0.285466095207E-12
  0.826561041833E-13
  0.138750122503E-12
  0.826561041833E-13
  0.138750122503E-12
  0.364708263589E-13
  0.826561041833E-13
  0.364708263589E-13
  0.826561041833E-13
  0.123234755733E-13
  0.364708263589E-13
  0.123234755733E-13
  0.364708263589E-13
  0.666133814775E-15
  0.272004641033E-14
  0.666133814775E-15
  0.272004641033E-14
  0.000000000000E+00
  0.666133814775E-15
  0.000000000000E+00
  0.666133814775E-15
  0.272004641033E-14
  0.123234755733E-13
  0.272004641033E-14
  0.123234755733E-13
  0.919653242448E-12
  0.867139693383E-12
  0.919653242448E-12
  0.867139693383E-12
  0.867139693383E-12
  0.857786064401E-12
  0.867139693383E-12
  0.857786064401E-12
  0.857786064401E-12
  0.790617571411E-12
  0.857786064401E-12
  0.790617571411E-12
  0.790617571411E-12
  0.754479811960E-12
  0.790617571411E-12
  0.754479811960E-12
  0.754479811960E-12
  0.679539757797E-12
  0.754479811960E-12
  0.679539757797E-12
  0.679539757797E-12
  0.614397421828E-12
  0.679539757797E-12
  0.614397421828E-12
  0.614397421828E-12
  0.555111512313E-12
  0.614397421828E-12
  0.555111512313E-12
  0.555111512313E-12
  0.504291053360E-12
  0.555111512313E-12
  0.504291053360E-12
  0.504291053360E-12
  0.445338210753E-12
  0.504291053360E-12
  0.445338210753E-12
  0.445338210753E-12
  0.376670916680E-12
  0.445338210753E-12
  0.376670916680E-12
  0.376670916680E-12
  0.282135426133E-12
  0.376670916680E-12
  0.282135426133E-12
  0.282135426133E-12
  0.199895655584E-12
  0.282135426133E-12
  0.199895655584E-12
  0.136862743361E-12
  0.814348588563E-13
  0.136862743361E-12
  0.814348588563E-13
  0.814348588563E-13
  0.369704267200E-13
  0.814348588563E-13
  0.369704267200E-13
  0.199895655584E-12
  0.136862743361E-12
  0.199895655584E-12
  0.136862743361E-12
  0.369704267200E-13
  0.133504318711E-13
  0.369704267200E-13
  0.133504318711E-13
  0.255351295664E-14
 -0.166533453694E-15
  0.255351295664E-14
 -0.166533453694E-15
  0.133504318711E-13
  0.255351295664E-14
  0.133504318711E-13
  0.255351295664E-14
 -0.166533453694E-15
  0.000000000000E+00
 -0.166533453694E-15
  0.000000000000E+00
