# vtk DataFile Version 3.0
MachLine results file. Generated by MachLine, USU AeroLab (c) 2022.
ASCII
DATASET POLYDATA
POINTS                2966 float
  0.113322870066E-05 -0.370826812767E-22  0.000000000000E+00
  0.895788812803E-03 -0.418023021236E-23 -0.198159314538E-03
  0.895834137863E-03  0.516901252863E-23  0.197955351769E-03
  0.201996766335E-02  0.122705061090E-22 -0.447996331931E-03
  0.202001422552E-02  0.102118780060E-22  0.447786802168E-03
  0.342212574567E-02  0.198939321901E-22 -0.759611127098E-03
  0.342214496347E-02  0.703684756323E-22  0.759524646969E-03
  0.515721585469E-02  0.486459452813E-22 -0.114509068938E-02
  0.515718594654E-02  0.452388198602E-22  0.114522527607E-02
  0.728331073113E-02  0.242372014710E-22 -0.161746420293E-02
  0.728325853695E-02  0.148352229509E-22  0.161769907673E-02
  0.794130578519E-02  0.798252410695E-02 -0.205714609302E-22
  0.794264139484E-02 -0.798119547229E-02 -0.137118660907E-21
  0.880583560939E-02  0.798270785014E-02 -0.191929116648E-03
  0.880584659578E-02  0.798269692113E-02  0.191879677883E-03
  0.880617114750E-02 -0.798237406432E-02 -0.190419195148E-03
  0.880618281252E-02 -0.798236246023E-02  0.190366702572E-03
  0.985743462027E-02  0.000000000000E+00 -0.218951238828E-02
  0.985738825557E-02  0.000000000000E+00  0.218972102943E-02
  0.989125230963E-02  0.798270919186E-02 -0.433139196959E-03
  0.989125691258E-02  0.798270461295E-02  0.433118483686E-03
  0.989153710166E-02 -0.798242588711E-02 -0.431857632850E-03
  0.989160686623E-02 -0.798235648687E-02  0.431543692261E-03
  0.112450592270E-01  0.798271497314E-02 -0.734012623409E-03
  0.112450789953E-01  0.798269530810E-02  0.733923666155E-03
  0.112453180861E-01 -0.798245746591E-02 -0.732847757539E-03
  0.112453839943E-01 -0.798239190187E-02  0.732551170501E-03
  0.129203172305E-01  0.798269685473E-02 -0.110620616963E-02
  0.129203046121E-01  0.798270940730E-02  0.110626295274E-02
  0.129205799605E-01 -0.798243549686E-02 -0.110502388495E-02
  0.129206142917E-01 -0.798240134492E-02  0.110486939442E-02
  0.129291428206E-01  0.135715883447E-22 -0.287216359944E-02
  0.129291141323E-01 -0.116940556359E-22  0.287229269653E-02
  0.149730629251E-01  0.798271351275E-02 -0.156245095723E-02
  0.149730605950E-01  0.798271583062E-02  0.156246144242E-02
  0.149733451331E-01 -0.798243277848E-02 -0.156118102102E-02
  0.149733591811E-01 -0.798241880389E-02  0.156111780521E-02
  0.158824321431E-01  0.159652267022E-01  0.000000000000E+00
  0.158840649878E-01 -0.159636023847E-01  0.000000000000E+00
  0.165318162758E-01  0.450172581539E-23 -0.367276249178E-02
  0.165317992875E-01  0.000000000000E+00  0.367283893909E-02
  0.167160461298E-01  0.159654434475E-01 -0.184962161883E-03
  0.167160235458E-01  0.159654659136E-01  0.185063789956E-03
  0.167165173602E-01 -0.159649746781E-01 -0.182841625364E-03
  0.167165431902E-01 -0.159649489830E-01  0.182725390403E-03
  0.174584244850E-01  0.798271715373E-02 -0.211477080967E-02
  0.174584371561E-01  0.798270454873E-02  0.211471378940E-02
  0.174587503650E-01 -0.798239297550E-02 -0.211330434929E-02
  0.174587248327E-01 -0.798241837446E-02  0.211341924463E-02
  0.177626868084E-01  0.159654558240E-01 -0.417607730366E-03
  0.177626881474E-01  0.159654544920E-01  0.417601704622E-03
  0.177631265729E-01 -0.159650183562E-01 -0.415628790259E-03
  0.177631770512E-01 -0.159649681414E-01  0.415401637728E-03
  0.190681587637E-01  0.159654461993E-01 -0.707666920201E-03
  0.190681502444E-01  0.159654546741E-01  0.707705256882E-03
  0.190686010585E-01 -0.159650062143E-01 -0.705676593573E-03
  0.190686146437E-01 -0.159649927000E-01  0.705615460032E-03
  0.204242200994E-01  0.798271886031E-02 -0.277384460260E-02
  0.204242326595E-01  0.798270636581E-02  0.277378808216E-02
  0.204245587876E-01 -0.798238194083E-02 -0.277232050558E-02
  0.204245265016E-01 -0.798241405830E-02  0.277246579294E-02
  0.206725300498E-01  0.000000000000E+00 -0.459296878295E-02
  0.206725174268E-01 -0.400610246444E-23  0.459302558634E-02
  0.206835807980E-01  0.159654340189E-01 -0.106659177417E-02
  0.206835640520E-01  0.159654506774E-01  0.106666713102E-02
  0.206839519575E-01 -0.159650647977E-01 -0.106492155620E-02
  0.206839862402E-01 -0.159650306940E-01  0.106476728409E-02
  0.226630237566E-01  0.159654405261E-01 -0.150649887725E-02
  0.226630240252E-01  0.159654402589E-01  0.150649766863E-02
  0.226633760421E-01 -0.159650900804E-01 -0.150491359261E-02
  0.226634057595E-01 -0.159650605182E-01  0.150477986445E-02
  0.238236332612E-01  0.239478549286E-01  0.369239022141E-22
  0.238250446321E-01 -0.239464509284E-01  0.160082133649E-21
  0.239026680318E-01  0.798271525686E-02 -0.354681592696E-02
  0.239026787450E-01  0.798270459961E-02  0.354676771757E-02
  0.239030003358E-01 -0.798238468825E-02 -0.354532055888E-02
  0.239029621863E-01 -0.798242263849E-02  0.354549223149E-02
  0.246262743095E-01  0.239481614810E-01 -0.177915749762E-03
  0.246262413539E-01  0.239481942645E-01  0.178064049834E-03
  0.246267343985E-01 -0.239477037947E-01 -0.175845349164E-03
  0.246267055579E-01 -0.239477324847E-01  0.175975131750E-03
  0.250596129341E-01  0.159654534607E-01 -0.203913565064E-02
  0.250596087263E-01  0.159654576465E-01  0.203915458545E-02
  0.250600113112E-01 -0.159650571641E-01 -0.203734295381E-02
  0.250599956470E-01 -0.159650727465E-01  0.203741344262E-02
  0.253223647938E-01 -0.435246395461E-23 -0.562625002803E-02
  0.253223458693E-01 -0.118188627171E-22  0.562633518794E-02
  0.256341291883E-01  0.239481946182E-01 -0.402040802936E-03
  0.256341030767E-01  0.239482205934E-01  0.402158305082E-03
  0.256346329741E-01 -0.239476934633E-01 -0.399773766919E-03
  0.256346246972E-01 -0.239477016970E-01  0.399811012936E-03
  0.268912257024E-01  0.239482098441E-01 -0.681467862605E-03
  0.268912388193E-01  0.239481967958E-01  0.681408836860E-03
  0.268916982067E-01 -0.239477398074E-01 -0.679341593190E-03
  0.268917110945E-01 -0.239477269869E-01  0.679283598059E-03
  0.279006002802E-01  0.798272325644E-02 -0.443528328804E-02
  0.279006072569E-01  0.798271631617E-02  0.443525189285E-02
  0.279009464570E-01 -0.798237888752E-02 -0.443372549258E-02
  0.279008997574E-01 -0.798242534318E-02  0.443393564051E-02
  0.279194833042E-01  0.159654590512E-01 -0.267468893893E-02
  0.279194804284E-01  0.159654619121E-01  0.267470188024E-02
  0.279198918617E-01 -0.159650526274E-01 -0.267285043030E-02
  0.279198976354E-01 -0.159650468839E-01  0.267282444885E-02
  0.284468257551E-01  0.239481896972E-01 -0.102706112504E-02
  0.284468380444E-01  0.239481774721E-01  0.102700582330E-02
  0.284472283864E-01 -0.239477891686E-01 -0.102524928438E-02
  0.284472600328E-01 -0.239477576875E-01  0.102510687559E-02
  0.303529762292E-01  0.239481758557E-01 -0.145058441338E-02
  0.303529488429E-01  0.239482030991E-01  0.145070765193E-02
  0.303533848765E-01 -0.239477693426E-01 -0.144874550079E-02
  0.303533758532E-01 -0.239477783188E-01  0.144878610562E-02
  0.304096226489E-01  0.895166394038E-23 -0.675672507008E-02
  0.304096091111E-01  0.418050075257E-23  0.675678599003E-02
  0.312737072656E-01  0.159654493010E-01 -0.342002575663E-02
  0.312736943606E-01  0.159654621387E-01  0.342008382935E-02
  0.312741522523E-01 -0.159650066382E-01 -0.341802331657E-02
  0.312741581784E-01 -0.159650007430E-01  0.341799664903E-02
  0.317646609786E-01  0.319306556502E-01  0.000000000000E+00
  0.317658680427E-01 -0.319294548897E-01  0.000000000000E+00
  0.323900950584E-01  0.798272096031E-02 -0.543293789620E-02
  0.323900963153E-01  0.798271970994E-02  0.543293224001E-02
  0.323904271559E-01 -0.798239059711E-02 -0.543144345736E-02
  0.323903776292E-01 -0.798243986521E-02  0.543166632771E-02
  0.325364886382E-01  0.319308932831E-01 -0.170931622008E-03
  0.325364767055E-01  0.319309051534E-01  0.170985318731E-03
  0.325368477807E-01 -0.319305360161E-01 -0.169315480569E-03
  0.325368972537E-01 -0.319304868015E-01  0.169092852051E-03
  0.326607902979E-01  0.239482007863E-01 -0.196355032966E-02
  0.326607888065E-01  0.239482022698E-01  0.196355704075E-02
  0.326611755463E-01 -0.239478175497E-01 -0.196181671150E-02
  0.326612397554E-01 -0.239477536759E-01  0.196152777067E-02
  0.335055903337E-01  0.319309147349E-01 -0.386389385840E-03
  0.335055619737E-01  0.319309429468E-01  0.386517005862E-03
  0.335059817126E-01 -0.319305253999E-01 -0.384628180849E-03
  0.335060459580E-01 -0.319304614900E-01  0.384339076651E-03
  0.347143087954E-01  0.319309574192E-01 -0.655196111056E-03
  0.347143025996E-01  0.319309635826E-01  0.655223992177E-03
  0.347147798956E-01 -0.319304887792E-01 -0.653076160112E-03
  0.347147729460E-01 -0.319304956925E-01  0.653107433415E-03
  0.351288563490E-01  0.159654568779E-01 -0.427676152060E-02
  0.351288533081E-01  0.159654599029E-01  0.427677520458E-02
  0.351293058835E-01 -0.159650096910E-01 -0.427473861542E-02
  0.351292985280E-01 -0.159650170081E-01  0.427477171521E-02
  0.354147384611E-01  0.239482072490E-01 -0.257556948983E-02
  0.354147772803E-01  0.239481686326E-01  0.257539480348E-02
  0.354151374698E-01 -0.239478103242E-01 -0.257377395100E-02
  0.354152218822E-01 -0.239477263526E-01  0.257339409517E-02
  0.358192011725E-01 -0.161645220735E-22 -0.795894772687E-02
  0.358192330583E-01  0.473673029912E-23  0.795880424083E-02
  0.362101009568E-01  0.319309152889E-01 -0.987394375420E-03
  0.362100644005E-01  0.319309516543E-01  0.987558878803E-03
  0.362105706907E-01 -0.319304480081E-01 -0.985280572915E-03
  0.362104939652E-01 -0.319305243329E-01  0.985625837758E-03
  0.373019474923E-01  0.798269836507E-02 -0.652435339882E-02
  0.373019439689E-01  0.798270187001E-02  0.652436925386E-02
  0.373022467633E-01 -0.798240065695E-02 -0.652300667929E-02
  0.373022103353E-01 -0.798243689467E-02  0.652317060509E-02
  0.380429289931E-01  0.319309108858E-01 -0.139466859319E-02
  0.380429269209E-01  0.319309129471E-01  0.139467791776E-02
  0.380433676313E-01 -0.319304745383E-01 -0.139269472133E-02
  0.380432969375E-01 -0.319305448629E-01  0.139301284319E-02
[...]
POINT_DATA                2966
SCALARS phi float 1
LOOKUP_TABLE default
  0.132348898008E-22
  0.000000000000E+00
  0.000000000000E+00
 -0.542101086243E-19
 -0.813151629364E-19
  0.000000000000E+00
  0.000000000000E+00
 -0.108420217249E-18
  0.108420217249E-18
  0.000000000000E+00
  0.216840434497E-18
  0.264697796017E-22
 -0.529395592034E-22
 -0.271050543121E-19
  0.271050543121E-19
  0.000000000000E+00
 -0.271050543121E-19
  0.216840434497E-18
  0.216840434497E-18
  0.000000000000E+00
 -0.542101086243E-19
  0.542101086243E-19
  0.000000000000E+00
  0.000000000000E+00
 -0.108420217249E-18
 -0.108420217249E-18
 -0.108420217249E-18
 -0.216840434497E-18
  0.216840434497E-18
 -0.108420217249E-18
 -0.325260651746E-18
  0.000000000000E+00
 -0.433680868994E-18
  0.108420217249E-17
 -0.216840434497E-18
  0.000000000000E+00
  0.650521303491E-18
  0.661744490042E-23
 -0.264697796017E-22
  0.000000000000E+00
  0.000000000000E+00
 -0.271050543121E-19
  0.000000000000E+00
  0.000000000000E+00
 -0.271050543121E-19
 -0.108420217249E-17
 -0.433680868994E-18
  0.000000000000E+00
 -0.216840434497E-18
 -0.162630325873E-18
 -0.542101086243E-19
  0.216840434497E-18
 -0.542101086243E-19
  0.433680868994E-18
 -0.216840434497E-18
  0.000000000000E+00
  0.325260651746E-18
 -0.650521303491E-18
  0.216840434497E-18
  0.650521303491E-18
  0.867361737988E-18
 -0.216840434497E-18
  0.108420217249E-17
  0.216840434497E-18
  0.216840434497E-18
  0.216840434497E-18
  0.867361737988E-18
 -0.433680868994E-18
 -0.216840434497E-18
 -0.216840434497E-18
  0.650521303491E-18
  0.198523347013E-22
  0.264697796017E-22
 -0.433680868994E-18
 -0.130104260698E-17
  0.000000000000E+00
  0.000000000000E+00
  0.000000000000E+00
  0.542101086243E-19
  0.000000000000E+00
  0.000000000000E+00
  0.216840434497E-18
 -0.433680868994E-18
 -0.216840434497E-18
 -0.216840434497E-18
 -0.173472347598E-17
  0.000000000000E+00
  0.000000000000E+00
  0.542101086243E-19
 -0.542101086243E-19
  0.000000000000E+00
  0.000000000000E+00
  0.108420217249E-18
 -0.216840434497E-18
 -0.325260651746E-18
  0.433680868994E-18
 -0.130104260698E-17
  0.260208521397E-17
  0.433680868994E-18
  0.000000000000E+00
 -0.433680868994E-18
  0.433680868994E-18
  0.130104260698E-17
  0.216840434497E-18
  0.000000000000E+00
  0.000000000000E+00
  0.650521303491E-18
 -0.433680868994E-18
 -0.650521303491E-18
 -0.433680868994E-18
 -0.216840434497E-18
  0.433680868994E-18
  0.000000000000E+00
  0.000000000000E+00
  0.433680868994E-18
  0.433680868994E-18
 -0.433680868994E-18
 -0.529395592034E-22
 -0.529395592034E-22
  0.000000000000E+00
 -0.433680868994E-18
 -0.867361737988E-18
  0.000000000000E+00
  0.000000000000E+00
  0.542101086243E-19
  0.271050543121E-19
  0.000000000000E+00
  0.000000000000E+00
  0.000000000000E+00
  0.000000000000E+00
 -0.867361737988E-18
 -0.108420217249E-18
 -0.216840434497E-18
  0.000000000000E+00
  0.000000000000E+00
  0.216840434497E-18
 -0.216840434497E-18
  0.216840434497E-18
  0.000000000000E+00
 -0.433680868994E-18
 -0.433680868994E-18
  0.260208521397E-17
  0.867361737988E-18
 -0.433680868994E-18
  0.130104260698E-17
  0.216840434497E-17
  0.173472347598E-17
  0.000000000000E+00
 -0.433680868994E-18
  0.216840434497E-18
  0.000000000000E+00
  0.216840434497E-18
  0.000000000000E+00
 -0.260208521397E-17
 -0.216840434497E-17
  0.173472347598E-17
 -0.433680868994E-18
 -0.650521303491E-18
  0.433680868994E-18
  0.216840434497E-18
  0.000000000000E+00
 -0.433680868994E-18
  0.173472347598E-17
 -0.433680868994E-18
  0.867361737988E-18
 -0.216840434497E-17
 -0.390312782095E-17
  0.433680868994E-18
  0.867361737988E-18
  0.000000000000E+00
 -0.529395592034E-22
  0.433680868994E-18
 -0.173472347598E-17
  0.000000000000E+00
 -0.173472347598E-17
 -0.542101086243E-19
  0.542101086243E-19
 -0.271050543121E-19
 -0.271050543121E-19
 -0.542101086243E-19
  0.542101086243E-19
  0.000000000000E+00
  0.000000000000E+00
  0.390312782095E-17
  0.000000000000E+00
  0.346944695195E-17
  0.130104260698E-17
  0.000000000000E+00
 -0.433680868994E-18
 -0.433680868994E-18
 -0.130104260698E-17
  0.216840434497E-17
 -0.173472347598E-17
  0.000000000000E+00
 -0.216840434497E-18
 -0.108420217249E-18
  0.108420217249E-18
 -0.867361737988E-18
  0.867361737988E-18
 -0.433680868994E-18
 -0.173472347598E-17
  0.000000000000E+00
 -0.216840434497E-18
  0.216840434497E-18
 -0.216840434497E-18
  0.000000000000E+00
  0.130104260698E-17
 -0.433680868994E-18
  0.173472347598E-17
 -0.216840434497E-18
 -0.216840434497E-18
  0.108420217249E-17
  0.000000000000E+00
 -0.173472347598E-17
  0.867361737988E-18
  0.867361737988E-18
  0.000000000000E+00
  0.216840434497E-17
  0.130104260698E-17
 -0.390312782095E-17
 -0.173472347598E-17
  0.000000000000E+00
 -0.529395592034E-22
  0.867361737988E-18
  0.000000000000E+00
  0.216840434497E-18
  0.000000000000E+00
 -0.867361737988E-18
 -0.520417042793E-17
 -0.346944695195E-17
  0.520417042793E-17
  0.000000000000E+00
  0.271050543121E-19
 -0.271050543121E-19
  0.271050543121E-19
  0.520417042793E-17
  0.000000000000E+00
  0.000000000000E+00
  0.000000000000E+00
  0.000000000000E+00
 -0.542101086243E-19
  0.542101086243E-19
  0.542101086243E-19
  0.433680868994E-18
  0.000000000000E+00
  0.216840434497E-17
  0.433680868994E-18
 -0.216840434497E-18
 -0.216840434497E-18
 -0.216840434497E-18
  0.000000000000E+00
  0.433680868994E-18
  0.000000000000E+00
 -0.867361737988E-18
  0.130104260698E-17
  0.173472347598E-17
 -0.867361737988E-18
 -0.867361737988E-18
 -0.433680868994E-17
  0.108420217249E-18
  0.216840434497E-18
  0.108420217249E-18
  0.000000000000E+00
 -0.130104260698E-17
 -0.130104260698E-17
 -0.867361737988E-18
  0.173472347598E-17
  0.216840434497E-18
 -0.216840434497E-18
 -0.650521303491E-18
  0.000000000000E+00
  0.520417042793E-17
  0.346944695195E-17
 -0.260208521397E-17
  0.346944695195E-17
  0.173472347598E-17
  0.260208521397E-17
  0.260208521397E-17
 -0.173472347598E-17
 -0.433680868994E-18
  0.216840434497E-18
  0.433680868994E-18
 -0.433680868994E-18
  0.397046694025E-22
  0.105879118407E-21
  0.173472347598E-17
 -0.173472347598E-17
  0.000000000000E+00
  0.433680868994E-17
  0.000000000000E+00
  0.271050543121E-19
  0.000000000000E+00
 -0.271050543121E-19
  0.260208521397E-17
 -0.130104260698E-17
 -0.303576608296E-17
  0.216840434497E-17
  0.000000000000E+00
 -0.216840434497E-18
 -0.542101086243E-19
 -0.325260651746E-18
  0.000000000000E+00
  0.867361737988E-18
  0.000000000000E+00
 -0.433680868994E-18
  0.000000000000E+00
 -0.173472347598E-17
 -0.433680868994E-17
  0.173472347598E-17
 -0.216840434497E-18
  0.216840434497E-18
  0.216840434497E-18
  0.108420217249E-18
 -0.108420217249E-18
  0.000000000000E+00
  0.108420217249E-18
 -0.542101086243E-18
  0.346944695195E-17
  0.000000000000E+00
 -0.867361737988E-18
  0.867361737988E-18
 -0.433680868994E-18
 -0.260208521397E-17
 -0.260208521397E-17
 -0.867361737988E-18
  0.607153216592E-17
 -0.607153216592E-17
  0.000000000000E+00
  0.346944695195E-17
  0.216840434497E-18
 -0.433680868994E-18
 -0.216840434497E-18
  0.433680868994E-18
  0.260208521397E-17
  0.000000000000E+00
  0.000000000000E+00
  0.867361737988E-18
  0.650521303491E-18
 -0.108420217249E-17
  0.000000000000E+00
  0.433680868994E-18
  0.397046694025E-22
  0.794093388051E-22
  0.216840434497E-17
  0.130104260698E-17
  0.130104260698E-17
 -0.173472347598E-17
 -0.271050543121E-19
  0.271050543121E-19
  0.000000000000E+00
  0.000000000000E+00
  0.954097911787E-17
 -0.260208521397E-17
 -0.433680868994E-17
 -0.346944695195E-17
  0.000000000000E+00
  0.542101086243E-18
  0.542101086243E-19
 -0.108420217249E-18
  0.000000000000E+00
 -0.867361737988E-18
 -0.867361737988E-18
 -0.130104260698E-17
  0.108420217249E-18
  0.000000000000E+00
 -0.433680868994E-18
 -0.216840434497E-18
  0.867361737988E-18
  0.867361737988E-18
  0.108420217249E-18
  0.108420217249E-18
  0.108420217249E-18
  0.216840434497E-18
  0.173472347598E-17
 -0.173472347598E-17
 -0.607153216592E-17
 -0.346944695195E-17
  0.104083408559E-16
 -0.346944695195E-17
  0.346944695195E-17
 -0.173472347598E-17
  0.173472347598E-17
  0.173472347598E-17
  0.130104260698E-17
 -0.433680868994E-18
 -0.216840434497E-18
 -0.650521303491E-18
 -0.650521303491E-18
  0.433680868994E-18
 -0.607153216592E-17
  0.520417042793E-17
 -0.138777878078E-16
  0.000000000000E+00
  0.433680868994E-18
 -0.108420217249E-17
  0.216840434497E-18
 -0.433680868994E-18
 -0.867361737988E-18
 -0.260208521397E-17
  0.000000000000E+00
  0.000000000000E+00
  0.000000000000E+00
 -0.211758236814E-21
  0.000000000000E+00
  0.000000000000E+00
 -0.173472347598E-17
 -0.173472347598E-17
 -0.813151629364E-19
 -0.271050543121E-19
  0.000000000000E+00
  0.271050543121E-19
  0.173472347598E-17
  0.520417042793E-17
  0.867361737988E-18
  0.693889390391E-17
  0.542101086243E-19
  0.542101086243E-19
  0.000000000000E+00
  0.000000000000E+00
 -0.867361737988E-18
  0.433680868994E-18
  0.867361737988E-18
  0.000000000000E+00
 -0.108420217249E-18
  0.000000000000E+00
  0.216840434497E-18
 -0.108420217249E-18
 -0.693889390391E-17
 -0.433680868994E-17
 -0.260208521397E-17
  0.433680868994E-17
 -0.260208521397E-17
 -0.173472347598E-17
 -0.346944695195E-17
  0.000000000000E+00
  0.108420217249E-18
  0.000000000000E+00
 -0.216840434497E-18
 -0.108420217249E-18
 -0.433680868994E-18
 -0.433680868994E-18
  0.216840434497E-17
 -0.260208521397E-17
  0.433680868994E-17
  0.520417042793E-17
 -0.173472347598E-17
 -0.346944695195E-17
 -0.650521303491E-18
  0.216840434497E-18
  0.216840434497E-18
  0.216840434497E-18
  0.112757025938E-16
 -0.260208521397E-17
  0.520417042793E-17
  0.433680868994E-17
  0.216840434497E-18
  0.000000000000E+00
 -0.650521303491E-18
  0.000000000000E+00
  0.433680868994E-18
 -0.433680868994E-18
  0.000000000000E+00
  0.000000000000E+00
  0.346944695195E-17
  0.346944695195E-17
  0.260208521397E-17
  0.260208521397E-17
  0.000000000000E+00
  0.000000000000E+00
  0.271050543121E-19
 -0.271050543121E-19
 -0.271050543121E-19
  0.000000000000E+00
  0.867361737988E-18
  0.173472347598E-17
  0.000000000000E+00
  0.000000000000E+00
 -0.260208521397E-17
  0.433680868994E-17
  0.000000000000E+00
 -0.867361737988E-18
 -0.108420217249E-18
 -0.216840434497E-18
  0.000000000000E+00
  0.162630325873E-18
  0.108420217249E-18
  0.216840434497E-18
  0.108420217249E-18
  0.000000000000E+00
 -0.346944695195E-17
 -0.867361737988E-18
  0.000000000000E+00
 -0.867361737988E-18
  0.607153216592E-17
 -0.867361737988E-18
  0.260208521397E-17
 -0.867361737988E-18
  0.108420217249E-18
  0.000000000000E+00
 -0.108420217249E-18
  0.108420217249E-18
 -0.130104260698E-17
 -0.130104260698E-17
  0.130104260698E-17
  0.000000000000E+00
 -0.867361737988E-18
  0.000000000000E+00
  0.520417042793E-17
 -0.867361737988E-18
  0.216840434497E-18
 -0.433680868994E-18
  0.433680868994E-18
  0.216840434497E-18
 -0.346944695195E-17
  0.433680868994E-17
 -0.346944695195E-17
  0.346944695195E-17
 -0.433680868994E-18
  0.130104260698E-17
  0.433680868994E-18
 -0.433680868994E-18
  0.216840434497E-18
  0.151788304148E-17
  0.216840434497E-18
 -0.433680868994E-18
  0.867361737988E-18
  0.867361737988E-18
 -0.867361737988E-17
 -0.346944695195E-17
 -0.105879118407E-21
  0.529395592034E-22
 -0.433680868994E-18
  0.433680868994E-18
 -0.867361737988E-18
 -0.433680868994E-18
 -0.271050543121E-19
  0.000000000000E+00
  0.271050543121E-19
  0.813151629364E-19
 -0.108420217249E-18
 -0.108420217249E-18
 -0.542101086243E-19
  0.542101086243E-19
 -0.867361737988E-18
 -0.780625564190E-17
  0.260208521397E-17
 -0.173472347598E-17
 -0.520417042793E-17
 -0.433680868994E-17
 -0.693889390391E-17
  0.260208521397E-17
  0.433680868994E-17
  0.433680868994E-17
 -0.173472347598E-17
  0.520417042793E-17
 -0.216840434497E-18
  0.216840434497E-18
  0.108420217249E-18
 -0.216840434497E-18
  0.867361737988E-18
 -0.173472347598E-17
  0.867361737988E-18
  0.867361737988E-18
  0.108420217249E-18
  0.216840434497E-18
  0.216840434497E-18
  0.000000000000E+00
  0.650521303491E-17
  0.867361737988E-18
  0.216840434497E-18
  0.000000000000E+00
 -0.216840434497E-18
 -0.650521303491E-18
  0.000000000000E+00
  0.173472347598E-17
  0.173472347598E-17
 -0.867361737988E-18
 -0.346944695195E-17
  0.000000000000E+00
 -0.130104260698E-17
  0.000000000000E+00
 -0.130104260698E-17
  0.867361737988E-18
  0.433680868994E-18
  0.433680868994E-18
 -0.173472347598E-17
  0.000000000000E+00
 -0.173472347598E-17
 -0.346944695195E-17
  0.867361737988E-18
  0.693889390391E-17
 -0.173472347598E-17
  0.867361737988E-18
  0.000000000000E+00
  0.158818677610E-21
 -0.216840434497E-18
 -0.650521303491E-18
  0.000000000000E+00
  0.650521303491E-18
  0.271050543121E-19
  0.271050543121E-19
 -0.271050543121E-19
 -0.271050543121E-19
  0.260208521397E-17
  0.000000000000E+00
  0.173472347598E-17
 -0.867361737988E-18
 -0.346944695195E-17
 -0.173472347598E-17
  0.346944695195E-17
 -0.867361737988E-17
  0.520417042793E-17
 -0.303576608296E-17
 -0.173472347598E-17
 -0.216840434497E-17
  0.542101086243E-19
 -0.542101086243E-19
  0.000000000000E+00
  0.000000000000E+00
 -0.271050543121E-18
 -0.542101086243E-19
 -0.108420217249E-18
 -0.379470760370E-18
  0.433680868994E-18
  0.000000000000E+00
  0.433680868994E-18
  0.867361737988E-18
 -0.216840434497E-18
  0.216840434497E-18
 -0.108420217249E-18
  0.325260651746E-18
 -0.693889390391E-17
 -0.607153216592E-17
 -0.346944695195E-17
 -0.260208521397E-17
  0.000000000000E+00
 -0.433680868994E-18
 -0.216840434497E-18
  0.000000000000E+00
  0.260208521397E-17
  0.000000000000E+00
 -0.607153216592E-17
 -0.520417042793E-17
  0.130104260698E-17
  0.000000000000E+00
 -0.260208521397E-17
 -0.433680868994E-18
 -0.607153216592E-17
  0.780625564190E-17
 -0.520417042793E-17
 -0.433680868994E-17
 -0.910729824888E-17
  0.173472347598E-17
  0.216840434497E-17
  0.520417042793E-17
  0.216840434497E-18
  0.216840434497E-18
 -0.650521303491E-18
  0.216840434497E-18
  0.216840434497E-18
  0.216840434497E-18
  0.000000000000E+00
 -0.867361737988E-18
  0.173472347598E-17
 -0.112757025938E-16
  0.520417042793E-17
  0.520417042793E-17
  0.000000000000E+00
  0.000000000000E+00
  0.130104260698E-17
  0.173472347598E-17
  0.119114008208E-21
 -0.794093388051E-22
  0.135525271561E-19
  0.000000000000E+00
  0.135525271561E-19
  0.271050543121E-19
  0.000000000000E+00
 -0.216840434497E-18
 -0.108420217249E-18
  0.216840434497E-18
 -0.130104260698E-17
 -0.216840434497E-17
 -0.130104260698E-17
 -0.867361737988E-18
  0.108420217249E-18
  0.151788304148E-17
 -0.108420217249E-18
 -0.596311194867E-18
  0.130104260698E-17
  0.303576608296E-17
  0.823993651089E-17
  0.000000000000E+00
  0.000000000000E+00
  0.000000000000E+00
  0.325260651746E-18
 -0.650521303491E-18
  0.173472347598E-17
 -0.520417042793E-17
 -0.346944695195E-17
  0.173472347598E-17
  0.607153216592E-17
  0.867361737988E-18
 -0.433680868994E-17
  0.867361737988E-18
 -0.693889390391E-17
  0.260208521397E-17
  0.867361737988E-18
  0.173472347598E-17
 -0.108420217249E-18
 -0.108420217249E-18
  0.216840434497E-18
 -0.433680868994E-18
 -0.130104260698E-17
 -0.867361737988E-18
  0.000000000000E+00
  0.867361737988E-18
 -0.650521303491E-18
  0.216840434497E-18
 -0.216840434497E-18
  0.000000000000E+00
 -0.433680868994E-17
  0.173472347598E-17
  0.173472347598E-17
  0.867361737988E-18
  0.173472347598E-17
 -0.216840434497E-17
 -0.867361737988E-18
 -0.867361737988E-18
  0.433680868994E-18
  0.650521303491E-18
  0.000000000000E+00
  0.216840434497E-18
  0.607153216592E-17
 -0.216840434497E-17
 -0.303576608296E-17
 -0.216840434497E-17
  0.132348898008E-21
  0.794093388051E-22
  0.000000000000E+00
  0.271050543121E-19
 -0.135525271561E-19
 -0.135525271561E-19
 -0.346944695195E-17
 -0.433680868994E-17
  0.693889390391E-17
 -0.867361737988E-18
 -0.108420217249E-18
  0.813151629364E-18
 -0.542101086243E-19
  0.108420217249E-18
  0.000000000000E+00
  0.000000000000E+00
 -0.130104260698E-17
 -0.173472347598E-17
 -0.542101086243E-19
  0.178893358460E-17
  0.542101086243E-19
  0.650521303491E-18
  0.433680868994E-17
  0.867361737988E-18
 -0.173472347598E-17
  0.173472347598E-17
 -0.173472347598E-17
  0.000000000000E+00
  0.260208521397E-17
 -0.867361737988E-18
  0.000000000000E+00
  0.216840434497E-18
 -0.108420217249E-18
  0.000000000000E+00
 -0.433680868994E-18
 -0.867361737988E-18
 -0.173472347598E-17
 -0.433680868994E-18
  0.303576608296E-17
 -0.260208521397E-17
 -0.108420217249E-18
  0.216840434497E-18
 -0.108420217249E-18
  0.000000000000E+00
 -0.216840434497E-17
  0.000000000000E+00
 -0.346944695195E-17
  0.130104260698E-17
  0.216840434497E-18
  0.000000000000E+00
  0.433680868994E-18
  0.433680868994E-18
 -0.173472347598E-17
 -0.346944695195E-17
 -0.173472347598E-17
 -0.520417042793E-17
 -0.433680868994E-18
  0.867361737988E-18
 -0.216840434497E-17
  0.433680868994E-18
  0.112757025938E-16
  0.346944695195E-17
  0.173472347598E-17
 -0.173472347598E-17
  0.650521303491E-18
 -0.216840434497E-18
 -0.216840434497E-18
 -0.867361737988E-18
  0.346944695195E-17
  0.867361737988E-18
  0.260208521397E-17
  0.260208521397E-17
 -0.185288457212E-21
  0.105879118407E-21
  0.000000000000E+00
  0.135525271561E-19
 -0.271050543121E-19
  0.135525271561E-19
  0.260208521397E-17
  0.607153216592E-17
  0.346944695195E-17
 -0.346944695195E-17
  0.000000000000E+00
  0.000000000000E+00
  0.173472347598E-17
  0.216840434497E-17
 -0.607153216592E-17
 -0.173472347598E-17
  0.000000000000E+00
  0.867361737988E-18
  0.000000000000E+00
  0.135525271561E-18
  0.000000000000E+00
 -0.921571846613E-18
  0.000000000000E+00
  0.867361737988E-18
  0.520417042793E-17
  0.000000000000E+00
 -0.542101086243E-19
 -0.233103467084E-17
 -0.162630325873E-18
  0.542101086243E-19
  0.433680868994E-18
 -0.433680868994E-18
  0.433680868994E-18
  0.000000000000E+00
 -0.130104260698E-17
 -0.867361737988E-18
  0.260208521397E-17
 -0.433680868994E-18
 -0.130104260698E-17
  0.130104260698E-17
  0.173472347598E-17
 -0.303576608296E-17
  0.216840434497E-18
 -0.325260651746E-18
 -0.108420217249E-18
 -0.542101086243E-18
 -0.433680868994E-17
  0.867361737988E-18
  0.867361737988E-18
  0.433680868994E-17
 -0.260208521397E-17
 -0.104083408559E-16
 -0.130104260698E-16
  0.130104260698E-16
  0.216840434497E-18
 -0.650521303491E-18
  0.433680868994E-18
 -0.433680868994E-18
  0.867361737988E-18
 -0.173472347598E-17
 -0.303576608296E-17
  0.130104260698E-17
  0.000000000000E+00
  0.260208521397E-17
 -0.130104260698E-17
  0.173472347598E-17
  0.867361737988E-18
 -0.151788304148E-17
  0.433680868994E-18
  0.867361737988E-18
 -0.260208521397E-17
 -0.607153216592E-17
 -0.607153216592E-17
 -0.867361737988E-18
  0.260208521397E-17
 -0.954097911787E-17
  0.000000000000E+00
 -0.303576608296E-17
 -0.173472347598E-17
 -0.433680868994E-18
 -0.433680868994E-18
 -0.867361737988E-18
 -0.529395592034E-22
  0.132348898008E-21
  0.108420217249E-17
 -0.216840434497E-18
  0.433680868994E-18
 -0.650521303491E-18
  0.135525271561E-19
  0.000000000000E+00
  0.000000000000E+00
 -0.271050543121E-19
 -0.271050543121E-19
  0.406575814682E-18
  0.271050543121E-19
 -0.840256683676E-18
 -0.108420217249E-18
 -0.216840434497E-17
  0.000000000000E+00
  0.216840434497E-17
  0.112757025938E-16
  0.780625564190E-17
 -0.433680868994E-17
  0.000000000000E+00
 -0.260208521397E-17
 -0.216840434497E-17
 -0.260208521397E-17
 -0.173472347598E-17
  0.108420217249E-18
  0.000000000000E+00
 -0.108420217249E-18
 -0.325260651746E-18
  0.260208521397E-17
 -0.433680868994E-17
  0.260208521397E-17
 -0.867361737988E-18
 -0.563785129692E-17
  0.867361737988E-18
 -0.867361737988E-18
 -0.867361737988E-18
  0.000000000000E+00
  0.000000000000E+00
 -0.433680868994E-18
  0.433680868994E-18
  0.173472347598E-17
  0.433680868994E-18
  0.346944695195E-17
 -0.130104260698E-17
  0.867361737988E-18
 -0.867361737988E-18
  0.130104260698E-17
  0.216840434497E-17
  0.216840434497E-18
  0.216840434497E-18
  0.000000000000E+00
 -0.867361737988E-18
  0.346944695195E-17
 -0.260208521397E-17
  0.000000000000E+00