# vtk DataFile Version 3.0
MachLine results file. Generated by MachLine, USU AeroLab (c) 2023.
ASCII
DATASET POLYDATA
<<<<<<< HEAD
POINTS                 112 float
  0.100002174613E+01  0.399301003343E-07  0.179735714286E-01
  0.199106450057E+02  0.189106236588E+01  0.179735714286E-01
  0.100006690527E+01  0.384780966857E-07  0.539207142857E-01
  0.199106454529E+02  0.189105789324E+01  0.539207142857E-01
  0.100011206443E+01  0.370260930372E-07  0.898678571426E-01
  0.199106459002E+02  0.189105342060E+01  0.898678571426E-01
  0.100015722358E+01  0.355740893887E-07  0.125815000000E+00
  0.199106463474E+02  0.189104894796E+01  0.125815000000E+00
  0.100020238272E+01  0.341220857401E-07  0.161762142858E+00
  0.199106467947E+02  0.189104447532E+01  0.161762142858E+00
  0.100024754187E+01  0.326700820917E-07  0.197709285714E+00
  0.199106472420E+02  0.189104000268E+01  0.197709285714E+00
  0.100029270103E+01  0.312180784431E-07  0.233656428572E+00
  0.199106476892E+02  0.189103553004E+01  0.233656428572E+00
  0.100033786018E+01  0.297660747946E-07  0.269603571428E+00
  0.199106481365E+02  0.189103105740E+01  0.269603571428E+00
  0.100038301933E+01  0.283140711461E-07  0.305550714285E+00
  0.199106485838E+02  0.189102658476E+01  0.305550714285E+00
  0.100047333762E+01  0.254100638491E-07  0.377445000000E+00
  0.199106494783E+02  0.189101763948E+01  0.377445000000E+00
  0.100042817847E+01  0.268620674975E-07  0.341497857143E+00
  0.199106490310E+02  0.189102211212E+01  0.341497857143E+00
  0.100051849678E+01  0.239580602006E-07  0.413392142858E+00
  0.199106499256E+02  0.189101316684E+01  0.413392142858E+00
  0.100060881508E+01  0.210540529035E-07  0.485286428572E+00
  0.199106508201E+02  0.189100422156E+01  0.485286428572E+00
  0.100065397423E+01  0.196020492550E-07  0.521233571429E+00
  0.199106512674E+02  0.189099974891E+01  0.521233571429E+00
  0.100069913337E+01  0.181500456064E-07  0.557180714285E+00
  0.199106517146E+02  0.189099527627E+01  0.557180714285E+00
  0.100056365592E+01  0.225060565520E-07  0.449339285714E+00
  0.199106503728E+02  0.189100869420E+01  0.449339285714E+00
  0.100074429253E+01  0.166980419580E-07  0.593127857143E+00
  0.199106521619E+02  0.189099080363E+01  0.593127857143E+00
  0.100078945168E+01  0.152460383094E-07  0.629075000000E+00
  0.199106526091E+02  0.189098633099E+01  0.629075000000E+00
  0.100083461084E+01  0.137940346609E-07  0.665022142858E+00
  0.199106530564E+02  0.189098185835E+01  0.665022142858E+00
  0.100087976999E+01  0.123420310124E-07  0.700969285715E+00
  0.199106535037E+02  0.189097738571E+01  0.700969285715E+00
  0.100092492913E+01  0.108900273638E-07  0.736916428571E+00
  0.199106539509E+02  0.189097291307E+01  0.736916428571E+00
  0.100097008828E+01  0.943802371535E-08  0.772863571428E+00
  0.199106543982E+02  0.189096844043E+01  0.772863571428E+00
  0.100101524744E+01  0.798602006685E-08  0.808810714285E+00
  0.199106548455E+02  0.189096396779E+01  0.808810714285E+00
  0.100106040658E+01  0.653401641833E-08  0.844757857143E+00
  0.199106552927E+02  0.189095949515E+01  0.844757857143E+00
  0.100110556574E+01  0.508201276981E-08  0.880705000000E+00
  0.199106557400E+02  0.189095502251E+01  0.880705000000E+00
  0.100115072489E+01  0.363000912129E-08  0.916652142858E+00
  0.199106561873E+02  0.189095054987E+01  0.916652142858E+00
  0.100124104319E+01  0.726001824260E-09  0.988546428571E+00
  0.199106570818E+02  0.189094160459E+01  0.988546428571E+00
  0.100119588403E+01  0.217800547278E-08  0.952599285715E+00
  0.199106566345E+02  0.189094607723E+01  0.952599285715E+00
  0.100002174613E+01  0.399301003343E-07 -0.179735714286E-01
  0.199106450057E+02  0.189106236588E+01 -0.179735714286E-01
  0.100006690527E+01  0.384780966857E-07 -0.539207142857E-01
  0.199106454529E+02  0.189105789324E+01 -0.539207142857E-01
  0.100011206443E+01  0.370260930372E-07 -0.898678571426E-01
  0.199106459002E+02  0.189105342060E+01 -0.898678571426E-01
  0.100015722358E+01  0.355740893887E-07 -0.125815000000E+00
  0.199106463474E+02  0.189104894796E+01 -0.125815000000E+00
  0.100020238272E+01  0.341220857401E-07 -0.161762142858E+00
  0.199106467947E+02  0.189104447532E+01 -0.161762142858E+00
  0.100024754187E+01  0.326700820917E-07 -0.197709285714E+00
  0.199106472420E+02  0.189104000268E+01 -0.197709285714E+00
  0.100029270103E+01  0.312180784431E-07 -0.233656428572E+00
  0.199106476892E+02  0.189103553004E+01 -0.233656428572E+00
  0.100033786018E+01  0.297660747946E-07 -0.269603571428E+00
  0.199106481365E+02  0.189103105740E+01 -0.269603571428E+00
  0.100038301933E+01  0.283140711461E-07 -0.305550714285E+00
  0.199106485838E+02  0.189102658476E+01 -0.305550714285E+00
  0.100042817847E+01  0.268620674975E-07 -0.341497857143E+00
  0.199106490310E+02  0.189102211212E+01 -0.341497857143E+00
  0.100047333762E+01  0.254100638491E-07 -0.377445000000E+00
  0.199106494783E+02  0.189101763948E+01 -0.377445000000E+00
  0.100051849678E+01  0.239580602006E-07 -0.413392142858E+00
  0.199106499256E+02  0.189101316684E+01 -0.413392142858E+00
  0.100056365592E+01  0.225060565520E-07 -0.449339285714E+00
  0.199106503728E+02  0.189100869420E+01 -0.449339285714E+00
  0.100060881508E+01  0.210540529035E-07 -0.485286428572E+00
  0.199106508201E+02  0.189100422156E+01 -0.485286428572E+00
  0.100065397423E+01  0.196020492550E-07 -0.521233571429E+00
  0.199106512674E+02  0.189099974891E+01 -0.521233571429E+00
  0.100069913337E+01  0.181500456064E-07 -0.557180714285E+00
  0.199106517146E+02  0.189099527627E+01 -0.557180714285E+00
  0.100078945168E+01  0.152460383094E-07 -0.629075000000E+00
  0.199106526091E+02  0.189098633099E+01 -0.629075000000E+00
  0.100074429253E+01  0.166980419580E-07 -0.593127857143E+00
  0.199106521619E+02  0.189099080363E+01 -0.593127857143E+00
  0.100083461084E+01  0.137940346609E-07 -0.665022142858E+00
  0.199106530564E+02  0.189098185835E+01 -0.665022142858E+00
  0.100087976999E+01  0.123420310124E-07 -0.700969285715E+00
  0.199106535037E+02  0.189097738571E+01 -0.700969285715E+00
  0.100097008828E+01  0.943802371535E-08 -0.772863571428E+00
  0.199106543982E+02  0.189096844043E+01 -0.772863571428E+00
  0.100101524744E+01  0.798602006685E-08 -0.808810714285E+00
  0.199106548455E+02  0.189096396779E+01 -0.808810714285E+00
  0.100092492913E+01  0.108900273638E-07 -0.736916428571E+00
  0.199106539509E+02  0.189097291307E+01 -0.736916428571E+00
  0.100110556574E+01  0.508201276981E-08 -0.880705000000E+00
  0.199106557400E+02  0.189095502251E+01 -0.880705000000E+00
  0.100106040658E+01  0.653401641833E-08 -0.844757857143E+00
  0.199106552927E+02  0.189095949515E+01 -0.844757857143E+00
  0.100115072489E+01  0.363000912129E-08 -0.916652142858E+00
  0.199106561873E+02  0.189095054987E+01 -0.916652142858E+00
  0.100124104319E+01  0.726001824260E-09 -0.988546428571E+00
  0.199106570818E+02  0.189094160459E+01 -0.988546428571E+00
  0.100119588403E+01  0.217800547278E-08 -0.952599285715E+00
  0.199106566345E+02  0.189094607723E+01 -0.952599285715E+00
LINES                  56                 168
2                   0                   1
2                   2                   3
2                   4                   5
2                   6                   7
2                   8                   9
2                  10                  11
2                  12                  13
2                  14                  15
2                  16                  17
2                  18                  19
2                  20                  21
2                  22                  23
2                  24                  25
2                  26                  27
2                  28                  29
2                  30                  31
2                  32                  33
2                  34                  35
2                  36                  37
2                  38                  39
2                  40                  41
2                  42                  43
2                  44                  45
2                  46                  47
2                  48                  49
2                  50                  51
2                  52                  53
2                  54                  55
2                  56                  57
2                  58                  59
2                  60                  61
2                  62                  63
2                  64                  65
2                  66                  67
2                  68                  69
2                  70                  71
2                  72                  73
2                  74                  75
2                  76                  77
2                  78                  79
2                  80                  81
2                  82                  83
2                  84                  85
2                  86                  87
2                  88                  89
2                  90                  91
2                  92                  93
2                  94                  95
2                  96                  97
2                  98                  99
2                 100                 101
2                 102                 103
2                 104                 105
2                 106                 107
2                 108                 109
2                 110                 111
=======
POINTS                 224 float
  0.100004432570E+01  0.392040985100E-07  0.359471428571E-01
  0.999999166550E+00  0.406561021585E-07  0.000000000000E+00
  0.199106452293E+02  0.189106012956E+01  0.359471428571E-01
  0.199106447820E+02  0.189106460220E+01  0.000000000000E+00
  0.100008948485E+01  0.377520948614E-07  0.718942857143E-01
  0.100004432570E+01  0.392040985100E-07  0.359471428571E-01
  0.199106456765E+02  0.189105565692E+01  0.718942857143E-01
  0.199106452293E+02  0.189106012956E+01  0.359471428571E-01
  0.100017980315E+01  0.348480875644E-07  0.143788571429E+00
[...]
POINT_DATA                 224
SCALARS mu float 1
LOOKUP_TABLE default
  0.121905232229E+00
  0.121979929423E+00
  0.121905232229E+00
  0.121979929423E+00
  0.121582058166E+00
  0.121905232229E+00
  0.121582058166E+00
  0.121905232229E+00
  0.120230029147E+00
  0.121015187042E+00
  0.120230029147E+00
  0.121015187042E+00
  0.121015187042E+00
  0.121582058166E+00
  0.121015187042E+00
  0.121582058166E+00
  0.119186306215E+00
  0.120230029147E+00
  0.119186306215E+00
  0.120230029147E+00
  0.117938015591E+00
  0.119186306215E+00
  0.117938015591E+00
  0.119186306215E+00
  0.116429789296E+00
  0.117938015591E+00
  0.116429789296E+00
  0.117938015591E+00
  0.114745925654E+00
  0.116429789296E+00
  0.114745925654E+00
  0.116429789296E+00
  0.110619338483E+00
  0.112782210452E+00
  0.110619338483E+00
  0.112782210452E+00
  0.112782210452E+00
  0.114745925654E+00
  0.112782210452E+00
  0.114745925654E+00
  0.108203570850E+00
  0.110619338483E+00
  0.108203570850E+00
  0.110619338483E+00
  0.105513798550E+00
  0.108203570850E+00
  0.105513798550E+00
  0.108203570850E+00
  0.966028267458E-01
  0.996944145253E-01
  0.966028267458E-01
  0.996944145253E-01
  0.102669079229E+00
  0.105513798550E+00
  0.102669079229E+00
  0.105513798550E+00
  0.996944145253E-01
  0.102669079229E+00
  0.996944145253E-01
  0.102669079229E+00
  0.940119581728E-01
  0.966028267458E-01
  0.940119581728E-01
  0.966028267458E-01
  0.927133020226E-01
  0.940119581728E-01
  0.927133020226E-01
  0.940119581728E-01
  0.837085794237E-01
  0.927133020226E-01
  0.837085794237E-01
  0.927133020226E-01
  0.769331991639E-01
  0.837085794237E-01
  0.769331991639E-01
  0.837085794237E-01
  0.704479036442E-01
  0.769331991639E-01
  0.704479036442E-01
  0.769331991639E-01
  0.637567439062E-01
  0.704479036442E-01
  0.637567439062E-01
  0.704479036442E-01
  0.566172113961E-01
  0.637567439062E-01
  0.566172113961E-01
  0.637567439062E-01
  0.489611186732E-01
  0.566172113961E-01
  0.489611186732E-01
  0.566172113961E-01
  0.122393322948E-01
  0.226098440446E-01
  0.122393322948E-01
  0.226098440446E-01
  0.000000000000E+00
  0.122393322948E-01
  0.000000000000E+00
  0.122393322948E-01
  0.226098440446E-01
  0.319870497718E-01
  0.226098440446E-01
  0.319870497718E-01
  0.319870497718E-01
  0.407530217369E-01
  0.319870497718E-01
  0.407530217369E-01
  0.407530217369E-01
  0.489611186732E-01
  0.407530217369E-01
  0.489611186732E-01
  0.121822313160E+00
  0.121413031534E+00
  0.121822313160E+00
  0.121413031534E+00
  0.121979929423E+00
  0.121822313160E+00
  0.121979929423E+00
  0.121822313160E+00
  0.121413031534E+00
  0.120767205200E+00
  0.121413031534E+00
  0.120767205200E+00
  0.120767205200E+00
  0.119897175815E+00
  0.120767205200E+00
  0.119897175815E+00
  0.119897175815E+00
  0.118762285794E+00
  0.119897175815E+00
  0.118762285794E+00
  0.118762285794E+00
  0.117412371408E+00
  0.118762285794E+00
  0.117412371408E+00
  0.117412371408E+00
  0.115790532040E+00
  0.117412371408E+00
  0.115790532040E+00
  0.115790532040E+00
  0.113977794625E+00
  0.115790532040E+00
  0.113977794625E+00
  0.113977794625E+00
  0.111869204567E+00
  0.113977794625E+00
  0.111869204567E+00
  0.111869204567E+00
  0.109513893229E+00
  0.111869204567E+00
  0.109513893229E+00
  0.109513893229E+00
  0.106839007915E+00
  0.109513893229E+00
  0.106839007915E+00
  0.106839007915E+00
  0.103833134451E+00
  0.106839007915E+00
  0.103833134451E+00
  0.103833134451E+00
  0.100540974396E+00
  0.103833134451E+00
  0.100540974396E+00
  0.100540974396E+00
  0.969449787233E-01
  0.100540974396E+00
  0.969449787233E-01
  0.969449787233E-01
  0.929205825626E-01
  0.969449787233E-01
  0.929205825626E-01
  0.929205825626E-01
  0.884113751307E-01
  0.929205825626E-01
  0.884113751307E-01
  0.884113751307E-01
  0.831667364391E-01
  0.884113751307E-01
  0.831667364391E-01
  0.790201753264E-01
  0.739489333214E-01
  0.790201753264E-01
  0.739489333214E-01
  0.831667364391E-01
  0.790201753264E-01
  0.831667364391E-01
  0.790201753264E-01
  0.621302402781E-01
  0.553836159783E-01
  0.621302402781E-01
  0.553836159783E-01
  0.739489333214E-01
  0.682956166238E-01
  0.739489333214E-01
  0.682956166238E-01
  0.553836159783E-01
  0.480226232495E-01
  0.553836159783E-01
  0.480226232495E-01
  0.480226232495E-01
  0.400488647093E-01
  0.480226232495E-01
  0.400488647093E-01
  0.682956166238E-01
  0.621302402781E-01
  0.682956166238E-01
  0.621302402781E-01
  0.314796274909E-01
  0.222841415851E-01
  0.314796274909E-01
  0.222841415851E-01
  0.400488647093E-01
  0.314796274909E-01
  0.400488647093E-01
  0.314796274909E-01
  0.120758747601E-01
  0.000000000000E+00
  0.120758747601E-01
  0.000000000000E+00
  0.222841415851E-01
  0.120758747601E-01
  0.222841415851E-01
  0.120758747601E-01
>>>>>>> 44fd3ffc3c20539feae47456f350225df24bca04
