# vtk DataFile Version 3.0
MachLine results file. Generated by MachLine, USU AeroLab (c) 2022.
ASCII
DATASET POLYDATA
POINTS                4925 float
  0.999853400837E+00  0.897294208927E-05  0.985930656098E-24
  0.997220125224E+00 -0.205968892246E-04 -0.352399645511E-24
  0.988939685186E+00  0.360511669091E-03 -0.403872707000E-24
  0.975264027892E+00  0.100224166599E-02 -0.230560533289E-24
  0.956378162299E+00  0.189733239094E-02  0.260082375213E-24
  0.932537533411E+00  0.303462376914E-02 -0.578069382300E-24
  0.904064570841E+00  0.439926895258E-02  0.000000000000E+00
  0.871344336171E+00  0.597309247496E-02 -0.341562030712E-24
  0.834819321723E+00  0.773496022051E-02  0.000000000000E+00
  0.794983470262E+00  0.966114036665E-02 -0.766310840103E-24
  0.752375497086E+00  0.117256613826E-01  0.119656187399E-23
  0.707571605427E+00  0.139006756533E-01  0.000000000000E+00
  0.661177694240E+00  0.161568350824E-01 -0.418594147247E-24
  0.613821164149E+00  0.184636814835E-01  0.000000000000E+00
  0.566142432547E+00  0.207900507735E-01  0.000000000000E+00
  0.518786272686E+00  0.231044868978E-01  0.416643984156E-24
  0.472393093842E+00  0.253756593662E-01  0.815035052361E-24
  0.427590280395E+00  0.275727769672E-01  0.000000000000E+00
  0.384983706788E+00  0.296659891475E-01  0.377672805750E-24
  0.345149542938E+00  0.316267653227E-01  0.000000000000E+00
  0.308626460604E+00  0.334282414325E-01  0.335361791378E-24
  0.275908345954E+00  0.350455253469E-01  0.000000000000E+00
  0.247437617408E+00  0.364559680073E-01  0.286963458728E-24
  0.223598973380E+00  0.376339490144E-01  0.404860786278E-24
  0.204716237401E+00  0.385931968341E-01 -0.510491952214E-24
  0.191043731687E+00  0.392995342176E-01  0.000000000000E+00
  0.182764869219E+00  0.397129829545E-01  0.000000000000E+00
  0.180035227204E+00  0.397990574295E-01 -0.483306255279E-21
  0.179116216627E+00  0.396511379762E-01 -0.704349303003E-21
  0.176381287574E+00  0.390687197004E-01 -0.880902415996E-21
  0.171902058266E+00  0.380343358306E-01 -0.767435507127E-21
  0.165743307767E+00  0.366878665022E-01  0.000000000000E+00
  0.158055144104E+00  0.349454206347E-01 -0.164411044883E-20
  0.148976130545E+00  0.329232244731E-01  0.253043885122E-20
  0.138697276958E+00  0.306346011094E-01 -0.863961977018E-21
  0.127427741664E+00  0.281265430384E-01 -0.176226599659E-20
  0.115396878973E+00  0.254503812817E-01 -0.893313885691E-21
  0.102849571988E+00  0.226607323216E-01  0.000000000000E+00
  0.900412477434E-01  0.198143851547E-01 -0.179966841218E-20
  0.772326774438E-01  0.169691452369E-01  0.894710759622E-21
  0.646846676628E-01  0.141826588599E-01  0.000000000000E+00
  0.526527492629E-01  0.115112477911E-01 -0.874805223021E-21
  0.413842657919E-01  0.899845651792E-02  0.205857479505E-20
  0.311004335538E-01  0.673223708125E-02 -0.826793458904E-21
  0.220231595629E-01  0.470221286639E-02 -0.212680112083E-20
  0.143183854409E-01  0.303451406279E-02  0.000000000000E+00
  0.816507516359E-02  0.166356373818E-02  0.000000000000E+00
  0.367842941560E-02  0.662553843675E-03  0.000000000000E+00
  0.948829705926E-03  0.561535239354E-04  0.107198942046E-20
  0.149558825251E-03 -0.000000000000E+00 -0.489401852065E-20
  0.948829705926E-03 -0.561535239354E-04  0.000000000000E+00
  0.367842941560E-02 -0.662553843675E-03  0.000000000000E+00
  0.816507516359E-02 -0.166356373818E-02 -0.104565622267E-20
  0.143183854409E-01 -0.303451406279E-02  0.102106977733E-20
  0.220231595629E-01 -0.470221286639E-02  0.000000000000E+00
  0.311004335538E-01 -0.673223708125E-02 -0.248038037671E-20
  0.413842657919E-01 -0.899845651792E-02 -0.343095799175E-20
  0.526527492629E-01 -0.115112477911E-01 -0.874805223021E-21
  0.646846676628E-01 -0.141826588599E-01 -0.885654990528E-21
  0.772326774438E-01 -0.169691452369E-01 -0.894710759622E-21
  0.900412477434E-01 -0.198143851547E-01 -0.899834206091E-21
  0.102849571988E+00 -0.226607323216E-01 -0.899589866946E-21
  0.115396878973E+00 -0.254503812817E-01  0.267994165707E-20
  0.127427741664E+00 -0.281265430384E-01  0.881132998296E-21
  0.138697276958E+00 -0.306346011094E-01 -0.172792395404E-20
  0.148976130545E+00 -0.329232244731E-01  0.843479617075E-21
  0.158055144104E+00 -0.349454206347E-01  0.000000000000E+00
  0.165743307767E+00 -0.366878665022E-01  0.000000000000E+00
  0.171902058266E+00 -0.380343358306E-01 -0.767435507127E-21
  0.176381287574E+00 -0.390687197004E-01 -0.880902415996E-21
  0.179116216627E+00 -0.396511379762E-01 -0.704349303003E-21
  0.180035227204E+00 -0.397990574295E-01  0.187245775513E-20
  0.182764869219E+00 -0.397129829545E-01  0.257438183616E-24
  0.191043731687E+00 -0.392995342176E-01  0.000000000000E+00
  0.204716237401E+00 -0.385931968341E-01  0.000000000000E+00
  0.223598973380E+00 -0.376339490144E-01  0.202430393139E-24
  0.247437617408E+00 -0.364559680073E-01 -0.286963458728E-24
  0.275908345954E+00 -0.350455253469E-01  0.622718158665E-24
  0.308626460604E+00 -0.334282414325E-01  0.335361791378E-24
  0.345149542938E+00 -0.316267653227E-01  0.357767222377E-24
  0.384983706788E+00 -0.296659891475E-01  0.755345611499E-24
  0.427590280395E+00 -0.275727769672E-01  0.394415945831E-24
  0.472393093842E+00 -0.253756593662E-01  0.407517526181E-24
  0.518786272686E+00 -0.231044868978E-01  0.416643984156E-24
  0.566142432547E+00 -0.207900507735E-01  0.000000000000E+00
  0.613821164149E+00 -0.184636814835E-01  0.126670714545E-23
  0.661177694240E+00 -0.161568350824E-01 -0.837188294494E-24
  0.707571605427E+00 -0.139006756533E-01  0.410745058960E-24
  0.752375497086E+00 -0.117256613826E-01 -0.398853957997E-24
  0.794983470262E+00 -0.966114036665E-02  0.383155420052E-24
  0.834819321723E+00 -0.773496022051E-02  0.363942575906E-24
  0.871344336171E+00 -0.597309247496E-02  0.683124061424E-24
  0.904064570841E+00 -0.439926895258E-02 -0.949269603749E-24
  0.932537533411E+00 -0.303462376914E-02 -0.289034691150E-24
  0.956378162299E+00 -0.189733239094E-02  0.000000000000E+00
  0.975264027892E+00 -0.100224166599E-02  0.000000000000E+00
  0.988939685186E+00 -0.360511669091E-03  0.000000000000E+00
  0.997221374811E+00 -0.501964865356E-05  0.000000000000E+00
  0.999878146287E+00  0.358685754087E-05  0.205409982652E-01
  0.997089263083E+00 -0.163331786101E-04  0.205408259215E-01
  0.988345659186E+00  0.384638317556E-03  0.205408274577E-01
  0.973915444813E+00  0.106121151997E-02  0.205408291018E-01
  0.954009107436E+00  0.200480075348E-02  0.205408307526E-01
  0.928916963792E+00  0.320241538566E-02  0.205408323397E-01
  0.899004933036E+00  0.463698504060E-02  0.205408338162E-01
  0.864709208860E+00  0.628777346838E-02  0.205408351496E-01
  0.826529904407E+00  0.813079573752E-02  0.205408363152E-01
  0.785023762652E+00  0.101392326757E-01  0.205408372925E-01
  0.740796039218E+00  0.122838503346E-01  0.205408380642E-01
  0.694491676676E+00  0.145334321379E-01  0.205408386155E-01
  0.646785899560E+00  0.168552286754E-01  0.205408389351E-01
  0.598374367634E+00  0.192154261260E-01  0.205408390157E-01
  0.549963031149E+00  0.215796301407E-01  0.205408388548E-01
  0.502257836090E+00  0.239133588146E-01  0.205408384552E-01
  0.455954429435E+00  0.261825363215E-01  0.205408378253E-01
  0.411728014462E+00  0.283539774099E-01  0.205408369801E-01
  0.370223503792E+00  0.303958516242E-01  0.205408359419E-01
  0.332046113518E+00  0.322781145763E-01  0.205408347422E-01
  0.297752535206E+00  0.339728932009E-01  0.205408334239E-01
  0.267842814518E+00  0.354548192566E-01  0.205408320459E-01
  0.242752864586E+00  0.366974049714E-01  0.205408309223E-01
  0.222850207131E+00  0.377164325869E-01  0.205408280258E-01
  0.208421622723E+00  0.384264200842E-01  0.205408276557E-01
  0.199681413230E+00  0.388969768819E-01  0.205408249975E-01
  0.196778988415E+00  0.389865972554E-01  0.205175528421E-01
  0.195893387379E+00  0.388461687705E-01  0.205102903467E-01
  0.193216830995E+00  0.382641265257E-01  0.205129758383E-01
  0.188825282137E+00  0.372676482964E-01  0.205086407998E-01
  0.182797211036E+00  0.359262001802E-01  0.205082454437E-01
  0.175263794914E+00  0.342290063409E-01  0.205033789372E-01
  0.166370346754E+00  0.322468221559E-01  0.205021439770E-01
  0.156299809877E+00  0.300114565427E-01  0.205026772536E-01
  0.145260220735E+00  0.275547829712E-01  0.205019543695E-01
  0.133474920123E+00  0.249330825440E-01  0.205013761667E-01
  0.121183766708E+00  0.221999778406E-01  0.205010101939E-01
  0.108636946174E+00  0.194112273667E-01  0.205008905117E-01
  0.960898786810E-01  0.166235882140E-01  0.205010165000E-01
  0.837980187263E-01  0.138936629328E-01  0.205013533757E-01
  0.720116533645E-01  0.112767538840E-01  0.205018343632E-01
  0.609720406744E-01  0.882018627779E-02  0.205011349040E-01
  0.508995609452E-01  0.659356350038E-02  0.205036008867E-01
  0.420046915482E-01  0.461777488196E-02  0.205037797414E-01
  0.344627891899E-01  0.295876910807E-02  0.205073551538E-01
  0.284337019939E-01  0.162189341882E-02  0.205079705862E-01
  0.240338657600E-01  0.662708379465E-03  0.205118796438E-01
  0.213590620577E-01  0.727790677366E-04  0.205128216069E-01
  0.205871093597E-01 -0.631723956900E-19  0.203880543811E-01
  0.213590620577E-01 -0.727790677366E-04  0.205128216069E-01
  0.240338657600E-01 -0.662708379465E-03  0.205118796438E-01
  0.284337019939E-01 -0.162189341882E-02  0.205079705862E-01
  0.344627891899E-01 -0.295876910807E-02  0.205073551538E-01
  0.420046915482E-01 -0.461777488196E-02  0.205037797414E-01
  0.508995609452E-01 -0.659356350038E-02  0.205036008867E-01
  0.609720406744E-01 -0.882018627779E-02  0.205011349040E-01
  0.720116533645E-01 -0.112767538840E-01  0.205018343632E-01
  0.837980187263E-01 -0.138936629328E-01  0.205013533757E-01
  0.960898786810E-01 -0.166235882140E-01  0.205010165000E-01
  0.108636946174E+00 -0.194112273667E-01  0.205008905117E-01
  0.121183766708E+00 -0.221999778406E-01  0.205010101939E-01
  0.133474920123E+00 -0.249330825440E-01  0.205013761667E-01
  0.145260220735E+00 -0.275547829712E-01  0.205019543695E-01
[...]
POINT_DATA                4925
SCALARS phi float 1
LOOKUP_TABLE default
  0.659194920871E-15
  0.352495810318E-14
  0.200403929562E-13
  0.109547787508E-14
 -0.953924439440E-14
 -0.915066633578E-15
 -0.200577401910E-14
  0.623047620441E-14
 -0.402488372492E-14
  0.342716306723E-15
 -0.661797006085E-15
 -0.247111359153E-14
  0.912464548364E-15
 -0.235922392733E-15
 -0.175207071074E-15
 -0.107726327858E-14
  0.945424294407E-15
  0.792768628521E-15
 -0.170002900646E-15
 -0.447558656802E-15
 -0.499600361081E-15
 -0.360822483003E-15
 -0.416333634234E-16
  0.451028103754E-16
 -0.763278329430E-16
 -0.485722573274E-16
 -0.156125112838E-15
 -0.145716771982E-15
 -0.163064006742E-15
 -0.187350135405E-15
 -0.180411241502E-15
 -0.241126563161E-15
 -0.322658566532E-15
 -0.336536354340E-15
 -0.333066907388E-15
 -0.320923843056E-15
 -0.263677968348E-15
 -0.270616862252E-15
 -0.235055030995E-15
 -0.148318857196E-15
 -0.190819582357E-16
  0.251534904017E-16
  0.936750677027E-16
  0.175640751943E-15
  0.294035629178E-15
  0.391830665136E-15
  0.475422652635E-15
  0.535921133860E-15
  0.573827552315E-15
  0.583981783287E-15
  0.573204136066E-15
  0.535487452991E-15
  0.474880551549E-15
  0.393565388612E-15
  0.287530416143E-15
  0.179110198895E-15
  0.954097911787E-16
  0.208166817117E-16
 -0.138777878078E-16
 -0.140512601554E-15
 -0.225514051877E-15
 -0.265412691824E-15
 -0.265412691824E-15
 -0.324393290008E-15
 -0.308780778724E-15
 -0.350414142147E-15
 -0.317454396104E-15
 -0.249800180541E-15
 -0.180411241502E-15
 -0.150920942410E-15
 -0.159594559790E-15
 -0.135308431126E-15
 -0.159594559790E-15
 -0.589805981832E-16
 -0.728583859910E-16
 -0.173472347598E-16
 -0.451028103754E-16
 -0.308780778724E-15
 -0.454497550706E-15
 -0.534294830601E-15
 -0.149186218934E-15
  0.862157567560E-15
  0.983588210879E-15
 -0.104256880906E-14
 -0.168268177170E-15
 -0.183880688454E-15
  0.100353753085E-14
 -0.213891404588E-14
 -0.144415729375E-15
 -0.277870174786E-14
  0.481125556062E-14
 -0.532993787994E-14
  0.584168130535E-15
 -0.256305393576E-14
  0.114751957936E-13
 -0.431772673171E-14
 -0.235618816125E-13
  0.306438902031E-14
 -0.193994126318E-13
 -0.410262102069E-14
 -0.130225691342E-13
 -0.198348282243E-13
 -0.119045398539E-13
 -0.973179870023E-15
  0.421841381271E-14
 -0.193811980354E-14
 -0.142296114128E-14
 -0.809465341978E-15
 -0.124423041314E-14
  0.351281503885E-15
  0.117614251671E-14
 -0.364291929955E-16
 -0.851749226705E-15
 -0.119695919842E-15
  0.948893741359E-15
  0.405925293379E-15
 -0.249800180541E-15
 -0.506539254985E-15
 -0.503069808033E-15
 -0.225514051877E-15
 -0.163064006742E-15
 -0.173472347598E-16
 -0.451028103754E-16
 -0.728583859910E-16
 -0.121430643318E-15
 -0.104083408559E-15
 -0.124900090270E-15
 -0.121430643318E-15
 -0.176941794550E-15
 -0.218575157973E-15
 -0.190819582357E-15
 -0.187350135405E-15
 -0.227248775353E-15
 -0.277555756156E-15
 -0.291433543964E-15
 -0.263677968348E-15
 -0.182145964978E-15
 -0.161329283266E-15
 -0.149186218934E-15
 -0.858688120609E-16
 -0.208166817117E-16
  0.563785129692E-16
  0.906393016198E-16
  0.806646416329E-16
  0.367544536473E-16
  0.997465998687E-17
  0.910729824888E-17
  0.956808417218E-17
  0.364291929955E-16
  0.776288755500E-16
  0.919403442268E-16
  0.589805981832E-16
 -0.216840434497E-16
 -0.850014503229E-16
 -0.149186218934E-15
 -0.151788304148E-15
 -0.171737624122E-15
 -0.265412691824E-15
 -0.300107161344E-15
 -0.274086309204E-15
 -0.232452945781E-15
 -0.194289029309E-15
 -0.180411241502E-15
 -0.208166817117E-15
 -0.159594559790E-15
 -0.135308431126E-15
 -0.971445146547E-16
 -0.128369537222E-15
 -0.121430643318E-15
 -0.107552855511E-15
 -0.659194920871E-16
 -0.312250225676E-16
 -0.128369537222E-15
 -0.204697370165E-15
 -0.419803081186E-15
 -0.416333634234E-15
 -0.267147415300E-15
  0.456232274182E-15
  0.924607612696E-15
 -0.157859836314E-15
 -0.825728374565E-15
  0.277555756156E-16
  0.125333771139E-14
  0.645317133063E-15
 -0.168007968648E-14
  0.278444801938E-14
  0.252277582505E-14
 -0.277555756156E-15
  0.763712010299E-15
 -0.629704621780E-15
  0.913592118623E-14
  0.203491737349E-13
  0.987317866352E-14
 -0.131231830958E-13
  0.505585157073E-14
 -0.168621193397E-12
 -0.415292800149E-14
 -0.876122091542E-14
  0.281025203108E-15
 -0.455148072009E-14
  0.629010732389E-14
 -0.460157086046E-14
  0.460562306608E-14
 -0.384393038233E-14
 -0.574627151417E-15
  0.457099635920E-15
 -0.712103986888E-15
  0.520417042793E-17
 -0.643582409587E-15
  0.423272528138E-15
  0.662664367823E-15
  0.936750677027E-16
 -0.218575157973E-15
 -0.346944695195E-15
 -0.277555756156E-15
 -0.322658566532E-15
 -0.190819582357E-15
 -0.235922392733E-15
 -0.256739074445E-15
 -0.218575157973E-15
 -0.117961196366E-15
 -0.183880688454E-15
 -0.145716771982E-15
 -0.163064006742E-15
 -0.128369537222E-15
 -0.117961196366E-15
 -0.123165366794E-15
 -0.138777878078E-15
 -0.137043154602E-15
 -0.111022302463E-15
 -0.797972798949E-16
 -0.104083408559E-15
 -0.150920942410E-15
 -0.181278603240E-15
 -0.152655665886E-15
 -0.139645239816E-15
 -0.164798730218E-15
 -0.259341159659E-15
 -0.418285198145E-15
 -0.546654735367E-15
 -0.617859713045E-15
 -0.626343595045E-15
 -0.618266288860E-15
 -0.546979996019E-15
 -0.416767315103E-15
 -0.263244287479E-15
 -0.173472347598E-15
 -0.139645239816E-15
 -0.144849410244E-15
 -0.170870262384E-15
 -0.142247325030E-15
 -0.954097911787E-16
 -0.763278329430E-16
 -0.107552855511E-15
 -0.128369537222E-15
 -0.126634813746E-15
 -0.114491749414E-15
 -0.159594559790E-15
 -0.111022302463E-15
 -0.197758476261E-15
 -0.180411241502E-15
 -0.180411241502E-15
 -0.156125112838E-15
 -0.183880688454E-15
 -0.197758476261E-15
 -0.235922392733E-15
 -0.201227923213E-15
 -0.287964097012E-15
 -0.301841884820E-15
 -0.326128013484E-15
 -0.253269627493E-15
  0.346944695195E-16
  0.614092110496E-15
  0.442354486374E-15
 -0.598479599212E-15
  0.537764277553E-16
 -0.647919218277E-15
  0.589805981832E-15
 -0.345209971719E-15
 -0.747665818146E-15
  0.748356997031E-15
  0.179912508502E-14
 -0.200143721041E-14
  0.422014853618E-14
  0.917668718792E-15
  0.821651774396E-14
  0.572458747072E-14
  0.174597315772E-12
 -0.998333360425E-15
  0.353970325273E-13
  0.120424503702E-13
 -0.836743868637E-14
  0.418328566232E-14
 -0.186439405581E-14
  0.214021508849E-14
 -0.120129600711E-15
  0.152868440562E-14
 -0.463865057476E-14
 -0.142334061204E-14
  0.383373888191E-15
  0.299239799606E-15
 -0.196023752785E-15
 -0.466640615038E-15
  0.251534904017E-15
  0.457966997658E-15
  0.503069808033E-16
 -0.242861286637E-15
 -0.693889390391E-17
 -0.659194920871E-16
 -0.270616862252E-15
 -0.253269627493E-15
 -0.336536354340E-15
 -0.374700270811E-15
 -0.312250225676E-15
 -0.340005801291E-15
 -0.322658566532E-15
 -0.308780778724E-15
 -0.319189119580E-15
 -0.364291929955E-15
 -0.256739074445E-15
 -0.204697370165E-15
 -0.147451495458E-15
 -0.242861286637E-16
  0.867361737988E-17
  0.503069808033E-16
  0.312250225676E-16
  0.815320033709E-16
  0.685215773011E-16
  0.425007251614E-16
 -0.945424294407E-16
 -0.278423117894E-15
 -0.447992337671E-15
 -0.544377910805E-15
 -0.597856182963E-15
 -0.609104780502E-15
 -0.597368291985E-15
 -0.543944229936E-15
 -0.444522890719E-15
 -0.280591522239E-15
 -0.867361737988E-16
  0.433680868994E-16
  0.841340885849E-16
  0.763278329430E-16
  0.485722573274E-16
  0.572458747072E-16
  0.867361737988E-17
 -0.138777878078E-16
 -0.137043154602E-15
 -0.204697370165E-15
 -0.281025203108E-15
 -0.333066907388E-15
 -0.263677968348E-15
 -0.326128013484E-15
 -0.333066907388E-15
 -0.360822483003E-15
 -0.315719672628E-15
 -0.350414142147E-15
 -0.301841884820E-15
 -0.246330733589E-15
 -0.270616862252E-15
 -0.277555756156E-16
 -0.485722573274E-16
 -0.159594559790E-15
  0.832667268469E-16
  0.430211422042E-15
  0.256739074445E-15
 -0.431946145518E-15
 -0.123165366794E-15
  0.327862736960E-15
  0.645317133063E-15
 -0.191339999400E-14
 -0.782143447231E-15
  0.360323750004E-14
 -0.188217497143E-14
  0.892948909259E-15
  0.360605642569E-14
 -0.143756534454E-13
  0.102686956160E-13
 -0.124882743036E-13
 -0.366590438561E-13
  0.164798730218E-16
  0.238611214121E-14
  0.424348056693E-13
  0.271857189538E-13
  0.636556779510E-14
 -0.117917828280E-14
  0.420974019533E-14
 -0.291997329094E-14
  0.429658478934E-14
 -0.300757682647E-14
  0.117787724019E-14
 -0.372965547335E-15
 -0.213370987545E-15
 -0.648786580015E-15
 -0.416333634234E-16
  0.447558656802E-15
  0.220309881449E-15
 -0.239391839685E-15
 -0.867361737988E-16
  0.797972798949E-16
 -0.659194920871E-16
 -0.166533453694E-15
 -0.284494650060E-15
 -0.329597460436E-15
 -0.336536354340E-15
 -0.392047505571E-15
 -0.385108611667E-15
 -0.392047505571E-15
 -0.457966997658E-15
 -0.416333634234E-15
 -0.412864187282E-15
 -0.336536354340E-15
 -0.305311331772E-15
 -0.241126563161E-15
 -0.138777878078E-15
 -0.745931094670E-16
  0.659194920871E-16
  0.201227923213E-15
  0.209901540593E-15
  0.198625837999E-15
  0.138777878078E-15
  0.102348685083E-15
  0.183447007585E-15
  0.318863858928E-15
  0.404678460880E-15
  0.417932832439E-15
  0.409855526254E-15
  0.325585912397E-15
  0.189952220619E-15
  0.988792381307E-16
  0.151788304148E-15
  0.205564731903E-15
  0.211636264069E-15
  0.187350135405E-15
  0.520417042793E-16
 -0.763278329430E-16
 -0.159594559790E-15
 -0.215105711021E-15
 -0.298372437868E-15
 -0.301841884820E-15
 -0.423272528138E-15
 -0.378169717763E-15
 -0.392047505571E-15
 -0.416333634234E-15
 -0.326128013484E-15
 -0.395516952523E-15
 -0.364291929955E-15
 -0.340005801291E-15
 -0.315719672628E-15
 -0.166533453694E-15
 -0.693889390391E-16
  0.242861286637E-16
 -0.589805981832E-16
 -0.225514051877E-15
  0.178676518026E-15
  0.456232274182E-15
 -0.520417042793E-16
 -0.636643515683E-15
 -0.142247325030E-15
 -0.220309881449E-15
  0.142681005899E-14
 -0.841340885849E-15
  0.143060476659E-14
  0.178654833982E-14
  0.294772886655E-14
 -0.227812560483E-14
  0.247891984717E-14
 -0.245619496964E-13
 -0.410903949755E-13
  0.152742402060E-14
 -0.397251675999E-15
  0.112791720408E-13
  0.138474301470E-13
 -0.797278909559E-14
 -0.388317850097E-14
 -0.121213802884E-14
 -0.694323071260E-14
  0.315025783237E-14
 -0.497865637605E-15
 -0.404537514598E-14
  0.429777741173E-15
 -0.954965273525E-15
  0.176941794550E-15
 -0.570724023596E-15
 -0.261943244872E-15
  0.275821032680E-15
  0.376434994287E-15
 -0.138777878078E-15
 -0.128369537222E-15
 -0.208166817117E-16
  0.555111512313E-16
  0.000000000000E+00
 -0.124900090270E-15
 -0.215105711021E-15
 -0.215105711021E-15
 -0.190819582357E-15
 -0.246330733589E-15
 -0.319189119580E-15
 -0.235922392733E-15
 -0.249800180541E-15
 -0.301841884820E-15
 -0.353883589099E-15
 -0.333066907388E-15
 -0.307046055248E-15
 -0.258473797921E-15
 -0.173472347598E-15
 -0.131838984174E-15
 -0.104083408559E-15
 -0.581132364452E-16
  0.693889390391E-17
  0.172604985860E-15
  0.433680868994E-15
  0.633390909166E-15
  0.740835344459E-15
  0.763833983043E-15
  0.742407437609E-15
  0.635992994380E-15
  0.439752401160E-15
  0.174773390205E-15
  0.693889390391E-17
 -0.702563007771E-16
 -0.102348685083E-15
 -0.130104260698E-15
 -0.182145964978E-15
 -0.270616862252E-15
 -0.298372437868E-15
 -0.312250225676E-15
 -0.312250225676E-15
 -0.277555756156E-15
 -0.260208521397E-15
 -0.256739074445E-15
 -0.312250225676E-15
 -0.301841884820E-15
 -0.218575157973E-15
 -0.239391839685E-15
 -0.253269627493E-15
 -0.128369537222E-15
 -0.208166817117E-16
  0.624500451352E-16
 -0.277555756156E-16
 -0.201227923213E-15
 -0.235922392733E-15
  0.320923843056E-15
  0.313984949152E-15
 -0.163064006742E-15
 -0.567254576644E-15
  0.267147415300E-15
 -0.692154666915E-15
  0.260208521397E-17
 -0.603683769640E-15
  0.151229940029E-14
 -0.112887130199E-14
  0.110285044985E-14
  0.843942971063E-15
  0.480778611367E-14
  0.801095301206E-14
 -0.138899308721E-13
 -0.118221404888E-13
 -0.660929644347E-15
 -0.320663634534E-14
 -0.876590466881E-13
 -0.177280065627E-13
  0.298545910216E-14
  0.668432323381E-14
  0.722946008613E-15
  0.741377445546E-15
  0.114925430283E-15
 -0.988792381307E-16
 -0.507406616723E-15
 -0.910729824888E-15
  0.572458747072E-16
 -0.499600361081E-15
 -0.270616862252E-15
  0.251534904017E-15
  0.281025203108E-15
 -0.284494650060E-15
 -0.208166817117E-15
 -0.121430643318E-15
 -0.107552855511E-15
 -0.659194920871E-16
 -0.589805981832E-16
 -0.867361737988E-16
 -0.416333634234E-16
 -0.346944695195E-16
 -0.416333634234E-16
 -0.381639164715E-16
 -0.624500451352E-16
 -0.142247325030E-15
 -0.197758476261E-15
 -0.242861286637E-15
 -0.142247325030E-15
 -0.150920942410E-15
 -0.216840434497E-15
 -0.313984949152E-15
 -0.345209971719E-15
 -0.355618312575E-15
 -0.333066907388E-15
 -0.262810606610E-15
 -0.305745012641E-15
 -0.427392496394E-15
 -0.518519688991E-15
 -0.527491461969E-15
 -0.512177106282E-15
 -0.420128341838E-15
 -0.294469310047E-15
 -0.252835946624E-15
 -0.325260651746E-15
 -0.340873163029E-15
 -0.317454396104E-15
 -0.307046055248E-15
 -0.206432093641E-15
 -0.170002900646E-15
 -0.145716771982E-15
 -0.232452945781E-15
 -0.100613961607E-15
 -0.135308431126E-15
 -0.555111512313E-16
 -0.555111512313E-16
 -0.346944695195E-16
 -0.589805981832E-16
 -0.451028103754E-16
 -0.867361737988E-16
 -0.624500451352E-16
 -0.902056207508E-16
 -0.131838984174E-15
 -0.100613961607E-15
 -0.111022302463E-15
 -0.142247325030E-15
  0.235922392733E-15
  0.275821032680E-15
 -0.265412691824E-15
 -0.395516952523E-15
  0.109287578987E-15
 -0.694756752129E-15
 -0.412864187282E-15
  0.133443603390E-14
 -0.301516624168E-15
  0.227823402504E-14
  0.237743852383E-14
 -0.390833199138E-14
 -0.574800623765E-14
  0.142273345882E-13
  0.860839177719E-13
 -0.360128593613E-14
  0.353016227361E-15
 -0.195156391047E-15
 -0.406549793830E-13
 -0.106668146538E-13
  0.108099293405E-13
  0.545700637455E-14
 -0.128087644657E-13
  0.840365103894E-15
  0.166934608498E-14
 -0.239391839685E-14
  0.974047231761E-15
 -0.340005801291E-15
 -0.685215773011E-15
 -0.346944695195E-15
 -0.421537804662E-15
  0.190819582357E-16
  0.208166817117E-15
  0.121430643318E-15
 -0.215105711021E-15
 -0.232452945781E-15
 -0.329597460436E-15
 -0.176941794550E-15
 -0.152655665886E-15
 -0.693889390391E-16
 -0.693889390391E-16
 -0.451028103754E-16
 -0.451028103754E-16
 -0.173472347598E-16
 -0.208166817117E-16
  0.346944695195E-16
  0.624500451352E-16
  0.138777878078E-15
  0.114491749414E-15
  0.242861286637E-16
 -0.589805981832E-16
 -0.111022302463E-15
 -0.196023752785E-15
 -0.313984949152E-15
 -0.456665955051E-15
 -0.737257477290E-15
 -0.979468242623E-15
 -0.110501885420E-14
 -0.112462936099E-14
 -0.109173737758E-14
 -0.960386284388E-15
 -0.718175519054E-15
 -0.431512464649E-15
 -0.292300905702E-15
 -0.201227923213E-15
 -0.114491749414E-15
 -0.520417042793E-16
  0.398986399475E-16
  0.117961196366E-15
  0.152655665886E-15
  0.104083408559E-15
  0.589805981832E-16
 -0.451028103754E-16
 -0.693889390391E-17
 -0.416333634234E-16
 -0.208166817117E-16
 -0.242861286637E-16
 -0.867361737988E-16
 -0.832667268469E-16
 -0.156125112838E-15
 -0.291433543964E-15
 -0.281025203108E-15
 -0.173472347598E-15
  0.152655665886E-15
  0.270616862252E-15
  0.867361737988E-17
 -0.379904441239E-15
 -0.310515502200E-15
 -0.532560107125E-15
 -0.127502175484E-15
  0.650521303491E-15
 -0.280157841370E-15
  0.469611328990E-14
 -0.332535648323E-14
  0.251187959321E-14
  0.596137722519E-14
 -0.677236045021E-14
  0.921398374265E-14
  0.402039512792E-13
  0.752262835357E-14
  0.555111512313E-15
 -0.231628952130E-13
  0.898586760556E-14
  0.244596010113E-14
 -0.563785129692E-15
  0.123629405324E-13
 -0.232322841520E-14
  0.104029198450E-14
  0.171303943253E-14
 -0.545570533195E-15
 -0.148492329544E-14
 -0.121430643318E-16
 -0.962771529167E-15
 -0.206432093641E-15
 -0.166533453694E-15
 -0.381639164715E-16
 -0.104083408559E-16
  0.100613961607E-15
 -0.163064006742E-15
 -0.447558656802E-15
 -0.312250225676E-15
 -0.291433543964E-15
 -0.183880688454E-15
 -0.242861286637E-15
 -0.249800180541E-15
 -0.728583859910E-16
 -0.180411241502E-15
 -0.121430643318E-15
 -0.902056207508E-16
  0.971445146547E-16
  0.135308431126E-15
  0.152655665886E-15
  0.190819582357E-15
  0.294902990916E-15
  0.279290479632E-15
  0.230718222305E-15
  0.124032728532E-15
 -0.294902990916E-16
 -0.114925430283E-15
 -0.752436307705E-16
 -0.294360889830E-16
 -0.314418630021E-16
 -0.343692088678E-16
 -0.761109925085E-16
 -0.109721259856E-15
 -0.190819582357E-16
  0.148318857196E-15
  0.237657116209E-15
  0.286229373536E-15
  0.320923843056E-15
  0.202962646689E-15
  0.176941794550E-15
  0.124900090270E-15
  0.797972798949E-16
  0.346944695195E-17
 -0.728583859910E-16
 -0.131838984174E-15
 -0.173472347598E-15
 -0.173472347598E-15
 -0.235922392733E-15
 -0.218575157973E-15
 -0.215105711021E-15
 -0.190819582357E-15
 -0.388578058619E-15
 -0.166533453694E-15
  0.416333634234E-16
  0.114491749414E-15
  0.312250225676E-16
 -0.194289029309E-15
 -0.138777878078E-15
 -0.919403442268E-15
  0.120563281580E-15
 -0.154043444667E-14
  0.690419943439E-15
  0.355509892358E-14
 -0.145800797650E-14
 -0.949327422228E-15
  0.151571463713E-14
 -0.660062282609E-15
  0.182145964978E-14
 -0.101836941657E-13
  0.212538320277E-13
  0.941087485717E-15
  0.404103833729E-14
 -0.212625056450E-13
 -0.839606162373E-15
 -0.154711313205E-13
 -0.338357813989E-14
 -0.831756538644E-14
 -0.510759511942E-14
  0.246504205936E-14
 -0.279637424327E-14
  0.161676227961E-14
 -0.553376788837E-15
 -0.917668718792E-15
 -0.534294830601E-15
  0.468375338514E-16
 -0.832667268469E-16
 -0.235922392733E-15
 -0.218575157973E-15
 -0.128369537222E-15
 -0.346944695195E-16
 -0.190819582357E-15
 -0.301841884820E-15
 -0.267147415300E-15
 -0.287964097012E-15
 -0.298372437868E-15
 -0.336536354340E-15
 -0.305311331772E-15
 -0.246330733589E-15
 -0.180411241502E-15
 -0.100613961607E-15
 -0.312250225676E-16
  0.728583859910E-16
  0.206432093641E-15
  0.227248775353E-15
  0.248065457065E-15
  0.363424568217E-15
  0.477916317632E-15
  0.835269353683E-15
  0.120454861363E-14
  0.143017108573E-14
  0.147379667064E-14
  0.142849057236E-14
  0.120411493276E-14
  0.838305119766E-15
  0.495263552391E-15
  0.372965547335E-15
  0.249800180541E-15
  0.267147415300E-15
  0.253269627493E-15
  0.867361737988E-16
 -0.693889390391E-17
 -0.971445146547E-16
 -0.163064006742E-15
 -0.246330733589E-15
 -0.253269627493E-15
 -0.298372437868E-15
 -0.322658566532E-15
 -0.281025203108E-15
 -0.315719672628E-15
 -0.336536354340E-15
 -0.163064006742E-15
 -0.277555756156E-16
 -0.312250225676E-16
 -0.190819582357E-15
 -0.190819582357E-15
 -0.346944695195E-16
  0.107552855511E-15
 -0.421537804662E-15
 -0.797972798949E-15
 -0.377302356025E-15
  0.137997252514E-14
 -0.208730602247E-14
  0.637966242334E-14
 -0.471289131852E-14
  0.747297189407E-14
 -0.481342396497E-14
  0.165137001296E-13
 -0.204610633991E-14
  0.231047819765E-13
  0.834748936640E-14
  0.165666091956E-15
 -0.159256288712E-13
 -0.102886449360E-13
 -0.761890550649E-14
  0.784095011142E-14
 -0.915500314447E-15
 -0.262637134263E-14
  0.259997101973E-14
  0.334758262777E-14
 -0.161849700309E-14
  0.409394740331E-15
 -0.858688120609E-15
 -0.100440489259E-14
 -0.435415592470E-15
  0.143982048506E-15
 -0.239391839685E-15
 -0.308780778724E-15
 -0.378169717763E-15
 -0.197758476261E-15
 -0.312250225676E-16
  0.485722573274E-16
  0.485722573274E-16
  0.173472347598E-16
  0.485722573274E-16
  0.485722573274E-16
  0.589805981832E-16
 -0.763278329430E-16
 -0.117961196366E-15
 -0.194289029309E-15
 -0.194289029309E-15
 -0.107552855511E-15
 -0.468375338514E-16
 -0.988792381307E-16
  0.173472347598E-16
  0.174339709336E-15
  0.418935719448E-15
  0.703864050378E-15
  0.829197821517E-15
  0.858688120609E-15
  0.867117792500E-15
  0.860748104736E-15
  0.833534630207E-15
  0.708200859068E-15
  0.432813507256E-15
  0.190819582357E-15
  0.503069808033E-16
 -0.589805981832E-16
 -0.659194920871E-16
 -0.485722573274E-16
 -0.222044604925E-15
 -0.166533453694E-15
 -0.159594559790E-15
 -0.867361737988E-16
  0.104083408559E-15
  0.416333634234E-16
  0.277555756156E-16
  0.763278329430E-16
  0.381639164715E-16