# vtk DataFile Version 3.0
MachLine results file. Generated by MachLine, USU AeroLab (c) 2022.
ASCII
DATASET POLYDATA
POINTS                 198 float
  0.100000000000E+01  0.000000000000E+00  0.000000000000E+00
  0.200000000000E+02  0.000000000000E+00  0.000000000000E+00
  0.100002538219E+01  0.000000000000E+00  0.205408163265E-01
  0.200000000000E+02  0.000000000000E+00  0.205408163265E-01
  0.100005076438E+01  0.000000000000E+00  0.410816326531E-01
  0.200000000000E+02  0.000000000000E+00  0.410816326531E-01
  0.100007614656E+01  0.000000000000E+00  0.616224489796E-01
  0.200000000000E+02  0.000000000000E+00  0.616224489796E-01
  0.100010152875E+01  0.000000000000E+00  0.821632653061E-01
  0.200000000000E+02  0.000000000000E+00  0.821632653061E-01
  0.100012691094E+01  0.000000000000E+00  0.102704081633E+00
  0.200000000000E+02  0.000000000000E+00  0.102704081633E+00
  0.100015229313E+01  0.000000000000E+00  0.123244897959E+00
  0.200000000000E+02  0.000000000000E+00  0.123244897959E+00
  0.100017767531E+01  0.000000000000E+00  0.143785714286E+00
  0.200000000000E+02  0.000000000000E+00  0.143785714286E+00
  0.100020305750E+01  0.000000000000E+00  0.164326530612E+00
  0.200000000000E+02  0.000000000000E+00  0.164326530612E+00
  0.100022843969E+01  0.000000000000E+00  0.184867346939E+00
  0.200000000000E+02  0.000000000000E+00  0.184867346939E+00
  0.100025382188E+01  0.000000000000E+00  0.205408163265E+00
  0.200000000000E+02  0.000000000000E+00  0.205408163265E+00
  0.100027920407E+01  0.000000000000E+00  0.225948979592E+00
  0.200000000000E+02  0.000000000000E+00  0.225948979592E+00
  0.100030458625E+01  0.000000000000E+00  0.246489795918E+00
  0.200000000000E+02  0.000000000000E+00  0.246489795918E+00
  0.100032996844E+01  0.000000000000E+00  0.267030612245E+00
  0.200000000000E+02  0.000000000000E+00  0.267030612245E+00
  0.100035535063E+01  0.000000000000E+00  0.287571428571E+00
  0.200000000000E+02  0.000000000000E+00  0.287571428571E+00
  0.100038073282E+01  0.000000000000E+00  0.308112244898E+00
  0.200000000000E+02  0.000000000000E+00  0.308112244898E+00
  0.100040611501E+01  0.000000000000E+00  0.328653061224E+00
  0.200000000000E+02  0.000000000000E+00  0.328653061224E+00
  0.100043149719E+01  0.000000000000E+00  0.349193877551E+00
  0.200000000000E+02  0.000000000000E+00  0.349193877551E+00
  0.100045687938E+01  0.000000000000E+00  0.369734693878E+00
  0.200000000000E+02  0.000000000000E+00  0.369734693878E+00
  0.100048226157E+01  0.000000000000E+00  0.390275510204E+00
  0.200000000000E+02  0.000000000000E+00  0.390275510204E+00
  0.100050764376E+01  0.000000000000E+00  0.410816326531E+00
  0.200000000000E+02  0.000000000000E+00  0.410816326531E+00
  0.100053302594E+01  0.000000000000E+00  0.431357142857E+00
  0.200000000000E+02  0.000000000000E+00  0.431357142857E+00
  0.100055840813E+01  0.000000000000E+00  0.451897959184E+00
  0.200000000000E+02  0.000000000000E+00  0.451897959184E+00
  0.100058379032E+01  0.000000000000E+00  0.472438775510E+00
  0.200000000000E+02  0.000000000000E+00  0.472438775510E+00
  0.100060917251E+01  0.000000000000E+00  0.492979591837E+00
  0.200000000000E+02  0.000000000000E+00  0.492979591837E+00
  0.100063455470E+01  0.000000000000E+00  0.513520408163E+00
  0.200000000000E+02  0.000000000000E+00  0.513520408163E+00
  0.100065993688E+01  0.000000000000E+00  0.534061224490E+00
  0.200000000000E+02  0.000000000000E+00  0.534061224490E+00
  0.100068531907E+01  0.000000000000E+00  0.554602040816E+00
  0.200000000000E+02  0.000000000000E+00  0.554602040816E+00
  0.100071070126E+01  0.000000000000E+00  0.575142857143E+00
  0.200000000000E+02  0.000000000000E+00  0.575142857143E+00
  0.100073608345E+01  0.000000000000E+00  0.595683673469E+00
  0.200000000000E+02  0.000000000000E+00  0.595683673469E+00
  0.100076146564E+01  0.000000000000E+00  0.616224489796E+00
  0.200000000000E+02  0.000000000000E+00  0.616224489796E+00
  0.100078684782E+01  0.000000000000E+00  0.636765306122E+00
  0.200000000000E+02  0.000000000000E+00  0.636765306122E+00
  0.100081223001E+01  0.000000000000E+00  0.657306122449E+00
  0.200000000000E+02  0.000000000000E+00  0.657306122449E+00
  0.100083761220E+01  0.000000000000E+00  0.677846938776E+00
  0.200000000000E+02  0.000000000000E+00  0.677846938776E+00
  0.100086299439E+01  0.000000000000E+00  0.698387755102E+00
  0.200000000000E+02  0.000000000000E+00  0.698387755102E+00
  0.100088837657E+01  0.000000000000E+00  0.718928571429E+00
  0.200000000000E+02  0.000000000000E+00  0.718928571429E+00
  0.100091375876E+01  0.000000000000E+00  0.739469387755E+00
  0.200000000000E+02  0.000000000000E+00  0.739469387755E+00
  0.100093914095E+01  0.000000000000E+00  0.760010204082E+00
  0.200000000000E+02  0.000000000000E+00  0.760010204082E+00
  0.100096452314E+01  0.000000000000E+00  0.780551020408E+00
  0.200000000000E+02  0.000000000000E+00  0.780551020408E+00
  0.100098990533E+01  0.000000000000E+00  0.801091836735E+00
  0.200000000000E+02  0.000000000000E+00  0.801091836735E+00
  0.100101528751E+01  0.000000000000E+00  0.821632653061E+00
  0.200000000000E+02  0.000000000000E+00  0.821632653061E+00
  0.100104066970E+01  0.000000000000E+00  0.842173469388E+00
  0.200000000000E+02  0.000000000000E+00  0.842173469388E+00
  0.100106605189E+01  0.000000000000E+00  0.862714285714E+00
  0.200000000000E+02  0.000000000000E+00  0.862714285714E+00
  0.100109143408E+01  0.000000000000E+00  0.883255102041E+00
  0.200000000000E+02  0.000000000000E+00  0.883255102041E+00
  0.100111681627E+01  0.000000000000E+00  0.903795918367E+00
  0.200000000000E+02  0.000000000000E+00  0.903795918367E+00
  0.100114219845E+01  0.000000000000E+00  0.924336734694E+00
  0.200000000000E+02  0.000000000000E+00  0.924336734694E+00
  0.100116758064E+01  0.000000000000E+00  0.944877551020E+00
  0.200000000000E+02  0.000000000000E+00  0.944877551020E+00
  0.100119296283E+01  0.000000000000E+00  0.965418367347E+00
  0.200000000000E+02  0.000000000000E+00  0.965418367347E+00
  0.100121834502E+01  0.000000000000E+00  0.985959183673E+00
  0.200000000000E+02  0.000000000000E+00  0.985959183673E+00
  0.100124372720E+01  0.000000000000E+00  0.100650000000E+01
  0.200000000000E+02  0.000000000000E+00  0.100650000000E+01
  0.100002538219E+01  0.000000000000E+00 -0.205408163265E-01
  0.200000000000E+02  0.000000000000E+00 -0.205408163265E-01
  0.100005076438E+01  0.000000000000E+00 -0.410816326531E-01
  0.200000000000E+02  0.000000000000E+00 -0.410816326531E-01
  0.100007614656E+01  0.000000000000E+00 -0.616224489796E-01
  0.200000000000E+02  0.000000000000E+00 -0.616224489796E-01
  0.100010152875E+01  0.000000000000E+00 -0.821632653061E-01
  0.200000000000E+02  0.000000000000E+00 -0.821632653061E-01
  0.100012691094E+01  0.000000000000E+00 -0.102704081633E+00
  0.200000000000E+02  0.000000000000E+00 -0.102704081633E+00
  0.100015229313E+01  0.000000000000E+00 -0.123244897959E+00
  0.200000000000E+02  0.000000000000E+00 -0.123244897959E+00
  0.100017767531E+01  0.000000000000E+00 -0.143785714286E+00
  0.200000000000E+02  0.000000000000E+00 -0.143785714286E+00
  0.100020305750E+01  0.000000000000E+00 -0.164326530612E+00
  0.200000000000E+02  0.000000000000E+00 -0.164326530612E+00
  0.100022843969E+01  0.000000000000E+00 -0.184867346939E+00
  0.200000000000E+02  0.000000000000E+00 -0.184867346939E+00
  0.100025382188E+01  0.000000000000E+00 -0.205408163265E+00
  0.200000000000E+02  0.000000000000E+00 -0.205408163265E+00
  0.100027920407E+01  0.000000000000E+00 -0.225948979592E+00
  0.200000000000E+02  0.000000000000E+00 -0.225948979592E+00
  0.100030458625E+01  0.000000000000E+00 -0.246489795918E+00
  0.200000000000E+02  0.000000000000E+00 -0.246489795918E+00
  0.100032996844E+01  0.000000000000E+00 -0.267030612245E+00
  0.200000000000E+02  0.000000000000E+00 -0.267030612245E+00
  0.100035535063E+01  0.000000000000E+00 -0.287571428571E+00
  0.200000000000E+02  0.000000000000E+00 -0.287571428571E+00
  0.100038073282E+01  0.000000000000E+00 -0.308112244898E+00
  0.200000000000E+02  0.000000000000E+00 -0.308112244898E+00
  0.100040611501E+01  0.000000000000E+00 -0.328653061224E+00
  0.200000000000E+02  0.000000000000E+00 -0.328653061224E+00
  0.100043149719E+01  0.000000000000E+00 -0.349193877551E+00
  0.200000000000E+02  0.000000000000E+00 -0.349193877551E+00
  0.100045687938E+01  0.000000000000E+00 -0.369734693878E+00
  0.200000000000E+02  0.000000000000E+00 -0.369734693878E+00
  0.100048226157E+01  0.000000000000E+00 -0.390275510204E+00
  0.200000000000E+02  0.000000000000E+00 -0.390275510204E+00
  0.100050764376E+01  0.000000000000E+00 -0.410816326531E+00
  0.200000000000E+02  0.000000000000E+00 -0.410816326531E+00
  0.100053302594E+01  0.000000000000E+00 -0.431357142857E+00
  0.200000000000E+02  0.000000000000E+00 -0.431357142857E+00
  0.100055840813E+01  0.000000000000E+00 -0.451897959184E+00
  0.200000000000E+02  0.000000000000E+00 -0.451897959184E+00
  0.100058379032E+01  0.000000000000E+00 -0.472438775510E+00
  0.200000000000E+02  0.000000000000E+00 -0.472438775510E+00
  0.100060917251E+01  0.000000000000E+00 -0.492979591837E+00
  0.200000000000E+02  0.000000000000E+00 -0.492979591837E+00
  0.100063455470E+01  0.000000000000E+00 -0.513520408163E+00
  0.200000000000E+02  0.000000000000E+00 -0.513520408163E+00
  0.100065993688E+01  0.000000000000E+00 -0.534061224490E+00
  0.200000000000E+02  0.000000000000E+00 -0.534061224490E+00
  0.100068531907E+01  0.000000000000E+00 -0.554602040816E+00
  0.200000000000E+02  0.000000000000E+00 -0.554602040816E+00
  0.100071070126E+01  0.000000000000E+00 -0.575142857143E+00
  0.200000000000E+02  0.000000000000E+00 -0.575142857143E+00
  0.100073608345E+01  0.000000000000E+00 -0.595683673469E+00
  0.200000000000E+02  0.000000000000E+00 -0.595683673469E+00
  0.100076146564E+01  0.000000000000E+00 -0.616224489796E+00
  0.200000000000E+02  0.000000000000E+00 -0.616224489796E+00
  0.100078684782E+01  0.000000000000E+00 -0.636765306122E+00
[...]
CELL_DATA                 196
NORMALS normals float
 -0.000000000000E+00  0.100000000000E+01  0.000000000000E+00
  0.000000000000E+00  0.100000000000E+01  0.000000000000E+00
 -0.000000000000E+00  0.100000000000E+01  0.000000000000E+00
  0.000000000000E+00  0.100000000000E+01  0.000000000000E+00
 -0.000000000000E+00  0.100000000000E+01  0.000000000000E+00
  0.000000000000E+00  0.100000000000E+01  0.000000000000E+00
 -0.000000000000E+00  0.100000000000E+01  0.000000000000E+00
  0.000000000000E+00  0.100000000000E+01  0.000000000000E+00
 -0.000000000000E+00  0.100000000000E+01  0.000000000000E+00
  0.000000000000E+00  0.100000000000E+01  0.000000000000E+00
 -0.000000000000E+00  0.100000000000E+01  0.000000000000E+00
  0.000000000000E+00  0.100000000000E+01  0.000000000000E+00
 -0.000000000000E+00  0.100000000000E+01  0.000000000000E+00
  0.000000000000E+00  0.100000000000E+01  0.000000000000E+00
 -0.000000000000E+00  0.100000000000E+01  0.000000000000E+00
  0.000000000000E+00  0.100000000000E+01  0.000000000000E+00
 -0.000000000000E+00  0.100000000000E+01  0.000000000000E+00
  0.000000000000E+00  0.100000000000E+01  0.000000000000E+00
 -0.000000000000E+00  0.100000000000E+01  0.000000000000E+00
  0.000000000000E+00  0.100000000000E+01  0.000000000000E+00
 -0.000000000000E+00  0.100000000000E+01  0.000000000000E+00
  0.000000000000E+00  0.100000000000E+01  0.000000000000E+00
 -0.000000000000E+00  0.100000000000E+01  0.000000000000E+00
  0.000000000000E+00  0.100000000000E+01  0.000000000000E+00
 -0.000000000000E+00  0.100000000000E+01  0.000000000000E+00
  0.000000000000E+00  0.100000000000E+01  0.000000000000E+00
 -0.000000000000E+00  0.100000000000E+01  0.000000000000E+00
  0.000000000000E+00  0.100000000000E+01  0.000000000000E+00
 -0.000000000000E+00  0.100000000000E+01  0.000000000000E+00
  0.000000000000E+00  0.100000000000E+01  0.000000000000E+00
 -0.000000000000E+00  0.100000000000E+01  0.000000000000E+00
  0.000000000000E+00  0.100000000000E+01  0.000000000000E+00
 -0.000000000000E+00  0.100000000000E+01  0.000000000000E+00
  0.000000000000E+00  0.100000000000E+01  0.000000000000E+00
 -0.000000000000E+00  0.100000000000E+01  0.000000000000E+00
  0.000000000000E+00  0.100000000000E+01  0.000000000000E+00
 -0.000000000000E+00  0.100000000000E+01  0.000000000000E+00
  0.000000000000E+00  0.100000000000E+01  0.000000000000E+00
 -0.000000000000E+00  0.100000000000E+01  0.000000000000E+00
  0.000000000000E+00  0.100000000000E+01  0.000000000000E+00
 -0.000000000000E+00  0.100000000000E+01  0.000000000000E+00
  0.000000000000E+00  0.100000000000E+01  0.000000000000E+00
 -0.000000000000E+00  0.100000000000E+01  0.000000000000E+00
  0.000000000000E+00  0.100000000000E+01  0.000000000000E+00
 -0.000000000000E+00  0.100000000000E+01  0.000000000000E+00
  0.000000000000E+00  0.100000000000E+01  0.000000000000E+00
 -0.000000000000E+00  0.100000000000E+01  0.000000000000E+00
  0.000000000000E+00  0.100000000000E+01  0.000000000000E+00
 -0.000000000000E+00  0.100000000000E+01  0.000000000000E+00
  0.000000000000E+00  0.100000000000E+01  0.000000000000E+00
 -0.000000000000E+00  0.100000000000E+01  0.000000000000E+00
  0.000000000000E+00  0.100000000000E+01  0.000000000000E+00
 -0.000000000000E+00  0.100000000000E+01  0.000000000000E+00
  0.000000000000E+00  0.100000000000E+01  0.000000000000E+00
 -0.000000000000E+00  0.100000000000E+01  0.000000000000E+00
  0.000000000000E+00  0.100000000000E+01  0.000000000000E+00
 -0.000000000000E+00  0.100000000000E+01  0.000000000000E+00
  0.000000000000E+00  0.100000000000E+01  0.000000000000E+00
 -0.000000000000E+00  0.100000000000E+01  0.000000000000E+00
  0.000000000000E+00  0.100000000000E+01  0.000000000000E+00
 -0.000000000000E+00  0.100000000000E+01  0.000000000000E+00
  0.000000000000E+00  0.100000000000E+01  0.000000000000E+00
 -0.000000000000E+00  0.100000000000E+01  0.000000000000E+00
  0.000000000000E+00  0.100000000000E+01  0.000000000000E+00
 -0.000000000000E+00  0.100000000000E+01  0.000000000000E+00
  0.000000000000E+00  0.100000000000E+01  0.000000000000E+00
 -0.000000000000E+00  0.100000000000E+01  0.000000000000E+00
  0.000000000000E+00  0.100000000000E+01  0.000000000000E+00
 -0.000000000000E+00  0.100000000000E+01  0.000000000000E+00
  0.000000000000E+00  0.100000000000E+01  0.000000000000E+00
 -0.000000000000E+00  0.100000000000E+01  0.000000000000E+00
  0.000000000000E+00  0.100000000000E+01  0.000000000000E+00
 -0.000000000000E+00  0.100000000000E+01  0.000000000000E+00
  0.000000000000E+00  0.100000000000E+01  0.000000000000E+00
 -0.000000000000E+00  0.100000000000E+01  0.000000000000E+00
  0.000000000000E+00  0.100000000000E+01  0.000000000000E+00
 -0.000000000000E+00  0.100000000000E+01  0.000000000000E+00
  0.000000000000E+00  0.100000000000E+01  0.000000000000E+00
 -0.000000000000E+00  0.100000000000E+01  0.000000000000E+00
  0.000000000000E+00  0.100000000000E+01  0.000000000000E+00
 -0.000000000000E+00  0.100000000000E+01  0.000000000000E+00
  0.000000000000E+00  0.100000000000E+01  0.000000000000E+00
 -0.000000000000E+00  0.100000000000E+01  0.000000000000E+00
  0.000000000000E+00  0.100000000000E+01  0.000000000000E+00
 -0.000000000000E+00  0.100000000000E+01  0.000000000000E+00
  0.000000000000E+00  0.100000000000E+01  0.000000000000E+00
 -0.000000000000E+00  0.100000000000E+01  0.000000000000E+00
  0.000000000000E+00  0.100000000000E+01  0.000000000000E+00
 -0.000000000000E+00  0.100000000000E+01  0.000000000000E+00
  0.000000000000E+00  0.100000000000E+01  0.000000000000E+00
 -0.000000000000E+00  0.100000000000E+01  0.000000000000E+00
  0.000000000000E+00  0.100000000000E+01  0.000000000000E+00
 -0.000000000000E+00  0.100000000000E+01  0.000000000000E+00
  0.000000000000E+00  0.100000000000E+01  0.000000000000E+00
 -0.000000000000E+00  0.100000000000E+01  0.000000000000E+00
  0.000000000000E+00  0.100000000000E+01  0.000000000000E+00
 -0.000000000000E+00  0.100000000000E+01  0.000000000000E+00
  0.000000000000E+00  0.100000000000E+01  0.000000000000E+00
 -0.000000000000E+00  0.100000000000E+01  0.000000000000E+00
  0.000000000000E+00  0.100000000000E+01  0.000000000000E+00
 -0.000000000000E+00  0.100000000000E+01  0.000000000000E+00
  0.000000000000E+00  0.100000000000E+01  0.000000000000E+00
 -0.000000000000E+00  0.100000000000E+01  0.000000000000E+00
  0.000000000000E+00  0.100000000000E+01  0.000000000000E+00
 -0.000000000000E+00  0.100000000000E+01  0.000000000000E+00
  0.000000000000E+00  0.100000000000E+01  0.000000000000E+00
 -0.000000000000E+00  0.100000000000E+01  0.000000000000E+00
  0.000000000000E+00  0.100000000000E+01  0.000000000000E+00
 -0.000000000000E+00  0.100000000000E+01  0.000000000000E+00
  0.000000000000E+00  0.100000000000E+01  0.000000000000E+00
 -0.000000000000E+00  0.100000000000E+01  0.000000000000E+00
  0.000000000000E+00  0.100000000000E+01  0.000000000000E+00
 -0.000000000000E+00  0.100000000000E+01  0.000000000000E+00
  0.000000000000E+00  0.100000000000E+01  0.000000000000E+00
 -0.000000000000E+00  0.100000000000E+01  0.000000000000E+00
  0.000000000000E+00  0.100000000000E+01  0.000000000000E+00
 -0.000000000000E+00  0.100000000000E+01  0.000000000000E+00
  0.000000000000E+00  0.100000000000E+01  0.000000000000E+00
 -0.000000000000E+00  0.100000000000E+01  0.000000000000E+00
  0.000000000000E+00  0.100000000000E+01  0.000000000000E+00
 -0.000000000000E+00  0.100000000000E+01  0.000000000000E+00
  0.000000000000E+00  0.100000000000E+01  0.000000000000E+00
 -0.000000000000E+00  0.100000000000E+01  0.000000000000E+00
  0.000000000000E+00  0.100000000000E+01  0.000000000000E+00
 -0.000000000000E+00  0.100000000000E+01  0.000000000000E+00
  0.000000000000E+00  0.100000000000E+01  0.000000000000E+00
 -0.000000000000E+00  0.100000000000E+01  0.000000000000E+00
  0.000000000000E+00  0.100000000000E+01  0.000000000000E+00
 -0.000000000000E+00  0.100000000000E+01  0.000000000000E+00
  0.000000000000E+00  0.100000000000E+01  0.000000000000E+00
 -0.000000000000E+00  0.100000000000E+01  0.000000000000E+00
  0.000000000000E+00  0.100000000000E+01  0.000000000000E+00
 -0.000000000000E+00  0.100000000000E+01  0.000000000000E+00
  0.000000000000E+00  0.100000000000E+01  0.000000000000E+00
 -0.000000000000E+00  0.100000000000E+01  0.000000000000E+00
  0.000000000000E+00  0.100000000000E+01  0.000000000000E+00
 -0.000000000000E+00  0.100000000000E+01  0.000000000000E+00
  0.000000000000E+00  0.100000000000E+01  0.000000000000E+00
 -0.000000000000E+00  0.100000000000E+01  0.000000000000E+00
  0.000000000000E+00  0.100000000000E+01  0.000000000000E+00
 -0.000000000000E+00  0.100000000000E+01  0.000000000000E+00
  0.000000000000E+00  0.100000000000E+01  0.000000000000E+00
 -0.000000000000E+00  0.100000000000E+01  0.000000000000E+00
  0.000000000000E+00  0.100000000000E+01  0.000000000000E+00
 -0.000000000000E+00  0.100000000000E+01  0.000000000000E+00
  0.000000000000E+00  0.100000000000E+01  0.000000000000E+00
 -0.000000000000E+00  0.100000000000E+01  0.000000000000E+00
  0.000000000000E+00  0.100000000000E+01  0.000000000000E+00
 -0.000000000000E+00  0.100000000000E+01  0.000000000000E+00
  0.000000000000E+00  0.100000000000E+01  0.000000000000E+00
 -0.000000000000E+00  0.100000000000E+01  0.000000000000E+00
  0.000000000000E+00  0.100000000000E+01  0.000000000000E+00
 -0.000000000000E+00  0.100000000000E+01  0.000000000000E+00
  0.000000000000E+00  0.100000000000E+01  0.000000000000E+00
 -0.000000000000E+00  0.100000000000E+01  0.000000000000E+00
  0.000000000000E+00  0.100000000000E+01  0.000000000000E+00
 -0.000000000000E+00  0.100000000000E+01  0.000000000000E+00
  0.000000000000E+00  0.100000000000E+01  0.000000000000E+00
 -0.000000000000E+00  0.100000000000E+01  0.000000000000E+00
  0.000000000000E+00  0.100000000000E+01  0.000000000000E+00
 -0.000000000000E+00  0.100000000000E+01  0.000000000000E+00
  0.000000000000E+00  0.100000000000E+01  0.000000000000E+00
 -0.000000000000E+00  0.100000000000E+01  0.000000000000E+00
  0.000000000000E+00  0.100000000000E+01  0.000000000000E+00
 -0.000000000000E+00  0.100000000000E+01  0.000000000000E+00
  0.000000000000E+00  0.100000000000E+01  0.000000000000E+00
 -0.000000000000E+00  0.100000000000E+01  0.000000000000E+00
  0.000000000000E+00  0.100000000000E+01  0.000000000000E+00
 -0.000000000000E+00  0.100000000000E+01  0.000000000000E+00
  0.000000000000E+00  0.100000000000E+01  0.000000000000E+00
 -0.000000000000E+00  0.100000000000E+01  0.000000000000E+00
  0.000000000000E+00  0.100000000000E+01  0.000000000000E+00
 -0.000000000000E+00  0.100000000000E+01  0.000000000000E+00
  0.000000000000E+00  0.100000000000E+01  0.000000000000E+00
 -0.000000000000E+00  0.100000000000E+01  0.000000000000E+00
  0.000000000000E+00  0.100000000000E+01  0.000000000000E+00
 -0.000000000000E+00  0.100000000000E+01  0.000000000000E+00
  0.000000000000E+00  0.100000000000E+01  0.000000000000E+00
 -0.000000000000E+00  0.100000000000E+01  0.000000000000E+00
  0.000000000000E+00  0.100000000000E+01  0.000000000000E+00
 -0.000000000000E+00  0.100000000000E+01  0.000000000000E+00
  0.000000000000E+00  0.100000000000E+01  0.000000000000E+00
 -0.000000000000E+00  0.100000000000E+01  0.000000000000E+00
  0.000000000000E+00  0.100000000000E+01  0.000000000000E+00
 -0.000000000000E+00  0.100000000000E+01  0.000000000000E+00
  0.000000000000E+00  0.100000000000E+01  0.000000000000E+00
 -0.000000000000E+00  0.100000000000E+01  0.000000000000E+00
  0.000000000000E+00  0.100000000000E+01  0.000000000000E+00
 -0.000000000000E+00  0.100000000000E+01  0.000000000000E+00
  0.000000000000E+00  0.100000000000E+01  0.000000000000E+00
 -0.000000000000E+00  0.100000000000E+01  0.000000000000E+00
  0.000000000000E+00  0.100000000000E+01  0.000000000000E+00
 -0.000000000000E+00  0.100000000000E+01  0.000000000000E+00
  0.000000000000E+00  0.100000000000E+01  0.000000000000E+00
 -0.000000000000E+00  0.100000000000E+01  0.000000000000E+00
  0.000000000000E+00  0.100000000000E+01  0.000000000000E+00
POINT_DATA                 198
SCALARS mu float 1
LOOKUP_TABLE default
 -0.130136702383E-01
 -0.130136702383E-01
  0.762261661093E-05
  0.762261661093E-05
  0.129744785941E-01
  0.129744785941E-01
  0.129091600990E-01
  0.129091600990E-01
  0.128458246012E-01
  0.128458246012E-01
  0.127268207609E-01
  0.127268207609E-01
  0.126135584898E-01
  0.126135584898E-01
  0.124439323697E-01
  0.124439323697E-01
  0.122733913921E-01
  0.122733913921E-01
  0.120552785829E-01
  0.120552785829E-01
  0.450544032720E-02
  0.450544032720E-02
  0.115372585018E-01
  0.115372585018E-01
  0.112526726532E-01
  0.112526726532E-01
  0.109070504917E-01
  0.109070504917E-01
  0.105479678012E-01
  0.105479678012E-01
  0.101410071557E-01
  0.101410071557E-01
  0.970073956404E-02
  0.970073956404E-02
  0.919316760428E-02
  0.919316760428E-02
  0.867922782461E-02
  0.867922782461E-02
  0.366339619487E-02
  0.366339619487E-02
  0.745656289278E-02
  0.745656289278E-02
  0.675209166679E-02
  0.675209166679E-02
  0.599448386702E-02
  0.599448386702E-02
  0.512767061989E-02
  0.512767061989E-02
  0.422642513819E-02
  0.422642513819E-02
  0.319392152767E-02
  0.319392152767E-02
  0.205465044132E-02
  0.205465044132E-02
  0.745128861121E-03
  0.745128861121E-03
 -0.706721899329E-03
 -0.706721899329E-03
 -0.243646033588E-02
 -0.243646033588E-02
 -0.262272486964E-02
 -0.262272486964E-02
 -0.717607515699E-02
 -0.717607515699E-02
 -0.111671748277E-01
 -0.111671748277E-01
 -0.147852541726E-01
 -0.147852541726E-01
 -0.178432811377E-01
 -0.178432811377E-01
 -0.202725433550E-01
 -0.202725433550E-01
 -0.219668034053E-01
 -0.219668034053E-01
 -0.227843701133E-01
 -0.227843701133E-01
 -0.223459213549E-01
 -0.223459213549E-01
 -0.203332201915E-01
 -0.203332201915E-01
 -0.183018880151E-01
 -0.183018880151E-01
 -0.132901681247E-01
 -0.132901681247E-01
 -0.142348030933E-01
 -0.142348030933E-01
 -0.122012597180E-01
 -0.122012597180E-01
 -0.101677161237E-01
 -0.101677161237E-01
 -0.718341137398E-02
 -0.718341137398E-02
 -0.466527760392E-02
 -0.466527760392E-02
 -0.257858295482E-02
 -0.257858295482E-02
 -0.981723190894E-03
 -0.981723190894E-03
  0.000000000000E+00
  0.000000000000E+00
  0.762229679931E-05
  0.762229679931E-05
  0.129744785941E-01
  0.129744785941E-01
  0.129091600992E-01
  0.129091600992E-01
  0.128458246012E-01
  0.128458246012E-01
  0.127268207609E-01
  0.127268207609E-01
  0.126135584863E-01
  0.126135584863E-01
  0.124439323734E-01
  0.124439323734E-01
  0.122733913921E-01
  0.122733913921E-01
  0.120552785832E-01
  0.120552785832E-01
  0.450544082508E-02
  0.450544082508E-02
  0.115372585018E-01
  0.115372585018E-01
  0.112526726532E-01
  0.112526726532E-01
  0.109070504917E-01
  0.109070504917E-01
  0.105479678012E-01
  0.105479678012E-01
  0.101410071557E-01
  0.101410071557E-01
  0.970073956403E-02
  0.970073956403E-02
  0.919316760440E-02
  0.919316760440E-02
  0.867922782459E-02
  0.867922782459E-02
  0.366339553210E-02
  0.366339553210E-02
  0.745656289275E-02
  0.745656289275E-02
  0.675209166680E-02
  0.675209166680E-02
  0.599448386694E-02
  0.599448386694E-02
  0.512767061994E-02
  0.512767061994E-02
  0.422642513926E-02
  0.422642513926E-02
  0.319392152765E-02
  0.319392152765E-02
  0.205465044130E-02
  0.205465044130E-02
  0.745128861117E-03
  0.745128861117E-03
 -0.706721899550E-03
 -0.706721899550E-03
 -0.243646033577E-02
 -0.243646033577E-02
 -0.262326434371E-02
 -0.262326434371E-02
 -0.717607515526E-02
 -0.717607515526E-02
 -0.111671748277E-01
 -0.111671748277E-01
 -0.147852541760E-01
 -0.147852541760E-01
 -0.178432811377E-01
 -0.178432811377E-01
 -0.202725433553E-01
 -0.202725433553E-01
 -0.219668034051E-01
 -0.219668034051E-01
 -0.227843701133E-01
 -0.227843701133E-01
 -0.223459213549E-01
 -0.223459213549E-01
 -0.203332201915E-01
 -0.203332201915E-01
 -0.183018880146E-01
 -0.183018880146E-01
 -0.132920889648E-01
 -0.132920889648E-01
 -0.142348030933E-01
 -0.142348030933E-01
 -0.122012597181E-01
 -0.122012597181E-01
 -0.101677161237E-01
 -0.101677161237E-01
 -0.718330604044E-02
 -0.718330604044E-02
 -0.466521457628E-02
 -0.466521457628E-02
 -0.257881164594E-02
 -0.257881164594E-02
 -0.981820953215E-03
 -0.981820953215E-03
  0.000000000000E+00
  0.000000000000E+00
