# vtk DataFile Version 3.0
MachLine results file. Generated by MachLine, USU AeroLab (c) 2022.
ASCII
DATASET POLYDATA
POINTS               18842 float
  0.229999968945E+00  0.107977627241E-26  0.000000000000E+00
  0.228371263774E+00  0.293037974860E-02 -0.796007510587E-04
  0.230003654943E+00  0.293037978325E-02  0.110122144605E-22
  0.228346651383E+00 -0.671023202641E-28 -0.806214093074E-04
  0.226567379168E+00  0.293037974866E-02 -0.167594164112E-03
  0.226519640044E+00  0.693435737885E-28 -0.169742920115E-03
  0.224575966286E+00  0.293037974873E-02 -0.264735187559E-03
  0.224502696230E+00 -0.143683916795E-27 -0.268129315749E-03
  0.222379901568E+00  0.293037974880E-02 -0.371859108190E-03
  0.222278476830E+00 -0.746190499410E-28 -0.376626591840E-03
  0.219961034054E+00  0.293037974888E-02 -0.489851329284E-03
  0.219828598194E+00  0.155391292195E-27 -0.496131503162E-03
  0.217300249273E+00  0.293037974897E-02 -0.619644255327E-03
  0.217133700791E+00 -0.810909941318E-28 -0.627588408362E-03
  0.214377569475E+00  0.293037974907E-02 -0.762212403048E-03
  0.214173550730E+00 -0.848219168674E-28 -0.771984318393E-03
  0.211172296890E+00  0.293037974918E-02 -0.918565412801E-03
  0.210927184912E+00  0.177803708189E-27 -0.930341818240E-03
  0.207663206977E+00  0.293037974929E-02 -0.108973862431E-02
  0.207373106657E+00  0.186679674563E-27 -0.110370952189E-02
  0.203828798257E+00  0.293037974942E-02 -0.127678088706E-02
  0.203489538853E+00  0.000000000000E+00 -0.129314972634E-02
  0.199647605149E+00  0.293037974955E-02 -0.148073930353E-02
  0.199254740712E+00  0.309892669923E-27 -0.149972295943E-02
  0.195098578603E+00  0.293037974970E-02 -0.170264066061E-02
  0.194647393303E+00 -0.108803535982E-27 -0.172446917301E-02
  0.190161537750E+00  0.293037974985E-02 -0.194346939709E-02
  0.189647057057E+00  0.114637859308E-27 -0.196838542799E-02
  0.184817693091E+00  0.293037975002E-02 -0.220414208700E-02
  0.184234701565E+00 -0.241542494646E-27 -0.223240005053E-02
  0.179050237626E+00  0.293037975019E-02 -0.248547859965E-02
  0.178393304357E+00 -0.254327488340E-27 -0.251734342229E-02
  0.172844998376E+00  0.293037975036E-02 -0.278817032068E-02
  0.172108510765E+00 -0.133764021963E-27 -0.282391579418E-02
  0.166191134652E+00  0.293037975054E-02 -0.311274609082E-02
  0.165369341099E+00 -0.140508966202E-27 -0.315265278809E-02
  0.159081863547E+00  0.293037975073E-02 -0.345953681578E-02
  0.158168925482E+00  0.000000000000E+00 -0.350388955347E-02
  0.151515186421E+00  0.293037975091E-02 -0.382864002617E-02
  0.150505239676E+00  0.154121730732E-27 -0.387772487228E-02
  0.143494584038E+00  0.293037975109E-02 -0.421988597030E-02
  0.142381809061E+00 -0.160806556364E-27 -0.427398681747E-02
  0.135029642218E+00  0.293037975127E-02 -0.463280709221E-02
  0.133808342352E+00  0.000000000000E+00 -0.469220183946E-02
  0.126136566405E+00  0.293037975143E-02 -0.506661293197E-02
  0.124801252749E+00 -0.346816974939E-27 -0.513156934455E-02
  0.116838541930E+00  0.293037975159E-02 -0.552017254726E-02
  0.115384022837E+00  0.537296113387E-27 -0.559094389116E-02
  0.107165899177E+00  0.293037975173E-02 -0.599200645853E-02
  0.105587371846E+00  0.368456981213E-27 -0.606882703159E-02
  0.971560482193E-01  0.293037975186E-02 -0.648028983328E-02
  0.954491894669E-01  0.000000000000E+00 -0.656337053703E-02
  0.868531577731E-01  0.293037975196E-02 -0.698286814586E-02
  0.850142106864E-01  0.192373093499E-27 -0.707239225848E-02
  0.763075667189E-01  0.293037975204E-02 -0.749728588225E-02
  0.743334197515E-01  0.195197036908E-27 -0.759340519864E-02
  0.655749330154E-01  0.293037975210E-02 -0.802082805353E-02
  0.634631881867E-01  0.197087235339E-27 -0.812365955920E-02
  0.547151429517E-01  0.293037975213E-02 -0.855057340257E-02
  0.524641700502E-01 -0.197992424859E-27 -0.866019662803E-02
  0.437910311466E-01  0.293037272861E-02 -0.908347930603E-02
  0.414000048432E-01  0.000000000000E+00 -0.919994208629E-02
  0.389712883055E-01  0.207190922520E-24 -0.866024144084E-02
  0.413930570795E-01  0.293037054059E-02 -0.855061868366E-02
  0.365568697039E-01  0.207396174586E-24 -0.812370392940E-02
  0.390092007332E-01  0.293037053593E-02 -0.802087280699E-02
  0.341707213083E-01 -0.207144350255E-24 -0.759344878494E-02
  0.366532567448E-01  0.293037055128E-02 -0.749732977124E-02
  0.318261574267E-01  0.000000000000E+00 -0.707243473830E-02
  0.343383708832E-01  0.293037058569E-02 -0.698291085418E-02
  0.295355522954E-01  0.410712305681E-24 -0.656341161361E-02
  0.320767607508E-01  0.293037063778E-02 -0.648033107222E-02
  0.273100975810E-01 -0.203885910454E-24 -0.606886643978E-02
  0.298794763474E-01  0.293037070584E-02 -0.599204597231E-02
  0.251596131595E-01 -0.606262488287E-24 -0.559098140195E-02
  0.277562132469E-01  0.293037078791E-02 -0.552021011713E-02
  0.230924162813E-01  0.200008824263E-24 -0.513160476794E-02
  0.257151834175E-01  0.293037088182E-02 -0.506664837868E-02
  0.211152501924E-01  0.395400349574E-24 -0.469223502586E-02
  0.237630447484E-01  0.293037098537E-02 -0.463284027709E-02
  0.192332696134E-01  0.780849128795E-24 -0.427401765775E-02
  0.219048867079E-01  0.293037109632E-02 -0.421991679488E-02
  0.174500774374E-01 -0.385189260012E-24 -0.387775329651E-02
  0.201442665871E-01  0.293037121251E-02 -0.382866843070E-02
  0.157678048516E-01  0.379788042688E-24 -0.350391552868E-02
  0.184832885930E-01  0.293037133193E-02 -0.345956277668E-02
  0.141872257220E-01 -0.374306935098E-24 -0.315267631520E-02
  0.169227167966E-01  0.293037145271E-02 -0.311276961746E-02
  0.127078957013E-01  0.184411404800E-24 -0.282393690432E-02
  0.154621124765E-01  0.293037157322E-02 -0.278819145161E-02
  0.113283067701E-01  0.181701225445E-24 -0.251736217287E-02
  0.140999866990E-01  0.293037169205E-02 -0.248549739852E-02
  0.100460487556E-01  0.000000000000E+00 -0.223241652103E-02
  0.128339598025E-01  0.293037180799E-02 -0.220415863842E-02
  0.885797063190E-02  0.176483987838E-24 -0.196839971586E-02
  0.116609206448E-01  0.293037192010E-02 -0.194348380246E-02
  0.776033576176E-02  0.174017957488E-24 -0.172448138965E-02
  0.105771798907E-01  0.293037202762E-02 -0.170265303415E-02
  0.674896673657E-02  0.171666481208E-24 -0.149973322640E-02
  0.957861300878E-02  0.293037213001E-02 -0.148074976860E-02
  0.581937682156E-02 -0.338877881431E-24 -0.129315817189E-02
  0.866079005820E-02  0.293037222688E-02 -0.127678957270E-02
  0.496688625460E-02  0.167341132290E-24 -0.110371627782E-02
  0.781909051439E-02  0.293037231801E-02 -0.108974566225E-02
  0.418672266701E-02  0.330751588103E-24 -0.930347017114E-03
  0.704880241844E-02  0.293037240331E-02 -0.918570934763E-03
  0.347410571510E-02  0.000000000000E+00 -0.771988091172E-03
  0.634520593735E-02  0.293037248279E-02 -0.762216538467E-03
  0.282431661788E-02  0.000000000000E+00 -0.627590882398E-03
  0.570364202141E-02  0.293037255654E-02 -0.619647129488E-03
  0.223275371591E-02 -0.160266698409E-24 -0.496132800582E-03
  0.511956726026E-02  0.293037262473E-02 -0.489853061821E-03
  0.169497542635E-02  0.000000000000E+00 -0.376626828303E-03
  0.458859629327E-02  0.293037268758E-02 -0.371859811974E-03
  0.120673209666E-02  0.157479836397E-24 -0.268128599556E-03
  0.410653326131E-02  0.293037274534E-02 -0.264734967923E-03
  0.763988288729E-03 -0.312511465906E-24 -0.169741351650E-03
  0.366939380749E-02  0.293037279829E-02 -0.167593118407E-03
  0.362936978916E-03 -0.310271778377E-24 -0.806190807672E-04
  0.327341909862E-02  0.293037284670E-02 -0.795989684791E-04
  0.365570992691E-07  0.179438880250E-23  0.000000000000E+00
  0.291509945625E-02  0.293035675485E-02  0.201684299995E-23
  0.327341909862E-02  0.293037284670E-02  0.795989684791E-04
  0.362936978916E-03 -0.310271778377E-24  0.806190807672E-04
  0.366939380749E-02  0.293037279829E-02  0.167593118407E-03
  0.763988288729E-03 -0.312511465906E-24  0.169741351650E-03
  0.410653326131E-02  0.293037274534E-02  0.264734967923E-03
  0.120673209666E-02 -0.157479836397E-24  0.268128599556E-03
  0.458859629327E-02  0.293037268758E-02  0.371859811974E-03
  0.169497542635E-02  0.317629518545E-24  0.376626828303E-03
  0.511956726026E-02  0.293037262473E-02  0.489853061821E-03
  0.223275371591E-02  0.160266698409E-24  0.496132800582E-03
  0.570364202141E-02  0.293037255654E-02  0.619647129488E-03
  0.282431661788E-02 -0.485523749034E-24  0.627590882398E-03
  0.634520593735E-02  0.293037248279E-02  0.762216538467E-03
  0.347410571510E-02  0.163543121085E-24  0.771988091172E-03
  0.704880241844E-02  0.293037240331E-02  0.918570934763E-03
  0.418672266701E-02  0.000000000000E+00  0.930347017114E-03
  0.781909051439E-02  0.293037231801E-02  0.108974566225E-02
  0.496688625460E-02  0.502023396871E-24  0.110371627782E-02
  0.866079005820E-02  0.293037222688E-02  0.127678957270E-02
  0.581937682156E-02  0.338877881431E-24  0.129315817189E-02
  0.957861300878E-02  0.293037213001E-02  0.148074976860E-02
  0.674896673657E-02  0.000000000000E+00  0.149973322640E-02
  0.105771798907E-01  0.293037202762E-02  0.170265303415E-02
  0.776033576176E-02  0.000000000000E+00  0.172448138965E-02
  0.116609206448E-01  0.293037192010E-02  0.194348380246E-02
  0.885797063190E-02 -0.352967975675E-24  0.196839971586E-02
  0.128339598025E-01  0.293037180799E-02  0.220415863842E-02
  0.100460487556E-01  0.358102183785E-24  0.223241652103E-02
  0.140999866990E-01  0.293037169205E-02  0.248549739852E-02
  0.113283067701E-01  0.000000000000E+00  0.251736217287E-02
  0.154621124765E-01  0.293037157322E-02  0.278819145161E-02
  0.127078957013E-01  0.184411404800E-24  0.282393690432E-02
  0.169227167966E-01  0.293037145271E-02  0.311276961746E-02
  0.141872257220E-01 -0.187153467549E-24  0.315267631520E-02
  0.184832885930E-01  0.293037133193E-02  0.345956277668E-02
  0.157678048516E-01 -0.189894021344E-24  0.350391552868E-02
  0.201442665871E-01  0.293037121251E-02  0.382866843070E-02
  0.174500774374E-01 -0.385189260012E-24  0.387775329651E-02
  0.219048867079E-01  0.293037109632E-02  0.421991679488E-02
[...]
POINT_DATA               18842
SCALARS index float 1
LOOKUP_TABLE default
  0.100000000000E+01
  0.200000000000E+01
  0.300000000000E+01
  0.400000000000E+01
  0.500000000000E+01
  0.600000000000E+01
  0.700000000000E+01
  0.800000000000E+01
  0.900000000000E+01
  0.100000000000E+02
  0.110000000000E+02
  0.120000000000E+02
  0.130000000000E+02
  0.140000000000E+02
  0.150000000000E+02
  0.160000000000E+02
  0.170000000000E+02
  0.180000000000E+02
  0.190000000000E+02
  0.200000000000E+02
  0.210000000000E+02
  0.220000000000E+02
  0.230000000000E+02
  0.240000000000E+02
  0.250000000000E+02
  0.260000000000E+02
  0.270000000000E+02
  0.280000000000E+02
  0.290000000000E+02
  0.300000000000E+02
  0.310000000000E+02
  0.320000000000E+02
  0.330000000000E+02
  0.340000000000E+02
  0.350000000000E+02
  0.360000000000E+02
  0.370000000000E+02
  0.380000000000E+02
  0.390000000000E+02
  0.400000000000E+02
  0.410000000000E+02
  0.420000000000E+02
  0.430000000000E+02
  0.440000000000E+02
  0.450000000000E+02
  0.460000000000E+02
  0.470000000000E+02
  0.480000000000E+02
  0.490000000000E+02
  0.500000000000E+02
  0.510000000000E+02
  0.520000000000E+02
  0.530000000000E+02
  0.540000000000E+02
  0.550000000000E+02
  0.560000000000E+02
  0.570000000000E+02
  0.580000000000E+02
  0.590000000000E+02
  0.600000000000E+02
  0.610000000000E+02
  0.620000000000E+02
  0.630000000000E+02
  0.640000000000E+02
  0.650000000000E+02
  0.660000000000E+02
  0.670000000000E+02
  0.680000000000E+02
  0.690000000000E+02
  0.700000000000E+02
  0.710000000000E+02
  0.720000000000E+02
  0.730000000000E+02
  0.740000000000E+02
  0.750000000000E+02
  0.760000000000E+02
  0.770000000000E+02
  0.780000000000E+02
  0.790000000000E+02
  0.800000000000E+02
  0.810000000000E+02
  0.820000000000E+02
  0.830000000000E+02
  0.840000000000E+02
  0.850000000000E+02
  0.860000000000E+02
  0.870000000000E+02
  0.880000000000E+02
  0.890000000000E+02
  0.900000000000E+02
  0.910000000000E+02
  0.920000000000E+02
  0.930000000000E+02
  0.940000000000E+02
  0.950000000000E+02
  0.960000000000E+02
  0.970000000000E+02
  0.980000000000E+02
  0.990000000000E+02
  0.100000000000E+03
  0.101000000000E+03
  0.102000000000E+03
  0.103000000000E+03
  0.104000000000E+03
  0.105000000000E+03
  0.106000000000E+03
  0.107000000000E+03
  0.108000000000E+03
  0.109000000000E+03
  0.110000000000E+03
  0.111000000000E+03
  0.112000000000E+03
  0.113000000000E+03
  0.114000000000E+03
  0.115000000000E+03
  0.116000000000E+03
  0.117000000000E+03
  0.118000000000E+03
  0.119000000000E+03
  0.120000000000E+03
  0.121000000000E+03
  0.122000000000E+03
  0.123000000000E+03
  0.124000000000E+03
  0.125000000000E+03
  0.126000000000E+03
  0.127000000000E+03
  0.128000000000E+03
  0.129000000000E+03
  0.130000000000E+03
  0.131000000000E+03
  0.132000000000E+03
  0.133000000000E+03
  0.134000000000E+03
  0.135000000000E+03
  0.136000000000E+03
  0.137000000000E+03
  0.138000000000E+03
  0.139000000000E+03
  0.140000000000E+03
  0.141000000000E+03
  0.142000000000E+03
  0.143000000000E+03
  0.144000000000E+03
  0.145000000000E+03
  0.146000000000E+03
  0.147000000000E+03
  0.148000000000E+03
  0.149000000000E+03
  0.150000000000E+03
  0.151000000000E+03
  0.152000000000E+03
  0.153000000000E+03
  0.154000000000E+03
  0.155000000000E+03
  0.156000000000E+03
  0.157000000000E+03
  0.158000000000E+03
  0.159000000000E+03
  0.160000000000E+03
  0.161000000000E+03
  0.162000000000E+03
  0.163000000000E+03
  0.164000000000E+03
  0.165000000000E+03
  0.166000000000E+03
  0.167000000000E+03
  0.168000000000E+03
  0.169000000000E+03
  0.170000000000E+03
  0.171000000000E+03
  0.172000000000E+03
  0.173000000000E+03
  0.174000000000E+03
  0.175000000000E+03
  0.176000000000E+03
  0.177000000000E+03
  0.178000000000E+03
  0.179000000000E+03
  0.180000000000E+03
  0.181000000000E+03
  0.182000000000E+03
  0.183000000000E+03
  0.184000000000E+03
  0.185000000000E+03
  0.186000000000E+03
  0.187000000000E+03
  0.188000000000E+03
  0.189000000000E+03
  0.190000000000E+03
  0.191000000000E+03
  0.192000000000E+03
  0.193000000000E+03
  0.194000000000E+03
  0.195000000000E+03
  0.196000000000E+03
  0.197000000000E+03
  0.198000000000E+03
  0.199000000000E+03
  0.200000000000E+03
  0.201000000000E+03
  0.202000000000E+03
  0.203000000000E+03
  0.204000000000E+03
  0.205000000000E+03
  0.206000000000E+03
  0.207000000000E+03
  0.208000000000E+03
  0.209000000000E+03
  0.210000000000E+03
  0.211000000000E+03
  0.212000000000E+03
  0.213000000000E+03
  0.214000000000E+03
  0.215000000000E+03
  0.216000000000E+03
  0.217000000000E+03
  0.218000000000E+03
  0.219000000000E+03
  0.220000000000E+03
  0.221000000000E+03
  0.222000000000E+03
  0.223000000000E+03
  0.224000000000E+03
  0.225000000000E+03
  0.226000000000E+03
  0.227000000000E+03
  0.228000000000E+03
  0.229000000000E+03
  0.230000000000E+03
  0.231000000000E+03
  0.232000000000E+03
  0.233000000000E+03
  0.234000000000E+03
  0.235000000000E+03
  0.236000000000E+03
  0.237000000000E+03
  0.238000000000E+03
  0.239000000000E+03
  0.240000000000E+03
  0.241000000000E+03
  0.242000000000E+03
  0.243000000000E+03
  0.244000000000E+03
  0.245000000000E+03
  0.246000000000E+03
  0.247000000000E+03
  0.248000000000E+03
  0.249000000000E+03
  0.250000000000E+03
  0.251000000000E+03
  0.252000000000E+03
  0.253000000000E+03
  0.254000000000E+03
  0.255000000000E+03
  0.256000000000E+03
  0.257000000000E+03
  0.258000000000E+03
  0.259000000000E+03
  0.260000000000E+03
  0.261000000000E+03
  0.262000000000E+03
  0.263000000000E+03
  0.264000000000E+03
  0.265000000000E+03
  0.266000000000E+03
  0.267000000000E+03
  0.268000000000E+03
  0.269000000000E+03
  0.270000000000E+03
  0.271000000000E+03
  0.272000000000E+03
  0.273000000000E+03
  0.274000000000E+03
  0.275000000000E+03
  0.276000000000E+03
  0.277000000000E+03
  0.278000000000E+03
  0.279000000000E+03
  0.280000000000E+03
  0.281000000000E+03
  0.282000000000E+03
  0.283000000000E+03
  0.284000000000E+03
  0.285000000000E+03
  0.286000000000E+03
  0.287000000000E+03
  0.288000000000E+03
  0.289000000000E+03
  0.290000000000E+03
  0.291000000000E+03
  0.292000000000E+03
  0.293000000000E+03
  0.294000000000E+03
  0.295000000000E+03
  0.296000000000E+03
  0.297000000000E+03
  0.298000000000E+03
  0.299000000000E+03
  0.300000000000E+03
  0.301000000000E+03
  0.302000000000E+03
  0.303000000000E+03
  0.304000000000E+03
  0.305000000000E+03
  0.306000000000E+03
  0.307000000000E+03
  0.308000000000E+03
  0.309000000000E+03
  0.310000000000E+03
  0.311000000000E+03
  0.312000000000E+03
  0.313000000000E+03
  0.314000000000E+03
  0.315000000000E+03
  0.316000000000E+03
  0.317000000000E+03
  0.318000000000E+03
  0.319000000000E+03
  0.320000000000E+03
  0.321000000000E+03
  0.322000000000E+03
  0.323000000000E+03
  0.324000000000E+03
  0.325000000000E+03
  0.326000000000E+03
  0.327000000000E+03
  0.328000000000E+03
  0.329000000000E+03
  0.330000000000E+03
  0.331000000000E+03
  0.332000000000E+03
  0.333000000000E+03
  0.334000000000E+03
  0.335000000000E+03
  0.336000000000E+03
  0.337000000000E+03
  0.338000000000E+03
  0.339000000000E+03
  0.340000000000E+03
  0.341000000000E+03
  0.342000000000E+03
  0.343000000000E+03
  0.344000000000E+03
  0.345000000000E+03
  0.346000000000E+03
  0.347000000000E+03
  0.348000000000E+03
  0.349000000000E+03
  0.350000000000E+03
  0.351000000000E+03
  0.352000000000E+03
  0.353000000000E+03
  0.354000000000E+03
  0.355000000000E+03
  0.356000000000E+03
  0.357000000000E+03
  0.358000000000E+03
  0.359000000000E+03
  0.360000000000E+03
  0.361000000000E+03
  0.362000000000E+03
  0.363000000000E+03
  0.364000000000E+03
  0.365000000000E+03
  0.366000000000E+03
  0.367000000000E+03
  0.368000000000E+03
  0.369000000000E+03
  0.370000000000E+03
  0.371000000000E+03
  0.372000000000E+03
  0.373000000000E+03
  0.374000000000E+03
  0.375000000000E+03
  0.376000000000E+03
  0.377000000000E+03
  0.378000000000E+03
  0.379000000000E+03
  0.380000000000E+03
  0.381000000000E+03
  0.382000000000E+03
  0.383000000000E+03
  0.384000000000E+03
  0.385000000000E+03
  0.386000000000E+03
  0.387000000000E+03
  0.388000000000E+03
  0.389000000000E+03
  0.390000000000E+03
  0.391000000000E+03
  0.392000000000E+03
  0.393000000000E+03
  0.394000000000E+03
  0.395000000000E+03
  0.396000000000E+03
  0.397000000000E+03
  0.398000000000E+03
  0.399000000000E+03
  0.400000000000E+03
  0.401000000000E+03
  0.402000000000E+03
  0.403000000000E+03
  0.404000000000E+03
  0.405000000000E+03
  0.406000000000E+03
  0.407000000000E+03
  0.408000000000E+03
  0.409000000000E+03
  0.410000000000E+03
  0.411000000000E+03
  0.412000000000E+03
  0.413000000000E+03
  0.414000000000E+03
  0.415000000000E+03
  0.416000000000E+03
  0.417000000000E+03
  0.418000000000E+03
  0.419000000000E+03
  0.420000000000E+03
  0.421000000000E+03
  0.422000000000E+03
  0.423000000000E+03
  0.424000000000E+03
  0.425000000000E+03
  0.426000000000E+03
  0.427000000000E+03
  0.428000000000E+03
  0.429000000000E+03
  0.430000000000E+03
  0.431000000000E+03
  0.432000000000E+03
  0.433000000000E+03
  0.434000000000E+03
  0.435000000000E+03
  0.436000000000E+03
  0.437000000000E+03
  0.438000000000E+03
  0.439000000000E+03
  0.440000000000E+03
  0.441000000000E+03
  0.442000000000E+03
  0.443000000000E+03
  0.444000000000E+03
  0.445000000000E+03
  0.446000000000E+03
  0.447000000000E+03
  0.448000000000E+03
  0.449000000000E+03
  0.450000000000E+03
  0.451000000000E+03
  0.452000000000E+03
  0.453000000000E+03
  0.454000000000E+03
  0.455000000000E+03
  0.456000000000E+03
  0.457000000000E+03
  0.458000000000E+03
  0.459000000000E+03
  0.460000000000E+03
  0.461000000000E+03
  0.462000000000E+03
  0.463000000000E+03
  0.464000000000E+03
  0.465000000000E+03
  0.466000000000E+03
  0.467000000000E+03
  0.468000000000E+03
  0.469000000000E+03
  0.470000000000E+03
  0.471000000000E+03
  0.472000000000E+03
  0.473000000000E+03
  0.474000000000E+03
  0.475000000000E+03
  0.476000000000E+03
  0.477000000000E+03
  0.478000000000E+03
  0.479000000000E+03
  0.480000000000E+03
  0.481000000000E+03
  0.482000000000E+03
  0.483000000000E+03
  0.484000000000E+03
  0.485000000000E+03
  0.486000000000E+03
  0.487000000000E+03
  0.488000000000E+03
  0.489000000000E+03
  0.490000000000E+03
  0.491000000000E+03
  0.492000000000E+03
  0.493000000000E+03
  0.494000000000E+03
  0.495000000000E+03
  0.496000000000E+03
  0.497000000000E+03
  0.498000000000E+03
  0.499000000000E+03
  0.500000000000E+03
  0.501000000000E+03
  0.502000000000E+03
  0.503000000000E+03
  0.504000000000E+03
  0.505000000000E+03
  0.506000000000E+03
  0.507000000000E+03
  0.508000000000E+03
  0.509000000000E+03
  0.510000000000E+03
  0.511000000000E+03
  0.512000000000E+03
  0.513000000000E+03
  0.514000000000E+03
  0.515000000000E+03
  0.516000000000E+03
  0.517000000000E+03
  0.518000000000E+03
  0.519000000000E+03
  0.520000000000E+03
  0.521000000000E+03
  0.522000000000E+03
  0.523000000000E+03
  0.524000000000E+03
  0.525000000000E+03
  0.526000000000E+03
  0.527000000000E+03
  0.528000000000E+03
  0.529000000000E+03
  0.530000000000E+03
  0.531000000000E+03
  0.532000000000E+03
  0.533000000000E+03
  0.534000000000E+03
  0.535000000000E+03
  0.536000000000E+03
  0.537000000000E+03
  0.538000000000E+03
  0.539000000000E+03
  0.540000000000E+03
  0.541000000000E+03
  0.542000000000E+03
  0.543000000000E+03
  0.544000000000E+03
  0.545000000000E+03
  0.546000000000E+03
  0.547000000000E+03
  0.548000000000E+03
  0.549000000000E+03
  0.550000000000E+03
  0.551000000000E+03
  0.552000000000E+03
  0.553000000000E+03
  0.554000000000E+03
  0.555000000000E+03
  0.556000000000E+03
  0.557000000000E+03
  0.558000000000E+03
  0.559000000000E+03
  0.560000000000E+03
  0.561000000000E+03
  0.562000000000E+03
  0.563000000000E+03
  0.564000000000E+03
  0.565000000000E+03
  0.566000000000E+03
  0.567000000000E+03
  0.568000000000E+03
  0.569000000000E+03
  0.570000000000E+03
  0.571000000000E+03
  0.572000000000E+03
  0.573000000000E+03
  0.574000000000E+03
  0.575000000000E+03
  0.576000000000E+03
  0.577000000000E+03
  0.578000000000E+03
  0.579000000000E+03
  0.580000000000E+03
  0.581000000000E+03
  0.582000000000E+03
  0.583000000000E+03
  0.584000000000E+03
  0.585000000000E+03
  0.586000000000E+03
  0.587000000000E+03
  0.588000000000E+03
  0.589000000000E+03
  0.590000000000E+03
  0.591000000000E+03
  0.592000000000E+03
  0.593000000000E+03
  0.594000000000E+03
  0.595000000000E+03
  0.596000000000E+03
  0.597000000000E+03
  0.598000000000E+03
  0.599000000000E+03
  0.600000000000E+03
  0.601000000000E+03
  0.602000000000E+03
  0.603000000000E+03
  0.604000000000E+03
  0.605000000000E+03
  0.606000000000E+03
  0.607000000000E+03
  0.608000000000E+03
  0.609000000000E+03
  0.610000000000E+03
  0.611000000000E+03
  0.612000000000E+03
  0.613000000000E+03
  0.614000000000E+03
  0.615000000000E+03
  0.616000000000E+03
  0.617000000000E+03
  0.618000000000E+03
  0.619000000000E+03
  0.620000000000E+03
  0.621000000000E+03
  0.622000000000E+03
  0.623000000000E+03
  0.624000000000E+03
  0.625000000000E+03
  0.626000000000E+03
  0.627000000000E+03
  0.628000000000E+03
  0.629000000000E+03
  0.630000000000E+03
  0.631000000000E+03
  0.632000000000E+03
  0.633000000000E+03
  0.634000000000E+03
  0.635000000000E+03
  0.636000000000E+03
  0.637000000000E+03
  0.638000000000E+03
  0.639000000000E+03
  0.640000000000E+03
  0.641000000000E+03
  0.642000000000E+03
  0.643000000000E+03
  0.644000000000E+03
  0.645000000000E+03
  0.646000000000E+03
  0.647000000000E+03
  0.648000000000E+03
  0.649000000000E+03
  0.650000000000E+03
  0.651000000000E+03
  0.652000000000E+03
  0.653000000000E+03
  0.654000000000E+03
  0.655000000000E+03
  0.656000000000E+03
  0.657000000000E+03
  0.658000000000E+03
  0.659000000000E+03
  0.660000000000E+03
  0.661000000000E+03
  0.662000000000E+03
  0.663000000000E+03
  0.664000000000E+03
  0.665000000000E+03
  0.666000000000E+03
  0.667000000000E+03
  0.668000000000E+03
  0.669000000000E+03
  0.670000000000E+03
  0.671000000000E+03
  0.672000000000E+03
  0.673000000000E+03
  0.674000000000E+03
  0.675000000000E+03
  0.676000000000E+03
  0.677000000000E+03
  0.678000000000E+03
  0.679000000000E+03
  0.680000000000E+03
  0.681000000000E+03
  0.682000000000E+03
  0.683000000000E+03
  0.684000000000E+03
  0.685000000000E+03
  0.686000000000E+03
  0.687000000000E+03
  0.688000000000E+03
  0.689000000000E+03
  0.690000000000E+03
  0.691000000000E+03
  0.692000000000E+03
  0.693000000000E+03
  0.694000000000E+03
  0.695000000000E+03
  0.696000000000E+03
  0.697000000000E+03
  0.698000000000E+03
  0.699000000000E+03
  0.700000000000E+03
  0.701000000000E+03
  0.702000000000E+03
  0.703000000000E+03
  0.704000000000E+03
  0.705000000000E+03
  0.706000000000E+03
  0.707000000000E+03
  0.708000000000E+03
  0.709000000000E+03
  0.710000000000E+03
  0.711000000000E+03
  0.712000000000E+03
  0.713000000000E+03
  0.714000000000E+03
  0.715000000000E+03
  0.716000000000E+03
  0.717000000000E+03
  0.718000000000E+03
  0.719000000000E+03
  0.720000000000E+03
  0.721000000000E+03
  0.722000000000E+03
  0.723000000000E+03
  0.724000000000E+03
  0.725000000000E+03
  0.726000000000E+03
  0.727000000000E+03
  0.728000000000E+03
  0.729000000000E+03
  0.730000000000E+03
  0.731000000000E+03
  0.732000000000E+03
  0.733000000000E+03
  0.734000000000E+03
  0.735000000000E+03
  0.736000000000E+03
  0.737000000000E+03
  0.738000000000E+03
  0.739000000000E+03
  0.740000000000E+03
  0.741000000000E+03
  0.742000000000E+03
  0.743000000000E+03
  0.744000000000E+03
  0.745000000000E+03
  0.746000000000E+03
  0.747000000000E+03
  0.748000000000E+03
  0.749000000000E+03
  0.750000000000E+03
  0.751000000000E+03
  0.752000000000E+03
  0.753000000000E+03
  0.754000000000E+03
  0.755000000000E+03
  0.756000000000E+03
  0.757000000000E+03
  0.758000000000E+03
  0.759000000000E+03
  0.760000000000E+03
  0.761000000000E+03
  0.762000000000E+03
  0.763000000000E+03
  0.764000000000E+03
  0.765000000000E+03
  0.766000000000E+03
  0.767000000000E+03
  0.768000000000E+03
  0.769000000000E+03
  0.770000000000E+03
  0.771000000000E+03
  0.772000000000E+03
  0.773000000000E+03
  0.774000000000E+03
  0.775000000000E+03
  0.776000000000E+03
  0.777000000000E+03
  0.778000000000E+03
  0.779000000000E+03
  0.780000000000E+03
  0.781000000000E+03
  0.782000000000E+03
  0.783000000000E+03
  0.784000000000E+03
  0.785000000000E+03
  0.786000000000E+03
  0.787000000000E+03
  0.788000000000E+03
  0.789000000000E+03
  0.790000000000E+03
  0.791000000000E+03
  0.792000000000E+03
  0.793000000000E+03
  0.794000000000E+03
  0.795000000000E+03
  0.796000000000E+03
  0.797000000000E+03
  0.798000000000E+03
  0.799000000000E+03
  0.800000000000E+03
  0.801000000000E+03
  0.802000000000E+03
  0.803000000000E+03
  0.804000000000E+03
  0.805000000000E+03
  0.806000000000E+03
  0.807000000000E+03
  0.808000000000E+03
  0.809000000000E+03
  0.810000000000E+03
  0.811000000000E+03
  0.812000000000E+03
  0.813000000000E+03
  0.814000000000E+03
  0.815000000000E+03
  0.816000000000E+03
  0.817000000000E+03
  0.818000000000E+03
  0.819000000000E+03
  0.820000000000E+03
  0.821000000000E+03
  0.822000000000E+03
  0.823000000000E+03
  0.824000000000E+03
  0.825000000000E+03
  0.826000000000E+03
  0.827000000000E+03
  0.828000000000E+03
  0.829000000000E+03
  0.830000000000E+03
  0.831000000000E+03
  0.832000000000E+03
  0.833000000000E+03
  0.834000000000E+03
  0.835000000000E+03
  0.836000000000E+03
  0.837000000000E+03
  0.838000000000E+03
  0.839000000000E+03
  0.840000000000E+03
  0.841000000000E+03
  0.842000000000E+03
  0.843000000000E+03
  0.844000000000E+03
  0.845000000000E+03
  0.846000000000E+03
  0.847000000000E+03
  0.848000000000E+03
  0.849000000000E+03
  0.850000000000E+03
  0.851000000000E+03
  0.852000000000E+03
  0.853000000000E+03
  0.854000000000E+03
  0.855000000000E+03
  0.856000000000E+03
  0.857000000000E+03
  0.858000000000E+03
  0.859000000000E+03
  0.860000000000E+03
  0.861000000000E+03
  0.862000000000E+03
  0.863000000000E+03
  0.864000000000E+03
  0.865000000000E+03
  0.866000000000E+03
  0.867000000000E+03
  0.868000000000E+03
  0.869000000000E+03
  0.870000000000E+03
  0.871000000000E+03
  0.872000000000E+03
  0.873000000000E+03
  0.874000000000E+03
  0.875000000000E+03
  0.876000000000E+03
  0.877000000000E+03
  0.878000000000E+03
  0.879000000000E+03
  0.880000000000E+03
  0.881000000000E+03
  0.882000000000E+03
  0.883000000000E+03
  0.884000000000E+03
  0.885000000000E+03
  0.886000000000E+03
  0.887000000000E+03
  0.888000000000E+03
  0.889000000000E+03
  0.890000000000E+03
  0.891000000000E+03
  0.892000000000E+03
  0.893000000000E+03
  0.894000000000E+03
  0.895000000000E+03
  0.896000000000E+03
  0.897000000000E+03
  0.898000000000E+03
  0.899000000000E+03
  0.900000000000E+03
  0.901000000000E+03
  0.902000000000E+03
  0.903000000000E+03
  0.904000000000E+03
  0.905000000000E+03
  0.906000000000E+03
  0.907000000000E+03
  0.908000000000E+03
  0.909000000000E+03
  0.910000000000E+03
  0.911000000000E+03
  0.912000000000E+03
  0.913000000000E+03
  0.914000000000E+03
  0.915000000000E+03
  0.916000000000E+03
  0.917000000000E+03
  0.918000000000E+03
  0.919000000000E+03
  0.920000000000E+03
  0.921000000000E+03
  0.922000000000E+03
  0.923000000000E+03
  0.924000000000E+03
  0.925000000000E+03
  0.926000000000E+03
  0.927000000000E+03
  0.928000000000E+03
  0.929000000000E+03
  0.930000000000E+03
  0.931000000000E+03
  0.932000000000E+03
  0.933000000000E+03
  0.934000000000E+03
  0.935000000000E+03
  0.936000000000E+03
  0.937000000000E+03
  0.938000000000E+03
  0.939000000000E+03
  0.940000000000E+03
  0.941000000000E+03
  0.942000000000E+03
  0.943000000000E+03
  0.944000000000E+03
  0.945000000000E+03
  0.946000000000E+03
  0.947000000000E+03
  0.948000000000E+03