# vtk DataFile Version 3.0
MachLine results file. Generated by MachLine, USU AeroLab (c) 2022.
ASCII
DATASET POLYDATA
POINTS                4925 float
  0.999999985340E+00  0.897294208927E-09  0.985930656098E-28
  0.997227725914E+00  0.135217262188E-03 -0.352399645511E-28
  0.988948396067E+00  0.539084729312E-03 -0.403872707000E-28
  0.975273973527E+00  0.120612719369E-02 -0.230560533289E-28
  0.956389381411E+00  0.212732419205E-02  0.260082375213E-28
  0.932550001432E+00  0.329021820974E-02 -0.578069382300E-28
  0.904078220314E+00  0.467908315340E-02  0.000000000000E+00
  0.871359070052E+00  0.627513703515E-02 -0.341562030712E-28
  0.834835021028E+00  0.805679597915E-02  0.000000000000E+00
  0.794999998347E+00  0.999996611404E-02 -0.766310840103E-28
  0.752392702355E+00  0.120783694049E-01  0.119656187399E-27
  0.707589323640E+00  0.142638990198E-01  0.000000000000E+00
  0.661195751037E+00  0.165269994266E-01 -0.418594147247E-28
  0.613839378031E+00  0.188370660796E-01  0.000000000000E+00
  0.566160618328E+00  0.211628592936E-01  0.000000000000E+00
  0.518804245360E+00  0.234729267056E-01  0.416643984156E-28
  0.472410672830E+00  0.257360286137E-01  0.815035052361E-28
  0.427607294222E+00  0.279215604390E-01  0.000000000000E+00
  0.384999998371E+00  0.299999665989E-01  0.377672805750E-28
  0.345164975859E+00  0.319431401934E-01  0.000000000000E+00
  0.308640927027E+00  0.337248030983E-01  0.335361791378E-28
  0.275921776978E+00  0.353208613260E-01  0.000000000000E+00
  0.247449996083E+00  0.367097308495E-01  0.286963458728E-28
  0.223610616303E+00  0.378726289361E-01  0.404860786278E-28
  0.204726024499E+00  0.387938323501E-01 -0.510491952214E-28
  0.191051602275E+00  0.394608812753E-01  0.000000000000E+00
  0.182772272586E+00  0.398647519764E-01  0.000000000000E+00
  0.180000003523E+00  0.399999799057E-01 -0.483306255279E-25
  0.179083932998E+00  0.397964143085E-01 -0.704349303003E-25
  0.176354370317E+00  0.391898473583E-01 -0.880902415996E-25
  0.171866883100E+00  0.381926240767E-01 -0.767435507127E-25
  0.165712821004E+00  0.368250569362E-01  0.000000000000E+00
  0.158017465460E+00  0.351149745300E-01 -0.164411044883E-24
  0.148937469921E+00  0.330971972799E-01  0.253043885122E-24
  0.138657677531E+00  0.308127985276E-01 -0.863961977018E-25
  0.127387355209E+00  0.283082820843E-01 -0.176226599659E-24
  0.115355934211E+00  0.256346327098E-01 -0.893313885691E-25
  0.102808339569E+00  0.228462782091E-01  0.000000000000E+00
  0.900000041248E-01  0.199999814385E-01 -0.179966841218E-24
  0.771916686567E-01  0.171536847787E-01  0.894710759622E-25
  0.646440739441E-01  0.143653305942E-01  0.000000000000E+00
  0.526126528398E-01  0.116916816948E-01 -0.874805223021E-25
  0.413423306229E-01  0.918716477818E-02  0.205857479505E-24
  0.310625377349E-01  0.690276826627E-02 -0.826793458904E-25
  0.219825423702E-01  0.488499023335E-02 -0.212680112083E-24
  0.142871851655E-01  0.317491530185E-02  0.000000000000E+00
  0.813312361356E-02  0.180734571327E-02  0.000000000000E+00
  0.364563565440E-02  0.810125769042E-03  0.000000000000E+00
  0.916073506664E-03  0.203556420617E-03  0.107198942046E-24
  0.149558825251E-07 -0.000000000000E+00 -0.489401852065E-24
  0.916073506664E-03 -0.203556420617E-03  0.000000000000E+00
  0.364563565440E-02 -0.810125769042E-03  0.000000000000E+00
  0.813312361356E-02 -0.180734571327E-02 -0.104565622267E-24
  0.142871851655E-01 -0.317491530185E-02  0.102106977733E-24
  0.219825423702E-01 -0.488499023335E-02  0.000000000000E+00
  0.310625377349E-01 -0.690276826627E-02 -0.248038037671E-24
  0.413423306229E-01 -0.918716477818E-02 -0.343095799175E-24
  0.526126528398E-01 -0.116916816948E-01 -0.874805223021E-25
  0.646440739441E-01 -0.143653305942E-01 -0.885654990528E-25
  0.771916686567E-01 -0.171536847787E-01 -0.894710759622E-25
  0.900000041248E-01 -0.199999814385E-01 -0.899834206091E-25
  0.102808339569E+00 -0.228462782091E-01 -0.899589866946E-25
  0.115355934211E+00 -0.256346327098E-01  0.267994165707E-24
  0.127387355209E+00 -0.283082820843E-01  0.881132998296E-25
  0.138657677531E+00 -0.308127985276E-01 -0.172792395404E-24
  0.148937469921E+00 -0.330971972799E-01  0.843479617075E-25
  0.158017465460E+00 -0.351149745300E-01  0.000000000000E+00
  0.165712821004E+00 -0.368250569362E-01  0.000000000000E+00
  0.171866883100E+00 -0.381926240767E-01 -0.767435507127E-25
  0.176354370317E+00 -0.391898473583E-01 -0.880902415996E-25
  0.179083932998E+00 -0.397964143085E-01 -0.704349303003E-25
  0.180000003523E+00 -0.399999799057E-01  0.187245775513E-24
  0.182772272586E+00 -0.398647519764E-01  0.257438183616E-28
  0.191051602275E+00 -0.394608812753E-01  0.000000000000E+00
  0.204726024499E+00 -0.387938323501E-01  0.000000000000E+00
  0.223610616303E+00 -0.378726289361E-01  0.202430393139E-28
  0.247449996083E+00 -0.367097308495E-01 -0.286963458728E-28
  0.275921776978E+00 -0.353208613260E-01  0.622718158665E-28
  0.308640927027E+00 -0.337248030983E-01  0.335361791378E-28
  0.345164975859E+00 -0.319431401934E-01  0.357767222377E-28
  0.384999998371E+00 -0.299999665989E-01  0.755345611499E-28
  0.427607294222E+00 -0.279215604390E-01  0.394415945831E-28
  0.472410672830E+00 -0.257360286137E-01  0.407517526181E-28
  0.518804245360E+00 -0.234729267056E-01  0.416643984156E-28
  0.566160618328E+00 -0.211628592936E-01  0.000000000000E+00
  0.613839378031E+00 -0.188370660796E-01  0.126670714545E-27
  0.661195751037E+00 -0.165269994266E-01 -0.837188294494E-28
  0.707589323640E+00 -0.142638990198E-01  0.410745058960E-28
  0.752392702355E+00 -0.120783694049E-01 -0.398853957997E-28
  0.794999998347E+00 -0.999996611404E-02  0.383155420052E-28
  0.834835021028E+00 -0.805679597915E-02  0.363942575906E-28
  0.871359070052E+00 -0.627513703515E-02  0.683124061424E-28
  0.904078220314E+00 -0.467908315340E-02 -0.949269603749E-28
  0.932550001432E+00 -0.329021820974E-02 -0.289034691150E-28
  0.956389381411E+00 -0.212732419205E-02  0.000000000000E+00
  0.975273973527E+00 -0.120612719369E-02  0.000000000000E+00
  0.988948396067E+00 -0.539084729312E-03  0.000000000000E+00
  0.997227726039E+00 -0.135219823841E-03  0.000000000000E+00
  0.100002536747E+01  0.358685754087E-09  0.205408163447E-01
  0.997097027172E+00  0.142830630310E-03  0.205408163275E-01
  0.988354666327E+00  0.569284702311E-03  0.205408163276E-01
  0.973925782298E+00  0.127312996975E-02  0.205408163278E-01
  0.954020780712E+00  0.224410291174E-02  0.205408163279E-01
  0.928929921316E+00  0.346804463324E-02  0.205408163281E-01
  0.899019085344E+00  0.492710734723E-02  0.205408163282E-01
  0.864724440138E+00  0.660001465212E-02  0.205408163284E-01
  0.826546078849E+00  0.846237180108E-02  0.205408163285E-01
  0.785040727957E+00  0.104870214388E-01  0.205408163286E-01
  0.740813628939E+00  0.126444396199E-01  0.205408163287E-01
  0.694509712490E+00  0.149031663348E-01  0.205408163287E-01
  0.646804193979E+00  0.172302642673E-01  0.205408163288E-01
  0.598392727291E+00  0.195917990936E-01  0.205408163288E-01
  0.549981260621E+00  0.219533343206E-01  0.205408163288E-01
  0.502275742169E+00  0.242804334464E-01  0.205408163287E-01
  0.455971825815E+00  0.265391621209E-01  0.205408163286E-01
  0.411744726929E+00  0.286965829842E-01  0.205408163286E-01
  0.370239376199E+00  0.307212359657E-01  0.205408163285E-01
  0.332061015102E+00  0.325835970387E-01  0.205408163283E-01
  0.297766370110E+00  0.342565087426E-01  0.205408163282E-01
  0.267855534369E+00  0.357155761923E-01  0.205408163281E-01
  0.242764675193E+00  0.369395224108E-01  0.205408163280E-01
  0.222859673975E+00  0.379105028967E-01  0.205408163277E-01
  0.208430790109E+00  0.386143515056E-01  0.205408163276E-01
  0.199688429603E+00  0.390408125361E-01  0.205408163274E-01
  0.196760077956E+00  0.391836537618E-01  0.205408140002E-01
  0.195862704215E+00  0.389842430117E-01  0.205408132739E-01
  0.193188847150E+00  0.383900538278E-01  0.205408135425E-01
  0.188792940931E+00  0.374131837213E-01  0.205408131089E-01
  0.182764472438E+00  0.360735238686E-01  0.205408130694E-01
  0.175226164751E+00  0.343983420725E-01  0.205408125828E-01
  0.166331475273E+00  0.324217438242E-01  0.205408124593E-01
  0.156261474418E+00  0.301839661097E-01  0.205408125126E-01
  0.145221158670E+00  0.277305622669E-01  0.205408124403E-01
  0.133435276878E+00  0.251114771500E-01  0.205408123825E-01
  0.121143755605E+00  0.223800278043E-01  0.205408123459E-01
  0.108596814773E+00  0.195918186738E-01  0.205408123339E-01
  0.960498739165E-01  0.168036096544E-01  0.205408123465E-01
  0.837583525721E-01  0.140721606266E-01  0.205408123802E-01
  0.719724706746E-01  0.114530759888E-01  0.205408124283E-01
  0.609321549236E-01  0.899967215661E-02  0.205408123584E-01
  0.508621538750E-01  0.676189531641E-02  0.205408126050E-01
  0.419674642536E-01  0.478529770767E-02  0.205408126228E-01
  0.344291557183E-01  0.311011973040E-02  0.205408129804E-01
  0.284006871237E-01  0.177046033487E-02  0.205408130419E-01
  0.240047800760E-01  0.793593957686E-03  0.205408134328E-01
  0.213309231872E-01  0.199403985105E-03  0.205408135270E-01
  0.204335608096E-01 -0.631723956900E-23  0.205408010503E-01
  0.213309231872E-01 -0.199403985105E-03  0.205408135270E-01
  0.240047800760E-01 -0.793593957686E-03  0.205408134328E-01
  0.284006871237E-01 -0.177046033487E-02  0.205408130419E-01
  0.344291557183E-01 -0.311011973040E-02  0.205408129804E-01
  0.419674642536E-01 -0.478529770767E-02  0.205408126228E-01
  0.508621538750E-01 -0.676189531641E-02  0.205408126050E-01
  0.609321549236E-01 -0.899967215661E-02  0.205408123584E-01
  0.719724706746E-01 -0.114530759888E-01  0.205408124283E-01
  0.837583525721E-01 -0.140721606266E-01  0.205408123802E-01
  0.960498739165E-01 -0.168036096544E-01  0.205408123465E-01
  0.108596814773E+00 -0.195918186738E-01  0.205408123339E-01
  0.121143755605E+00 -0.223800278043E-01  0.205408123459E-01
  0.133435276878E+00 -0.251114771500E-01  0.205408123825E-01
  0.145221158670E+00 -0.277305622669E-01  0.205408124403E-01
[...]
POINT_DATA                4925
SCALARS phi float 1
LOOKUP_TABLE default
 -0.303576608296E-16
 -0.635195021581E-13
  0.203951439071E-13
 -0.126270521816E-13
  0.249800180541E-14
  0.650521303491E-14
  0.446084141847E-14
  0.195806912351E-15
  0.550715072503E-14
 -0.102847418082E-14
 -0.118871926191E-14
  0.296984659087E-14
 -0.752869988574E-15
 -0.624500451352E-16
 -0.138777878078E-15
  0.442354486374E-15
  0.135308431126E-15
  0.433680868994E-16
  0.346944695195E-16
  0.693889390391E-17
  0.693889390391E-17
  0.277555756156E-16
  0.485722573274E-16
  0.242861286637E-16
  0.138777878078E-16
  0.867361737988E-17
 -0.260208521397E-16
 -0.867361737988E-17
  0.190819582357E-16
  0.173472347598E-16
  0.190819582357E-16
 -0.104083408559E-16
  0.156125112838E-16
 -0.208166817117E-16
 -0.867361737988E-17
  0.520417042793E-17
 -0.346944695195E-17
  0.156125112838E-16
  0.520417042793E-17
 -0.433680868994E-17
 -0.173472347598E-17
 -0.433680868994E-17
  0.216840434497E-17
  0.346944695195E-17
  0.130104260698E-17
 -0.433680868994E-18
 -0.325260651746E-18
  0.000000000000E+00
 -0.271050543121E-19
 -0.121748785254E-18
 -0.135525271561E-19
  0.216840434497E-18
 -0.325260651746E-18
  0.000000000000E+00
  0.108420217249E-17
  0.867361737988E-18
  0.000000000000E+00
  0.607153216592E-17
  0.173472347598E-17
 -0.173472347598E-17
 -0.173472347598E-17
 -0.173472347598E-17
 -0.173472347598E-17
 -0.693889390391E-17
  0.000000000000E+00
  0.693889390391E-17
  0.381639164715E-16
  0.260208521397E-16
  0.346944695195E-17
  0.156125112838E-16
  0.000000000000E+00
 -0.520417042793E-17
 -0.156125112838E-16
  0.000000000000E+00
  0.867361737988E-17
  0.104083408559E-16
  0.312250225676E-16
  0.312250225676E-16
  0.346944695195E-17
 -0.173472347598E-16
  0.364291929955E-16
  0.641847686111E-16
  0.137043154602E-15
  0.409394740331E-15
 -0.140512601554E-15
 -0.633174068732E-16
 -0.776288755500E-15
  0.291953961007E-14
 -0.129280267047E-14
 -0.493528828915E-15
 -0.212069944938E-15
  0.149121166804E-14
 -0.336146041557E-14
 -0.662881208258E-14
  0.799187105383E-14
  0.822692608482E-14
 -0.200221783597E-13
  0.809942390934E-13
 -0.296637714392E-15
 -0.902923569246E-14
  0.202095284951E-14
  0.138934003191E-13
 -0.249279763498E-14
 -0.536029554077E-14
  0.168224809083E-14
 -0.368715474819E-14
  0.264726256324E-14
 -0.289069983228E-14
 -0.102131844648E-14
  0.249106291150E-14
 -0.172691722033E-14
 -0.164798730218E-15
  0.189084858881E-15
  0.319189119580E-15
  0.919403442268E-16
  0.624500451352E-16
 -0.693889390391E-17
  0.693889390391E-17
  0.346944695195E-17
  0.346944695195E-16
  0.208166817117E-16
  0.208166817117E-16
  0.138777878078E-16
  0.693889390391E-17
  0.104083408559E-16
 -0.693889390391E-17
 -0.173472347598E-16
 -0.346944695195E-17
  0.693889390391E-17
 -0.121430643318E-16
 -0.173472347598E-17
 -0.346944695195E-17
 -0.693889390391E-17
 -0.346944695195E-17
  0.693889390391E-17
  0.173472347598E-17
  0.867361737988E-17
  0.780625564190E-17
 -0.693889390391E-17
  0.173472347598E-17
 -0.173472347598E-17
 -0.867361737988E-18
  0.130104260698E-17
  0.433680868994E-18
 -0.216840434497E-18
  0.000000000000E+00
 -0.108713866366E-18
 -0.271050543121E-19
  0.108420217249E-18
  0.650521303491E-18
  0.000000000000E+00
  0.173472347598E-17
  0.000000000000E+00
  0.346944695195E-17
  0.346944695195E-17
 -0.867361737988E-18
 -0.346944695195E-17
  0.000000000000E+00
 -0.346944695195E-17
 -0.520417042793E-17
 -0.173472347598E-17
  0.173472347598E-16
 -0.173472347598E-16
  0.346944695195E-17
  0.121430643318E-16
 -0.867361737988E-17
  0.104083408559E-16
 -0.693889390391E-17
 -0.104083408559E-16
 -0.138777878078E-16
  0.346944695195E-17
  0.104083408559E-16
  0.104083408559E-16
  0.000000000000E+00
  0.381639164715E-16
  0.104083408559E-16
  0.242861286637E-16
  0.503069808033E-16
  0.763278329430E-16
  0.293168267440E-15
  0.131838984174E-15
 -0.180411241502E-15
 -0.173385611424E-14
  0.245116427156E-14
 -0.108853898118E-14
 -0.289828924749E-14
  0.533119148870E-15
  0.152872506320E-14
  0.402325742166E-14
  0.462477278695E-14
 -0.167227343084E-14
  0.259514632006E-14
  0.475314232418E-15
  0.132905839112E-13
  0.121430643318E-16
  0.570819433388E-13
  0.225860996572E-14
 -0.242774550463E-14
  0.460308874350E-14
 -0.261075883135E-15
 -0.324436658095E-14
  0.143179738898E-14
  0.173098297848E-14
 -0.358567342484E-14
  0.942388528324E-15
  0.258734006442E-14
 -0.100440489259E-14
 -0.230718222305E-15
  0.367761376907E-15
  0.189084858881E-15
  0.398986399475E-16
  0.346944695195E-17
  0.346944695195E-17
  0.138777878078E-16
  0.381639164715E-16
  0.381639164715E-16
  0.693889390391E-17
  0.242861286637E-16
 -0.693889390391E-17
 -0.693889390391E-17
  0.346944695195E-17
 -0.104083408559E-16
  0.104083408559E-16
 -0.138777878078E-16
 -0.173472347598E-16
  0.520417042793E-17
  0.000000000000E+00
 -0.277555756156E-16
 -0.121430643318E-16
  0.520417042793E-17
  0.138777878078E-16
 -0.867361737988E-17
  0.000000000000E+00
  0.780625564190E-17
  0.346944695195E-17
 -0.520417042793E-17
 -0.173472347598E-17
  0.216840434497E-17
  0.000000000000E+00
  0.216840434497E-18
  0.271050543121E-19
 -0.544805966846E-19
  0.000000000000E+00
 -0.433680868994E-18
  0.650521303491E-18
  0.433680868994E-18
  0.303576608296E-17
  0.867361737988E-18
  0.867361737988E-18
 -0.693889390391E-17
 -0.693889390391E-17
  0.000000000000E+00
  0.693889390391E-17
  0.693889390391E-17
  0.520417042793E-17
  0.693889390391E-17
 -0.520417042793E-17
  0.867361737988E-17
 -0.693889390391E-17
  0.346944695195E-17
 -0.346944695195E-17
  0.138777878078E-16
  0.346944695195E-17
  0.138777878078E-16
  0.346944695195E-17
 -0.173472347598E-16
 -0.104083408559E-16
  0.451028103754E-16
  0.242861286637E-16
 -0.693889390391E-17
  0.451028103754E-16
 -0.346944695195E-16
  0.433680868994E-16
  0.201227923213E-15
  0.369496100383E-15
 -0.263677968348E-15
 -0.101394587171E-14
  0.256218657402E-14
  0.880372164058E-15
 -0.368888947166E-14
  0.158792250182E-14
 -0.160873918353E-14
  0.293645316396E-14
 -0.248455769847E-14
 -0.351021295364E-14
 -0.134267597041E-14
  0.339745592770E-14
 -0.623476964501E-13
 -0.156125112838E-16
  0.375567632549E-14
 -0.683914730404E-14
 -0.575928194024E-14
 -0.295423407959E-14
  0.224863530573E-14
 -0.431902777431E-14
  0.620965952269E-14
 -0.839497742156E-15
  0.184791418278E-14
 -0.125940924356E-14
  0.173906028467E-14
 -0.987925019569E-15
 -0.371230823859E-15
  0.362557206479E-15
  0.241126563161E-15
  0.485722573274E-16
  0.225514051877E-16
  0.208166817117E-16
  0.485722573274E-16
  0.277555756156E-16
  0.346944695195E-17
  0.589805981832E-16
  0.693889390391E-17
  0.000000000000E+00
  0.173472347598E-16
  0.693889390391E-17
  0.000000000000E+00
 -0.208166817117E-16
  0.346944695195E-17
  0.208166817117E-16
  0.346944695195E-17
  0.208166817117E-16
  0.138777878078E-16
  0.225514051877E-16
 -0.121430643318E-16
  0.346944695195E-17
 -0.173472347598E-17
  0.346944695195E-17
  0.607153216592E-17
  0.104083408559E-16
  0.260208521397E-17
  0.390312782095E-17
  0.281892564846E-17
  0.975781955237E-18
  0.135525271561E-18
  0.568868650865E-19
  0.135525271561E-18
  0.867361737988E-18
  0.195156391047E-17
  0.303576608296E-17
  0.346944695195E-17
  0.000000000000E+00
  0.520417042793E-17
  0.867361737988E-17
  0.867361737988E-17
  0.138777878078E-16
  0.520417042793E-17
 -0.156125112838E-16
  0.104083408559E-16
  0.693889390391E-17
  0.173472347598E-16
 -0.346944695195E-17
  0.346944695195E-17
  0.000000000000E+00
 -0.693889390391E-17
  0.173472347598E-16
 -0.346944695195E-17
  0.138777878078E-16
  0.242861286637E-16
  0.693889390391E-17
  0.381639164715E-16
  0.208166817117E-16
  0.173472347598E-16
  0.277555756156E-16
  0.190819582357E-16
  0.451028103754E-16
  0.265412691824E-15
  0.414598910758E-15
 -0.383373888191E-15
 -0.999200722163E-15
  0.169829428298E-14
 -0.131405303305E-14
  0.180085980850E-14
 -0.192857882442E-14
  0.605201652681E-14
 -0.592841747915E-15
  0.125333771139E-15
 -0.309648140462E-14
  0.108506953422E-14
  0.112904477434E-13
 -0.128647092978E-13
  0.260208521397E-17
 -0.417417836407E-13
 -0.436282954208E-15
 -0.480518402846E-14
  0.307913416986E-14
  0.312250225676E-14
 -0.700698180034E-14
  0.265889740780E-14
 -0.212503625807E-16
 -0.150964310497E-14
 -0.650954984360E-15
  0.155431223448E-14
 -0.769349861596E-15
 -0.503069808033E-16
  0.405925293379E-15
  0.971445146547E-16
 -0.190819582357E-16
  0.693889390391E-17
  0.242861286637E-16
  0.451028103754E-16
  0.277555756156E-16
  0.208166817117E-16
 -0.693889390391E-17
  0.138777878078E-16
  0.104083408559E-16
  0.381639164715E-16
  0.693889390391E-17
  0.138777878078E-16
  0.277555756156E-16
  0.173472347598E-16
  0.242861286637E-16
  0.242861286637E-16
  0.173472347598E-17
 -0.346944695195E-17
 -0.346944695195E-17
  0.173472347598E-17
  0.173472347598E-17
  0.867361737988E-17
 -0.867361737988E-18
  0.346944695195E-17
  0.607153216592E-17
  0.346944695195E-17
  0.867361737988E-18
  0.650521303491E-18
  0.352365706058E-18
  0.201588878363E-18
  0.352365706058E-18
  0.650521303491E-18
  0.216840434497E-17
  0.000000000000E+00
  0.000000000000E+00
  0.954097911787E-17
  0.693889390391E-17
  0.104083408559E-16
  0.000000000000E+00
  0.173472347598E-16
  0.346944695195E-17
 -0.208166817117E-16
 -0.346944695195E-17
  0.242861286637E-16
  0.693889390391E-17
  0.000000000000E+00
 -0.346944695195E-17
  0.277555756156E-16
 -0.138777878078E-16
 -0.346944695195E-17
  0.693889390391E-17
  0.693889390391E-17
  0.346944695195E-17
  0.104083408559E-16
  0.693889390391E-17
  0.693889390391E-17
 -0.242861286637E-16
 -0.693889390391E-17
  0.693889390391E-17
  0.102348685083E-15
  0.379904441239E-15
 -0.954097911787E-16
 -0.804044331115E-15
  0.151875040322E-14
 -0.706032454723E-15
 -0.162109908830E-14
  0.237440275774E-15
 -0.147635809827E-14
  0.973179870023E-15
 -0.241993924899E-15
 -0.346944695195E-15
 -0.106425285251E-14
  0.500988139862E-14
  0.273088843206E-13
  0.216840434497E-16
  0.606285854854E-14
 -0.209415818020E-13
  0.194141577814E-13
  0.477048955894E-16
  0.148145384848E-14
 -0.578573647325E-14
  0.270801176622E-14
 -0.101080168541E-14
  0.316283457757E-14
 -0.391700560876E-14
  0.290826390748E-14
 -0.823126289351E-15
 -0.176941794550E-15
  0.447558656802E-15
  0.168268177170E-15
  0.294902990916E-16
  0.000000000000E+00
  0.208166817117E-16
  0.589805981832E-16
  0.381639164715E-16
  0.693889390391E-17
  0.173472347598E-16
  0.000000000000E+00
  0.138777878078E-16
 -0.693889390391E-17
  0.242861286637E-16
  0.346944695195E-17
  0.277555756156E-16
  0.451028103754E-16
  0.000000000000E+00
 -0.346944695195E-17
 -0.346944695195E-17
  0.173472347598E-17
  0.693889390391E-17
  0.173472347598E-17
  0.346944695195E-17
  0.867361737988E-17
 -0.173472347598E-17
  0.260208521397E-17
  0.346944695195E-17
  0.433680868994E-18
  0.216840434497E-18
  0.271050543121E-18
  0.322470571540E-18
  0.379470760370E-18
  0.108420217249E-18
  0.108420217249E-17
  0.390312782095E-17
  0.260208521397E-17
  0.433680868994E-17
 -0.520417042793E-17
  0.520417042793E-17
  0.346944695195E-17
  0.156125112838E-16
 -0.346944695195E-17
  0.693889390391E-17
  0.312250225676E-16
  0.693889390391E-17
  0.242861286637E-16
  0.346944695195E-16
  0.000000000000E+00
  0.242861286637E-16
  0.693889390391E-17
  0.138777878078E-16
  0.104083408559E-16
 -0.138777878078E-16
  0.277555756156E-16
  0.381639164715E-16
  0.104083408559E-16
  0.208166817117E-16
 -0.208166817117E-16
  0.312250225676E-16
  0.157859836314E-15
  0.405925293379E-15
 -0.176941794550E-15
 -0.817922118923E-15
  0.288224305534E-14
 -0.398162405824E-14
  0.305094491337E-14
 -0.988683961090E-15
  0.901839367073E-15
 -0.123165366794E-15
 -0.124553145575E-14
 -0.307739944638E-14
 -0.342954831201E-14
  0.783748066446E-14
  0.217100643018E-14
  0.260208521397E-17
  0.683481049535E-14
 -0.386756598969E-14
 -0.817141493359E-14
  0.578963960107E-14
  0.239565312032E-14
 -0.228896762655E-14
  0.928781791060E-15
 -0.394649590785E-15
  0.221784396404E-14
 -0.217707796235E-14
  0.112323345069E-14
 -0.761543605954E-15
  0.268882138776E-15
  0.298372437868E-15
  0.763278329430E-16
  0.138777878078E-16
  0.346944695195E-17
 -0.138777878078E-16
  0.312250225676E-16
  0.173472347598E-16
 -0.693889390391E-17
  0.173472347598E-16
  0.346944695195E-16
 -0.346944695195E-16
  0.693889390391E-17
 -0.104083408559E-16
  0.346944695195E-16
  0.138777878078E-16
  0.208166817117E-16
 -0.138777878078E-16
  0.208166817117E-16
  0.104083408559E-16
  0.225514051877E-16
  0.520417042793E-17
  0.121430643318E-16
  0.104083408559E-16
  0.780625564190E-17
  0.346944695195E-17
  0.303576608296E-17
  0.173472347598E-17
  0.650521303491E-18
  0.460785923306E-18
  0.396987137021E-18
  0.433680868994E-18
  0.542101086243E-18
  0.216840434497E-17
  0.260208521397E-17
  0.520417042793E-17
  0.433680868994E-17
  0.000000000000E+00
  0.520417042793E-17
  0.104083408559E-16
  0.277555756156E-16
  0.104083408559E-16
  0.312250225676E-16
  0.277555756156E-16
  0.000000000000E+00
  0.346944695195E-16
  0.104083408559E-16
  0.346944695195E-17
  0.000000000000E+00
  0.381639164715E-16
  0.242861286637E-16
  0.242861286637E-16
  0.693889390391E-17
 -0.693889390391E-17
  0.381639164715E-16
  0.381639164715E-16
  0.104083408559E-16
 -0.451028103754E-16
  0.433680868994E-16
  0.279290479632E-15
  0.218575157973E-15
 -0.759808882478E-15
  0.110501885420E-14
 -0.221957868751E-14
  0.210161749115E-14
  0.182796486281E-15
 -0.399284555072E-14
  0.477699477197E-14
 -0.122428109317E-14
  0.165492619608E-14
 -0.161676227961E-14
 -0.457966997658E-15
  0.429344060304E-15
  0.433680868994E-17
  0.245810316546E-13
 -0.740726924242E-15
 -0.219746096319E-13
  0.363207727783E-14
 -0.394649590785E-16
 -0.175142018943E-14
 -0.226099521050E-14
  0.240757934422E-14
  0.215496023803E-14
 -0.388925003314E-14
  0.262376925741E-14
 -0.955832635263E-15
  0.208166817117E-15
  0.327862736960E-15
  0.520417042793E-16
  0.312250225676E-16
  0.277555756156E-16
  0.242861286637E-16
  0.277555756156E-16
  0.242861286637E-16
 -0.173472347598E-16
  0.346944695195E-17
 -0.346944695195E-17
 -0.104083408559E-16
  0.693889390391E-17
 -0.693889390391E-17
  0.693889390391E-17
  0.138777878078E-16
  0.173472347598E-16
  0.242861286637E-16
  0.173472347598E-16
 -0.121430643318E-16
  0.000000000000E+00
  0.867361737988E-17
  0.693889390391E-17
  0.104083408559E-16
  0.693889390391E-17
  0.737257477290E-17
  0.216840434497E-17
  0.151788304148E-17
  0.542101086243E-18
  0.421745479936E-18
  0.623416249179E-18
  0.758941520740E-18
  0.260208521397E-17
  0.867361737988E-18
  0.260208521397E-17
  0.867361737988E-17
  0.173472347598E-17
  0.242861286637E-16
  0.520417042793E-17
  0.173472347598E-17
  0.138777878078E-16
 -0.346944695195E-17
  0.693889390391E-17
  0.242861286637E-16
  0.242861286637E-16
  0.346944695195E-17
 -0.104083408559E-16
 -0.242861286637E-16
 -0.242861286637E-16
  0.138777878078E-16
 -0.277555756156E-16
  0.104083408559E-16
  0.416333634234E-16
  0.451028103754E-16
  0.242861286637E-16
  0.138777878078E-16
  0.624500451352E-16
  0.307046055248E-15
  0.239391839685E-15
 -0.966240976119E-15
  0.261683036351E-14
 -0.394649590785E-14
  0.206432093641E-14
  0.306330481814E-14
 -0.456503324725E-14
  0.428129753871E-14
 -0.192207361138E-14
  0.230848326566E-14
  0.116113715865E-13
  0.530651911301E-14
 -0.223258911358E-13
  0.286229373536E-16
 -0.143106013151E-13
 -0.101012948006E-13
  0.550774703623E-15
  0.345123235546E-14
 -0.164581889783E-14
 -0.645100292629E-15
 -0.316302431295E-15
 -0.288614618316E-15
  0.213717932240E-14
 -0.467854921471E-14
  0.244769482460E-14
 -0.811850586757E-15
  0.452762827230E-15
  0.140512601554E-15
  0.468375338514E-16
  0.312250225676E-16
  0.242861286637E-16
 -0.346944695195E-17
  0.242861286637E-16
  0.346944695195E-16
  0.173472347598E-16
  0.000000000000E+00
  0.000000000000E+00
  0.242861286637E-16
  0.381639164715E-16
  0.693889390391E-17
  0.208166817117E-16
  0.208166817117E-16
  0.173472347598E-16
  0.693889390391E-17
  0.208166817117E-16
  0.000000000000E+00
  0.000000000000E+00
  0.104083408559E-16
  0.867361737988E-18
  0.433680868994E-17
  0.260208521397E-17
  0.151788304148E-17
  0.119262238973E-17
  0.542101086243E-18
  0.420992745578E-18
  0.623416249179E-18
  0.108420217249E-17
  0.216840434497E-17
  0.130104260698E-17
  0.173472347598E-17
  0.867361737988E-18
  0.346944695195E-17
  0.693889390391E-17
  0.693889390391E-17
  0.121430643318E-16
  0.208166817117E-16
 -0.104083408559E-16
  0.208166817117E-16
  0.173472347598E-16
  0.242861286637E-16
  0.693889390391E-17
 -0.104083408559E-16
 -0.242861286637E-16
  0.208166817117E-16
  0.138777878078E-16
  0.381639164715E-16
  0.104083408559E-16
 -0.138777878078E-16
  0.000000000000E+00
  0.346944695195E-17
  0.104083408559E-16
  0.124900090270E-15
  0.430211422042E-15
 -0.806646416329E-15
  0.243381703680E-14
 -0.473492772768E-14
  0.207169351119E-14
  0.393131707743E-15
 -0.574249035910E-14
  0.491772421396E-14
 -0.362990887348E-14
 -0.103216046821E-14
 -0.186049092799E-14
  0.411042727633E-14
  0.144155520854E-13
 -0.390312782095E-16
 -0.246330733589E-13
  0.354924423185E-13
  0.557800333700E-14
 -0.134419385345E-13
  0.330074509391E-14
  0.244335801591E-14
 -0.222777796644E-14
  0.137780412079E-14
  0.823993651089E-15
  0.581999726190E-15
  0.259427895832E-14
 -0.110154940725E-14
  0.357353036051E-15
  0.180411241502E-15
 -0.346944695195E-17
 -0.346944695195E-17
  0.381639164715E-16
  0.000000000000E+00
  0.277555756156E-16
 -0.138777878078E-16
  0.000000000000E+00
  0.312250225676E-16
  0.000000000000E+00
  0.000000000000E+00
 -0.693889390391E-17
  0.104083408559E-16
  0.138777878078E-16
  0.277555756156E-16
  0.346944695195E-17
  0.104083408559E-16
 -0.520417042793E-17
  0.138777878078E-16
  0.138777878078E-16
  0.867361737988E-18
  0.520417042793E-17
  0.390312782095E-17
 -0.433680868994E-18
  0.758941520740E-18
  0.433680868994E-18
  0.364733710577E-18
  0.623416249179E-18
  0.325260651746E-18
  0.216840434497E-18
  0.260208521397E-17
  0.607153216592E-17
  0.346944695195E-17
  0.520417042793E-17
  0.693889390391E-17
  0.208166817117E-16
  0.000000000000E+00
  0.242861286637E-16
  0.312250225676E-16
  0.104083408559E-16
 -0.346944695195E-17
  0.000000000000E+00
  0.173472347598E-16
 -0.104083408559E-16
  0.381639164715E-16
  0.555111512313E-16
  0.104083408559E-16
  0.346944695195E-16
  0.451028103754E-16
  0.346944695195E-16
  0.242861286637E-16
  0.277555756156E-16
  0.199493199737E-15
  0.367761376907E-15
 -0.110848830115E-14
  0.255698240359E-14
  0.543835809719E-15
  0.781059245059E-15
  0.200815926388E-14
 -0.306903753713E-14
  0.674547223634E-14
 -0.351281503885E-15
  0.598566335386E-14
 -0.107899800206E-13
 -0.323404497626E-13
  0.264337163269E-13
 -0.117961196366E-14
  0.261041188665E-13
 -0.105644659687E-14
  0.143487652315E-13
 -0.113333821494E-13
  0.196240593220E-14
 -0.329695038631E-14
  0.436196218034E-14
  0.228116137091E-15
 -0.219008838842E-14
 -0.715399961493E-14
  0.254136989231E-14
 -0.621031004400E-15
  0.320923843056E-15
  0.624500451352E-16
  0.346944695195E-16
  0.624500451352E-16
  0.000000000000E+00
  0.346944695195E-17
  0.728583859910E-16
  0.416333634234E-16
 -0.346944695195E-17
  0.346944695195E-16
  0.104083408559E-16
 -0.381639164715E-16
  0.138777878078E-16
 -0.104083408559E-16
  0.173472347598E-16
  0.104083408559E-16
  0.693889390391E-17
  0.190819582357E-16
  0.138777878078E-16
  0.867361737988E-17
 -0.520417042793E-17
  0.260208521397E-17
  0.390312782095E-17
  0.650521303491E-18
  0.758941520740E-18
  0.325260651746E-18
  0.265400072357E-18
  0.487890977618E-18
  0.542101086243E-18
  0.433680868994E-18
  0.520417042793E-17
  0.260208521397E-17
 -0.867361737988E-18
  0.104083408559E-16
  0.000000000000E+00
  0.346944695195E-17
  0.242861286637E-16
 -0.693889390391E-17
  0.173472347598E-16
  0.346944695195E-17
  0.416333634234E-16
 -0.138777878078E-16
  0.346944695195E-16
  0.138777878078E-16
  0.346944695195E-17