# vtk DataFile Version 3.0
MachLine results file. Generated by MachLine, USU AeroLab (c) 2022.
ASCII
DATASET POLYDATA
POINTS                4925 float
  0.999999985330E+00  0.357376141952E-09 -0.162424131361E-27
  0.997227725914E+00  0.135217262188E-03  0.000000000000E+00
  0.988948396067E+00  0.539084729312E-03  0.000000000000E+00
  0.975273973527E+00  0.120612719369E-02  0.000000000000E+00
  0.956389381411E+00  0.212732419205E-02 -0.496720747515E-28
  0.932550001432E+00  0.329021820974E-02  0.000000000000E+00
  0.904078220314E+00  0.467908315340E-02  0.000000000000E+00
  0.871359070052E+00  0.627513703515E-02 -0.652335426723E-28
  0.834835021028E+00  0.805679597915E-02  0.000000000000E+00
  0.794999998347E+00  0.999996611404E-02 -0.731772948884E-28
  0.752392702355E+00  0.120783694049E-01  0.000000000000E+00
  0.707589323640E+00  0.142638990198E-01 -0.392232638904E-28
  0.661195751037E+00  0.165269994266E-01  0.399727966102E-28
  0.613839378031E+00  0.188370660796E-01  0.000000000000E+00
  0.566160618328E+00  0.211628592936E-01 -0.805166644624E-28
  0.518804245360E+00  0.234729267056E-01  0.119359709258E-27
  0.472410672830E+00  0.257360286137E-01 -0.778301144259E-28
  0.427607294222E+00  0.279215604390E-01  0.000000000000E+00
  0.384999998371E+00  0.299999665989E-01 -0.360650963439E-28
  0.345164975859E+00  0.319431401934E-01  0.341642531506E-28
  0.308640927027E+00  0.337248030983E-01 -0.128098768373E-27
  0.275921776978E+00  0.353208613260E-01 -0.594652038628E-28
  0.247449996083E+00  0.367097308495E-01  0.109611967064E-27
  0.223610616303E+00  0.378726289361E-01  0.515484763201E-28
  0.204726024499E+00  0.387938323501E-01  0.433319027219E-28
  0.191051602275E+00  0.394608812753E-01  0.000000000000E+00
  0.182772272586E+00  0.398647519764E-01  0.000000000000E+00
  0.180000002879E+00  0.399999798035E-01  0.000000000000E+00
  0.179083932998E+00  0.397964143085E-01 -0.134520807884E-24
  0.176354370317E+00  0.391898473583E-01  0.000000000000E+00
  0.171866883100E+00  0.381926240767E-01  0.000000000000E+00
  0.165712821004E+00  0.368250569362E-01  0.000000000000E+00
  0.158017465460E+00  0.351149745300E-01  0.000000000000E+00
  0.148937469921E+00  0.330971972799E-01  0.000000000000E+00
  0.138657677531E+00  0.308127985276E-01  0.000000000000E+00
  0.127387355209E+00  0.283082820843E-01  0.000000000000E+00
  0.115355934211E+00  0.256346327098E-01  0.000000000000E+00
  0.102808339569E+00  0.228462782091E-01  0.000000000000E+00
  0.900000041248E-01  0.199999814385E-01  0.000000000000E+00
  0.771916686567E-01  0.171536847787E-01  0.000000000000E+00
  0.646440739441E-01  0.143653305942E-01  0.000000000000E+00
  0.526126528398E-01  0.116916816948E-01  0.000000000000E+00
  0.413423306229E-01  0.918716477818E-02  0.000000000000E+00
  0.310625377349E-01  0.690276826627E-02  0.000000000000E+00
  0.219825423702E-01  0.488499023335E-02  0.169245455677E-24
  0.142871851655E-01  0.317491530185E-02  0.000000000000E+00
  0.813312361356E-02  0.180734571327E-02  0.133137085290E-24
  0.364563565440E-02  0.810125769042E-03  0.000000000000E+00
  0.916073506664E-03  0.203556420617E-03  0.000000000000E+00
  0.149558825251E-07 -0.000000000000E+00  0.603131959312E-24
  0.916073506664E-03 -0.203556420617E-03 -0.682449660833E-25
  0.364563565440E-02 -0.810125769042E-03 -0.683232234115E-25
  0.813312361356E-02 -0.180734571327E-02 -0.133137085290E-24
  0.142871851655E-01 -0.317491530185E-02  0.130006641843E-24
  0.219825423702E-01 -0.488499023335E-02  0.000000000000E+00
  0.310625377349E-01 -0.690276826627E-02  0.000000000000E+00
  0.413423306229E-01 -0.918716477818E-02  0.000000000000E+00
  0.526126528398E-01 -0.116916816948E-01  0.000000000000E+00
  0.646440739441E-01 -0.143653305942E-01  0.000000000000E+00
  0.771916686567E-01 -0.171536847787E-01  0.000000000000E+00
  0.900000041248E-01 -0.199999814385E-01  0.000000000000E+00
  0.102808339569E+00 -0.228462782091E-01  0.000000000000E+00
  0.115355934211E+00 -0.256346327098E-01  0.000000000000E+00
  0.127387355209E+00 -0.283082820843E-01 -0.168284006640E-24
  0.138657677531E+00 -0.308127985276E-01  0.165004583143E-24
  0.148937469921E+00 -0.330971972799E-01  0.000000000000E+00
  0.158017465460E+00 -0.351149745300E-01 -0.157000982952E-24
  0.165712821004E+00 -0.368250569362E-01  0.000000000000E+00
  0.171866883100E+00 -0.381926240767E-01  0.000000000000E+00
  0.176354370317E+00 -0.391898473583E-01  0.000000000000E+00
  0.179083932998E+00 -0.397964143085E-01  0.134520807884E-24
  0.180000002879E+00 -0.399999798035E-01  0.960302594233E-25
  0.182772272586E+00 -0.398647519764E-01  0.163890237852E-28
  0.191051602275E+00 -0.394608812753E-01  0.348466470242E-28
  0.204726024499E+00 -0.387938323501E-01  0.433319027219E-28
  0.223610616303E+00 -0.378726289361E-01  0.000000000000E+00
  0.247449996083E+00 -0.367097308495E-01  0.000000000000E+00
  0.275921776978E+00 -0.353208613260E-01 -0.594652038628E-28
  0.308640927027E+00 -0.337248030983E-01 -0.640493841863E-28
  0.345164975859E+00 -0.319431401934E-01  0.136657012602E-27
  0.384999998371E+00 -0.299999665989E-01 -0.721301926877E-28
  0.427607294222E+00 -0.279215604390E-01  0.000000000000E+00
  0.472410672830E+00 -0.257360286137E-01 -0.155660228852E-27
  0.518804245360E+00 -0.234729267056E-01 -0.795731395055E-28
  0.566160618328E+00 -0.211628592936E-01  0.402583322312E-28
  0.613839378031E+00 -0.188370660796E-01  0.403205407296E-28
  0.661195751037E+00 -0.165269994266E-01  0.159891186441E-27
  0.707589323640E+00 -0.142638990198E-01 -0.392232638904E-28
  0.752392702355E+00 -0.120783694049E-01  0.380877473922E-28
  0.794999998347E+00 -0.999996611404E-02  0.731772948884E-28
  0.834835021028E+00 -0.805679597915E-02  0.347539559742E-28
  0.871359070052E+00 -0.627513703515E-02  0.326167713362E-28
  0.904078220314E+00 -0.467908315340E-02  0.000000000000E+00
  0.932550001432E+00 -0.329021820974E-02  0.276007798929E-28
  0.956389381411E+00 -0.212732419205E-02 -0.496720747515E-28
  0.975273973527E+00 -0.120612719369E-02  0.000000000000E+00
  0.988948396067E+00 -0.539084729312E-03 -0.385670026194E-28
  0.997227726039E+00 -0.135219823841E-03  0.281197538492E-28
  0.100002536747E+01  0.358685753943E-09  0.205408163447E-01
  0.997097027172E+00  0.142830630310E-03  0.205408163275E-01
  0.988354666327E+00  0.569284702311E-03  0.205408163276E-01
  0.973925782298E+00  0.127312996975E-02  0.205408163278E-01
  0.954020780712E+00  0.224410291174E-02  0.205408163279E-01
  0.928929921316E+00  0.346804463324E-02  0.205408163281E-01
  0.899019085344E+00  0.492710734723E-02  0.205408163282E-01
  0.864724440138E+00  0.660001465212E-02  0.205408163284E-01
  0.826546078849E+00  0.846237180108E-02  0.205408163285E-01
  0.785040727957E+00  0.104870214388E-01  0.205408163286E-01
  0.740813628939E+00  0.126444396199E-01  0.205408163287E-01
  0.694509712490E+00  0.149031663348E-01  0.205408163287E-01
  0.646804193979E+00  0.172302642673E-01  0.205408163288E-01
  0.598392727291E+00  0.195917990936E-01  0.205408163288E-01
  0.549981260621E+00  0.219533343206E-01  0.205408163288E-01
  0.502275742169E+00  0.242804334464E-01  0.205408163287E-01
  0.455971825815E+00  0.265391621209E-01  0.205408163286E-01
  0.411744726929E+00  0.286965829842E-01  0.205408163286E-01
  0.370239376199E+00  0.307212359657E-01  0.205408163285E-01
  0.332061015102E+00  0.325835970387E-01  0.205408163283E-01
  0.297766370110E+00  0.342565087426E-01  0.205408163282E-01
  0.267855534369E+00  0.357155761923E-01  0.205408163281E-01
  0.242764675193E+00  0.369395224108E-01  0.205408163280E-01
  0.222859673975E+00  0.379105028967E-01  0.205408163277E-01
  0.208430790109E+00  0.386143515056E-01  0.205408163276E-01
  0.199688429603E+00  0.390408125361E-01  0.205408163274E-01
  0.196760077717E+00  0.391836537184E-01  0.205408141939E-01
  0.195862704215E+00  0.389842430117E-01  0.205408132739E-01
  0.193188847150E+00  0.383900538278E-01  0.205408135425E-01
  0.188792940931E+00  0.374131837213E-01  0.205408131089E-01
  0.182764472438E+00  0.360735238686E-01  0.205408130694E-01
  0.175226164751E+00  0.343983420725E-01  0.205408125828E-01
  0.166331475273E+00  0.324217438242E-01  0.205408124593E-01
  0.156261474418E+00  0.301839661097E-01  0.205408125126E-01
  0.145221158670E+00  0.277305622669E-01  0.205408124403E-01
  0.133435276878E+00  0.251114771500E-01  0.205408123825E-01
  0.121143755605E+00  0.223800278043E-01  0.205408123459E-01
  0.108596814773E+00  0.195918186738E-01  0.205408123339E-01
  0.960498739165E-01  0.168036096544E-01  0.205408123465E-01
  0.837583525721E-01  0.140721606266E-01  0.205408123802E-01
  0.719724706746E-01  0.114530759888E-01  0.205408124283E-01
  0.609321549236E-01  0.899967215661E-02  0.205408123584E-01
  0.508621538750E-01  0.676189531641E-02  0.205408126050E-01
  0.419674642536E-01  0.478529770767E-02  0.205408126228E-01
  0.344291557183E-01  0.311011973040E-02  0.205408129804E-01
  0.284006871237E-01  0.177046033487E-02  0.205408130419E-01
  0.240047800760E-01  0.793593957686E-03  0.205408134328E-01
  0.213309231872E-01  0.199403985105E-03  0.205408135270E-01
  0.204335608096E-01  0.255925066493E-23  0.205408010503E-01
  0.213309231872E-01 -0.199403985105E-03  0.205408135270E-01
  0.240047800760E-01 -0.793593957686E-03  0.205408134328E-01
  0.284006871237E-01 -0.177046033487E-02  0.205408130419E-01
  0.344291557183E-01 -0.311011973040E-02  0.205408129804E-01
  0.419674642536E-01 -0.478529770767E-02  0.205408126228E-01
  0.508621538750E-01 -0.676189531641E-02  0.205408126050E-01
  0.609321549236E-01 -0.899967215661E-02  0.205408123584E-01
  0.719724706746E-01 -0.114530759888E-01  0.205408124283E-01
  0.837583525721E-01 -0.140721606266E-01  0.205408123802E-01
  0.960498739165E-01 -0.168036096544E-01  0.205408123465E-01
  0.108596814773E+00 -0.195918186738E-01  0.205408123339E-01
  0.121143755605E+00 -0.223800278043E-01  0.205408123459E-01
  0.133435276878E+00 -0.251114771500E-01  0.205408123825E-01
  0.145221158670E+00 -0.277305622669E-01  0.205408124403E-01
[...]
POINT_DATA                4925
SCALARS phi float 1
LOOKUP_TABLE default
  0.641587477590E-14
  0.362140872845E-13
 -0.341116024316E-13
  0.236234642959E-13
  0.207264760910E-13
 -0.312944115066E-14
 -0.576795555762E-16
  0.821608406310E-15
  0.187241715188E-14
 -0.102272790931E-14
  0.302015357168E-14
  0.450160742016E-15
 -0.167574287779E-14
 -0.192120624964E-14
  0.118308141062E-14
  0.761543605954E-15
  0.156125112838E-15
 -0.244596010113E-15
 -0.159594559790E-15
 -0.256739074445E-15
 -0.263677968348E-15
 -0.253269627493E-15
 -0.121430643318E-15
 -0.194289029309E-15
 -0.145716771982E-15
 -0.117961196366E-15
 -0.166533453694E-15
 -0.142247325030E-15
 -0.135308431126E-15
 -0.126634813746E-15
 -0.116226472890E-15
 -0.116226472890E-15
 -0.745931094670E-16
 -0.745931094670E-16
 -0.676542155631E-16
 -0.711236625150E-16
 -0.381639164715E-16
 -0.225514051877E-16
 -0.294902990916E-16
 -0.164798730218E-16
 -0.234187669257E-16
 -0.294902990916E-16
 -0.216840434497E-16
 -0.147451495458E-16
 -0.104083408559E-16
 -0.563785129692E-17
 -0.401154803820E-17
 -0.130104260698E-17
 -0.365918233214E-18
  0.340936965124E-19
 -0.365918233214E-18
 -0.135525271561E-17
 -0.379470760370E-17
 -0.563785129692E-17
 -0.106251812904E-16
 -0.143114686768E-16
 -0.281892564846E-16
 -0.242861286637E-16
 -0.234187669257E-16
 -0.251534904017E-16
 -0.268882138776E-16
 -0.190819582357E-16
 -0.346944695195E-16
 -0.711236625150E-16
 -0.745931094670E-16
 -0.607153216592E-16
 -0.954097911787E-16
 -0.884708972748E-16
 -0.138777878078E-15
 -0.123165366794E-15
 -0.121430643318E-15
 -0.143982048506E-15
 -0.124900090270E-15
 -0.902056207508E-16
 -0.142247325030E-15
 -0.149186218934E-15
 -0.173472347598E-15
 -0.246330733589E-15
 -0.308780778724E-15
 -0.263677968348E-15
 -0.138777878078E-15
 -0.244596010113E-15
  0.142247325030E-15
  0.768482499858E-15
  0.120736753928E-14
 -0.189778748272E-14
 -0.173645819945E-14
  0.450160742016E-15
  0.274563358160E-14
 -0.235597132081E-15
  0.134571173649E-14
  0.225015318878E-14
 -0.104191828776E-13
  0.476181594156E-14
 -0.186317974937E-13
 -0.237310171514E-13
  0.354881055098E-13
 -0.316621728835E-13
  0.324046345312E-14
 -0.585616624638E-13
  0.916012057872E-13
 -0.187592996692E-13
  0.367761376907E-14
 -0.882020151360E-14
 -0.273218947466E-15
  0.243403387723E-14
 -0.150530629628E-14
  0.154542177666E-14
  0.111889664201E-14
 -0.263504496001E-14
  0.152482193538E-14
 -0.988792381307E-15
  0.959302082215E-15
  0.667868538251E-15
 -0.126634813746E-15
 -0.286229373536E-15
 -0.159594559790E-15
 -0.263677968348E-15
 -0.294902990916E-15
 -0.267147415300E-15
 -0.173472347598E-15
 -0.166533453694E-15
 -0.145716771982E-15
 -0.124900090270E-15
 -0.170002900646E-15
 -0.100613961607E-15
 -0.145716771982E-15
 -0.107552855511E-15
 -0.797972798949E-16
 -0.105818132035E-15
 -0.100613961607E-15
 -0.884708972748E-16
 -0.797972798949E-16
 -0.745931094670E-16
 -0.537764277553E-16
 -0.485722573274E-16
 -0.225514051877E-16
 -0.242861286637E-16
 -0.234187669257E-16
 -0.216840434497E-16
 -0.208166817117E-16
 -0.225514051877E-16
 -0.156125112838E-16
 -0.932413868338E-17
 -0.509575021068E-17
 -0.135525271561E-17
  0.390735305952E-19
 -0.127393755267E-17
 -0.552943107968E-17
 -0.112757025938E-16
 -0.121430643318E-16
 -0.151788304148E-16
 -0.216840434497E-16
 -0.251534904017E-16
 -0.242861286637E-16
 -0.260208521397E-16
 -0.433680868994E-16
 -0.433680868994E-16
 -0.381639164715E-16
 -0.693889390391E-16
 -0.902056207508E-16
 -0.589805981832E-16
 -0.850014503229E-16
 -0.100613961607E-15
 -0.111022302463E-15
 -0.832667268469E-16
 -0.145716771982E-15
 -0.114491749414E-15
 -0.138777878078E-15
 -0.100613961607E-15
 -0.152655665886E-15
 -0.124900090270E-15
 -0.197758476261E-15
 -0.287964097012E-15
 -0.305311331772E-15
 -0.267147415300E-15
 -0.166533453694E-15
 -0.235922392733E-15
 -0.131838984174E-15
  0.653990750443E-15
  0.943689570931E-15
 -0.101481323345E-14
  0.147017814589E-14
 -0.261509564004E-14
  0.101871636127E-14
  0.120736753928E-14
 -0.901622526639E-15
 -0.113169022764E-14
  0.389879101226E-15
  0.639766017940E-14
 -0.834575464292E-14
  0.242132702777E-13
 -0.889730997211E-13
  0.533895844201E-13
 -0.693455709522E-14
  0.145482584313E-13
  0.267754568517E-13
 -0.119175502800E-13
 -0.773946878807E-14
  0.307479736117E-15
 -0.464905891562E-14
  0.899237281859E-15
 -0.170734737112E-15
  0.273197263423E-14
 -0.101047642476E-14
 -0.223692592227E-14
 -0.128369537222E-14
  0.589805981832E-15
  0.738992200766E-15
  0.379904441239E-15
 -0.234187669257E-15
 -0.176941794550E-15
 -0.249800180541E-15
 -0.263677968348E-15
 -0.270616862252E-15
 -0.225514051877E-15
 -0.201227923213E-15
 -0.117961196366E-15
 -0.170002900646E-15
 -0.145716771982E-15
 -0.145716771982E-15
 -0.142247325030E-15
 -0.156125112838E-15
 -0.902056207508E-16
 -0.114491749414E-15
 -0.111022302463E-15
 -0.104083408559E-15
 -0.919403442268E-16
 -0.659194920871E-16
 -0.711236625150E-16
 -0.485722573274E-16
 -0.659194920871E-16
 -0.641847686111E-16
 -0.381639164715E-16
 -0.312250225676E-16
 -0.286229373536E-16
 -0.242861286637E-16
 -0.151788304148E-16
 -0.845677694539E-17
 -0.411996825544E-17
 -0.840256683676E-18
  0.578290238042E-19
 -0.102999206386E-17
 -0.411996825544E-17
 -0.975781955237E-17
 -0.186482773668E-16
 -0.242861286637E-16
 -0.277555756156E-16
 -0.234187669257E-16
 -0.364291929955E-16
 -0.624500451352E-16
 -0.676542155631E-16
 -0.572458747072E-16
 -0.503069808033E-16
 -0.485722573274E-16
 -0.867361737988E-16
 -0.936750677027E-16
 -0.971445146547E-16
 -0.971445146547E-16
 -0.100613961607E-15
 -0.124900090270E-15
 -0.138777878078E-15
 -0.142247325030E-15
 -0.156125112838E-15
 -0.176941794550E-15
 -0.152655665886E-15
 -0.187350135405E-15
 -0.218575157973E-15
 -0.239391839685E-15
 -0.281025203108E-15
 -0.183880688454E-15
 -0.218575157973E-15
 -0.211636264069E-15
  0.385108611667E-15
  0.730318583386E-15
  0.568989300120E-15
 -0.125940924356E-14
 -0.222998702837E-14
 -0.997899679556E-15
  0.222348181533E-14
  0.121540418788E-14
 -0.183121746933E-14
 -0.130668045828E-14
 -0.101264482910E-14
  0.745584149975E-14
  0.130078239846E-13
 -0.216927170671E-13
 -0.139246253417E-13
 -0.296550978218E-14
  0.184834786365E-14
  0.179283671242E-14
 -0.185355203408E-13
 -0.139827385781E-13
 -0.102695629778E-13
  0.228766658394E-14
  0.133942336389E-14
  0.252911501963E-14
  0.340439482160E-16
  0.250017020975E-14
  0.483120488060E-15
 -0.179110198895E-14
  0.440619762898E-15
  0.669603261727E-15
  0.556846235789E-15
 -0.156125112838E-15
 -0.140512601554E-15
 -0.159594559790E-15
 -0.301841884820E-15
 -0.343475248243E-15
 -0.263677968348E-15
 -0.163064006742E-15
 -0.180411241502E-15
 -0.163064006742E-15
 -0.159594559790E-15
 -0.187350135405E-15
 -0.111022302463E-15
 -0.152655665886E-15
 -0.104083408559E-15
 -0.902056207508E-16
 -0.100613961607E-15
 -0.624500451352E-16
 -0.676542155631E-16
 -0.850014503229E-16
 -0.745931094670E-16
 -0.693889390391E-16
 -0.607153216592E-16
 -0.607153216592E-16
 -0.555111512313E-16
 -0.407660016855E-16
 -0.277555756156E-16
 -0.221177243187E-16
 -0.138777878078E-16
 -0.585469173142E-17
 -0.132814766129E-17
  0.938411589523E-19
 -0.116551733542E-17
 -0.617995238317E-17
 -0.134441069388E-16
 -0.216840434497E-16
 -0.329597460436E-16
 -0.468375338514E-16
 -0.555111512313E-16
 -0.607153216592E-16
 -0.641847686111E-16
 -0.711236625150E-16
 -0.711236625150E-16
 -0.641847686111E-16
 -0.641847686111E-16
 -0.867361737988E-16
 -0.117961196366E-15
 -0.111022302463E-15
 -0.107552855511E-15
 -0.135308431126E-15
 -0.104083408559E-15
 -0.145716771982E-15
 -0.131838984174E-15
 -0.197758476261E-15
 -0.176941794550E-15
 -0.201227923213E-15
 -0.298372437868E-15
 -0.333066907388E-15
 -0.208166817117E-15
 -0.204697370165E-15
 -0.197758476261E-15
 -0.128369537222E-15
  0.520417042793E-15
  0.725114412958E-15
  0.437150315946E-15
 -0.177635683940E-14
  0.491794105439E-15
  0.239652048206E-14
 -0.376001313418E-15
  0.247666843360E-14
 -0.297071395261E-15
 -0.379123815675E-14
 -0.146280557112E-14
  0.128438926161E-13
  0.286784485048E-13
  0.440272818203E-14
  0.271310751643E-14
 -0.617561557448E-15
  0.821825246744E-14
 -0.122107185474E-13
 -0.396210841913E-14
 -0.190333859784E-13
 -0.526575311133E-14
 -0.166099772825E-15
 -0.146605817763E-14
  0.250602490148E-14
 -0.587203896618E-15
 -0.190429269575E-14
 -0.164191577001E-14
 -0.638378239159E-15
  0.607153216592E-15
  0.735522753814E-15
  0.228983498829E-15
 -0.261943244872E-15
 -0.124900090270E-15
 -0.232452945781E-15
 -0.225514051877E-15
 -0.260208521397E-15
 -0.197758476261E-15
 -0.173472347598E-15
 -0.149186218934E-15
 -0.156125112838E-15
 -0.152655665886E-15
 -0.170002900646E-15
 -0.135308431126E-15
 -0.145716771982E-15
 -0.142247325030E-15
 -0.111022302463E-15
 -0.797972798949E-16
 -0.763278329430E-16
 -0.364291929955E-16
 -0.520417042793E-16
 -0.572458747072E-16
 -0.641847686111E-16
 -0.659194920871E-16
 -0.711236625150E-16
 -0.320923843056E-16
 -0.260208521397E-16
 -0.203830008427E-16
 -0.121430643318E-16
 -0.552943107968E-17
 -0.151788304148E-17
  0.127232785920E-18
 -0.162630325873E-17
 -0.563785129692E-17
 -0.117093834628E-16
 -0.212503625807E-16
 -0.320923843056E-16
 -0.459701721134E-16
 -0.485722573274E-16
 -0.520417042793E-16
 -0.659194920871E-16
 -0.884708972748E-16
 -0.988792381307E-16
 -0.763278329430E-16
 -0.971445146547E-16
 -0.624500451352E-16
 -0.114491749414E-15
 -0.936750677027E-16
 -0.117961196366E-15
 -0.936750677027E-16
 -0.114491749414E-15
 -0.149186218934E-15
 -0.128369537222E-15
 -0.142247325030E-15
 -0.187350135405E-15
 -0.183880688454E-15
 -0.218575157973E-15
 -0.263677968348E-15
 -0.246330733589E-15
 -0.194289029309E-15
 -0.293168267440E-15
  0.114491749414E-15
  0.778890840714E-15
  0.582867087928E-15
 -0.635776153945E-15
 -0.162977270568E-14
 -0.187350135405E-14
 -0.116876994194E-14
  0.383173310789E-14
 -0.221632608099E-14
 -0.394736326959E-14
 -0.206388725554E-14
  0.993215926171E-14
 -0.169222275082E-14
  0.842208247587E-14
 -0.465426308605E-14
  0.840907204980E-14
  0.508273978461E-15
 -0.145205028557E-13
 -0.235584121655E-13
 -0.113103970634E-14
 -0.286966631013E-14
  0.330508190260E-14
 -0.454497550706E-14
  0.862049147343E-15
  0.256652338271E-14
  0.776722436369E-15
  0.922005527482E-15
 -0.118828558104E-14
  0.468375338514E-15
  0.851749226705E-15
  0.291433543964E-15
 -0.149186218934E-15
 -0.114491749414E-15
 -0.208166817117E-15
 -0.336536354340E-15
 -0.270616862252E-15
 -0.180411241502E-15
 -0.222044604925E-15
 -0.156125112838E-15
 -0.173472347598E-15
 -0.208166817117E-15
 -0.124900090270E-15
 -0.170002900646E-15
 -0.124900090270E-15
 -0.100613961607E-15
 -0.867361737988E-16
 -0.763278329430E-16
 -0.797972798949E-16
 -0.711236625150E-16
 -0.520417042793E-16
 -0.763278329430E-16
 -0.693889390391E-16
 -0.572458747072E-16
 -0.312250225676E-16
 -0.303576608296E-16
 -0.147451495458E-16
 -0.737257477290E-17
 -0.368628738645E-17
 -0.975781955237E-18
  0.137092778821E-18
 -0.975781955237E-18
 -0.325260651746E-17
 -0.867361737988E-17
 -0.173472347598E-16
 -0.303576608296E-16
 -0.407660016855E-16
 -0.520417042793E-16
 -0.693889390391E-16
 -0.780625564190E-16
 -0.745931094670E-16
 -0.919403442268E-16
 -0.867361737988E-16
 -0.902056207508E-16
 -0.107552855511E-15
 -0.111022302463E-15
 -0.117961196366E-15
 -0.173472347598E-15
 -0.135308431126E-15
 -0.183880688454E-15
 -0.170002900646E-15
 -0.135308431126E-15
 -0.187350135405E-15
 -0.246330733589E-15
 -0.298372437868E-15
 -0.298372437868E-15
 -0.253269627493E-15
 -0.163064006742E-15
 -0.253269627493E-15
  0.341740524767E-15
  0.860422844084E-15
  0.418068357710E-15
 -0.111889664201E-14
  0.913331910102E-15
  0.676542155631E-15
  0.207863240509E-14
  0.985593984898E-15
 -0.412950923456E-14
 -0.292647850397E-14
 -0.179500511677E-14
  0.296637714392E-15
  0.425440932483E-14
  0.316153353497E-14
 -0.114240214510E-13
  0.366807278995E-14
  0.305398067946E-14
 -0.260147806075E-13
 -0.633260804905E-14
 -0.428303226219E-14
  0.319145751493E-14
  0.565606589342E-14
  0.761326765519E-15
  0.266171633345E-15
 -0.177679052027E-14
  0.109634523682E-14
 -0.416073425713E-14
  0.117961196366E-15
  0.542968447981E-15
  0.799707522425E-15
 -0.154390389362E-15
 -0.131838984174E-15
 -0.173472347598E-15
 -0.270616862252E-15
 -0.281025203108E-15
 -0.253269627493E-15
 -0.222044604925E-15
 -0.156125112838E-15
 -0.187350135405E-15
 -0.124900090270E-15
 -0.131838984174E-15
 -0.183880688454E-15
 -0.107552855511E-15
 -0.138777878078E-15
 -0.135308431126E-15
 -0.117961196366E-15
 -0.728583859910E-16
 -0.936750677027E-16
 -0.109287578987E-15
 -0.763278329430E-16
 -0.641847686111E-16
 -0.589805981832E-16
 -0.485722573274E-16
 -0.329597460436E-16
 -0.212503625807E-16
 -0.108420217249E-16
 -0.498732999343E-17
 -0.127393755267E-17
  0.123058005368E-18
 -0.121972744405E-17
 -0.455364912444E-17
 -0.117093834628E-16
 -0.199493199737E-16
 -0.286229373536E-16
 -0.416333634234E-16
 -0.745931094670E-16
 -0.884708972748E-16
 -0.954097911787E-16
 -0.117961196366E-15
 -0.111022302463E-15
 -0.100613961607E-15
 -0.902056207508E-16
 -0.867361737988E-16
 -0.145716771982E-15
 -0.149186218934E-15
 -0.180411241502E-15
 -0.145716771982E-15
 -0.204697370165E-15
 -0.128369537222E-15
 -0.131838984174E-15
 -0.239391839685E-15
 -0.287964097012E-15
 -0.298372437868E-15
 -0.312250225676E-15
 -0.284494650060E-15
 -0.267147415300E-15
 -0.126634813746E-15
  0.834401991945E-15
  0.560315682741E-15
  0.121430643318E-15
 -0.413991757542E-14
  0.102955838299E-14
 -0.232106001086E-14
  0.165460093543E-14
  0.130754782002E-14
 -0.565389748908E-14
  0.610232350762E-14
  0.198244198835E-13
  0.992088355911E-14
  0.206909142597E-13
 -0.390746462964E-14
 -0.291086599269E-14
  0.183204146298E-13
  0.698139462907E-14
 -0.114014700459E-13
  0.175727488116E-13
  0.406358974248E-14
  0.151961776496E-14
  0.103974988341E-15
 -0.111770401962E-14
  0.301191363516E-14
 -0.622765727876E-15
  0.121170434797E-14
 -0.353883589099E-15
  0.248065457065E-15
  0.886443696224E-15
  0.111022302463E-15
 -0.228983498829E-15
 -0.239391839685E-15
 -0.343475248243E-15
 -0.235922392733E-15
 -0.170002900646E-15
 -0.194289029309E-15
 -0.163064006742E-15
 -0.163064006742E-15
 -0.215105711021E-15
 -0.138777878078E-15
 -0.156125112838E-15
 -0.117961196366E-15
 -0.124900090270E-15
 -0.728583859910E-16
 -0.797972798949E-16
 -0.114491749414E-15
 -0.728583859910E-16
 -0.815320033709E-16
 -0.902056207508E-16
 -0.676542155631E-16
 -0.485722573274E-16
 -0.355618312575E-16
 -0.277555756156E-16
 -0.117093834628E-16
 -0.607153216592E-17
 -0.130104260698E-17
  0.967032038717E-19
 -0.130104260698E-17
 -0.672205346941E-17
 -0.143114686768E-16
 -0.234187669257E-16
 -0.346944695195E-16
 -0.537764277553E-16
 -0.676542155631E-16
 -0.971445146547E-16
 -0.902056207508E-16
 -0.763278329430E-16
 -0.128369537222E-15
 -0.936750677027E-16
 -0.555111512313E-16
 -0.100613961607E-15
 -0.111022302463E-15
 -0.180411241502E-15
 -0.163064006742E-15
 -0.176941794550E-15
 -0.156125112838E-15
 -0.194289029309E-15
 -0.204697370165E-15
 -0.211636264069E-15
 -0.260208521397E-15
 -0.319189119580E-15
 -0.277555756156E-15
 -0.222044604925E-15
  0.624500451352E-16
  0.874300631892E-15
  0.220309881449E-15
 -0.343475248243E-15
  0.121257170971E-14
 -0.778023478976E-15
  0.258343693660E-14
 -0.519224420403E-15
  0.670470623465E-15
 -0.196457433654E-14
  0.965850663337E-14
 -0.415986689539E-14
  0.227109997475E-13
 -0.516860859667E-14
 -0.570724023596E-14
 -0.359174495701E-14
  0.128074634231E-13
 -0.688060719511E-13
  0.408527378593E-15
 -0.106381917164E-13
 -0.759158361174E-14
  0.482751859321E-14
  0.158569988737E-14
 -0.124314621097E-14
 -0.104517089428E-15
  0.395516952523E-15
 -0.220656826144E-14
 -0.855218673657E-15
  0.830932544993E-15
  0.468375338514E-15
 -0.176941794550E-15
 -0.274086309204E-15
 -0.298372437868E-15
 -0.256739074445E-15
 -0.284494650060E-15
 -0.222044604925E-15
 -0.145716771982E-15
 -0.187350135405E-15
 -0.152655665886E-15
 -0.114491749414E-15
 -0.138777878078E-15
 -0.121430643318E-15
 -0.124900090270E-15
 -0.763278329430E-16
 -0.971445146547E-16
 -0.114491749414E-15
 -0.104083408559E-15
 -0.676542155631E-16
 -0.780625564190E-16
 -0.537764277553E-16
 -0.503069808033E-16
 -0.346944695195E-16
 -0.238524477947E-16
 -0.117093834628E-16
 -0.650521303491E-17
 -0.102999206386E-17
  0.696361998678E-19
 -0.132814766129E-17
 -0.585469173142E-17
 -0.138777878078E-16
 -0.212503625807E-16
 -0.381639164715E-16
 -0.537764277553E-16
 -0.346944695195E-16
 -0.884708972748E-16
 -0.780625564190E-16
 -0.100613961607E-15
 -0.104083408559E-15
 -0.104083408559E-15
 -0.867361737988E-16
 -0.902056207508E-16
 -0.124900090270E-15
 -0.142247325030E-15
 -0.163064006742E-15
 -0.180411241502E-15
 -0.166533453694E-15
 -0.173472347598E-15
 -0.232452945781E-15
 -0.253269627493E-15
 -0.281025203108E-15
 -0.346944695195E-15
 -0.315719672628E-15
 -0.152655665886E-15
  0.437150315946E-15
  0.815320033709E-15
 -0.851749226705E-15
 -0.221090507013E-14
  0.316587034366E-15
 -0.446691295064E-15
  0.346294173892E-15
  0.170227872597E-14
 -0.702432903510E-14
  0.128989700865E-13
 -0.965026669686E-14
 -0.106659472920E-13
  0.763460475395E-13
 -0.135134958779E-13
 -0.329337251914E-14
 -0.629964830301E-14
  0.142672332282E-13
 -0.262810606610E-13
 -0.174565223388E-13
 -0.490362958572E-14
 -0.122189584839E-14
  0.473088907459E-14
 -0.238307637512E-15
 -0.102348685083E-14
 -0.766747776382E-15
  0.144849410244E-14
 -0.103042574473E-14
  0.877770078844E-15
  0.541233724505E-15
 -0.971445146547E-16
 -0.187350135405E-15
 -0.253269627493E-15
 -0.291433543964E-15
 -0.287964097012E-15
 -0.197758476261E-15
 -0.152655665886E-15
 -0.135308431126E-15
 -0.971445146547E-16
 -0.124900090270E-15
 -0.163064006742E-15
 -0.114491749414E-15
 -0.971445146547E-16
 -0.121430643318E-15
 -0.131838984174E-15
 -0.117961196366E-15
 -0.111022302463E-15
 -0.589805981832E-16
 -0.867361737988E-16
 -0.589805981832E-16
 -0.338271077815E-16
 -0.182145964978E-16
 -0.125767452008E-16
 -0.628837260042E-17
 -0.146367293286E-17
  0.270066198192E-19
 -0.146367293286E-17
 -0.563785129692E-17
 -0.130104260698E-16
 -0.234187669257E-16
 -0.442354486374E-16
 -0.312250225676E-16
 -0.607153216592E-16
 -0.659194920871E-16
 -0.728583859910E-16
 -0.936750677027E-16
 -0.100613961607E-15
 -0.142247325030E-15
 -0.971445146547E-16
 -0.131838984174E-15
 -0.138777878078E-15
 -0.170002900646E-15
 -0.124900090270E-15
 -0.145716771982E-15
 -0.166533453694E-15
 -0.215105711021E-15
 -0.298372437868E-15
 -0.208166817117E-15
 -0.267147415300E-15
 -0.201227923213E-15
 -0.832667268469E-16
  0.603683769640E-15
  0.895117313604E-15
 -0.107899800206E-14
  0.146844342241E-14
 -0.855218673657E-15
 -0.142117220769E-14
  0.215973072759E-15
  0.193581587392E-14
  0.922439208351E-15
  0.246330733589E-15
  0.614092110496E-14
  0.212260764521E-13
 -0.852616588443E-14
 -0.463431376607E-14
 -0.298025493173E-14
  0.333361810378E-13
  0.154563861710E-14
 -0.139567177260E-13
 -0.711800410280E-14
 -0.985539774789E-14
  0.500554458993E-14
  0.101372903127E-14
 -0.381639164715E-15
  0.190559373836E-14
 -0.130277733046E-14
  0.173472347598E-16
 -0.169482483603E-14
  0.131665511827E-14
 -0.142247325030E-15
 -0.218575157973E-15
 -0.281025203108E-15
 -0.284494650060E-15
 -0.267147415300E-15
 -0.235922392733E-15
 -0.135308431126E-15
 -0.253269627493E-15
 -0.201227923213E-15
 -0.121430643318E-15
 -0.166533453694E-15
 -0.104083408559E-15
 -0.145716771982E-15
 -0.163064006742E-15
 -0.117961196366E-15
 -0.902056207508E-16
 -0.121430643318E-15
 -0.884708972748E-16
 -0.607153216592E-16
 -0.398986399475E-16
 -0.381639164715E-16
 -0.216840434497E-16
 -0.147451495458E-16
 -0.715573433840E-17
 -0.151788304148E-17
 -0.238600247691E-19
 -0.189735380185E-17
 -0.693889390391E-17
 -0.134441069388E-16
 -0.286229373536E-16
 -0.355618312575E-16
 -0.589805981832E-16
 -0.641847686111E-16
 -0.815320033709E-16
 -0.728583859910E-16
 -0.902056207508E-16
 -0.138777878078E-15
 -0.138777878078E-15
 -0.124900090270E-15
 -0.128369537222E-15
 -0.187350135405E-15
 -0.124900090270E-15
 -0.190819582357E-15
 -0.176941794550E-15