# vtk DataFile Version 3.0
MachLine results file. Generated by MachLine, USU AeroLab (c) 2022.
ASCII
DATASET POLYDATA
POINTS                1637 float
  0.999999231425E+00  0.000000000000E+00 -0.334926177733E-07
  0.999999231425E+00  0.000000000000E+00  0.334926177733E-07
  0.953837422488E+00  0.222222222220E+00 -0.403856155950E-02
  0.999999743573E+00  0.222222222220E+00 -0.111744830651E-07
  0.999999743573E+00  0.222222222220E+00  0.111744830651E-07
  0.953837365554E+00  0.000000000000E+00 -0.403791079554E-02
  0.863184783223E+00  0.222222222220E+00 -0.119695706536E-01
  0.863184725337E+00  0.000000000000E+00 -0.119689090104E-01
  0.708754372766E+00  0.222222222220E+00 -0.254803908410E-01
  0.708754322376E+00  0.000000000000E+00 -0.254798148822E-01
  0.500000000000E+00  0.222222222220E+00 -0.437439892777E-01
  0.500000000000E+00  0.000000000000E+00 -0.437435263112E-01
  0.291245684653E+00  0.000000000000E+00 -0.254797345405E-01
  0.291245636452E+00  0.222222222220E+00 -0.254802854692E-01
  0.136815281164E+00  0.000000000000E+00 -0.119688347047E-01
  0.136815235206E+00  0.222222222220E+00 -0.119693600011E-01
  0.461626431427E-01  0.000000000000E+00 -0.403781135093E-02
  0.461625958861E-01  0.222222222220E+00 -0.403835149639E-02
  0.810339589597E-06  0.000000000000E+00  0.000000000000E+00
  0.323387272070E-06  0.222222222220E+00  0.000000000000E+00
  0.461625771152E-01  0.222222222220E+00  0.403856604912E-02
  0.461626010148E-01  0.000000000000E+00  0.403829287547E-02
  0.136815216783E+00  0.222222222220E+00  0.119695705801E-01
  0.136815237897E+00  0.000000000000E+00  0.119693292489E-01
  0.291245625923E+00  0.222222222220E+00  0.254804058249E-01
  0.291245634011E+00  0.000000000000E+00  0.254803133803E-01
  0.500000000000E+00  0.222222222220E+00  0.437439969822E-01
  0.500000000000E+00  0.000000000000E+00  0.437439683113E-01
  0.708754373215E+00  0.000000000000E+00  0.254803959691E-01
  0.708754364251E+00  0.222222222220E+00  0.254802935088E-01
  0.863184773237E+00  0.000000000000E+00  0.119694565050E-01
  0.863184764794E+00  0.222222222220E+00  0.119693600011E-01
  0.953837401607E+00  0.000000000000E+00  0.403832288987E-02
  0.953837403904E+00  0.222222222220E+00  0.403834914817E-02
  0.953837416383E+00  0.444444444440E+00 -0.403849177341E-02
  0.999999571045E+00  0.444444444440E+00 -0.186928035876E-07
  0.999999571045E+00  0.444444444440E+00  0.186928035876E-07
  0.863184775078E+00  0.444444444440E+00 -0.119694775561E-01
  0.708754368835E+00  0.444444444440E+00 -0.254803459091E-01
  0.500000000000E+00  0.444444444440E+00 -0.437438565202E-01
  0.291245654356E+00  0.444444444440E+00 -0.254800808262E-01
  0.136815250253E+00  0.444444444440E+00 -0.119691880222E-01
  0.461626119094E-01  0.444444444440E+00 -0.403816834936E-02
  0.463025653066E-06  0.444444444440E+00  0.000000000000E+00
  0.461625892132E-01  0.444444444440E+00  0.403842776752E-02
  0.136815219822E+00  0.444444444440E+00  0.119695358510E-01
  0.291245629877E+00  0.444444444440E+00  0.254803606272E-01
  0.500000000000E+00  0.444444444440E+00  0.437438565202E-01
  0.708754347086E+00  0.444444444440E+00  0.254800973170E-01
  0.863184750461E+00  0.444444444440E+00  0.119691961805E-01
  0.953837388465E+00  0.444444444440E+00  0.403817266874E-02
  0.953837400785E+00  0.666666666670E+00 -0.403831349146E-02
  0.999999413923E+00  0.666666666670E+00 -0.255398111611E-07
  0.999999413923E+00  0.666666666670E+00  0.255398111611E-07
  0.863184779177E+00  0.666666666670E+00 -0.119695244038E-01
  0.708754368415E+00  0.666666666670E+00 -0.254803411011E-01
  0.500000000000E+00  0.666666666670E+00 -0.437437837556E-01
  0.291245662085E+00  0.666666666670E+00 -0.254799924876E-01
  0.136815266611E+00  0.666666666670E+00 -0.119690010463E-01
  0.461626282062E-01  0.666666666670E+00 -0.403798207538E-02
  0.651259794329E-06  0.666666666670E+00  0.000000000000E+00
  0.461625966268E-01  0.666666666670E+00  0.403834303040E-02
  0.136815217921E+00  0.666666666670E+00  0.119695575715E-01
  0.291245629258E+00  0.666666666670E+00  0.254803677037E-01
  0.500000000000E+00  0.666666666670E+00  0.437437996857E-01
  0.708754337910E+00  0.666666666670E+00  0.254799924338E-01
  0.863184734841E+00  0.666666666670E+00  0.119690176436E-01
  0.953837374145E+00  0.666666666670E+00  0.403800900071E-02
  0.953837395632E+00  0.888888888890E+00 -0.403825458792E-02
  0.999999257057E+00  0.888888888890E+00 -0.323756265361E-07
  0.999999257057E+00  0.888888888890E+00  0.323756265361E-07
  0.863184773020E+00  0.888888888890E+00 -0.119694540246E-01
  0.708754370600E+00  0.888888888890E+00 -0.254803660744E-01
  0.500000000000E+00  0.888888888890E+00 -0.437437688339E-01
  0.291245666577E+00  0.888888888890E+00 -0.254799411444E-01
  0.136815273677E+00  0.888888888890E+00 -0.119689202770E-01
  0.461626416997E-01  0.888888888890E+00 -0.403782784496E-02
  0.838401642331E-06  0.888888888890E+00  0.000000000000E+00
  0.461626125428E-01  0.888888888890E+00  0.403816110930E-02
  0.136815223977E+00  0.888888888890E+00  0.119694883585E-01
  0.291245623639E+00  0.888888888890E+00  0.254804319253E-01
  0.500000000000E+00  0.888888888890E+00  0.437438070425E-01
  0.708754335631E+00  0.888888888890E+00  0.254799663850E-01
  0.863184726321E+00  0.888888888890E+00  0.119689202562E-01
  0.953837365897E+00  0.888888888890E+00  0.403791472651E-02
  0.953837382631E+00  0.111111111110E+01 -0.403810599612E-02
  0.999999118609E+00  0.111111111110E+01 -0.384088428532E-07
  0.999999118609E+00  0.111111111110E+01  0.384088428532E-07
  0.863184763310E+00  0.111111111110E+01 -0.119693430424E-01
  0.708754370831E+00  0.111111111110E+01 -0.254803687218E-01
  0.500000000000E+00  0.111111111110E+01 -0.437437918085E-01
  0.291245667216E+00  0.111111111110E+01 -0.254799338408E-01
  0.136815278377E+00  0.111111111110E+01 -0.119688665588E-01
  0.461626488752E-01  0.111111111110E+01 -0.403774582785E-02
  0.988647669197E-06  0.111111111110E+01  0.000000000000E+00
  0.461626296405E-01  0.111111111110E+01  0.403796568127E-02
  0.136815238168E+00  0.111111111110E+01  0.119693261526E-01
  0.291245623900E+00  0.111111111110E+01  0.254804289423E-01
  0.500000000000E+00  0.111111111110E+01  0.437438780456E-01
  0.708754337838E+00  0.111111111110E+01  0.254799916117E-01
  0.863184723985E+00  0.111111111110E+01  0.119688935604E-01
  0.953837359132E+00  0.111111111110E+01  0.403783739148E-02
  0.953837367376E+00  0.133333333330E+01 -0.403793162059E-02
  0.999999021372E+00  0.133333333330E+01 -0.426462078936E-07
  0.999999021372E+00  0.133333333330E+01  0.426462078936E-07
  0.863184750771E+00  0.133333333330E+01 -0.119691997235E-01
  0.708754370421E+00  0.133333333330E+01 -0.254803640284E-01
  0.500000000000E+00  0.133333333330E+01 -0.437438256315E-01
  0.291245660542E+00  0.133333333330E+01 -0.254800101253E-01
  0.136815279042E+00  0.133333333330E+01 -0.119688589563E-01
  0.461626536549E-01  0.133333333330E+01 -0.403769119562E-02
  0.106019040205E-05  0.133333333330E+01  0.000000000000E+00
  0.461626450239E-01  0.133333333330E+01  0.403778984844E-02
  0.136815254694E+00  0.133333333330E+01  0.119691372629E-01
  0.291245629971E+00  0.133333333330E+01  0.254803595581E-01
  0.500000000000E+00  0.133333333330E+01  0.437439754758E-01
  0.708754345832E+00  0.133333333330E+01  0.254800829853E-01
  0.863184726294E+00  0.133333333330E+01  0.119689199547E-01
  0.953837355459E+00  0.133333333330E+01  0.403779541332E-02
  0.953837354073E+00  0.155555555560E+01 -0.403777956635E-02
  0.999998974409E+00  0.155555555560E+01 -0.446927412610E-07
  0.999998974409E+00  0.155555555560E+01  0.446927412610E-07
  0.863184737450E+00  0.155555555560E+01 -0.119690474633E-01
  0.708754362249E+00  0.155555555560E+01 -0.254802706324E-01
  0.500000000000E+00  0.155555555560E+01 -0.437438797958E-01
  0.291245654142E+00  0.155555555560E+01 -0.254800832773E-01
  0.136815272303E+00  0.155555555560E+01 -0.119689359862E-01
  0.461626543290E-01  0.155555555560E+01 -0.403768349063E-02
  0.108824277496E-05  0.155555555560E+01  0.000000000000E+00
  0.461626540737E-01  0.155555555560E+01  0.403768640951E-02
  0.136815269865E+00  0.155555555560E+01  0.119689638534E-01
  0.291245643893E+00  0.155555555560E+01  0.254802004239E-01
  0.500000000000E+00  0.155555555560E+01  0.437440139717E-01
  0.708754356489E+00  0.155555555560E+01  0.254802047940E-01
  0.863184734765E+00  0.155555555560E+01  0.119690167786E-01
  0.953837355002E+00  0.155555555560E+01  0.403779019468E-02
  0.953837346216E+00  0.177777777780E+01 -0.403768976875E-02
  0.999998958261E+00  0.177777777780E+01 -0.453964527778E-07
  0.999998958261E+00  0.177777777780E+01  0.453964527778E-07
  0.863184726251E+00  0.177777777780E+01 -0.119689194609E-01
  0.708754350402E+00  0.177777777780E+01 -0.254801352103E-01
  0.500000000000E+00  0.177777777780E+01 -0.437438971232E-01
  0.291245644693E+00  0.177777777780E+01 -0.254801912784E-01
  0.136815265337E+00  0.177777777780E+01 -0.119690156098E-01
  0.461626475669E-01  0.177777777780E+01 -0.403776078247E-02
  0.106338608063E-05  0.177777777780E+01  0.000000000000E+00
  0.461626569209E-01  0.177777777780E+01  0.403765386511E-02
  0.136815276740E+00  0.177777777780E+01  0.119688852697E-01
  0.291245654100E+00  0.177777777780E+01  0.254800837556E-01
  0.500000000000E+00  0.177777777780E+01  0.437440326159E-01
  0.708754365203E+00  0.177777777780E+01  0.254803043875E-01
  0.863184741598E+00  0.177777777780E+01  0.119690948695E-01
  0.953837354668E+00  0.177777777780E+01  0.403778637382E-02
  0.953837341871E+00  0.199999989384E+01 -0.403764009695E-02
  0.999999844045E+00  0.199999907071E+01 -0.504340908798E-22
  0.863184720192E+00  0.199999990709E+01 -0.119688502017E-01
  0.708754339195E+00  0.199999993184E+01 -0.254800071158E-01
  0.500000000000E+00  0.199999996984E+01 -0.437438780233E-01
  0.291245636987E+00  0.199999995908E+01 -0.254802793628E-01
  0.136815254175E+00  0.199999993640E+01 -0.119691431915E-01
  0.461626400052E-01  0.199999991457E+01 -0.403784721254E-02
[...]
POINT_DATA                1637
SCALARS phi float 1
LOOKUP_TABLE default
 -0.485722573274E-16
 -0.902056207508E-16
  0.208166817117E-16
  0.277555756156E-16
  0.208166817117E-16
  0.693889390391E-16
 -0.346944695195E-16
  0.166533453694E-15
  0.416333634234E-16
  0.242861286637E-16
 -0.405927305082E-17
 -0.549761440459E-17
 -0.693889390391E-16
  0.659194920871E-16
  0.555111512313E-16
 -0.763278329430E-16
  0.416333634234E-16
  0.138777878078E-16
  0.693889390391E-16
 -0.194289029309E-15
 -0.902056207508E-16
  0.173472347598E-15
  0.138777878078E-15
  0.187350135405E-15
  0.693889390391E-17
  0.693889390391E-17
 -0.278910744174E-17
  0.714101714095E-18
  0.451028103754E-16
  0.208166817117E-16
  0.971445146547E-16
 -0.693889390391E-17
  0.902056207508E-16
 -0.194289029309E-15
  0.555111512313E-16
  0.902056207508E-16
  0.485722573274E-16
  0.416333634234E-16
  0.242861286637E-16
 -0.809776732465E-18
  0.346944695195E-16
  0.111022302463E-15
  0.693889390391E-17
  0.346944695195E-16
  0.000000000000E+00
 -0.145716771982E-15
 -0.312250225676E-16
  0.124358664163E-16
  0.346944695195E-17
  0.208166817117E-16
  0.555111512313E-16
  0.145716771982E-15
 -0.138777878078E-16
  0.111022302463E-15
 -0.138777878078E-16
  0.693889390391E-17
  0.104425133413E-16
  0.173472347598E-16
  0.124900090270E-15
 -0.145716771982E-15
  0.208166817117E-15
  0.763278329430E-16
 -0.693889390391E-17
 -0.104083408559E-16
  0.609120582961E-17
  0.346944695195E-17
  0.000000000000E+00
  0.485722573274E-16
  0.832667268469E-16
  0.000000000000E+00
 -0.346944695195E-16
  0.138777878078E-16
  0.728583859910E-16
  0.110192368993E-17
 -0.832667268469E-16
 -0.555111512313E-16
 -0.971445146547E-16
  0.208166817117E-16
 -0.902056207508E-16
  0.555111512313E-16
 -0.867361737988E-16
 -0.586168637068E-17
 -0.104083408559E-16
 -0.208166817117E-16
 -0.111022302463E-15
 -0.624500451352E-16
  0.111022302463E-15
 -0.763278329430E-16
  0.763278329430E-16
 -0.693889390391E-17
  0.566387109027E-18
  0.104083408559E-16
 -0.104083408559E-15
  0.763278329430E-16
 -0.111022302463E-15
  0.902056207508E-16
  0.208166817117E-16
  0.000000000000E+00
  0.106271466715E-16
  0.346944695195E-17
  0.971445146547E-16
  0.971445146547E-16
 -0.138777878078E-15
 -0.693889390391E-16
 -0.416333634234E-16
  0.346944695195E-16
 -0.277555756156E-16
 -0.849771245954E-17
  0.416333634234E-16
  0.763278329430E-16
  0.000000000000E+00
  0.693889390391E-17
 -0.277555756156E-16
 -0.693889390391E-16
 -0.728583859910E-16
 -0.156916162201E-17
  0.208166817117E-16
  0.152655665886E-15
 -0.832667268469E-16
  0.201227923213E-15
 -0.111022302463E-15
 -0.208166817117E-16
 -0.416333634234E-16
  0.867361737988E-16
  0.389691404019E-17
  0.114491749414E-15
 -0.832667268469E-16
  0.624500451352E-16
 -0.902056207508E-16
  0.346944695195E-16
 -0.763278329430E-16
  0.346944695195E-17
  0.791652543499E-17
  0.208166817117E-16
  0.624500451352E-16
 -0.832667268469E-16
 -0.277555756156E-16
  0.902056207508E-16
  0.346944695195E-16
  0.485722573274E-16
  0.277555756156E-16
 -0.141132232625E-17
  0.138777878078E-16
 -0.124900090270E-15
  0.208166817117E-16
  0.138777878078E-16
  0.693889390391E-17
  0.312250225676E-16
  0.346944695195E-16
  0.433237500186E-18
  0.173472347598E-16
  0.416333634234E-16
 -0.138777878078E-16
 -0.208166817117E-16
  0.312250225676E-16
  0.138777878078E-16
  0.867361737988E-17
  0.615628509148E-17
  0.346944695195E-16
  0.346944695195E-17
  0.000000000000E+00
  0.728583859910E-16
  0.312250225676E-16
  0.381639164715E-16
  0.867361737988E-17
 -0.120094713542E-17
 -0.156125112838E-16
 -0.520417042793E-16
 -0.208166817117E-16
  0.381639164715E-16
 -0.381639164715E-16
 -0.468375338514E-16
  0.370305599183E-18
 -0.208166817117E-16
  0.312250225676E-16
  0.589805981832E-16
  0.693889390391E-17
  0.346944695195E-17
 -0.797972798949E-16
 -0.125660150139E-16
  0.190819582357E-16
 -0.138777878078E-16
 -0.763278329430E-16
 -0.208166817117E-16
  0.624500451352E-16
  0.225514051877E-16
  0.299037702839E-17
  0.867361737988E-17
  0.346944695195E-17
  0.277555756156E-16
  0.555111512313E-16
 -0.381639164715E-16
 -0.190819582357E-16
 -0.457794838211E-18
 -0.190819582357E-16
  0.277555756156E-16
  0.346944695195E-17
 -0.659194920871E-16
  0.555111512313E-16
 -0.329597460436E-16
  0.253286012286E-17
 -0.346944695195E-17
 -0.346944695195E-16
  0.381639164715E-16
  0.104083408559E-16
  0.693889390391E-17
 -0.693889390391E-17
  0.330194287791E-17
 -0.173472347598E-16
 -0.242861286637E-16
 -0.485722573274E-16
  0.277555756156E-16
 -0.346944695195E-17
  0.520417042793E-17
  0.345811126884E-18
 -0.555111512313E-16
  0.346944695195E-16
  0.208166817117E-16
 -0.346944695195E-16
 -0.555111512313E-16
 -0.624500451352E-16
 -0.555111512313E-16
 -0.104083408559E-16
  0.465607393661E-17
 -0.693889390391E-17
 -0.902056207508E-16
  0.117961196366E-15
  0.000000000000E+00
 -0.555111512313E-16
 -0.111022302463E-15
  0.138777878078E-16
 -0.410915535048E-17
 -0.104083408559E-16
  0.000000000000E+00
 -0.416333634234E-16
  0.555111512313E-16
  0.832667268469E-16
 -0.104083408559E-15
  0.624500451352E-16
 -0.728583859910E-16
 -0.682611940791E-17
 -0.107552855511E-15
 -0.763278329430E-16
 -0.117961196366E-15
  0.832667268469E-16
 -0.222044604925E-15
  0.138777878078E-16
 -0.555111512313E-16
  0.155081806475E-16
  0.208166817117E-16
  0.832667268469E-16
  0.277555756156E-16
 -0.902056207508E-16
 -0.693889390391E-16
  0.152655665886E-15
  0.152655665886E-15
  0.520417042793E-16
  0.633964456350E-18
 -0.381639164715E-16
 -0.832667268469E-16
  0.277555756156E-16
  0.555111512313E-16
 -0.277555756156E-16
  0.159594559790E-15
 -0.659194920871E-16
 -0.422672087658E-17
  0.485722573274E-16
  0.152655665886E-15
  0.763278329430E-16
  0.346944695195E-16
  0.902056207508E-16
  0.693889390391E-17
 -0.693889390391E-16
  0.416333634234E-16
 -0.123575754257E-16
  0.173472347598E-16
 -0.346944695195E-16
 -0.763278329430E-16
  0.277555756156E-16
 -0.693889390391E-17
  0.208166817117E-16
  0.277555756156E-16
  0.245554851409E-17
 -0.312250225676E-16
 -0.555111512313E-16
  0.000000000000E+00
 -0.138777878078E-16
  0.346944695195E-16
 -0.208166817117E-16
  0.152655665886E-15
  0.000000000000E+00
 -0.739787988220E-17
 -0.659194920871E-16
  0.117961196366E-15
 -0.277555756156E-16
 -0.624500451352E-16
  0.693889390391E-17
  0.124900090270E-15
 -0.416333634234E-16
  0.140718642319E-17
 -0.520417042793E-16
  0.194289029309E-15
 -0.624500451352E-16
 -0.832667268469E-16
  0.416333634234E-16
 -0.971445146547E-16
  0.485722573274E-16
 -0.173472347598E-16
 -0.761742023422E-17
 -0.138777878078E-16
  0.485722573274E-16
  0.693889390391E-16
  0.832667268469E-16
  0.485722573274E-16
  0.000000000000E+00
  0.242861286637E-16
  0.495951025507E-17
 -0.693889390391E-16
 -0.485722573274E-16
 -0.104083408559E-15
  0.416333634234E-16
 -0.117961196366E-15
  0.131838984174E-15
 -0.902056207508E-16
  0.763278329430E-16
 -0.844121271498E-18
  0.346944695195E-16
 -0.111022302463E-15
  0.201227923213E-15
  0.416333634234E-16
 -0.138777878078E-16
 -0.131838984174E-15
 -0.277555756156E-16
  0.359300788313E-17
  0.451028103754E-16
 -0.624500451352E-16
  0.138777878078E-16
 -0.208166817117E-16
 -0.624500451352E-16
 -0.208166817117E-16
  0.763278329430E-16
  0.693889390391E-17
  0.652395363887E-17
 -0.312250225676E-16
  0.346944695195E-16
 -0.111022302463E-15
 -0.138777878078E-16
 -0.693889390391E-16
  0.173472347598E-16
 -0.451028103754E-16
 -0.764759578296E-17
 -0.416333634234E-16
 -0.277555756156E-16
  0.763278329430E-16
  0.797972798949E-16
 -0.693889390391E-16
 -0.242861286637E-16
  0.607153216592E-16
 -0.119008129089E-18
  0.000000000000E+00
  0.138777878078E-16
 -0.451028103754E-16
 -0.346944695195E-17
 -0.242861286637E-16
 -0.242861286637E-16
 -0.346944695195E-17
  0.611753664287E-17
 -0.346944695195E-17
 -0.173472347598E-16
  0.000000000000E+00
  0.104083408559E-16
 -0.100613961607E-15
  0.294902990916E-16
  0.235019879128E-17
 -0.121430643318E-16
  0.312250225676E-16
  0.000000000000E+00
 -0.208166817117E-16
  0.346944695195E-17
  0.000000000000E+00
 -0.104888089859E-16
 -0.225514051877E-16
 -0.416333634234E-16
  0.208166817117E-16
  0.104083408559E-16
  0.173472347598E-16
  0.156125112838E-16
  0.557363561161E-17
  0.156125112838E-16
 -0.693889390391E-17
 -0.867361737988E-16
  0.346944695195E-17
  0.381639164715E-16
 -0.346944695195E-17
 -0.170020688338E-17
 -0.190819582357E-16
 -0.589805981832E-16
  0.693889390391E-16
 -0.832667268469E-16
  0.451028103754E-16
 -0.867361737988E-17
  0.315022140996E-17
 -0.242861286637E-16
  0.693889390391E-17
 -0.138777878078E-16
 -0.659194920871E-16
  0.485722573274E-16
 -0.242861286637E-16
 -0.202938506250E-17
 -0.173472347598E-17
 -0.693889390391E-17
 -0.693889390391E-17
 -0.138777878078E-16
 -0.520417042793E-16
 -0.416333634234E-16
  0.379245767243E-18
  0.156125112838E-16
  0.693889390391E-17
  0.312250225676E-16
  0.104083408559E-15
  0.138777878078E-16
  0.693889390391E-17
 -0.659194920871E-16
  0.145716771982E-15
  0.693889390391E-16
  0.346944695195E-16
  0.329597460436E-16
 -0.520417042793E-16
 -0.214668192034E-16
  0.902056207508E-16
 -0.693889390391E-17
 -0.114491749414E-15
  0.485722573274E-16
 -0.346944695195E-16
 -0.624500451352E-16
  0.000000000000E+00
 -0.190819582357E-16
 -0.485722573274E-16
  0.971445146547E-16
  0.208166817117E-16
  0.624500451352E-16
  0.104083408559E-15
 -0.763278329430E-16
 -0.173472347598E-16
  0.763278329430E-16
  0.902056207508E-16
 -0.902056207508E-16
 -0.145716771982E-15
 -0.624500451352E-16
 -0.242861286637E-16
 -0.659194920871E-16
  0.138777878078E-16
  0.416333634234E-16
 -0.693889390391E-17
  0.832667268469E-16
  0.111022302463E-15
 -0.624500451352E-16
  0.867361737988E-17
  0.381639164715E-16
 -0.971445146547E-16
 -0.208166817117E-16
 -0.945897574067E-17
  0.971445146547E-16
 -0.693889390391E-17
 -0.173472347598E-16
  0.173472347598E-17
 -0.381639164715E-16
 -0.520417042793E-16
 -0.277555756156E-16
 -0.225514051877E-16
  0.138777878078E-16
  0.346944695195E-17
 -0.208166817117E-16
 -0.346944695195E-16
  0.763278329430E-16
  0.763278329430E-16
  0.485722573274E-16
  0.138777878078E-16
  0.624500451352E-16
  0.555111512313E-16
  0.277555756156E-16
 -0.624500451352E-16
  0.138777878078E-16
  0.624500451352E-16
  0.117961196366E-15
 -0.624500451352E-16
 -0.693889390391E-16
 -0.242861286637E-16
 -0.485722573274E-16
 -0.277555756156E-16
  0.293246776806E-17
 -0.555111512313E-16
  0.416333634234E-16
 -0.329597460436E-16
 -0.693889390391E-17
 -0.451028103754E-16
 -0.364291929955E-16
  0.104083408559E-15
  0.277555756156E-16
 -0.398986399475E-16
 -0.416333634234E-16
 -0.693889390391E-17
  0.180411241502E-15
  0.117961196366E-15
 -0.693889390391E-16
  0.693889390391E-16
  0.159594559790E-15
  0.000000000000E+00
  0.693889390391E-16
  0.145716771982E-15
  0.416333634234E-16
 -0.693889390391E-17
 -0.902056207508E-16
 -0.555111512313E-16
  0.000000000000E+00
  0.138777878078E-16
  0.346944695195E-17
 -0.242861286637E-16
  0.225514051877E-16
  0.277555756156E-16
  0.624500451352E-16
 -0.138777878078E-16
 -0.693889390391E-16
  0.641847686111E-16
  0.477411459525E-16
 -0.117961196366E-15
  0.693889390391E-17
 -0.451028103754E-16
  0.152655665886E-15
 -0.763278329430E-16
  0.555111512313E-16
 -0.624500451352E-16
  0.902056207508E-16
  0.190819582357E-16
 -0.555111512313E-16
 -0.277555756156E-16
  0.180411241502E-15
  0.000000000000E+00
  0.520417042793E-17
 -0.312250225676E-16
 -0.555111512313E-16
 -0.138777878078E-16
 -0.225032169539E-17
  0.173472347598E-17
 -0.902056207508E-16
 -0.416333634234E-16
  0.242861286637E-16
 -0.346944695195E-16
  0.416333634234E-16
  0.104083408559E-16
  0.194289029309E-15
  0.346944695195E-16
 -0.208166817117E-16
  0.398986399475E-16
 -0.555111512313E-16
 -0.208166817117E-16
  0.145716771982E-15
  0.104083408559E-15
 -0.208166817117E-16
  0.138777878078E-15
  0.346944695195E-16
  0.111022302463E-15
  0.156125112838E-16
 -0.693889390391E-17
  0.138777878078E-16
  0.346944695195E-17
  0.138777878078E-16
 -0.138777878078E-16
 -0.312250225676E-16
 -0.312250225676E-16
  0.485722573274E-16
 -0.173472347598E-15
  0.242861286637E-16
  0.367761376907E-15
 -0.867361737988E-17
  0.832667268469E-16
  0.832667268469E-16
  0.971445146547E-16
  0.693889390391E-17
  0.346944695195E-16
  0.214794386708E-16
 -0.555111512313E-16
 -0.381639164715E-16
 -0.624500451352E-16
 -0.322435002773E-17
  0.173472347598E-16
 -0.589805981832E-16
  0.416333634234E-16
  0.971445146547E-16
  0.138777878078E-16
  0.138777878078E-16
  0.485722573274E-16
  0.693889390391E-16
 -0.693889390391E-17
  0.208166817117E-16
  0.832667268469E-16
 -0.693889390391E-17
 -0.208166817117E-16
 -0.346944695195E-17
 -0.693889390391E-16
 -0.138777878078E-16
  0.485722573274E-16
  0.485722573274E-16
  0.215105711021E-15
 -0.277555756156E-16
  0.555111512313E-16
 -0.208166817117E-16
  0.624500451352E-16
 -0.312250225676E-16
 -0.416333634234E-16
 -0.312250225676E-16
  0.545111361928E-17
  0.138777878078E-16
  0.416333634234E-16
  0.208166817117E-16
  0.277555756156E-16
  0.107552855511E-15
 -0.138777878078E-16
 -0.693889390391E-17
 -0.589805981832E-16
  0.346944695195E-16
 -0.624500451352E-16
 -0.763278329430E-16
  0.156125112838E-16
 -0.902056207508E-16
  0.138777878078E-16
  0.832667268469E-16
 -0.485722573274E-16
  0.485722573274E-16
 -0.138777878078E-16
 -0.208166817117E-16
  0.104083408559E-15
 -0.104083408559E-15
  0.208166817117E-16
  0.867361737988E-16
  0.138777878078E-16
  0.763278329430E-16
 -0.364291929955E-16
  0.173472347598E-16
 -0.138777878078E-16
 -0.534294830601E-15
 -0.902056207508E-16
  0.346944695195E-17
 -0.867361737988E-16
 -0.228983498829E-15
 -0.693889390391E-17
  0.138777878078E-16
 -0.104083408559E-15
 -0.693889390391E-17
  0.145716771982E-15
 -0.117961196366E-15
  0.416333634234E-16
 -0.485722573274E-16
 -0.693889390391E-17
 -0.111022302463E-15
 -0.971445146547E-16
  0.104083408559E-16
 -0.555111512313E-16
  0.100716386419E-16
  0.346944695195E-17
  0.277555756156E-16
  0.346944695195E-16
  0.249800180541E-15
  0.902056207508E-16
  0.416333634234E-16
  0.555111512313E-16
 -0.105936690177E-16
  0.693889390391E-17
 -0.121430643318E-16
 -0.194289029309E-15
  0.763278329430E-16
  0.128369537222E-15
  0.485722573274E-16
  0.156125112838E-16
  0.138777878078E-16
 -0.693889390391E-16
  0.000000000000E+00
  0.104083408559E-15
 -0.763278329430E-16
  0.104083408559E-16
  0.728583859910E-16
  0.485722573274E-16
  0.624500451352E-16
  0.555111512313E-16
 -0.346944695195E-17
  0.763278329430E-16
 -0.693889390391E-16
  0.313845228420E-16
 -0.555111512313E-16
  0.111022302463E-15
  0.138777878078E-16
 -0.166533453694E-15
 -0.520417042793E-17
  0.180411241502E-15
 -0.416333634234E-16
  0.208166817117E-16
 -0.520417042793E-16
 -0.971445146547E-16
 -0.555111512313E-16
  0.291433543964E-15
  0.277555756156E-16
  0.902056207508E-16
  0.138777878078E-16
 -0.416333634234E-16
  0.121430643318E-15
  0.693889390391E-16
 -0.936750677027E-16
 -0.416333634234E-16
 -0.902056207508E-16
 -0.225514051877E-16
  0.520417042793E-17
 -0.312250225676E-16
  0.201227923213E-15
 -0.121430643318E-16
  0.104083408559E-16
  0.693889390391E-17
  0.277555756156E-16
  0.520417042793E-17
  0.832667268469E-16
  0.104083408559E-15
 -0.104083408559E-15
  0.173472347598E-16
 -0.175641479862E-16
 -0.693889390391E-17
 -0.249800180541E-15
 -0.104083408559E-15
  0.104083408559E-15
  0.346944695195E-16
  0.451028103754E-16
  0.124900090270E-15
 -0.693889390391E-17
  0.208166817117E-16
 -0.138777878078E-16
  0.237180607236E-16
 -0.131838984174E-15
  0.346944695195E-16
 -0.173472347598E-16
 -0.451028103754E-16
 -0.111022302463E-15
  0.398986399475E-16
 -0.416333634234E-16
  0.346944695195E-17
  0.111022302463E-15
 -0.902056207508E-16
 -0.693889390391E-16
  0.693889390391E-17
  0.260208521397E-16
  0.208166817117E-16
 -0.131838984174E-15
 -0.277555756156E-16
  0.277555756156E-16
  0.312250225676E-16
  0.555111512313E-16
 -0.111022302463E-15
 -0.693889390391E-17
  0.763278329430E-16
 -0.381639164715E-16
 -0.971445146547E-16
 -0.266754630241E-16
 -0.277555756156E-16
 -0.416333634234E-16
  0.468375338514E-16
  0.398986399475E-16
 -0.832667268469E-16
  0.346944695195E-16
  0.173472347598E-17
 -0.693889390391E-17
 -0.624500451352E-16
  0.138777878078E-16
  0.114491749414E-15
  0.208166817117E-16
  0.832667268469E-16
 -0.624500451352E-16
 -0.242861286637E-16
 -0.693889390391E-17
  0.208166817117E-16
 -0.235922392733E-15
  0.138777878078E-16
 -0.173472347598E-16
  0.381639164715E-16
 -0.433680868994E-16
 -0.693889390391E-16
 -0.555111512313E-16
 -0.624500451352E-16
 -0.277555756156E-16
  0.329597460436E-16
  0.346944695195E-17
  0.104083408559E-15
  0.104083408559E-16
 -0.104083408559E-15
 -0.277555756156E-16
 -0.121430643318E-16
 -0.589805981832E-16
 -0.693889390391E-16
  0.222044604925E-15
 -0.433680868994E-16
 -0.156125112838E-16
  0.166533453694E-15
  0.693889390391E-17
 -0.296752699115E-16
 -0.416333634234E-16
  0.555111512313E-16
 -0.624500451352E-16
  0.208166817117E-16
  0.284494650060E-15
  0.832667268469E-16
  0.208166817117E-16
  0.312250225676E-16
  0.541535791012E-16
  0.624500451352E-16
  0.111022302463E-15
  0.624500451352E-16
 -0.277555756156E-16
  0.000000000000E+00
  0.797972798949E-16
  0.763278329430E-16
 -0.163064006742E-15
  0.832667268469E-16
  0.520417042793E-16
 -0.485722573274E-16
 -0.124900090270E-15
 -0.797972798949E-16
  0.433680868994E-16
  0.780625564190E-16
  0.555111512313E-16
 -0.416333634234E-16
 -0.589805981832E-16
 -0.111022302463E-15
 -0.117961196366E-15
 -0.277555756156E-16
  0.416333634234E-16
 -0.152655665886E-15
 -0.277555756156E-16
 -0.693889390391E-17
  0.971445146547E-16
 -0.793220249284E-16
 -0.111022302463E-15
 -0.312250225676E-16
 -0.329597460436E-16
 -0.607153216592E-16
 -0.520417042793E-16
  0.277555756156E-16
 -0.693889390391E-17
  0.104083408559E-15
 -0.624500451352E-16
 -0.114491749414E-15
 -0.142247325030E-15
 -0.555111512313E-16
 -0.145716771982E-15
  0.659194920871E-16
 -0.208166817117E-15
  0.111022302463E-15
  0.520417042793E-16
  0.138777878078E-16
  0.858474377138E-16
  0.433680868994E-16
  0.850014503229E-16
 -0.832667268469E-16
  0.104083408559E-16
 -0.659194920871E-16
  0.659194920871E-16
 -0.277555756156E-16
  0.104083408559E-16
 -0.173472347598E-16
  0.902056207508E-16
  0.183880688454E-15
  0.121430643318E-15
  0.633174068732E-16
  0.208166817117E-16
 -0.104083408559E-16
 -0.208166817117E-16
  0.832667268469E-16
  0.728583859910E-16
  0.303576608296E-16
  0.416333634234E-16
 -0.555111512313E-16
  0.693889390391E-17
 -0.797972798949E-16
  0.763278329430E-16
 -0.771951946810E-16
  0.128369537222E-15
 -0.277555756156E-16
 -0.138777878078E-16
 -0.385014127789E-16
 -0.312250225676E-16
 -0.416333634234E-16
 -0.346944695195E-16
 -0.277555756156E-16
 -0.624500451352E-16
 -0.485722573274E-16
 -0.407660016855E-16
 -0.131838984174E-15
  0.902056207508E-16
 -0.364291929955E-16
 -0.173472347598E-16
  0.104083408559E-16
  0.152655665886E-15
  0.763278329430E-16
  0.584307778475E-16
  0.771951946810E-16
 -0.173472347598E-16
  0.797972798949E-16
 -0.451028103754E-16
  0.624500451352E-16
  0.451028103754E-16
  0.451028103754E-16
  0.728583859910E-16
  0.520417042793E-16
  0.100613961607E-15
  0.000000000000E+00
  0.589805981832E-16
  0.138777878078E-16
  0.346944695195E-16
  0.451028103754E-16
 -0.485722573274E-16
  0.902056207508E-16
 -0.208166817117E-16
 -0.936750677027E-16
  0.589805981832E-16
  0.893382590128E-16
 -0.416333634234E-16
  0.277555756156E-16
 -0.260208521397E-16
  0.242861286637E-16
 -0.711236625150E-16
  0.451028103754E-16
 -0.503069808033E-16
  0.277555756156E-16
 -0.381639164715E-16
 -0.416333634234E-16
 -0.338271077815E-16
 -0.702563007771E-16
  0.000000000000E+00
 -0.595604220141E-16
  0.312250225676E-16
 -0.867361737988E-17
 -0.529090660173E-16
  0.104083408559E-16
  0.515059096181E-16
 -0.329597460436E-16
  0.529090660173E-16
 -0.659194920871E-16
  0.277555756156E-16
  0.546437894933E-16
  0.225514051877E-16
  0.190819582357E-16
  0.208166817117E-16
  0.303576608296E-16