# vtk DataFile Version 3.0
MachLine results file. Generated by MachLine, USU AeroLab (c) 2022.
ASCII
DATASET POLYDATA
POINTS                 152 float
  0.100000000000E+01  0.105263157890E+00  0.000000000000E+00
  0.100000000000E+01  0.000000000000E+00  0.000000000000E+00
  0.294663108147E+02  0.105263157890E+00  0.142331554074E+01
  0.294663108147E+02  0.000000000000E+00  0.142331554074E+01
  0.100000000000E+01  0.210526315790E+00  0.000000000000E+00
  0.100000000000E+01  0.105263157890E+00  0.000000000000E+00
  0.294663108147E+02  0.210526315790E+00  0.142331554074E+01
  0.294663108147E+02  0.105263157890E+00  0.142331554074E+01
  0.100000000000E+01  0.315789473680E+00  0.000000000000E+00
  0.100000000000E+01  0.210526315790E+00  0.000000000000E+00
  0.294663108147E+02  0.315789473680E+00  0.142331554074E+01
  0.294663108147E+02  0.210526315790E+00  0.142331554074E+01
  0.100000000000E+01  0.421052631580E+00  0.000000000000E+00
  0.100000000000E+01  0.315789473680E+00  0.000000000000E+00
  0.294663108147E+02  0.421052631580E+00  0.142331554074E+01
  0.294663108147E+02  0.315789473680E+00  0.142331554074E+01
  0.100000000000E+01  0.526315789470E+00  0.000000000000E+00
  0.100000000000E+01  0.421052631580E+00  0.000000000000E+00
  0.294663108147E+02  0.526315789470E+00  0.142331554074E+01
  0.294663108147E+02  0.421052631580E+00  0.142331554074E+01
  0.100000000000E+01  0.631578947370E+00  0.000000000000E+00
  0.100000000000E+01  0.526315789470E+00  0.000000000000E+00
  0.294663108147E+02  0.631578947370E+00  0.142331554074E+01
  0.294663108147E+02  0.526315789470E+00  0.142331554074E+01
  0.100000000000E+01  0.736842105260E+00  0.000000000000E+00
  0.100000000000E+01  0.631578947370E+00  0.000000000000E+00
  0.294663108147E+02  0.736842105260E+00  0.142331554074E+01
  0.294663108147E+02  0.631578947370E+00  0.142331554074E+01
  0.100000000000E+01  0.842105263160E+00  0.000000000000E+00
  0.100000000000E+01  0.736842105260E+00  0.000000000000E+00
  0.294663108147E+02  0.842105263160E+00  0.142331554074E+01
  0.294663108147E+02  0.736842105260E+00  0.142331554074E+01
  0.100000000000E+01  0.947368421050E+00  0.000000000000E+00
  0.100000000000E+01  0.842105263160E+00  0.000000000000E+00
  0.294663108147E+02  0.947368421050E+00  0.142331554074E+01
  0.294663108147E+02  0.842105263160E+00  0.142331554074E+01
  0.100000000000E+01  0.105263157890E+01  0.000000000000E+00
  0.100000000000E+01  0.947368421050E+00  0.000000000000E+00
  0.294663108147E+02  0.105263157890E+01  0.142331554074E+01
  0.294663108147E+02  0.947368421050E+00  0.142331554074E+01
  0.100000000000E+01  0.115789473680E+01  0.000000000000E+00
  0.100000000000E+01  0.105263157890E+01  0.000000000000E+00
  0.294663108147E+02  0.115789473680E+01  0.142331554074E+01
  0.294663108147E+02  0.105263157890E+01  0.142331554074E+01
  0.100000000000E+01  0.126315789470E+01  0.000000000000E+00
  0.100000000000E+01  0.115789473680E+01  0.000000000000E+00
  0.294663108147E+02  0.126315789470E+01  0.142331554074E+01
  0.294663108147E+02  0.115789473680E+01  0.142331554074E+01
  0.100000000000E+01  0.136842105260E+01  0.000000000000E+00
  0.100000000000E+01  0.126315789470E+01  0.000000000000E+00
  0.294663108147E+02  0.136842105260E+01  0.142331554074E+01
  0.294663108147E+02  0.126315789470E+01  0.142331554074E+01
  0.100000000000E+01  0.147368421050E+01  0.000000000000E+00
  0.100000000000E+01  0.136842105260E+01  0.000000000000E+00
  0.294663108147E+02  0.147368421050E+01  0.142331554074E+01
  0.294663108147E+02  0.136842105260E+01  0.142331554074E+01
  0.100000000000E+01  0.157894736840E+01  0.000000000000E+00
  0.100000000000E+01  0.147368421050E+01  0.000000000000E+00
  0.294663108147E+02  0.157894736840E+01  0.142331554074E+01
  0.294663108147E+02  0.147368421050E+01  0.142331554074E+01
  0.100000000000E+01  0.168421052630E+01  0.000000000000E+00
  0.100000000000E+01  0.157894736840E+01  0.000000000000E+00
  0.294663108147E+02  0.168421052630E+01  0.142331554074E+01
  0.294663108147E+02  0.157894736840E+01  0.142331554074E+01
  0.100000000000E+01  0.178947368420E+01  0.000000000000E+00
  0.100000000000E+01  0.168421052630E+01  0.000000000000E+00
  0.294663108147E+02  0.178947368420E+01  0.142331554074E+01
  0.294663108147E+02  0.168421052630E+01  0.142331554074E+01
  0.100000000000E+01  0.189473684210E+01  0.000000000000E+00
  0.100000000000E+01  0.178947368420E+01  0.000000000000E+00
  0.294663108147E+02  0.189473684210E+01  0.142331554074E+01
  0.294663108147E+02  0.178947368420E+01  0.142331554074E+01
  0.100000000000E+01  0.200000000000E+01  0.000000000000E+00
  0.100000000000E+01  0.189473684210E+01  0.000000000000E+00
  0.294663108147E+02  0.200000000000E+01  0.142331554074E+01
  0.294663108147E+02  0.189473684210E+01  0.142331554074E+01
  0.100000000000E+01  0.000000000000E+00  0.000000000000E+00
  0.100000000000E+01 -0.105263157890E+00  0.000000000000E+00
  0.294663108147E+02  0.000000000000E+00  0.142331554074E+01
  0.294663108147E+02 -0.105263157890E+00  0.142331554074E+01
  0.100000000000E+01 -0.105263157890E+00  0.000000000000E+00
  0.100000000000E+01 -0.210526315790E+00  0.000000000000E+00
  0.294663108147E+02 -0.105263157890E+00  0.142331554074E+01
  0.294663108147E+02 -0.210526315790E+00  0.142331554074E+01
  0.100000000000E+01 -0.210526315790E+00  0.000000000000E+00
  0.100000000000E+01 -0.315789473680E+00  0.000000000000E+00
  0.294663108147E+02 -0.210526315790E+00  0.142331554074E+01
  0.294663108147E+02 -0.315789473680E+00  0.142331554074E+01
  0.100000000000E+01 -0.315789473680E+00  0.000000000000E+00
  0.100000000000E+01 -0.421052631580E+00  0.000000000000E+00
  0.294663108147E+02 -0.315789473680E+00  0.142331554074E+01
  0.294663108147E+02 -0.421052631580E+00  0.142331554074E+01
  0.100000000000E+01 -0.421052631580E+00  0.000000000000E+00
  0.100000000000E+01 -0.526315789470E+00  0.000000000000E+00
  0.294663108147E+02 -0.421052631580E+00  0.142331554074E+01
  0.294663108147E+02 -0.526315789470E+00  0.142331554074E+01
  0.100000000000E+01 -0.526315789470E+00  0.000000000000E+00
  0.100000000000E+01 -0.631578947370E+00  0.000000000000E+00
  0.294663108147E+02 -0.526315789470E+00  0.142331554074E+01
  0.294663108147E+02 -0.631578947370E+00  0.142331554074E+01
  0.100000000000E+01 -0.631578947370E+00  0.000000000000E+00
  0.100000000000E+01 -0.736842105260E+00  0.000000000000E+00
  0.294663108147E+02 -0.631578947370E+00  0.142331554074E+01
  0.294663108147E+02 -0.736842105260E+00  0.142331554074E+01
  0.100000000000E+01 -0.736842105260E+00  0.000000000000E+00
  0.100000000000E+01 -0.842105263160E+00  0.000000000000E+00
  0.294663108147E+02 -0.736842105260E+00  0.142331554074E+01
  0.294663108147E+02 -0.842105263160E+00  0.142331554074E+01
  0.100000000000E+01 -0.842105263160E+00  0.000000000000E+00
  0.100000000000E+01 -0.947368421050E+00  0.000000000000E+00
  0.294663108147E+02 -0.842105263160E+00  0.142331554074E+01
  0.294663108147E+02 -0.947368421050E+00  0.142331554074E+01
  0.100000000000E+01 -0.947368421050E+00  0.000000000000E+00
  0.100000000000E+01 -0.105263157890E+01  0.000000000000E+00
  0.294663108147E+02 -0.947368421050E+00  0.142331554074E+01
  0.294663108147E+02 -0.105263157890E+01  0.142331554074E+01
  0.100000000000E+01 -0.105263157890E+01  0.000000000000E+00
  0.100000000000E+01 -0.115789473680E+01  0.000000000000E+00
  0.294663108147E+02 -0.105263157890E+01  0.142331554074E+01
  0.294663108147E+02 -0.115789473680E+01  0.142331554074E+01
  0.100000000000E+01 -0.115789473680E+01  0.000000000000E+00
  0.100000000000E+01 -0.126315789470E+01  0.000000000000E+00
  0.294663108147E+02 -0.115789473680E+01  0.142331554074E+01
  0.294663108147E+02 -0.126315789470E+01  0.142331554074E+01
  0.100000000000E+01 -0.126315789470E+01  0.000000000000E+00
  0.100000000000E+01 -0.136842105260E+01  0.000000000000E+00
  0.294663108147E+02 -0.126315789470E+01  0.142331554074E+01
  0.294663108147E+02 -0.136842105260E+01  0.142331554074E+01
  0.100000000000E+01 -0.136842105260E+01  0.000000000000E+00
  0.100000000000E+01 -0.147368421050E+01  0.000000000000E+00
  0.294663108147E+02 -0.136842105260E+01  0.142331554074E+01
  0.294663108147E+02 -0.147368421050E+01  0.142331554074E+01
  0.100000000000E+01 -0.147368421050E+01  0.000000000000E+00
  0.100000000000E+01 -0.157894736840E+01  0.000000000000E+00
  0.294663108147E+02 -0.147368421050E+01  0.142331554074E+01
  0.294663108147E+02 -0.157894736840E+01  0.142331554074E+01
  0.100000000000E+01 -0.157894736840E+01  0.000000000000E+00
  0.100000000000E+01 -0.168421052630E+01  0.000000000000E+00
  0.294663108147E+02 -0.157894736840E+01  0.142331554074E+01
  0.294663108147E+02 -0.168421052630E+01  0.142331554074E+01
  0.100000000000E+01 -0.168421052630E+01  0.000000000000E+00
  0.100000000000E+01 -0.178947368420E+01  0.000000000000E+00
  0.294663108147E+02 -0.168421052630E+01  0.142331554074E+01
  0.294663108147E+02 -0.178947368420E+01  0.142331554074E+01
  0.100000000000E+01 -0.178947368420E+01  0.000000000000E+00
  0.100000000000E+01 -0.189473684210E+01  0.000000000000E+00
  0.294663108147E+02 -0.178947368420E+01  0.142331554074E+01
  0.294663108147E+02 -0.189473684210E+01  0.142331554074E+01
  0.100000000000E+01 -0.189473684210E+01  0.000000000000E+00
  0.100000000000E+01 -0.200000000000E+01  0.000000000000E+00
  0.294663108147E+02 -0.189473684210E+01  0.142331554074E+01
  0.294663108147E+02 -0.200000000000E+01  0.142331554074E+01
POLYGONS                  76                 304
3                   0                   3                   1
3                   0                   2                   3
3                   4                   7                   5
3                   4                   6                   7
3                   8                  11                   9
3                   8                  10                  11
3                  12                  15                  13
3                  12                  14                  15
3                  16                  19                  17
3                  16                  18                  19
3                  20                  23                  21
3                  20                  22                  23
3                  24                  27                  25
3                  24                  26                  27
3                  28                  31                  29
3                  28                  30                  31
3                  32                  35                  33
3                  32                  34                  35
3                  36                  39                  37
3                  36                  38                  39
3                  40                  43                  41
3                  40                  42                  43
3                  44                  47                  45
3                  44                  46                  47
3                  48                  51                  49
3                  48                  50                  51
3                  52                  55                  53
3                  52                  54                  55
3                  56                  59                  57
3                  56                  58                  59
3                  60                  63                  61
3                  60                  62                  63
3                  64                  67                  65
3                  64                  66                  67
3                  68                  71                  69
3                  68                  70                  71
3                  72                  75                  73
3                  72                  74                  75
3                  76                  79                  77
3                  76                  78                  79
3                  80                  83                  81
3                  80                  82                  83
3                  84                  87                  85
3                  84                  86                  87
3                  88                  91                  89
3                  88                  90                  91
3                  92                  95                  93
3                  92                  94                  95
3                  96                  99                  97
3                  96                  98                  99
3                 100                 103                 101
3                 100                 102                 103
3                 104                 107                 105
3                 104                 106                 107
3                 108                 111                 109
3                 108                 110                 111
3                 112                 115                 113
3                 112                 114                 115
3                 116                 119                 117
3                 116                 118                 119
3                 120                 123                 121
3                 120                 122                 123
3                 124                 127                 125
3                 124                 126                 127
3                 128                 131                 129
3                 128                 130                 131
3                 132                 135                 133
3                 132                 134                 135
3                 136                 139                 137
3                 136                 138                 139
3                 140                 143                 141
3                 140                 142                 143
3                 144                 147                 145
3                 144                 146                 147
3                 148                 151                 149
3                 148                 150                 151
POINT_DATA                 152
SCALARS mu float 1
LOOKUP_TABLE default
 -0.893306235247E-01
 -0.893302922816E-01
 -0.893306235247E-01
 -0.893302922816E-01
 -0.893308740330E-01
 -0.893306235247E-01
 -0.893308740330E-01
 -0.893306235247E-01
 -0.893307351718E-01
 -0.893308740330E-01
 -0.893307351718E-01
 -0.893308740330E-01
 -0.893296497882E-01
 -0.893307351718E-01
 -0.893296497882E-01
 -0.893307351718E-01
 -0.893257019798E-01
 -0.893296497882E-01
 -0.893257019798E-01
 -0.893296497882E-01
 -0.893127525329E-01
 -0.893257019798E-01
 -0.893127525329E-01
 -0.893257019798E-01
 -0.892730674303E-01
 -0.893127525329E-01
 -0.892730674303E-01
 -0.893127525329E-01
 -0.891592803089E-01
 -0.892730674303E-01
 -0.891592803089E-01
 -0.892730674303E-01
 -0.888655057297E-01
 -0.891592803089E-01
 -0.888655057297E-01
 -0.891592803089E-01
 -0.882188049168E-01
 -0.888655057297E-01
 -0.882188049168E-01
 -0.888655057297E-01
 -0.869423565212E-01
 -0.882188049168E-01
 -0.869423565212E-01
 -0.882188049168E-01
 -0.848892479123E-01
 -0.869423565212E-01
 -0.848892479123E-01
 -0.869423565212E-01
 -0.819453934557E-01
 -0.848892479123E-01
 -0.819453934557E-01
 -0.848892479123E-01
 -0.777824992583E-01
 -0.819453934557E-01
 -0.777824992583E-01
 -0.819453934557E-01
 -0.717120920432E-01
 -0.777824992583E-01
 -0.717120920432E-01
 -0.777824992583E-01
 -0.629155124073E-01
 -0.717120920432E-01
 -0.629155124073E-01
 -0.717120920432E-01
 -0.495732035014E-01
 -0.629155124073E-01
 -0.495732035014E-01
 -0.629155124073E-01
 -0.275115444336E-01
 -0.495732035014E-01
 -0.275115444336E-01
 -0.495732035014E-01
  0.000000000000E+00
 -0.275115444336E-01
  0.000000000000E+00
 -0.275115444336E-01
 -0.893302922816E-01
 -0.893306232467E-01
 -0.893302922816E-01
 -0.893306232467E-01
 -0.893306232467E-01
 -0.893308743390E-01
 -0.893306232467E-01
 -0.893308743390E-01
 -0.893308743390E-01
 -0.893307352982E-01
 -0.893308743390E-01
 -0.893307352982E-01
 -0.893307352982E-01
 -0.893296498073E-01
 -0.893307352982E-01
 -0.893296498073E-01
 -0.893296498073E-01
 -0.893257021891E-01
 -0.893296498073E-01
 -0.893257021891E-01
 -0.893257021891E-01
 -0.893127525701E-01
 -0.893257021891E-01
 -0.893127525701E-01
 -0.893127525701E-01
 -0.892730678303E-01
 -0.893127525701E-01
 -0.892730678303E-01
 -0.892730678303E-01
 -0.891592805536E-01
 -0.892730678303E-01
 -0.891592805536E-01
 -0.891592805536E-01
 -0.888655061406E-01
 -0.891592805536E-01
 -0.888655061406E-01
 -0.888655061406E-01
 -0.882188051838E-01
 -0.888655061406E-01
 -0.882188051838E-01
 -0.882188051838E-01
 -0.869423566727E-01
 -0.882188051838E-01
 -0.869423566727E-01
 -0.869423566727E-01
 -0.848892479314E-01
 -0.869423566727E-01
 -0.848892479314E-01
 -0.848892479314E-01
 -0.819453932148E-01
 -0.848892479314E-01
 -0.819453932148E-01
 -0.819453932148E-01
 -0.777824990997E-01
 -0.819453932148E-01
 -0.777824990997E-01
 -0.777824990997E-01
 -0.717120920558E-01
 -0.777824990997E-01
 -0.717120920558E-01
 -0.717120920558E-01
 -0.629155121530E-01
 -0.717120920558E-01
 -0.629155121530E-01
 -0.629155121530E-01
 -0.495732032254E-01
 -0.629155121530E-01
 -0.495732032254E-01
 -0.495732032254E-01
 -0.275115441790E-01
 -0.495732032254E-01
 -0.275115441790E-01
 -0.275115441790E-01
  0.000000000000E+00
 -0.275115441790E-01
  0.000000000000E+00
