# vtk DataFile Version 3.0
MachLine results file. Generated by MachLine, USU AeroLab (c) 2022.
ASCII
DATASET POLYDATA
POINTS                 231 float
  0.100000000000E+01  0.000000000000E+00  0.000000000000E+00
  0.199775405431E+02  0.000000000000E+00  0.948877027157E+00
  0.100000000000E+01  0.105263157890E+00  0.000000000000E+00
  0.199775405431E+02  0.105263157890E+00  0.948877027157E+00
  0.100000000000E+01  0.210526315790E+00  0.000000000000E+00
  0.199775405431E+02  0.210526315790E+00  0.948877027157E+00
  0.100000000000E+01  0.315789473680E+00  0.000000000000E+00
  0.199775405431E+02  0.315789473680E+00  0.948877027157E+00
  0.100000000000E+01  0.421052631580E+00  0.000000000000E+00
  0.199775405431E+02  0.421052631580E+00  0.948877027157E+00
  0.100000000000E+01  0.526315789470E+00  0.000000000000E+00
  0.199775405431E+02  0.526315789470E+00  0.948877027157E+00
  0.100000000000E+01  0.631578947370E+00  0.000000000000E+00
  0.199775405431E+02  0.631578947370E+00  0.948877027157E+00
  0.100000000000E+01  0.736842105260E+00  0.000000000000E+00
  0.199775405431E+02  0.736842105260E+00  0.948877027157E+00
  0.100000000000E+01  0.842105263160E+00  0.000000000000E+00
  0.199775405431E+02  0.842105263160E+00  0.948877027157E+00
  0.100000000000E+01  0.947368421050E+00  0.000000000000E+00
  0.199775405431E+02  0.947368421050E+00  0.948877027157E+00
  0.100000000000E+01  0.105263157890E+01  0.000000000000E+00
  0.199775405431E+02  0.105263157890E+01  0.948877027157E+00
  0.100000000000E+01  0.115789473680E+01  0.000000000000E+00
  0.199775405431E+02  0.115789473680E+01  0.948877027157E+00
  0.100000000000E+01  0.126315789470E+01  0.000000000000E+00
  0.199775405431E+02  0.126315789470E+01  0.948877027157E+00
  0.100000000000E+01  0.136842105260E+01  0.000000000000E+00
  0.199775405431E+02  0.136842105260E+01  0.948877027157E+00
  0.100000000000E+01  0.147368421050E+01  0.000000000000E+00
  0.199775405431E+02  0.147368421050E+01  0.948877027157E+00
  0.100000000000E+01  0.157894736840E+01  0.000000000000E+00
  0.199775405431E+02  0.157894736840E+01  0.948877027157E+00
  0.100000000000E+01  0.168421052630E+01  0.000000000000E+00
  0.199775405431E+02  0.168421052630E+01  0.948877027157E+00
  0.100000000000E+01  0.178947368420E+01  0.000000000000E+00
  0.199775405431E+02  0.178947368420E+01  0.948877027157E+00
  0.100000000000E+01  0.189473684210E+01  0.000000000000E+00
  0.199775405431E+02  0.189473684210E+01  0.948877027157E+00
  0.100000000000E+01  0.200000000000E+01  0.000000000000E+00
  0.199775405431E+02  0.200000000000E+01  0.948877027157E+00
  0.100000000000E+01 -0.105263157890E+00  0.000000000000E+00
  0.199775405431E+02 -0.105263157890E+00  0.948877027157E+00
  0.100000000000E+01 -0.210526315790E+00  0.000000000000E+00
  0.199775405431E+02 -0.210526315790E+00  0.948877027157E+00
  0.100000000000E+01 -0.315789473680E+00  0.000000000000E+00
  0.199775405431E+02 -0.315789473680E+00  0.948877027157E+00
  0.100000000000E+01 -0.421052631580E+00  0.000000000000E+00
  0.199775405431E+02 -0.421052631580E+00  0.948877027157E+00
  0.100000000000E+01 -0.526315789470E+00  0.000000000000E+00
  0.199775405431E+02 -0.526315789470E+00  0.948877027157E+00
  0.100000000000E+01 -0.631578947370E+00  0.000000000000E+00
  0.199775405431E+02 -0.631578947370E+00  0.948877027157E+00
  0.100000000000E+01 -0.736842105260E+00  0.000000000000E+00
  0.199775405431E+02 -0.736842105260E+00  0.948877027157E+00
  0.100000000000E+01 -0.842105263160E+00  0.000000000000E+00
  0.199775405431E+02 -0.842105263160E+00  0.948877027157E+00
  0.100000000000E+01 -0.947368421050E+00  0.000000000000E+00
  0.199775405431E+02 -0.947368421050E+00  0.948877027157E+00
  0.100000000000E+01 -0.105263157890E+01  0.000000000000E+00
  0.199775405431E+02 -0.105263157890E+01  0.948877027157E+00
  0.100000000000E+01 -0.115789473680E+01  0.000000000000E+00
  0.199775405431E+02 -0.115789473680E+01  0.948877027157E+00
  0.100000000000E+01 -0.126315789470E+01  0.000000000000E+00
  0.199775405431E+02 -0.126315789470E+01  0.948877027157E+00
  0.100000000000E+01 -0.136842105260E+01  0.000000000000E+00
  0.199775405431E+02 -0.136842105260E+01  0.948877027157E+00
  0.100000000000E+01 -0.147368421050E+01  0.000000000000E+00
  0.199775405431E+02 -0.147368421050E+01  0.948877027157E+00
  0.100000000000E+01 -0.157894736840E+01  0.000000000000E+00
  0.199775405431E+02 -0.157894736840E+01  0.948877027157E+00
  0.100000000000E+01 -0.168421052630E+01  0.000000000000E+00
  0.199775405431E+02 -0.168421052630E+01  0.948877027157E+00
  0.100000000000E+01 -0.178947368420E+01  0.000000000000E+00
  0.199775405431E+02 -0.178947368420E+01  0.948877027157E+00
  0.100000000000E+01 -0.189473684210E+01  0.000000000000E+00
  0.199775405431E+02 -0.189473684210E+01  0.948877027157E+00
  0.100000000000E+01 -0.200000000000E+01  0.000000000000E+00
  0.199775405431E+02 -0.200000000000E+01  0.948877027157E+00
  0.104887702716E+02  0.526315789450E-01  0.474438513579E+00
  0.104887702716E+02  0.105263157890E+00  0.474438513579E+00
  0.199775405431E+02  0.526315789450E-01  0.948877027157E+00
  0.104887702716E+02  0.000000000000E+00  0.474438513579E+00
  0.100000000000E+01  0.526315789450E-01  0.000000000000E+00
  0.104887702716E+02  0.157894736840E+00  0.474438513579E+00
  0.104887702716E+02  0.210526315790E+00  0.474438513579E+00
  0.199775405431E+02  0.157894736840E+00  0.948877027157E+00
  0.100000000000E+01  0.157894736840E+00  0.000000000000E+00
  0.104887702716E+02  0.263157894735E+00  0.474438513579E+00
  0.104887702716E+02  0.315789473680E+00  0.474438513579E+00
  0.199775405431E+02  0.263157894735E+00  0.948877027157E+00
  0.100000000000E+01  0.263157894735E+00  0.000000000000E+00
  0.104887702716E+02  0.368421052630E+00  0.474438513579E+00
  0.104887702716E+02  0.421052631580E+00  0.474438513579E+00
  0.199775405431E+02  0.368421052630E+00  0.948877027157E+00
  0.100000000000E+01  0.368421052630E+00  0.000000000000E+00
  0.104887702716E+02  0.473684210525E+00  0.474438513579E+00
  0.104887702716E+02  0.526315789470E+00  0.474438513579E+00
  0.199775405431E+02  0.473684210525E+00  0.948877027157E+00
  0.100000000000E+01  0.473684210525E+00  0.000000000000E+00
  0.104887702716E+02  0.578947368420E+00  0.474438513579E+00
  0.104887702716E+02  0.631578947370E+00  0.474438513579E+00
  0.199775405431E+02  0.578947368420E+00  0.948877027157E+00
  0.100000000000E+01  0.578947368420E+00  0.000000000000E+00
  0.104887702716E+02  0.684210526315E+00  0.474438513579E+00
  0.104887702716E+02  0.736842105260E+00  0.474438513579E+00
  0.199775405431E+02  0.684210526315E+00  0.948877027157E+00
  0.100000000000E+01  0.684210526315E+00  0.000000000000E+00
  0.104887702716E+02  0.789473684210E+00  0.474438513579E+00
  0.104887702716E+02  0.842105263160E+00  0.474438513579E+00
  0.199775405431E+02  0.789473684210E+00  0.948877027157E+00
  0.100000000000E+01  0.789473684210E+00  0.000000000000E+00
  0.104887702716E+02  0.894736842105E+00  0.474438513579E+00
  0.104887702716E+02  0.947368421050E+00  0.474438513579E+00
  0.199775405431E+02  0.894736842105E+00  0.948877027157E+00
  0.100000000000E+01  0.894736842105E+00  0.000000000000E+00
  0.104887702716E+02  0.999999999975E+00  0.474438513579E+00
  0.104887702716E+02  0.105263157890E+01  0.474438513579E+00
  0.199775405431E+02  0.999999999975E+00  0.948877027157E+00
  0.100000000000E+01  0.999999999975E+00  0.000000000000E+00
  0.104887702716E+02  0.110526315785E+01  0.474438513579E+00
  0.104887702716E+02  0.115789473680E+01  0.474438513579E+00
  0.199775405431E+02  0.110526315785E+01  0.948877027157E+00
  0.100000000000E+01  0.110526315785E+01  0.000000000000E+00
  0.104887702716E+02  0.121052631575E+01  0.474438513579E+00
  0.104887702716E+02  0.126315789470E+01  0.474438513579E+00
  0.199775405431E+02  0.121052631575E+01  0.948877027157E+00
  0.100000000000E+01  0.121052631575E+01  0.000000000000E+00
  0.104887702716E+02  0.131578947365E+01  0.474438513579E+00
  0.104887702716E+02  0.136842105260E+01  0.474438513579E+00
  0.199775405431E+02  0.131578947365E+01  0.948877027157E+00
  0.100000000000E+01  0.131578947365E+01  0.000000000000E+00
  0.104887702716E+02  0.142105263155E+01  0.474438513579E+00
  0.104887702716E+02  0.147368421050E+01  0.474438513579E+00
  0.199775405431E+02  0.142105263155E+01  0.948877027157E+00
  0.100000000000E+01  0.142105263155E+01  0.000000000000E+00
  0.104887702716E+02  0.152631578945E+01  0.474438513579E+00
  0.104887702716E+02  0.157894736840E+01  0.474438513579E+00
  0.199775405431E+02  0.152631578945E+01  0.948877027157E+00
  0.100000000000E+01  0.152631578945E+01  0.000000000000E+00
  0.104887702716E+02  0.163157894735E+01  0.474438513579E+00
  0.104887702716E+02  0.168421052630E+01  0.474438513579E+00
  0.199775405431E+02  0.163157894735E+01  0.948877027157E+00
  0.100000000000E+01  0.163157894735E+01  0.000000000000E+00
  0.104887702716E+02  0.173684210525E+01  0.474438513579E+00
  0.104887702716E+02  0.178947368420E+01  0.474438513579E+00
  0.199775405431E+02  0.173684210525E+01  0.948877027157E+00
  0.100000000000E+01  0.173684210525E+01  0.000000000000E+00
  0.104887702716E+02  0.184210526315E+01  0.474438513579E+00
  0.104887702716E+02  0.189473684210E+01  0.474438513579E+00
  0.199775405431E+02  0.184210526315E+01  0.948877027157E+00
  0.100000000000E+01  0.184210526315E+01  0.000000000000E+00
  0.104887702716E+02  0.194736842105E+01  0.474438513579E+00
  0.104887702716E+02  0.200000000000E+01  0.474438513579E+00
  0.199775405431E+02  0.194736842105E+01  0.948877027157E+00
  0.100000000000E+01  0.194736842105E+01  0.000000000000E+00
  0.104887702716E+02 -0.526315789450E-01  0.474438513579E+00
  0.199775405431E+02 -0.526315789450E-01  0.948877027157E+00
  0.104887702716E+02 -0.105263157890E+00  0.474438513579E+00
  0.100000000000E+01 -0.526315789450E-01  0.000000000000E+00
  0.104887702716E+02 -0.157894736840E+00  0.474438513579E+00
  0.199775405431E+02 -0.157894736840E+00  0.948877027157E+00
[...]
CELL_DATA                 304
NORMALS normals float
  0.499376169439E-01  0.000000000000E+00 -0.998752338878E+00
  0.499376169439E-01  0.000000000000E+00 -0.998752338878E+00
  0.499376169439E-01  0.000000000000E+00 -0.998752338878E+00
  0.499376169439E-01  0.000000000000E+00 -0.998752338878E+00
  0.499376169439E-01  0.000000000000E+00 -0.998752338878E+00
  0.499376169439E-01  0.000000000000E+00 -0.998752338878E+00
  0.499376169439E-01  0.000000000000E+00 -0.998752338878E+00
  0.499376169439E-01  0.000000000000E+00 -0.998752338878E+00
  0.499376169439E-01  0.000000000000E+00 -0.998752338878E+00
  0.499376169439E-01  0.000000000000E+00 -0.998752338878E+00
  0.499376169439E-01  0.000000000000E+00 -0.998752338878E+00
  0.499376169439E-01  0.000000000000E+00 -0.998752338878E+00
  0.499376169439E-01  0.000000000000E+00 -0.998752338878E+00
  0.499376169439E-01  0.000000000000E+00 -0.998752338878E+00
  0.499376169439E-01  0.000000000000E+00 -0.998752338878E+00
  0.499376169439E-01  0.000000000000E+00 -0.998752338878E+00
  0.499376169439E-01  0.000000000000E+00 -0.998752338878E+00
  0.499376169439E-01  0.000000000000E+00 -0.998752338878E+00
  0.499376169439E-01  0.000000000000E+00 -0.998752338878E+00
  0.499376169439E-01  0.000000000000E+00 -0.998752338878E+00
  0.499376169439E-01  0.000000000000E+00 -0.998752338878E+00
  0.499376169439E-01  0.000000000000E+00 -0.998752338878E+00
  0.499376169439E-01  0.000000000000E+00 -0.998752338878E+00
  0.499376169439E-01  0.000000000000E+00 -0.998752338878E+00
  0.499376169439E-01  0.000000000000E+00 -0.998752338878E+00
  0.499376169439E-01  0.000000000000E+00 -0.998752338878E+00
  0.499376169439E-01  0.000000000000E+00 -0.998752338878E+00
  0.499376169439E-01  0.000000000000E+00 -0.998752338878E+00
  0.499376169439E-01  0.000000000000E+00 -0.998752338878E+00
  0.499376169439E-01  0.000000000000E+00 -0.998752338878E+00
  0.499376169439E-01  0.000000000000E+00 -0.998752338878E+00
  0.499376169439E-01  0.000000000000E+00 -0.998752338878E+00
  0.499376169439E-01  0.000000000000E+00 -0.998752338878E+00
  0.499376169439E-01  0.000000000000E+00 -0.998752338878E+00
  0.499376169439E-01  0.000000000000E+00 -0.998752338878E+00
  0.499376169439E-01  0.000000000000E+00 -0.998752338878E+00
  0.499376169439E-01  0.000000000000E+00 -0.998752338878E+00
  0.499376169439E-01  0.000000000000E+00 -0.998752338878E+00
  0.499376169439E-01  0.000000000000E+00 -0.998752338878E+00
  0.499376169439E-01  0.000000000000E+00 -0.998752338878E+00
  0.499376169439E-01  0.000000000000E+00 -0.998752338878E+00
  0.499376169439E-01  0.000000000000E+00 -0.998752338878E+00
  0.499376169439E-01  0.000000000000E+00 -0.998752338878E+00
  0.499376169439E-01  0.000000000000E+00 -0.998752338878E+00
  0.499376169439E-01  0.000000000000E+00 -0.998752338878E+00
  0.499376169439E-01  0.000000000000E+00 -0.998752338878E+00
  0.499376169439E-01  0.000000000000E+00 -0.998752338878E+00
  0.499376169439E-01  0.000000000000E+00 -0.998752338878E+00
  0.499376169439E-01  0.000000000000E+00 -0.998752338878E+00
  0.499376169439E-01  0.000000000000E+00 -0.998752338878E+00
  0.499376169439E-01  0.000000000000E+00 -0.998752338878E+00
  0.499376169439E-01  0.000000000000E+00 -0.998752338878E+00
  0.499376169439E-01  0.000000000000E+00 -0.998752338878E+00
  0.499376169439E-01  0.000000000000E+00 -0.998752338878E+00
  0.499376169439E-01  0.000000000000E+00 -0.998752338878E+00
  0.499376169439E-01  0.000000000000E+00 -0.998752338878E+00
  0.499376169439E-01  0.000000000000E+00 -0.998752338878E+00
  0.499376169439E-01  0.000000000000E+00 -0.998752338878E+00
  0.499376169439E-01  0.000000000000E+00 -0.998752338878E+00
  0.499376169439E-01  0.000000000000E+00 -0.998752338878E+00
  0.499376169439E-01  0.000000000000E+00 -0.998752338878E+00
  0.499376169439E-01  0.000000000000E+00 -0.998752338878E+00
  0.499376169439E-01  0.000000000000E+00 -0.998752338878E+00
  0.499376169439E-01  0.000000000000E+00 -0.998752338878E+00
  0.499376169439E-01  0.000000000000E+00 -0.998752338878E+00
  0.499376169439E-01  0.000000000000E+00 -0.998752338878E+00
  0.499376169439E-01  0.000000000000E+00 -0.998752338878E+00
  0.499376169439E-01  0.000000000000E+00 -0.998752338878E+00
  0.499376169439E-01  0.000000000000E+00 -0.998752338878E+00
  0.499376169439E-01  0.000000000000E+00 -0.998752338878E+00
  0.499376169439E-01  0.000000000000E+00 -0.998752338878E+00
  0.499376169439E-01  0.000000000000E+00 -0.998752338878E+00
  0.499376169439E-01  0.000000000000E+00 -0.998752338878E+00
  0.499376169439E-01  0.000000000000E+00 -0.998752338878E+00
  0.499376169439E-01  0.000000000000E+00 -0.998752338878E+00
  0.499376169439E-01  0.000000000000E+00 -0.998752338878E+00
  0.499376169439E-01  0.000000000000E+00 -0.998752338878E+00
  0.499376169439E-01  0.000000000000E+00 -0.998752338878E+00
  0.499376169439E-01  0.000000000000E+00 -0.998752338878E+00
  0.499376169439E-01  0.000000000000E+00 -0.998752338878E+00
  0.499376169439E-01  0.000000000000E+00 -0.998752338878E+00
  0.499376169439E-01  0.000000000000E+00 -0.998752338878E+00
  0.499376169439E-01  0.000000000000E+00 -0.998752338878E+00
  0.499376169439E-01  0.000000000000E+00 -0.998752338878E+00
  0.499376169439E-01  0.000000000000E+00 -0.998752338878E+00
  0.499376169439E-01  0.000000000000E+00 -0.998752338878E+00
  0.499376169439E-01  0.000000000000E+00 -0.998752338878E+00
  0.499376169439E-01  0.000000000000E+00 -0.998752338878E+00
  0.499376169439E-01  0.000000000000E+00 -0.998752338878E+00
  0.499376169439E-01  0.000000000000E+00 -0.998752338878E+00
  0.499376169439E-01  0.000000000000E+00 -0.998752338878E+00
  0.499376169439E-01  0.000000000000E+00 -0.998752338878E+00
  0.499376169439E-01  0.000000000000E+00 -0.998752338878E+00
  0.499376169439E-01  0.000000000000E+00 -0.998752338878E+00
  0.499376169439E-01  0.000000000000E+00 -0.998752338878E+00
  0.499376169439E-01  0.000000000000E+00 -0.998752338878E+00
  0.499376169439E-01  0.000000000000E+00 -0.998752338878E+00
  0.499376169439E-01  0.000000000000E+00 -0.998752338878E+00
  0.499376169439E-01  0.000000000000E+00 -0.998752338878E+00
  0.499376169439E-01  0.000000000000E+00 -0.998752338878E+00
  0.499376169439E-01  0.000000000000E+00 -0.998752338878E+00
  0.499376169439E-01  0.000000000000E+00 -0.998752338878E+00
  0.499376169439E-01  0.000000000000E+00 -0.998752338878E+00
  0.499376169439E-01  0.000000000000E+00 -0.998752338878E+00
  0.499376169439E-01  0.000000000000E+00 -0.998752338878E+00
  0.499376169439E-01  0.000000000000E+00 -0.998752338878E+00
  0.499376169439E-01  0.000000000000E+00 -0.998752338878E+00
  0.499376169439E-01  0.000000000000E+00 -0.998752338878E+00
  0.499376169439E-01  0.000000000000E+00 -0.998752338878E+00
  0.499376169439E-01  0.000000000000E+00 -0.998752338878E+00
  0.499376169439E-01  0.000000000000E+00 -0.998752338878E+00
  0.499376169439E-01  0.000000000000E+00 -0.998752338878E+00
  0.499376169439E-01  0.000000000000E+00 -0.998752338878E+00
  0.499376169439E-01  0.000000000000E+00 -0.998752338878E+00
  0.499376169439E-01  0.000000000000E+00 -0.998752338878E+00
  0.499376169439E-01  0.000000000000E+00 -0.998752338878E+00
  0.499376169439E-01  0.000000000000E+00 -0.998752338878E+00
  0.499376169439E-01  0.000000000000E+00 -0.998752338878E+00
  0.499376169439E-01  0.000000000000E+00 -0.998752338878E+00
  0.499376169439E-01  0.000000000000E+00 -0.998752338878E+00
  0.499376169439E-01  0.000000000000E+00 -0.998752338878E+00
  0.499376169439E-01  0.000000000000E+00 -0.998752338878E+00
  0.499376169439E-01  0.000000000000E+00 -0.998752338878E+00
  0.499376169439E-01  0.000000000000E+00 -0.998752338878E+00
  0.499376169439E-01  0.000000000000E+00 -0.998752338878E+00
  0.499376169439E-01  0.000000000000E+00 -0.998752338878E+00
  0.499376169439E-01  0.000000000000E+00 -0.998752338878E+00
  0.499376169439E-01  0.000000000000E+00 -0.998752338878E+00
  0.499376169439E-01  0.000000000000E+00 -0.998752338878E+00
  0.499376169439E-01  0.000000000000E+00 -0.998752338878E+00
  0.499376169439E-01  0.000000000000E+00 -0.998752338878E+00
  0.499376169439E-01  0.000000000000E+00 -0.998752338878E+00
  0.499376169439E-01  0.000000000000E+00 -0.998752338878E+00
  0.499376169439E-01  0.000000000000E+00 -0.998752338878E+00
  0.499376169439E-01  0.000000000000E+00 -0.998752338878E+00
  0.499376169439E-01  0.000000000000E+00 -0.998752338878E+00
  0.499376169439E-01  0.000000000000E+00 -0.998752338878E+00
  0.499376169439E-01  0.000000000000E+00 -0.998752338878E+00
  0.499376169439E-01  0.000000000000E+00 -0.998752338878E+00
  0.499376169439E-01  0.000000000000E+00 -0.998752338878E+00
  0.499376169439E-01  0.000000000000E+00 -0.998752338878E+00
  0.499376169439E-01  0.000000000000E+00 -0.998752338878E+00
  0.499376169439E-01  0.000000000000E+00 -0.998752338878E+00
  0.499376169439E-01  0.000000000000E+00 -0.998752338878E+00
  0.499376169439E-01  0.000000000000E+00 -0.998752338878E+00
  0.499376169439E-01  0.000000000000E+00 -0.998752338878E+00
  0.499376169439E-01  0.000000000000E+00 -0.998752338878E+00
  0.499376169439E-01  0.000000000000E+00 -0.998752338878E+00
  0.499376169439E-01  0.000000000000E+00 -0.998752338878E+00
  0.499376169439E-01  0.000000000000E+00 -0.998752338878E+00
  0.499376169439E-01  0.000000000000E+00 -0.998752338878E+00
  0.499376169439E-01  0.000000000000E+00 -0.998752338878E+00
  0.499376169439E-01  0.000000000000E+00 -0.998752338878E+00
  0.499376169439E-01  0.000000000000E+00 -0.998752338878E+00
  0.499376169439E-01  0.000000000000E+00 -0.998752338878E+00
  0.499376169439E-01  0.000000000000E+00 -0.998752338878E+00
  0.499376169439E-01  0.000000000000E+00 -0.998752338878E+00
  0.499376169439E-01  0.000000000000E+00 -0.998752338878E+00
  0.499376169439E-01  0.000000000000E+00 -0.998752338878E+00
  0.499376169439E-01  0.000000000000E+00 -0.998752338878E+00
  0.499376169439E-01  0.000000000000E+00 -0.998752338878E+00
  0.499376169439E-01  0.000000000000E+00 -0.998752338878E+00
  0.499376169439E-01  0.000000000000E+00 -0.998752338878E+00
  0.499376169439E-01  0.000000000000E+00 -0.998752338878E+00
  0.499376169439E-01  0.000000000000E+00 -0.998752338878E+00
  0.499376169439E-01  0.000000000000E+00 -0.998752338878E+00
  0.499376169439E-01  0.000000000000E+00 -0.998752338878E+00
  0.499376169439E-01  0.000000000000E+00 -0.998752338878E+00
  0.499376169439E-01  0.000000000000E+00 -0.998752338878E+00
  0.499376169439E-01  0.000000000000E+00 -0.998752338878E+00
  0.499376169439E-01  0.000000000000E+00 -0.998752338878E+00
  0.499376169439E-01  0.000000000000E+00 -0.998752338878E+00
  0.499376169439E-01  0.000000000000E+00 -0.998752338878E+00
  0.499376169439E-01  0.000000000000E+00 -0.998752338878E+00
  0.499376169439E-01  0.000000000000E+00 -0.998752338878E+00
  0.499376169439E-01  0.000000000000E+00 -0.998752338878E+00
  0.499376169439E-01  0.000000000000E+00 -0.998752338878E+00
  0.499376169439E-01  0.000000000000E+00 -0.998752338878E+00
  0.499376169439E-01  0.000000000000E+00 -0.998752338878E+00
  0.499376169439E-01  0.000000000000E+00 -0.998752338878E+00
  0.499376169439E-01  0.000000000000E+00 -0.998752338878E+00
  0.499376169439E-01  0.000000000000E+00 -0.998752338878E+00
  0.499376169439E-01  0.000000000000E+00 -0.998752338878E+00
  0.499376169439E-01  0.000000000000E+00 -0.998752338878E+00
  0.499376169439E-01  0.000000000000E+00 -0.998752338878E+00
  0.499376169439E-01  0.000000000000E+00 -0.998752338878E+00
  0.499376169439E-01  0.000000000000E+00 -0.998752338878E+00
  0.499376169439E-01  0.000000000000E+00 -0.998752338878E+00
  0.499376169439E-01  0.000000000000E+00 -0.998752338878E+00
  0.499376169439E-01  0.000000000000E+00 -0.998752338878E+00
  0.499376169439E-01  0.000000000000E+00 -0.998752338878E+00
  0.499376169439E-01  0.000000000000E+00 -0.998752338878E+00
  0.499376169439E-01  0.000000000000E+00 -0.998752338878E+00
  0.499376169439E-01  0.000000000000E+00 -0.998752338878E+00
  0.499376169439E-01  0.000000000000E+00 -0.998752338878E+00
  0.499376169439E-01  0.000000000000E+00 -0.998752338878E+00
  0.499376169439E-01  0.000000000000E+00 -0.998752338878E+00
  0.499376169439E-01  0.000000000000E+00 -0.998752338878E+00
  0.499376169439E-01  0.000000000000E+00 -0.998752338878E+00
  0.499376169439E-01  0.000000000000E+00 -0.998752338878E+00
  0.499376169439E-01  0.000000000000E+00 -0.998752338878E+00
  0.499376169439E-01  0.000000000000E+00 -0.998752338878E+00
  0.499376169439E-01  0.000000000000E+00 -0.998752338878E+00
  0.499376169439E-01  0.000000000000E+00 -0.998752338878E+00
  0.499376169439E-01  0.000000000000E+00 -0.998752338878E+00
  0.499376169439E-01  0.000000000000E+00 -0.998752338878E+00
  0.499376169439E-01  0.000000000000E+00 -0.998752338878E+00
  0.499376169439E-01  0.000000000000E+00 -0.998752338878E+00
  0.499376169439E-01  0.000000000000E+00 -0.998752338878E+00
  0.499376169439E-01  0.000000000000E+00 -0.998752338878E+00
  0.499376169439E-01  0.000000000000E+00 -0.998752338878E+00
  0.499376169439E-01  0.000000000000E+00 -0.998752338878E+00
  0.499376169439E-01  0.000000000000E+00 -0.998752338878E+00
  0.499376169439E-01  0.000000000000E+00 -0.998752338878E+00
  0.499376169439E-01  0.000000000000E+00 -0.998752338878E+00
  0.499376169439E-01  0.000000000000E+00 -0.998752338878E+00
  0.499376169439E-01  0.000000000000E+00 -0.998752338878E+00
  0.499376169439E-01  0.000000000000E+00 -0.998752338878E+00
  0.499376169439E-01  0.000000000000E+00 -0.998752338878E+00
  0.499376169439E-01  0.000000000000E+00 -0.998752338878E+00
  0.499376169439E-01  0.000000000000E+00 -0.998752338878E+00
  0.499376169439E-01  0.000000000000E+00 -0.998752338878E+00
  0.499376169439E-01  0.000000000000E+00 -0.998752338878E+00
  0.499376169439E-01  0.000000000000E+00 -0.998752338878E+00
  0.499376169439E-01  0.000000000000E+00 -0.998752338878E+00
  0.499376169439E-01  0.000000000000E+00 -0.998752338878E+00
  0.499376169439E-01  0.000000000000E+00 -0.998752338878E+00
  0.499376169439E-01  0.000000000000E+00 -0.998752338878E+00
  0.499376169439E-01  0.000000000000E+00 -0.998752338878E+00
  0.499376169439E-01  0.000000000000E+00 -0.998752338878E+00
  0.499376169439E-01  0.000000000000E+00 -0.998752338878E+00
  0.499376169439E-01  0.000000000000E+00 -0.998752338878E+00
  0.499376169439E-01  0.000000000000E+00 -0.998752338878E+00
  0.499376169439E-01  0.000000000000E+00 -0.998752338878E+00
  0.499376169439E-01  0.000000000000E+00 -0.998752338878E+00
  0.499376169439E-01  0.000000000000E+00 -0.998752338878E+00
  0.499376169439E-01  0.000000000000E+00 -0.998752338878E+00
  0.499376169439E-01  0.000000000000E+00 -0.998752338878E+00
  0.499376169439E-01  0.000000000000E+00 -0.998752338878E+00
  0.499376169439E-01  0.000000000000E+00 -0.998752338878E+00
  0.499376169439E-01  0.000000000000E+00 -0.998752338878E+00
  0.499376169439E-01  0.000000000000E+00 -0.998752338878E+00
  0.499376169439E-01  0.000000000000E+00 -0.998752338878E+00
  0.499376169439E-01  0.000000000000E+00 -0.998752338878E+00
  0.499376169439E-01  0.000000000000E+00 -0.998752338878E+00
  0.499376169439E-01  0.000000000000E+00 -0.998752338878E+00
  0.499376169439E-01  0.000000000000E+00 -0.998752338878E+00
  0.499376169439E-01  0.000000000000E+00 -0.998752338878E+00
  0.499376169439E-01  0.000000000000E+00 -0.998752338878E+00
  0.499376169439E-01  0.000000000000E+00 -0.998752338878E+00
  0.499376169439E-01  0.000000000000E+00 -0.998752338878E+00
  0.499376169439E-01  0.000000000000E+00 -0.998752338878E+00
  0.499376169439E-01  0.000000000000E+00 -0.998752338878E+00
  0.499376169439E-01  0.000000000000E+00 -0.998752338878E+00
  0.499376169439E-01  0.000000000000E+00 -0.998752338878E+00
  0.499376169439E-01  0.000000000000E+00 -0.998752338878E+00
  0.499376169439E-01  0.000000000000E+00 -0.998752338878E+00
  0.499376169439E-01  0.000000000000E+00 -0.998752338878E+00
  0.499376169439E-01  0.000000000000E+00 -0.998752338878E+00
  0.499376169439E-01  0.000000000000E+00 -0.998752338878E+00
  0.499376169439E-01  0.000000000000E+00 -0.998752338878E+00
  0.499376169439E-01  0.000000000000E+00 -0.998752338878E+00
  0.499376169439E-01  0.000000000000E+00 -0.998752338878E+00
  0.499376169439E-01  0.000000000000E+00 -0.998752338878E+00
  0.499376169439E-01  0.000000000000E+00 -0.998752338878E+00
  0.499376169439E-01  0.000000000000E+00 -0.998752338878E+00
  0.499376169439E-01  0.000000000000E+00 -0.998752338878E+00
  0.499376169439E-01  0.000000000000E+00 -0.998752338878E+00
  0.499376169439E-01  0.000000000000E+00 -0.998752338878E+00
  0.499376169439E-01  0.000000000000E+00 -0.998752338878E+00
  0.499376169439E-01  0.000000000000E+00 -0.998752338878E+00
  0.499376169439E-01  0.000000000000E+00 -0.998752338878E+00
  0.499376169439E-01  0.000000000000E+00 -0.998752338878E+00
  0.499376169439E-01  0.000000000000E+00 -0.998752338878E+00
  0.499376169439E-01  0.000000000000E+00 -0.998752338878E+00
  0.499376169439E-01  0.000000000000E+00 -0.998752338878E+00
  0.499376169439E-01  0.000000000000E+00 -0.998752338878E+00
  0.499376169439E-01  0.000000000000E+00 -0.998752338878E+00
  0.499376169439E-01  0.000000000000E+00 -0.998752338878E+00
  0.499376169439E-01  0.000000000000E+00 -0.998752338878E+00
  0.499376169439E-01  0.000000000000E+00 -0.998752338878E+00
  0.499376169439E-01  0.000000000000E+00 -0.998752338878E+00
  0.499376169439E-01  0.000000000000E+00 -0.998752338878E+00
  0.499376169439E-01  0.000000000000E+00 -0.998752338878E+00
  0.499376169439E-01  0.000000000000E+00 -0.998752338878E+00
  0.499376169439E-01  0.000000000000E+00 -0.998752338878E+00
  0.499376169439E-01  0.000000000000E+00 -0.998752338878E+00
  0.499376169439E-01  0.000000000000E+00 -0.998752338878E+00
  0.499376169439E-01  0.000000000000E+00 -0.998752338878E+00
  0.499376169439E-01  0.000000000000E+00 -0.998752338878E+00
  0.499376169439E-01  0.000000000000E+00 -0.998752338878E+00
  0.499376169439E-01  0.000000000000E+00 -0.998752338878E+00
  0.499376169439E-01  0.000000000000E+00 -0.998752338878E+00
  0.499376169439E-01  0.000000000000E+00 -0.998752338878E+00
  0.499376169439E-01  0.000000000000E+00 -0.998752338878E+00
  0.499376169439E-01  0.000000000000E+00 -0.998752338878E+00
  0.499376169439E-01  0.000000000000E+00 -0.998752338878E+00
  0.499376169439E-01  0.000000000000E+00 -0.998752338878E+00
  0.499376169439E-01  0.000000000000E+00 -0.998752338878E+00
  0.499376169439E-01  0.000000000000E+00 -0.998752338878E+00
  0.499376169439E-01  0.000000000000E+00 -0.998752338878E+00
  0.499376169439E-01  0.000000000000E+00 -0.998752338878E+00
  0.499376169439E-01  0.000000000000E+00 -0.998752338878E+00
  0.499376169439E-01  0.000000000000E+00 -0.998752338878E+00
POINT_DATA                 231
SCALARS mu float 1
LOOKUP_TABLE default
 -0.561396592812E-01
 -0.561396592812E-01
 -0.561397141774E-01
 -0.561397141774E-01
 -0.561395108815E-01
 -0.561395108815E-01
 -0.561398848382E-01
 -0.561398848382E-01
 -0.561395871998E-01
 -0.561395871998E-01
 -0.561393458574E-01
 -0.561393458574E-01
 -0.561398680336E-01
 -0.561398680336E-01
 -0.561397059664E-01
 -0.561397059664E-01
 -0.561395472861E-01
 -0.561395472861E-01
 -0.561394934589E-01
 -0.561394934589E-01
 -0.561395707723E-01
 -0.561395707723E-01
 -0.561398280387E-01
 -0.561398280387E-01
 -0.561339621903E-01
 -0.561339621903E-01
 -0.561982875323E-01
 -0.561982875323E-01
 -0.557685117352E-01
 -0.557685117352E-01
 -0.540926984649E-01
 -0.540926984649E-01
 -0.507634252050E-01
 -0.507634252050E-01
 -0.450913108367E-01
 -0.450913108367E-01
 -0.352639162950E-01
 -0.352639162950E-01
  0.000000000000E+00
  0.000000000000E+00
 -0.561397153158E-01
 -0.561397153158E-01
 -0.561395086163E-01
 -0.561395086163E-01
 -0.561398854772E-01
 -0.561398854772E-01
 -0.561395854526E-01
 -0.561395854526E-01
 -0.561393476317E-01
 -0.561393476317E-01
 -0.561398668119E-01
 -0.561398668119E-01
 -0.561397049869E-01
 -0.561397049869E-01
 -0.561395448162E-01
 -0.561395448162E-01
 -0.561394953899E-01
 -0.561394953899E-01
 -0.561395700741E-01
 -0.561395700741E-01
 -0.561398268875E-01
 -0.561398268875E-01
 -0.561339643237E-01