# vtk DataFile Version 3.0
TriPan results file. Generated by TriPan, USU AeroLab (c) 2021.
ASCII
DATASET POLYDATA
POINTS                6596 float
  0.442217500788E-06  0.000000000000E+00  0.000000000000E+00
  0.405281358823E-06  0.510472208261E-01  0.000000000000E+00
  0.411152354790E-06  0.102911889553E+00  0.872902512857E-22
  0.416882776616E-06  0.155575945973E+00 -0.885068561656E-22
  0.422460026240E-06  0.209019616246E+00  0.000000000000E+00
  0.427871589022E-06  0.263221412897E+00  0.000000000000E+00
  0.433104898144E-06  0.318158149719E+00  0.000000000000E+00
  0.438147524731E-06  0.373804926872E+00  0.000000000000E+00
  0.442987504719E-06  0.430135160685E+00  0.000000000000E+00
  0.447613013239E-06  0.487120658159E+00  0.000000000000E+00
  0.452012554380E-06  0.544731616974E+00  0.000000000000E+00
  0.456174581133E-06  0.602936685085E+00  0.000000000000E+00
  0.460088800289E-06  0.661702930927E+00  0.000000000000E+00
  0.463744869311E-06  0.720996081829E+00  0.000000000000E+00
  0.467133264232E-06  0.780780434608E+00  0.000000000000E+00
  0.470244139289E-06  0.841019034386E+00  0.000000000000E+00
  0.473070045379E-06  0.901673555374E+00  0.000000000000E+00
  0.475602778812E-06  0.962704777718E+00  0.000000000000E+00
  0.477834899007E-06  0.102407228947E+01  0.101447378135E-21
  0.479761365430E-06  0.108573472500E+01  0.000000000000E+00
  0.481375837876E-06  0.114765012264E+01  0.000000000000E+00
  0.482673283422E-06  0.120977556705E+01  0.102474597818E-21
  0.483651941127E-06  0.127206754684E+01  0.000000000000E+00
  0.484307009623E-06  0.133448243141E+01  0.000000000000E+00
  0.484637605100E-06  0.139697575569E+01  0.000000000000E+00
  0.484642636774E-06  0.145950317383E+01  0.000000000000E+00
  0.484322321582E-06  0.152202010155E+01  0.000000000000E+00
  0.483676883159E-06  0.158448207378E+01  0.000000000000E+00
  0.482708942840E-06  0.164684462547E+01  0.000000000000E+00
  0.481420693932E-06  0.170906376839E+01  0.000000000000E+00
  0.479815856001E-06  0.177109575272E+01  0.000000000000E+00
  0.477899461189E-06  0.183289742470E+01  0.000000000000E+00
  0.475676110886E-06  0.189442634583E+01  0.000000000000E+00
  0.473153456920E-06  0.195564067364E+01  0.000000000000E+00
  0.470336329535E-06  0.201649975777E+01  0.000000000000E+00
  0.467233475320E-06  0.207696342468E+01  0.991966286818E-22
  0.463854739235E-06  0.213699293137E+01  0.000000000000E+00
  0.460206487187E-06  0.219655084610E+01 -0.977047545561E-22
  0.456299218526E-06  0.225560045242E+01  0.968752166504E-22
  0.452146489056E-06  0.231410670280E+01  0.000000000000E+00
  0.447753156851E-06  0.237203645706E+01  0.000000000000E+00
  0.443135382439E-06  0.242935681343E+01  0.000000000000E+00
  0.438302389365E-06  0.248603773117E+01  0.930543757347E-22
  0.433265996066E-06  0.254204988480E+01  0.000000000000E+00
  0.428038903824E-06  0.259736585617E+01  0.000000000000E+00
  0.422632074401E-06  0.265195989609E+01  0.000000000000E+00
  0.417061252743E-06  0.270580768585E+01  0.885447477787E-22
  0.411334803334E-06  0.275888729095E+01  0.000000000000E+00
  0.405469770823E-06  0.281117749214E+01  0.000000000000E+00
  0.399474095106E-06  0.286265993118E+01  0.000000000000E+00
  0.393364385008E-06  0.291331672668E+01  0.000000000000E+00
  0.387149888703E-06  0.296313285828E+01  0.000000000000E+00
  0.380845045843E-06  0.301209402084E+01  0.000000000000E+00
  0.374462142822E-06  0.306018829346E+01  0.000000000000E+00
  0.368013021670E-06  0.310740518570E+01  0.000000000000E+00
  0.361506056285E-06  0.315373587608E+01  0.000000000000E+00
  0.354956121335E-06  0.319917249680E+01  0.000000000000E+00
  0.348374204067E-06  0.324370956421E+01  0.739620519259E-22
  0.341770408275E-06  0.328734278679E+01  0.000000000000E+00
  0.335152674425E-06  0.333006930351E+01  0.000000000000E+00
  0.328533269871E-06  0.337188720703E+01  0.000000000000E+00
  0.321922307831E-06  0.341279649734E+01  0.000000000000E+00
  0.315328589531E-06  0.345279836655E+01  0.669462584784E-22
  0.308758319724E-06  0.349189519882E+01  0.000000000000E+00
  0.302222020989E-06  0.353009009361E+01  0.000000000000E+00
  0.295728066839E-06  0.356738781929E+01  0.627849432597E-22
  0.289282222706E-06  0.360379409790E+01  0.000000000000E+00
  0.282889818224E-06  0.363931536674E+01  0.000000000000E+00
  0.276562654846E-06  0.367395877838E+01  0.000000000000E+00
  0.270301768436E-06  0.370773339272E+01  0.000000000000E+00
  0.264112887388E-06  0.374064779282E+01  0.000000000000E+00
  0.258004790129E-06  0.377271175385E+01  0.000000000000E+00
  0.251981081690E-06  0.380393624306E+01  0.534971809931E-22
  0.246042332681E-06  0.383433246613E+01  0.000000000000E+00
  0.240196413157E-06  0.386391162872E+01  0.000000000000E+00
  0.234446072717E-06  0.389268636703E+01  0.497743874308E-22
  0.228794014989E-06  0.392066931725E+01  0.485744197459E-22
  0.223242528645E-06  0.394787359238E+01  0.473958040032E-22
  0.217794746561E-06  0.397431254387E+01  0.000000000000E+00
  0.204439650095E-07  0.399999989277E+01  0.000000000000E+00
  0.674487440727E-02  0.000000000000E+00 -0.589695146935E-03
  0.674487440727E-02  0.000000000000E+00  0.589695146935E-03
  0.674487464234E-02  0.510472208261E-01 -0.589692460104E-03
  0.674487464234E-02  0.510472208261E-01  0.589692460104E-03
  0.674487515650E-02  0.102911889553E+00 -0.589686583258E-03
  0.674487515650E-02  0.102911889553E+00  0.589686583258E-03
  0.674487565870E-02  0.155575945973E+00 -0.589680843086E-03
  0.674487565870E-02  0.155575945973E+00  0.589680843086E-03
  0.674487614784E-02  0.209019616246E+00 -0.589675252146E-03
  0.674487614784E-02  0.209019616246E+00  0.589675252146E-03
  0.674487662284E-02  0.263221412897E+00 -0.589669822937E-03
  0.674487662284E-02  0.263221412897E+00  0.589669822937E-03
  0.674487708259E-02  0.318158149719E+00 -0.589664567955E-03
  0.674487708259E-02  0.318158149719E+00  0.589664567955E-03
  0.674487752601E-02  0.373804926872E+00 -0.589659499643E-03
  0.674487752601E-02  0.373804926872E+00  0.589659499643E-03
  0.674487795204E-02  0.430135160685E+00 -0.589654630059E-03
  0.674487795204E-02  0.430135160685E+00  0.589654630059E-03
  0.674487835966E-02  0.487120658159E+00 -0.589649970988E-03
  0.674487835966E-02  0.487120658159E+00  0.589649970988E-03
  0.674487874784E-02  0.544731616974E+00 -0.589645533995E-03
  0.674487874784E-02  0.544731616974E+00  0.589645533995E-03
  0.674487911560E-02  0.602936685085E+00 -0.589641330534E-03
  0.674487911560E-02  0.602936685085E+00  0.589641330534E-03
  0.674487946199E-02  0.661702930927E+00 -0.589637371295E-03
  0.674487946199E-02  0.661702930927E+00  0.589637371295E-03
  0.674487978612E-02  0.720996081829E+00 -0.589633666425E-03
  0.674487978612E-02  0.720996081829E+00  0.589633666425E-03
  0.674488008714E-02  0.780780434608E+00 -0.589630225740E-03
  0.674488008714E-02  0.780780434608E+00  0.589630225740E-03
  0.674488036421E-02  0.841019034386E+00 -0.589627058835E-03
  0.674488036421E-02  0.841019034386E+00  0.589627058835E-03
  0.674488061660E-02  0.901673555374E+00 -0.589624174001E-03
  0.674488061660E-02  0.901673555374E+00  0.589624174001E-03
  0.674488084365E-02  0.962704777718E+00 -0.589621578873E-03
  0.674488084365E-02  0.962704777718E+00  0.589621578873E-03
  0.674488104466E-02  0.102407228947E+01 -0.589619281299E-03
  0.674488104466E-02  0.102407228947E+01  0.589619281299E-03
  0.674488121914E-02  0.108573472500E+01 -0.589617286954E-03
  0.674488121914E-02  0.108573472500E+01  0.589617286954E-03
  0.674488136660E-02  0.114765012264E+01 -0.589615601507E-03
  0.674488136660E-02  0.114765012264E+01  0.589615601507E-03
  0.674488148653E-02  0.120977556705E+01 -0.589614230625E-03
  0.674488148653E-02  0.120977556705E+01  0.589614230625E-03
  0.674488157872E-02  0.127206754684E+01 -0.589613176930E-03
  0.674488157872E-02  0.127206754684E+01  0.589613176930E-03
  0.674488164285E-02  0.133448243141E+01 -0.589612443909E-03
  0.674488164285E-02  0.133448243141E+01  0.589612443909E-03
  0.674488167870E-02  0.139697575569E+01 -0.589612034177E-03
  0.674488167870E-02  0.139697575569E+01  0.589612034177E-03
  0.674488168622E-02  0.145950317383E+01 -0.589611948173E-03
  0.674488168622E-02  0.145950317383E+01  0.589611948173E-03
  0.674488166539E-02  0.152202010155E+01 -0.589612186332E-03
  0.674488166539E-02  0.152202010155E+01  0.589612186332E-03
  0.674488161623E-02  0.158448207378E+01 -0.589612748217E-03
  0.674488161623E-02  0.158448207378E+01  0.589612748217E-03
  0.674488153890E-02  0.164684462547E+01 -0.589613632084E-03
  0.674488153890E-02  0.164684462547E+01  0.589613632084E-03
  0.674488143363E-02  0.170906376839E+01 -0.589614835316E-03
  0.674488143363E-02  0.170906376839E+01  0.589614835316E-03
  0.674488130069E-02  0.177109575272E+01 -0.589616354857E-03
  0.674488130069E-02  0.177109575272E+01  0.589616354857E-03
  0.674488114049E-02  0.183289742470E+01 -0.589618185914E-03
  0.674488114049E-02  0.183289742470E+01  0.589618185914E-03
  0.674488095346E-02  0.189442634583E+01 -0.589620323685E-03
  0.674488095346E-02  0.189442634583E+01  0.589620323685E-03
  0.674488074017E-02  0.195564067364E+01 -0.589622761630E-03
  0.674488074017E-02  0.195564067364E+01  0.589622761630E-03
  0.674488050115E-02  0.201649975777E+01 -0.589625493639E-03
  0.674488050115E-02  0.201649975777E+01  0.589625493639E-03
  0.674488023701E-02  0.207696342468E+01 -0.589628512730E-03
  0.674488023701E-02  0.207696342468E+01  0.589628512730E-03
  0.674487994864E-02  0.213699293137E+01 -0.589631808878E-03
  0.674487994864E-02  0.213699293137E+01  0.589631808878E-03
  0.674487963667E-02  0.219655084610E+01 -0.589635374659E-03
  0.674487963667E-02  0.219655084610E+01  0.589635374659E-03
  0.674487930188E-02  0.225560045242E+01 -0.589639201342E-03
  0.674487930188E-02  0.225560045242E+01  0.589639201342E-03
  0.674487894541E-02  0.231410670280E+01 -0.589643275858E-03
  0.674487894541E-02  0.231410670280E+01  0.589643275858E-03
  0.674487856794E-02  0.237203645706E+01 -0.589647590332E-03
[...]
POINT_DATA                6596
SCALARS phi float 1
LOOKUP_TABLE default
 -0.827180612553E-24
  0.000000000000E+00
 -0.165436122511E-23
  0.000000000000E+00
  0.827180612553E-24
  0.165436122511E-23
  0.000000000000E+00
  0.000000000000E+00
  0.000000000000E+00
  0.000000000000E+00
 -0.165436122511E-23
  0.165436122511E-23
  0.000000000000E+00
  0.165436122511E-23
  0.000000000000E+00
 -0.496308367532E-23
  0.000000000000E+00
  0.165436122511E-23
  0.000000000000E+00
  0.000000000000E+00
 -0.165436122511E-23
  0.165436122511E-23
  0.000000000000E+00
  0.000000000000E+00
  0.165436122511E-23
 -0.330872245021E-23
 -0.165436122511E-23
  0.000000000000E+00
 -0.165436122511E-23
 -0.165436122511E-23
  0.000000000000E+00
  0.165436122511E-23
 -0.165436122511E-23
  0.000000000000E+00
  0.330872245021E-23
  0.000000000000E+00
  0.000000000000E+00
  0.000000000000E+00
 -0.330872245021E-23
  0.330872245021E-23
  0.000000000000E+00
  0.165436122511E-23
 -0.165436122511E-23
  0.165436122511E-23
  0.000000000000E+00
  0.827180612553E-24
  0.165436122511E-23
  0.165436122511E-23
 -0.827180612553E-24
  0.827180612553E-24
  0.000000000000E+00
  0.000000000000E+00
 -0.827180612553E-24
 -0.827180612553E-24
  0.165436122511E-23
  0.165436122511E-23
 -0.827180612553E-24
 -0.827180612553E-24
 -0.165436122511E-23
 -0.827180612553E-24
  0.827180612553E-24
  0.000000000000E+00
  0.165436122511E-23
 -0.165436122511E-23
  0.827180612553E-24
  0.165436122511E-23
  0.827180612553E-24
  0.000000000000E+00
 -0.827180612553E-24
  0.827180612553E-24
  0.000000000000E+00
  0.827180612553E-24
 -0.827180612553E-24
  0.827180612553E-24
  0.000000000000E+00
  0.000000000000E+00
  0.000000000000E+00
 -0.827180612553E-24
 -0.413590306277E-24
  0.103397576569E-24
  0.135525271561E-19
  0.000000000000E+00
  0.000000000000E+00
  0.000000000000E+00
 -0.135525271561E-19
  0.000000000000E+00
 -0.135525271561E-19
  0.000000000000E+00
  0.000000000000E+00
 -0.135525271561E-19
 -0.271050543121E-19
 -0.271050543121E-19
  0.000000000000E+00
  0.135525271561E-19
  0.406575814682E-19
  0.542101086243E-19
  0.000000000000E+00
  0.000000000000E+00
 -0.135525271561E-19
 -0.135525271561E-19
  0.135525271561E-19
  0.271050543121E-19
 -0.135525271561E-19
 -0.271050543121E-19
  0.000000000000E+00
 -0.135525271561E-19
 -0.271050543121E-19
 -0.406575814682E-19
 -0.271050543121E-19
  0.000000000000E+00
  0.000000000000E+00
  0.135525271561E-19
  0.000000000000E+00
  0.135525271561E-19
 -0.135525271561E-19
 -0.271050543121E-19
  0.135525271561E-19
  0.000000000000E+00
  0.135525271561E-19
  0.406575814682E-19
 -0.271050543121E-19
  0.000000000000E+00
 -0.406575814682E-19
 -0.271050543121E-19
  0.000000000000E+00
 -0.135525271561E-19
 -0.271050543121E-19
 -0.271050543121E-19
 -0.135525271561E-19
 -0.135525271561E-19
  0.000000000000E+00
  0.135525271561E-19
 -0.271050543121E-19
 -0.271050543121E-19
 -0.135525271561E-19
 -0.271050543121E-19
 -0.271050543121E-19
 -0.135525271561E-19
  0.542101086243E-19
  0.406575814682E-19
  0.000000000000E+00
  0.000000000000E+00
  0.135525271561E-19
  0.135525271561E-19
 -0.135525271561E-19
 -0.135525271561E-19
  0.000000000000E+00
  0.000000000000E+00
  0.000000000000E+00
  0.000000000000E+00
 -0.135525271561E-19
  0.000000000000E+00
 -0.135525271561E-19
 -0.271050543121E-19
  0.000000000000E+00
  0.000000000000E+00
  0.000000000000E+00
  0.000000000000E+00
  0.271050543121E-19
  0.135525271561E-19
  0.000000000000E+00
  0.000000000000E+00
 -0.271050543121E-19
 -0.135525271561E-19
  0.271050543121E-19
  0.271050543121E-19
  0.135525271561E-19
  0.135525271561E-19
  0.271050543121E-19
  0.406575814682E-19
 -0.271050543121E-19
 -0.406575814682E-19
 -0.135525271561E-19
  0.000000000000E+00
  0.271050543121E-19
  0.271050543121E-19
  0.135525271561E-19
  0.271050543121E-19
  0.271050543121E-19
  0.000000000000E+00
 -0.135525271561E-19
  0.271050543121E-19
 -0.271050543121E-19
 -0.406575814682E-19
 -0.135525271561E-19
  0.000000000000E+00
  0.271050543121E-19
  0.271050543121E-19
  0.000000000000E+00
  0.000000000000E+00
  0.271050543121E-19
  0.271050543121E-19
  0.135525271561E-19
  0.135525271561E-19
 -0.135525271561E-19
 -0.271050543121E-19
  0.000000000000E+00
  0.000000000000E+00
  0.135525271561E-19
  0.135525271561E-19
  0.271050543121E-19
  0.000000000000E+00
 -0.135525271561E-19
  0.000000000000E+00
  0.271050543121E-19
  0.271050543121E-19
  0.135525271561E-19
  0.000000000000E+00
  0.271050543121E-19
  0.135525271561E-19
  0.135525271561E-19
  0.000000000000E+00
  0.000000000000E+00
  0.000000000000E+00
 -0.271050543121E-19
 -0.406575814682E-19
  0.271050543121E-19
  0.271050543121E-19
  0.135525271561E-19
  0.135525271561E-19
  0.000000000000E+00
 -0.135525271561E-19
  0.135525271561E-19
  0.000000000000E+00
 -0.271050543121E-19
 -0.135525271561E-19
  0.135525271561E-19
 -0.135525271561E-19
  0.271050543121E-19
  0.271050543121E-19
  0.271050543121E-19
 -0.135525271561E-19
 -0.271050543121E-19
 -0.135525271561E-19
  0.271050543121E-19
  0.135525271561E-19
 -0.271050543121E-19
 -0.271050543121E-19
 -0.135525271561E-19
  0.135525271561E-19
  0.714600059212E-06
  0.372666646583E-06
 -0.159295675062E-07
  0.542101086243E-19
 -0.162630325873E-18
  0.108420217249E-18
 -0.542101086243E-19
  0.108420217249E-18
  0.000000000000E+00
 -0.542101086243E-19
  0.542101086243E-19
  0.542101086243E-19
  0.108420217249E-18
  0.000000000000E+00
 -0.216840434497E-18
  0.108420217249E-18
 -0.108420217249E-18
  0.000000000000E+00
 -0.542101086243E-19
  0.000000000000E+00
 -0.542101086243E-19
  0.108420217249E-18
 -0.542101086243E-19
  0.000000000000E+00
 -0.162630325873E-18
 -0.542101086243E-19
 -0.108420217249E-18
  0.000000000000E+00
  0.000000000000E+00
  0.542101086243E-19
  0.108420217249E-18
  0.108420217249E-18
  0.108420217249E-18
  0.542101086243E-19
  0.000000000000E+00
  0.108420217249E-18
  0.542101086243E-19
  0.000000000000E+00
  0.162630325873E-18
 -0.162630325873E-18
  0.000000000000E+00
 -0.542101086243E-19
 -0.108420217249E-18
  0.542101086243E-19
  0.542101086243E-19
 -0.542101086243E-19
  0.000000000000E+00
  0.162630325873E-18
  0.542101086243E-19
 -0.542101086243E-19
 -0.162630325873E-18
  0.542101086243E-19
  0.108420217249E-18
  0.542101086243E-19
 -0.108420217249E-18
 -0.108420217249E-18
  0.542101086243E-19
  0.542101086243E-19
  0.000000000000E+00
  0.108420217249E-18
  0.542101086243E-19
  0.000000000000E+00
 -0.542101086243E-19
  0.000000000000E+00
 -0.542101086243E-19
  0.000000000000E+00
  0.542101086243E-19
 -0.542101086243E-19
 -0.108420217249E-18
 -0.542101086243E-19
  0.000000000000E+00
  0.542101086243E-19
 -0.162630325873E-18
  0.000000000000E+00
  0.542101086243E-19
 -0.108420217249E-18
 -0.542101086243E-19
  0.108420217249E-18
 -0.542101086243E-19
 -0.542101086243E-19
  0.542101086243E-19
  0.000000000000E+00
 -0.542101086243E-19
  0.108420217249E-18
 -0.542101086243E-19
 -0.162630325873E-18
 -0.542101086243E-19
  0.000000000000E+00
  0.000000000000E+00
  0.108420217249E-18
  0.108420217249E-18
 -0.108420217249E-18
 -0.108420217249E-18
  0.108420217249E-18
  0.542101086243E-19
 -0.542101086243E-19
  0.000000000000E+00
  0.216840434497E-18
  0.000000000000E+00
  0.542101086243E-19
  0.542101086243E-19
  0.000000000000E+00
  0.000000000000E+00
  0.000000000000E+00
 -0.542101086243E-19
 -0.542101086243E-19
 -0.108420217249E-18
 -0.542101086243E-19
  0.000000000000E+00
  0.000000000000E+00
 -0.108420217249E-18
 -0.542101086243E-19
  0.000000000000E+00
  0.542101086243E-19
  0.000000000000E+00
  0.000000000000E+00
 -0.542101086243E-19
  0.108420217249E-18
  0.542101086243E-19
  0.000000000000E+00
  0.000000000000E+00
  0.000000000000E+00
 -0.162630325873E-18
  0.542101086243E-19
  0.000000000000E+00
  0.542101086243E-19
  0.000000000000E+00
  0.000000000000E+00
 -0.108420217249E-18
  0.542101086243E-19
  0.542101086243E-19
  0.000000000000E+00
  0.000000000000E+00
  0.000000000000E+00
 -0.108420217249E-18
  0.000000000000E+00
 -0.542101086243E-19
  0.000000000000E+00
  0.542101086243E-19
 -0.108420217249E-18
 -0.542101086243E-19
  0.108420217249E-18
  0.162630325873E-18
 -0.216840434497E-18
  0.542101086243E-19
  0.000000000000E+00
  0.000000000000E+00
  0.542101086243E-19
  0.000000000000E+00
  0.000000000000E+00
  0.000000000000E+00
  0.542101086243E-19
  0.000000000000E+00
 -0.542101086243E-19
 -0.542101086243E-19
 -0.162630325873E-18
  0.542101086243E-19
  0.542101086243E-19
 -0.108420217249E-18
 -0.542101086243E-19
  0.108420217249E-18
  0.542101086243E-19
  0.000000000000E+00
  0.184682263731E-06
 -0.542101086243E-19
 -0.542101086243E-19
 -0.216840434497E-18
 -0.108420217249E-18
 -0.542101086243E-19
  0.000000000000E+00
 -0.325260651746E-18
 -0.108420217249E-18
  0.379470760370E-18
 -0.216840434497E-18
  0.216840434497E-18
  0.542101086243E-19
  0.542101086243E-19
 -0.162630325873E-18
  0.162630325873E-18
 -0.108420217249E-18
 -0.108420217249E-18
  0.000000000000E+00
  0.000000000000E+00
 -0.271050543121E-18
 -0.162630325873E-18
 -0.542101086243E-19
 -0.216840434497E-18
  0.542101086243E-19
  0.000000000000E+00
  0.000000000000E+00
 -0.325260651746E-18
 -0.325260651746E-18
  0.433680868994E-18
  0.542101086243E-19
  0.542101086243E-19
  0.000000000000E+00
 -0.271050543121E-18
  0.000000000000E+00
 -0.271050543121E-18
  0.162630325873E-18
  0.108420217249E-18
 -0.542101086243E-19
  0.216840434497E-18
  0.542101086243E-19
  0.596311194867E-18
 -0.542101086243E-19
  0.650521303491E-18
  0.108420217249E-18
  0.108420217249E-18
 -0.542101086243E-19
 -0.325260651746E-18
  0.108420217249E-18
  0.542101086243E-19
 -0.162630325873E-18
  0.325260651746E-18
  0.271050543121E-18
 -0.542101086243E-19
 -0.162630325873E-18
 -0.162630325873E-18
 -0.271050543121E-18
  0.325260651746E-18
  0.162630325873E-18
  0.271050543121E-18
  0.000000000000E+00
  0.216840434497E-18
 -0.162630325873E-18
 -0.216840434497E-18
 -0.325260651746E-18
 -0.162630325873E-18
  0.271050543121E-18
 -0.108420217249E-18
 -0.108420217249E-18
  0.487890977618E-18
  0.216840434497E-18
 -0.216840434497E-18
  0.216840434497E-18
 -0.162630325873E-18
 -0.162630325873E-18
  0.542101086243E-18
  0.216840434497E-18
  0.325260651746E-18
  0.542101086243E-19
  0.487890977618E-18
  0.108420217249E-18
  0.542101086243E-19
 -0.108420217249E-18
 -0.542101086243E-19
 -0.325260651746E-18
 -0.216840434497E-18
 -0.542101086243E-19
  0.108420217249E-18
 -0.542101086243E-19
  0.325260651746E-18
  0.000000000000E+00
 -0.108420217249E-18
 -0.108420217249E-18
 -0.650521303491E-18
 -0.542101086243E-19
 -0.108420217249E-18
 -0.271050543121E-18
 -0.650521303491E-18
  0.162630325873E-18
  0.542101086243E-18
  0.542101086243E-19
 -0.271050543121E-18
 -0.108420217249E-18
  0.542101086243E-18
 -0.108420217249E-18
 -0.379470760370E-18
  0.542101086243E-19
 -0.162630325873E-18
 -0.108420217249E-18
  0.000000000000E+00
  0.000000000000E+00
  0.000000000000E+00
  0.000000000000E+00
  0.433680868994E-18
 -0.542101086243E-19
 -0.108420217249E-18
  0.000000000000E+00
 -0.487890977618E-18
  0.000000000000E+00
 -0.108420217249E-18
 -0.108420217249E-18
 -0.216840434497E-18
  0.000000000000E+00
  0.000000000000E+00
 -0.162630325873E-18
 -0.379470760370E-18
  0.162630325873E-18
  0.325260651746E-18
 -0.216840434497E-18
 -0.108420217249E-18
  0.000000000000E+00
 -0.433680868994E-18
 -0.216840434497E-18
 -0.542101086243E-19
  0.000000000000E+00
  0.216840434497E-18
  0.433680868994E-18
 -0.650521303491E-18
 -0.813151629364E-18
  0.487890977618E-18
 -0.650521303491E-18
 -0.379470760370E-18
 -0.325260651746E-18
 -0.596311194867E-18
 -0.542101086243E-18
 -0.704731412116E-18
  0.325260651746E-18
 -0.704731412116E-18
 -0.102999206386E-17
  0.314418630021E-17
  0.216840434497E-18
 -0.137693675906E-16
 -0.120888542232E-16
  0.576687135545E-15
 -0.141542593618E-15
 -0.100621008921E-13
  0.592245436720E-15
  0.723698987022E-13
 -0.341680188917E-12
 -0.650363861073E-11
  0.375197540137E-12
  0.623831672084E-11
  0.108420217249E-18
 -0.146326945515E-10
 -0.267100966995E-10
 -0.712296483897E-07
  0.181715753556E-12
 -0.216840434497E-18
  0.495822966018E-10
 -0.433680868994E-18
  0.199176383936E-10
  0.325260651746E-18
 -0.349373149768E-10
  0.542101086243E-18
  0.337979497904E-10
 -0.758941520740E-18
 -0.811652110539E-10
  0.216840434497E-18
  0.494047749759E-10
  0.000000000000E+00
 -0.434773719847E-10
  0.000000000000E+00
 -0.246212594475E-09
  0.433680868994E-18
  0.254322930445E-09
  0.325260651746E-18
 -0.289841484472E-09
  0.108420217249E-17
  0.126825781539E-09
  0.108420217249E-17
  0.100793323340E-10
  0.325260651746E-18
  0.297288713829E-10
  0.325260651746E-18
  0.157287069653E-10
 -0.433680868994E-18
 -0.119262539297E-10
 -0.433680868994E-18
  0.289711633589E-10
  0.108420217249E-18
 -0.207109602905E-10
 -0.542101086243E-18
 -0.551657172634E-10
 -0.108420217249E-18
 -0.805323006631E-11
  0.216840434497E-18
  0.145264501383E-10
 -0.650521303491E-18
  0.335517909029E-11
  0.216840434497E-18
 -0.276585605547E-10
  0.000000000000E+00
 -0.302705603639E-10
 -0.325260651746E-18
  0.806509958644E-11
 -0.325260651746E-18
  0.246274404949E-10
  0.108420217249E-18
 -0.962418914095E-11
 -0.650521303491E-18
  0.438762133180E-10
  0.216840434497E-18
 -0.316194047941E-10
  0.650521303491E-18
  0.183335182972E-10
 -0.108420217249E-18
 -0.542345768989E-11
  0.650521303491E-18
 -0.704412715224E-10
  0.216840434497E-18
  0.105322828584E-09
  0.108420217249E-18
 -0.136386993929E-09
  0.325260651746E-18
  0.116751614669E-09
  0.108420217249E-18
 -0.426286571147E-10
  0.650521303491E-18
  0.268761122298E-10
 -0.650521303491E-18
 -0.909276235035E-11
  0.108420217249E-18
  0.222460102423E-09
  0.758941520740E-18
 -0.207046718962E-09
 -0.325260651746E-18
  0.282531162094E-09
  0.000000000000E+00
 -0.512825481950E-10
 -0.140946282423E-17
  0.455548166464E-10
 -0.542101086243E-18
  0.716810794749E-10
  0.650521303491E-18
 -0.755972039525E-10
  0.216840434497E-18
  0.244856733522E-09
  0.650521303491E-18
 -0.413949161082E-09
  0.000000000000E+00
  0.315963120359E-09
 -0.650521303491E-18
  0.605305394133E-09
  0.867361737988E-18
 -0.141897139546E-09
  0.542101086243E-18
  0.170153685846E-09
  0.216840434497E-18
 -0.218306307493E-09
  0.000000000000E+00
  0.333951891206E-09
 -0.650521303491E-18
 -0.298906103536E-09
 -0.542101086243E-18
 -0.195096464700E-09
 -0.650521303491E-18
  0.435651813777E-09
 -0.216840434497E-18
 -0.455598193720E-09
 -0.216840434497E-18
 -0.853494124334E-10
  0.325260651746E-18
  0.187368901319E-09
 -0.108420217249E-18
  0.907330138648E-09
  0.108420217249E-18
 -0.384571777526E-09
  0.433680868994E-18
  0.939597778597E-09
 -0.975781955237E-18
  0.111563232827E-09
  0.758941520740E-18
  0.101625636519E-08
  0.325260651746E-18
 -0.401990508372E-09
  0.325260651746E-18
  0.165724650756E-08
 -0.108420217249E-18
  0.925520523935E-10
  0.000000000000E+00
 -0.158922870892E-08
 -0.216840434497E-18
  0.121774194797E-08
 -0.216840434497E-18
  0.443725588065E-09
  0.108420217249E-18
 -0.392667537201E-08
  0.433680868994E-18
 -0.559602816093E-08
 -0.975781955237E-18
  0.576040993334E-09
 -0.758941520740E-18
 -0.655102167402E-08
 -0.823993651089E-17
 -0.617431523801E-08
 -0.918319240095E-16
 -0.557581020884E-08
 -0.858688120609E-16
  0.378416507147E-08
 -0.166367397097E-07
  0.897364120696E-08
  0.209403349695E-12
  0.390230019737E-07
 -0.490738959885E-12
 -0.331405319311E-10
 -0.120006209831E-10
 -0.860925371791E-13
 -0.205502805136E-06
  0.832612662626E-11
  0.108420217249E-18
 -0.288324535254E-09
 -0.108420217249E-18
  0.698785074943E-10
  0.000000000000E+00
  0.227487480893E-10
  0.216840434497E-18
 -0.394591219508E-10
 -0.216840434497E-18
  0.494160568585E-10
  0.433680868994E-18
 -0.972773782099E-10
  0.325260651746E-18
  0.148496136720E-09
  0.108420217249E-18
 -0.843845651992E-10
 -0.433680868994E-18
 -0.966763377252E-10
 -0.216840434497E-18
  0.202640199867E-09
 -0.108420217249E-18
 -0.438815537726E-10
  0.000000000000E+00
  0.159272252180E-09
 -0.216840434497E-18
 -0.696828898836E-10
  0.108420217249E-18
  0.597018718100E-10
  0.000000000000E+00
 -0.104095817036E-09
  0.108420217249E-18
  0.139366178103E-10
 -0.108420217249E-18
  0.230566233423E-10
  0.216840434497E-18
 -0.156314556134E-09
 -0.650521303491E-18
 -0.117654453888E-10
 -0.108420217249E-18
  0.421406876408E-10
 -0.108420217249E-18
  0.949281370741E-10
 -0.758941520740E-18
 -0.122355208647E-10
  0.108420217249E-18
 -0.674362540636E-11
  0.000000000000E+00
  0.961123693653E-11
 -0.433680868994E-18
 -0.232640442284E-10
 -0.108420217249E-18
  0.393001927659E-10
 -0.325260651746E-18
  0.218407345161E-11
 -0.433680868994E-18
  0.148726399035E-10
  0.325260651746E-18
  0.817080116674E-11
 -0.542101086243E-18
  0.868724605056E-10
  0.000000000000E+00
 -0.143973959274E-10
  0.108420217249E-18
 -0.137221306366E-09
 -0.108420217249E-18
  0.139394389911E-09
 -0.542101086243E-18
 -0.749330438194E-10
  0.325260651746E-18
  0.104079596829E-09
  0.325260651746E-18
 -0.628307105779E-10
  0.000000000000E+00
  0.123606101157E-09
  0.108420217249E-18
 -0.603051794699E-10
  0.108420217249E-18
  0.219917039440E-09
 -0.216840434497E-18
 -0.253858088196E-09
 -0.216840434497E-18
  0.613430200624E-09
  0.108420217249E-18
 -0.219259839126E-09
  0.325260651746E-18
 -0.130368792584E-09
  0.216840434497E-18
  0.551231128885E-10
 -0.216840434497E-18
 -0.144599555637E-09
 -0.216840434497E-18
  0.422835478111E-09
 -0.108420217249E-18
 -0.748098682069E-09
  0.216840434497E-18
  0.490878251892E-09
 -0.542101086243E-18
  0.943586937101E-09
  0.216840434497E-18
  0.587465553850E-09
 -0.108420217249E-18
  0.145241360714E-09
 -0.108420217249E-18
 -0.645328224452E-09
 -0.108420217249E-18
  0.440186544875E-09
  0.216840434497E-18
 -0.268547782211E-09
 -0.108420217249E-18
 -0.165791289009E-09
 -0.108420217249E-18
  0.104902954574E-08
 -0.108420217249E-18
 -0.746636577001E-09
 -0.108420217249E-18
  0.253860018944E-10
  0.758941520740E-18
 -0.678389134906E-09
 -0.325260651746E-18
  0.967712420288E-09
 -0.216840434497E-18
 -0.154532237321E-08
 -0.216840434497E-18
  0.181074053646E-09
  0.000000000000E+00
 -0.180484175673E-09
 -0.325260651746E-18
  0.591596654911E-09
  0.000000000000E+00
 -0.898839268423E-09
  0.325260651746E-18
 -0.632268958977E-09
  0.000000000000E+00
  0.151814860336E-08
  0.975781955237E-18
 -0.880482599482E-09
  0.867361737988E-18
  0.243497377795E-08
  0.325260651746E-18
  0.537767218018E-08
 -0.325260651746E-18
 -0.321119606990E-08
 -0.108420217249E-18
 -0.610173320702E-08
  0.650521303491E-18
  0.492964336756E-08
  0.195156391047E-17
  0.188589476479E-08
 -0.867361737988E-18
 -0.343276163463E-09
  0.216840434497E-18
 -0.211991264777E-08
 -0.388794899053E-15
 -0.132912344325E-14
 -0.340234567950E-13
  0.337988064608E-08
  0.861082179952E-11
 -0.313639313312E-06
 -0.176321424909E-11
 -0.510396000637E-11
  0.127725900603E-11
  0.377575054555E-11
  0.123553220241E-07
 -0.650521303491E-18
  0.433680868994E-18
 -0.108420217249E-17
 -0.433680868994E-18
 -0.216840434497E-18
  0.130104260698E-17
  0.216840434497E-18
 -0.173472347598E-17
  0.433680868994E-18
  0.216840434497E-18
  0.000000000000E+00
  0.130104260698E-17
 -0.108420217249E-17
 -0.151788304148E-17
 -0.650521303491E-18
 -0.650521303491E-18
  0.000000000000E+00
  0.867361737988E-18
 -0.433680868994E-18
  0.433680868994E-18
 -0.216840434497E-18
 -0.130104260698E-17
  0.216840434497E-18
  0.216840434497E-18
 -0.130104260698E-17
 -0.433680868994E-18
 -0.433680868994E-18
 -0.650521303491E-18
  0.216840434497E-18
  0.867361737988E-18
  0.433680868994E-18
  0.216840434497E-18
  0.151788304148E-17
 -0.433680868994E-18
  0.000000000000E+00
  0.867361737988E-18
  0.173472347598E-17
  0.000000000000E+00
 -0.650521303491E-18
 -0.650521303491E-18
 -0.216840434497E-18
  0.867361737988E-18
  0.000000000000E+00
 -0.867361737988E-18
  0.216840434497E-18
  0.433680868994E-18
  0.433680868994E-18
 -0.433680868994E-18
 -0.433680868994E-18
  0.130104260698E-17
 -0.216840434497E-18
 -0.216840434497E-18
 -0.867361737988E-18