# vtk DataFile Version 3.0
MachLine results file. Generated by MachLine, USU AeroLab (c) 2022.
ASCII
DATASET POLYDATA
POINTS                 446 float
  0.173045222151E-06  0.000000000000E+00  0.000000000000E+00
  0.163777672222E-06  0.217527970672E+00  0.000000000000E+00
  0.171472410752E-06  0.448061168194E+00  0.000000000000E+00
  0.177693741107E-06  0.689725637436E+00  0.000000000000E+00
  0.182165395985E-06  0.940178275108E+00  0.000000000000E+00
  0.184679072057E-06  0.119668114185E+01  0.000000000000E+00
  0.185114071064E-06  0.145621216297E+01  0.000000000000E+00
  0.183449540272E-06  0.171560299397E+01  0.000000000000E+00
  0.179766332476E-06  0.197169232368E+01  0.000000000000E+00
  0.174239021560E-06  0.222147774696E+01  0.000000000000E+00
  0.167118785558E-06  0.246225214005E+01  0.000000000000E+00
  0.158710745038E-06  0.269171094894E+01  0.000000000000E+00
  0.149347834648E-06  0.290802383423E+01  0.000000000000E+00
  0.139366198567E-06  0.310986590385E+01  0.000000000000E+00
  0.129083986066E-06  0.329641318321E+01  0.000000000000E+00
  0.118785074068E-06  0.346730756760E+01  0.000000000000E+00
  0.108709134239E-06  0.362259936333E+01  0.000000000000E+00
  0.990478698158E-07  0.376267743111E+01  0.000000000000E+00
  0.899437360601E-07  0.388819599152E+01 -0.364699587161E-22
  0.406511339581E-07  0.399999997608E+01  0.000000000000E+00
  0.341100276361E-01  0.000000000000E+00 -0.298407671612E-02
  0.341100276361E-01  0.000000000000E+00  0.298407671612E-02
  0.341100279290E-01  0.217527970672E+00 -0.298407336776E-02
  0.341100279290E-01  0.217527970672E+00  0.298407336776E-02
  0.341100286231E-01  0.448061168194E+00 -0.298406543436E-02
  0.341100286231E-01  0.448061168194E+00  0.298406543436E-02
  0.341100291965E-01  0.689725637436E+00 -0.298405888029E-02
  0.341100291965E-01  0.689725637436E+00  0.298405888029E-02
  0.341100296241E-01  0.940178275108E+00 -0.298405399379E-02
  0.341100296241E-01  0.940178275108E+00  0.298405399379E-02
  0.341100298859E-01  0.119668114185E+01 -0.298405100122E-02
  0.341100298859E-01  0.119668114185E+01  0.298405100122E-02
  0.341100299694E-01  0.145621216297E+01 -0.298405004600E-02
  0.341100299694E-01  0.145621216297E+01  0.298405004600E-02
  0.341100298707E-01  0.171560299397E+01 -0.298405117447E-02
  0.341100298707E-01  0.171560299397E+01  0.298405117447E-02
  0.341100295945E-01  0.197169232368E+01 -0.298405433119E-02
  0.341100295945E-01  0.197169232368E+01  0.298405433119E-02
  0.341100291542E-01  0.222147774696E+01 -0.298405936463E-02
  0.341100291542E-01  0.222147774696E+01  0.298405936463E-02
  0.341100285700E-01  0.246225214005E+01 -0.298406604194E-02
  0.341100285700E-01  0.246225214005E+01  0.298406604194E-02
  0.341100278676E-01  0.269171094894E+01 -0.298407407041E-02
  0.341100278676E-01  0.269171094894E+01  0.298407407041E-02
  0.341100270756E-01  0.290802383423E+01 -0.298408312279E-02
  0.341100270756E-01  0.290802383423E+01  0.298408312279E-02
  0.341100262235E-01  0.310986590385E+01 -0.298409286252E-02
  0.341100262235E-01  0.310986590385E+01  0.298409286252E-02
  0.341100253396E-01  0.329641318321E+01 -0.298410296583E-02
  0.341100253396E-01  0.329641318321E+01  0.298410296583E-02
  0.341100244495E-01  0.346730756760E+01 -0.298411313935E-02
  0.341100244495E-01  0.346730756760E+01  0.298411313935E-02
  0.341100235753E-01  0.362259936333E+01 -0.298412313172E-02
  0.341100235753E-01  0.362259936333E+01  0.298412313172E-02
  0.341100227347E-01  0.376267743111E+01 -0.298413273904E-02
  0.341100227347E-01  0.376267743111E+01  0.298413273904E-02
  0.341100219414E-01  0.388819599152E+01 -0.298414180664E-02
  0.341100219414E-01  0.388819599152E+01  0.298414180664E-02
  0.341100188820E-01  0.399999998751E+01 -0.298417677631E-02
  0.341100188820E-01  0.399999998751E+01  0.298417677631E-02
  0.341100161597E-01  0.400210950524E+01 -0.210973993587E-02
  0.341100161597E-01  0.400210950524E+01  0.210973993587E-02
  0.341100155449E-01  0.400298402237E+01  0.000000000000E+00
  0.937237820251E-01  0.000000000000E+00 -0.819958982230E-02
  0.937237820251E-01  0.000000000000E+00  0.819958982230E-02
  0.937237822043E-01  0.217527970672E+00 -0.819958777352E-02
  0.937237822043E-01  0.217527970672E+00  0.819958777352E-02
  0.937237828870E-01  0.448061168194E+00 -0.819957997074E-02
  0.937237828870E-01  0.448061168194E+00  0.819957997074E-02
  0.937237834518E-01  0.689725637436E+00 -0.819957351471E-02
  0.937237834518E-01  0.689725637436E+00  0.819957351471E-02
  0.937237838735E-01  0.940178275108E+00 -0.819956869519E-02
  0.937237838735E-01  0.940178275108E+00  0.819956869519E-02
  0.937237841320E-01  0.119668114185E+01 -0.819956573966E-02
  0.937237841320E-01  0.119668114185E+01  0.819956573966E-02
  0.937237842149E-01  0.145621216297E+01 -0.819956479220E-02
  0.937237842149E-01  0.145621216297E+01  0.819956479220E-02
  0.937237841181E-01  0.171560299397E+01 -0.819956589928E-02
  0.937237841181E-01  0.171560299397E+01  0.819956589928E-02
  0.937237838463E-01  0.197169232368E+01 -0.819956900519E-02
  0.937237838463E-01  0.197169232368E+01  0.819956900519E-02
  0.937237834131E-01  0.222147774696E+01 -0.819957395760E-02
  0.937237834131E-01  0.222147774696E+01  0.819957395760E-02
  0.937237828387E-01  0.246225214005E+01 -0.819958052245E-02
  0.937237828387E-01  0.246225214005E+01  0.819958052245E-02
  0.937237821490E-01  0.269171094894E+01 -0.819958840549E-02
  0.937237821490E-01  0.269171094894E+01  0.819958840549E-02
  0.937237813728E-01  0.290802383423E+01 -0.819959727769E-02
  0.937237813728E-01  0.290802383423E+01  0.819959727769E-02
  0.937237805397E-01  0.310986590385E+01 -0.819960680067E-02
  0.937237805397E-01  0.310986590385E+01  0.819960680067E-02
  0.937237796780E-01  0.329641318321E+01 -0.819961664901E-02
  0.937237796780E-01  0.329641318321E+01  0.819961664901E-02
  0.937237788137E-01  0.346730756760E+01 -0.819962652818E-02
  0.937237788137E-01  0.346730756760E+01  0.819962652818E-02
  0.937237779687E-01  0.362259936333E+01 -0.819963618659E-02
  0.937237779687E-01  0.362259936333E+01  0.819963618659E-02
  0.937237771608E-01  0.376267743111E+01 -0.819964542147E-02
  0.937237771608E-01  0.376267743111E+01  0.819964542147E-02
  0.937237764032E-01  0.388819599152E+01 -0.819965408104E-02
  0.937237764032E-01  0.388819599152E+01  0.819965408104E-02
  0.937237736199E-01  0.399999998381E+01 -0.819968589373E-02
  0.937237736199E-01  0.399999998381E+01  0.819968589373E-02
  0.937237712536E-01  0.400579687095E+01 -0.579693567798E-02
  0.937237712536E-01  0.400579687095E+01  0.579693567798E-02
  0.937237707095E-01  0.400819964372E+01 -0.368817060392E-22
  0.190432342283E+00  0.000000000000E+00 -0.166604723454E-01
  0.190432342283E+00  0.000000000000E+00  0.166604723454E-01
  0.190432342335E+00  0.217527970672E+00 -0.166604717490E-01
  0.190432342335E+00  0.217527970672E+00  0.166604717490E-01
  0.190432342998E+00  0.448061168194E+00 -0.166604641705E-01
  0.190432342998E+00  0.448061168194E+00  0.166604641705E-01
  0.190432343548E+00  0.689725637436E+00 -0.166604578857E-01
  0.190432343548E+00  0.689725637436E+00  0.166604578857E-01
  0.190432343959E+00  0.940178275108E+00 -0.166604531854E-01
  0.190432343959E+00  0.940178275108E+00  0.166604531854E-01
  0.190432344212E+00  0.119668114185E+01 -0.166604502980E-01
  0.190432344212E+00  0.119668114185E+01  0.166604502980E-01
  0.190432344293E+00  0.145621216297E+01 -0.166604493684E-01
  0.190432344293E+00  0.145621216297E+01  0.166604493684E-01
  0.190432344199E+00  0.171560299397E+01 -0.166604504434E-01
  0.190432344199E+00  0.171560299397E+01  0.166604504434E-01
  0.190432343934E+00  0.197169232368E+01 -0.166604534670E-01
  0.190432343934E+00  0.197169232368E+01  0.166604534670E-01
  0.190432343513E+00  0.222147774696E+01 -0.166604582864E-01
  0.190432343513E+00  0.222147774696E+01  0.166604582864E-01
  0.190432342954E+00  0.246225214005E+01 -0.166604646668E-01
  0.190432342954E+00  0.246225214005E+01  0.166604646668E-01
  0.190432342285E+00  0.269171094894E+01 -0.166604723130E-01
  0.190432342285E+00  0.269171094894E+01  0.166604723130E-01
  0.190432341535E+00  0.290802383423E+01 -0.166604808957E-01
  0.190432341535E+00  0.290802383423E+01  0.166604808957E-01
  0.190432340731E+00  0.310986590385E+01 -0.166604900767E-01
  0.190432340731E+00  0.310986590385E+01  0.166604900767E-01
  0.190432339904E+00  0.329641318321E+01 -0.166604995319E-01
  0.190432339904E+00  0.329641318321E+01  0.166604995319E-01
  0.190432339078E+00  0.346730756760E+01 -0.166605089702E-01
  0.190432339078E+00  0.346730756760E+01  0.166605089702E-01
  0.190432338276E+00  0.362259936333E+01 -0.166605181453E-01
  0.190432338276E+00  0.362259936333E+01  0.166605181453E-01
  0.190432337513E+00  0.376267743111E+01 -0.166605268622E-01
  0.190432337513E+00  0.376267743111E+01  0.166605268622E-01
  0.190432336803E+00  0.388819599152E+01 -0.166605349796E-01
  0.190432336803E+00  0.388819599152E+01  0.166605349796E-01
  0.190432334276E+00  0.399999997891E+01 -0.166605638672E-01
  0.190432334276E+00  0.399999997891E+01  0.166605638672E-01
  0.190432332281E+00  0.401177829583E+01 -0.117785035183E-01
  0.190432332281E+00  0.401177829583E+01  0.117785035183E-01
  0.190432331652E+00  0.401666061435E+01 -0.272417630560E-17
  0.329832006488E+00  0.000000000000E+00 -0.288563430542E-01
  0.329832006488E+00  0.000000000000E+00  0.288563430542E-01
  0.329832006566E+00  0.217527970672E+00 -0.288563421553E-01
  0.329832006566E+00  0.217527970672E+00  0.288563421553E-01
  0.329832007208E+00  0.448061168194E+00 -0.288563348194E-01
  0.329832007208E+00  0.448061168194E+00  0.288563348194E-01
  0.329832007742E+00  0.689725637436E+00 -0.288563287238E-01
  0.329832007742E+00  0.689725637436E+00  0.288563287238E-01
  0.329832008141E+00  0.940178275108E+00 -0.288563241588E-01
  0.329832008141E+00  0.940178275108E+00  0.288563241588E-01
  0.329832008386E+00  0.119668114185E+01 -0.288563213528E-01
  0.329832008386E+00  0.119668114185E+01  0.288563213528E-01
[...]
POINT_DATA                 446
SCALARS BC_type int 1
LOOKUP_TABLE default
           1
           1
           1
           1
           1
           1
           1
           1
           1
           1
           1
           1
           1
           1
           1
           1
           1
           1
           1
           1
           1
           1
           1
           1
           1
           1
           1
           1
           1
           1
           1
           1
           1
           1
           1
           1
           1
           1
           1
           1
           1
           1
           1
           1
           1
           1
           1
           1
           1
           1
           1
           1
           1
           1
           1
           1
           1
           1
           1
           1
           1
           1
           1
           1
           1
           1
           1
           1
           1
           1
           1
           1
           1
           1
           1
           1
           1
           1
           1
           1
           1
           1
           1
           1
           1
           1
           1
           1
           1
           1
           1
           1
           1
           1
           1
           1
           1
           1
           1
           1
           1
           1
           1
           1
           1
           1
           1
           1
           1
           1
           1
           1
           1
           1
           1
           1
           1
           1
           1
           1
           1
           1
           1
           1
           1
           1
           1
           1
           1
           1
           1
           1
           1
           1
           1
           1
           1
           1
           1
           1
           1
           1
           1
           1
           1
           1
           1
           1
           1
           1
           1
           1
           1
           1
           1
           1
           1
           1
           1
           1
           1
           1
           1
           1
           1
           1
           1
           1
           1
           1
           1
           1
           1
           1
           1
           1
           1
           1
           1
           1
           1
           1
           1
           1
           1
           1
           1
           1
           1
           1
           1
           1
           1
           1
           1
           1
           1
           1
           1
           1
           1
           1
           1
           1
           1
           1
           1
           1
           1
           1
           1
           1
           1
           1
           1
           1
           1
           1
           1
           1
           1
           1
           1
           1
           1
           1
           1
           1
           1
           1
           1
           1
           1
           1
           1
           1
           1
           1
           1
           1
           1
           1
           1
           1
           1
           1
           1
           1
           1
           1
           1
           1
           1
           1
           1
           1
           1
           1
           1
           1
           1
           1
           1
           1
           1
           1
           1
           1
           1
           1
           1
           1
           1
           1
           1
           1
           1
           1
           1
           1
           1
           1
           1
           1
           1
           1
           1
           1
           1
           1
           1
           1
           1
           1
           1
           1
           1
           1
           1
           1
           1
           1
           1
           1
           1
           1
           1
           1
           1
           1
           1
           1
           1
           1
           1
           1
           1
           1
           1
           1
           1
           1
           1
           1
           1
           1
           1
           1
           1
           1
           1
           1
           1
           1
           1
           1
           1
           1
           1
           1
           1
           1
           1
           1
           1
           1
           1
           1
           1
           1
           1
           1
           1
           1
           1
           1
           1
           1
           1
           1
           1
           1
           1
           1
           1
           1
           1
           1
           1
           1
           1
           1
           1
           1
           1
           1
           1
           1
           1
           1
           1
           1
           1
           1
           1
           1
           1
           1
           1
           1
           1
           1
           1
           1
           1
           1
           1
           1
           1
           1
           1
           1
           1
           1
           1
           1
           1
           1
           1
           1
           1
           1
           1
           1
           1
           1
           1
           1
           1
           1
           1
           1
           1
           1
           1
           1
           1
           1
           1
           1
           1
           1
           1
           1
           1
           1
           1
           1
           1
           1
           1
           1
           1
           1
           1
           1
SCALARS residual float 1
LOOKUP_TABLE default
 -0.273633735530E-15
 -0.239093239064E-15
  0.491600639475E-15
  0.267826037584E-15
  0.128364421937E-15
  0.546499883848E-16
  0.909477473440E-17
  0.149892406184E-17
  0.255392742045E-16
  0.590000832497E-16
  0.173548332409E-15
  0.267278510193E-15
  0.301095453579E-15
  0.123165935233E-14
  0.112780618784E-15
  0.269370029754E-15
  0.480344930498E-14
  0.242861286637E-16
  0.401432359576E-13
  0.117403916450E-13
 -0.275791131756E-15
 -0.250516752216E-15
  0.500001944034E-15
  0.266502548604E-15
  0.128657918854E-15
  0.491266982940E-16
  0.610707777120E-17
 -0.784849479270E-17
  0.187913845758E-16
  0.798527638617E-16
  0.188872005458E-15
  0.282486988415E-15
  0.306537479792E-15
  0.121376874593E-14
  0.110758354092E-15
  0.281187833434E-15
  0.480691875193E-14
  0.216840434497E-16
  0.401631852776E-13
  0.441920805505E-14
  0.447081607846E-14
  0.437844205337E-14
  0.439665664986E-14
  0.412257034066E-14
  0.411433040415E-14
  0.392351082179E-14
  0.391874033223E-14
  0.402802791122E-14
  0.404147201816E-14
  0.408830955201E-14
  0.405231403988E-14
  0.402932895383E-14
  0.403366576252E-14
  0.394953167393E-14
  0.402716054948E-14
  0.391743928962E-14
  0.397815461128E-14
  0.391396984267E-14
  0.395516952523E-14
  0.358914287180E-14
  0.360518906395E-14
  0.670470623465E-15
  0.649653941753E-15
  0.382896839235E-14
  0.387016807490E-14
  0.522316564999E-13
  0.523053822477E-13
  0.673541084018E-13
  0.674382424903E-13
 -0.989551322828E-14
 -0.979251402189E-14
 -0.344516082329E-13
 -0.345014815328E-13
 -0.492227786308E-14
 -0.511049536023E-14
  0.317870729738E-13
  0.315259970907E-13
 -0.173365011583E-13
 -0.173614378082E-13
  0.830184445494E-14
  0.828888823898E-14
  0.236991416075E-13
  0.251370105286E-13
  0.251257348260E-13
  0.252393592137E-13
  0.252037973825E-13
  0.257259491487E-13
  0.256851831471E-13
  0.259271770719E-13
  0.258890131555E-13
  0.257146734461E-13
  0.256903873175E-13
  0.256947241262E-13
  0.256730400827E-13
  0.257753887678E-13
  0.257753887678E-13
  0.258343693660E-13
  0.258421756216E-13
  0.258777374529E-13
  0.259046256668E-13
  0.258465124303E-13
  0.258439103451E-13
  0.257042651053E-13
  0.256964588496E-13
  0.303645997235E-13
  0.303776101496E-13
  0.368975683340E-13
  0.369660899113E-13
 -0.333552629961E-13
 -0.332858740570E-13
 -0.960204138423E-13
 -0.959423512858E-13
 -0.449171949635E-13
 -0.448295914279E-13
 -0.600205649071E-13
 -0.600105902471E-13
  0.830591021309E-14
  0.824942327990E-14
 -0.389189548644E-13
 -0.390056910382E-13
 -0.880693087901E-13
 -0.880765729447E-13
  0.569379612902E-14
  0.569141088425E-14
  0.610995629091E-13
 -0.190385901488E-13
 -0.190871624062E-13
 -0.189327720168E-13
 -0.189900178915E-13
 -0.191201221522E-13
 -0.191721638565E-13
 -0.191530818983E-13
 -0.191756333034E-13
 -0.190160387437E-13
 -0.190212429141E-13
 -0.190594068306E-13
 -0.190576721071E-13
 -0.191444082809E-13
 -0.191253263226E-13
 -0.191669596861E-13
 -0.191686944095E-13
 -0.191600207922E-13
 -0.191791027504E-13
 -0.191808374739E-13
 -0.192016541556E-13
 -0.187211357527E-13
 -0.187332788171E-13
 -0.188304233317E-13
 -0.188113413735E-13
 -0.337733313538E-13
 -0.336917993504E-13
 -0.176143821751E-13
 -0.175120334900E-13
  0.662924576345E-13
  0.663948063195E-13
  0.871368949218E-13
  0.872808769703E-13
  0.158390661698E-12
  0.158541582640E-12
  0.193898716527E-13
  0.195087002108E-13
  0.188607809926E-14
  0.195503335743E-14
 -0.776488248699E-13
 -0.776154314430E-13
 -0.116984547049E-12
 -0.116962863006E-12
 -0.125661633876E-12
  0.259861576701E-14
  0.254657406273E-14
  0.246330733589E-14
  0.241820452551E-14
  0.235922392733E-14
  0.233146835171E-14
  0.231759056391E-14
  0.231759056391E-14
  0.230718222305E-14
  0.229677388219E-14
  0.231759056391E-14
  0.234534613952E-14
  0.233146835171E-14
  0.233840724562E-14
  0.234187669257E-14
  0.232452945781E-14
  0.236963226818E-14
  0.232452945781E-14
  0.235575448038E-14
  0.231412111695E-14
  0.241820452551E-14
  0.240085729075E-14
  0.161329283266E-14
  0.162370117351E-14
  0.198452365652E-14
  0.201921812604E-14
  0.144849410244E-13
  0.145682077513E-13
  0.156992474576E-13
  0.157512891619E-13
 -0.793948240485E-13
 -0.792456378296E-13
 -0.122114124368E-12
 -0.121902488104E-12
  0.490198159842E-13
  0.492141050135E-13
  0.954653023300E-13
  0.956179579958E-13
  0.137905312170E-12
  0.137988578897E-12
 -0.250112430766E-13
 -0.249782833306E-13
 -0.123734356094E-12
  0.246677678284E-14
  0.243208231332E-14
  0.255004350969E-14
  0.253269627493E-14
  0.254657406273E-14
  0.252922682797E-14
  0.249800180541E-14
  0.249800180541E-14
  0.251534904017E-14
  0.251534904017E-14
  0.247718512369E-14
  0.250841014626E-14
  0.250494069931E-14
  0.251534904017E-14
  0.251187959321E-14
  0.249453235845E-14
  0.253616572188E-14
  0.249106291150E-14
  0.252228793407E-14
  0.248759346455E-14
  0.251881848712E-14
  0.250841014626E-14
  0.245983788894E-14
  0.247718512369E-14
  0.241126563161E-14
  0.245289899503E-14
  0.349026363367E-14
  0.355965257270E-14
  0.229677388219E-14
  0.236616282123E-14
 -0.234881558647E-14
 -0.225167107182E-14
 -0.106165076730E-14
 -0.922872889220E-15
  0.151476053922E-13
  0.153314860807E-13
 -0.654268306199E-13
 -0.652602971662E-13
  0.288137569360E-13
  0.289039625567E-13
 -0.259098298372E-13
 -0.258699311972E-13
 -0.420080636943E-13
  0.163757896132E-14
  0.162717062047E-14
  0.168268177170E-14
  0.166186508999E-14
  0.166533453694E-14
  0.165319147261E-14
  0.166533453694E-14
  0.165492619608E-14
  0.164451785523E-14
  0.165839564303E-14
  0.165319147261E-14
  0.167574287779E-14
  0.165839564303E-14
  0.166186508999E-14
  0.166533453694E-14
  0.164625257870E-14
  0.168268177170E-14
  0.163931368480E-14
  0.166359981346E-14
  0.163410951437E-14
  0.165319147261E-14
  0.164798730218E-14
  0.165492619608E-14
  0.166880398389E-14
  0.160461921528E-14
  0.162370117351E-14
  0.164972202565E-14
  0.169655955951E-14
  0.240779618466E-14
  0.246157261241E-14
  0.182319437325E-14
  0.188737914186E-14
 -0.684001466578E-14
 -0.674980904503E-14
  0.755992490831E-14
  0.769870278639E-14
 -0.955832635263E-15
 -0.787564458093E-15
  0.555406415303E-13
  0.555996221285E-13
 -0.450819936937E-13
 -0.450629117354E-13
 -0.943021702393E-13
  0.952363188311E-15
  0.955832635263E-15
  0.964506252643E-15
  0.962771529167E-15
  0.962771529167E-15
  0.961036805691E-15
  0.967975699595E-15
  0.959302082215E-15
  0.947159017883E-15
  0.962771529167E-15
  0.948893741359E-15
  0.966240976119E-15
  0.961036805691E-15
  0.969710423071E-15
  0.966240976119E-15
  0.954097911787E-15
  0.976649316975E-15
  0.945424294407E-15
  0.976649316975E-15
  0.948893741359E-15
  0.957567358739E-15
  0.961036805691E-15
  0.959302082215E-15
  0.966240976119E-15
  0.957567358739E-15
  0.964506252643E-15
  0.935015953551E-15
  0.955832635263E-15
  0.919403442268E-15
  0.959302082215E-15
  0.147451495458E-14
  0.151441359453E-14
  0.312250225676E-16
  0.659194920871E-16
 -0.877770078844E-15
 -0.794503351997E-15
  0.256045185054E-14
  0.268535194081E-14
  0.301998009933E-13
  0.302301586541E-13
 -0.239903583110E-13
 -0.239764805232E-13
 -0.549378251224E-13
  0.473579508942E-15
  0.478783679370E-15
  0.477916317632E-15
  0.476181594156E-15
  0.474446870680E-15
  0.480518402846E-15
  0.475314232418E-15
  0.475314232418E-15
  0.469242700252E-15
  0.478783679370E-15
  0.470110061990E-15
  0.482253126322E-15
  0.477916317632E-15
  0.476181594156E-15
  0.481385764584E-15
  0.475314232418E-15
  0.483987849798E-15
  0.465773253300E-15
  0.484855211536E-15
  0.466640615038E-15
  0.474446870680E-15
  0.478783679370E-15
  0.474446870680E-15
  0.477048955894E-15
  0.472712147204E-15
  0.475314232418E-15
  0.470977423728E-15
  0.477048955894E-15
  0.460569082872E-15
  0.484855211536E-15
  0.438017677684E-15
  0.453630188968E-15
  0.619296280924E-15
  0.633174068732E-15
  0.414598910758E-15
  0.450160742016E-15
 -0.601949046164E-15
 -0.545570533195E-15
  0.102743334673E-13
  0.102812723612E-13
 -0.897762766905E-14
 -0.897459190297E-14
 -0.215049332508E-13
  0.176291273246E-15
  0.180411241502E-15
  0.178676518026E-15
  0.178242837157E-15
  0.176291273246E-15
  0.179543879764E-15
  0.178242837157E-15
  0.178893358460E-15
  0.176724954115E-15
  0.180844922371E-15
  0.176508113681E-15
  0.181061762805E-15
  0.179327039329E-15
  0.179110198895E-15
  0.179977560633E-15
  0.177592315853E-15
  0.183013326716E-15
  0.174990230639E-15
  0.183013326716E-15
  0.174773390205E-15
  0.176724954115E-15
  0.179110198895E-15
  0.176941794550E-15
  0.178242837157E-15
  0.176941794550E-15
  0.177158634984E-15
  0.176291273246E-15
  0.177809156288E-15
  0.171087102818E-15
  0.182362805412E-15
  0.173038666729E-15
  0.176941794550E-15
  0.179543879764E-15
  0.183013326716E-15
  0.175423911508E-15
  0.191036422792E-15
  0.370797142990E-16
  0.479217360239E-16
  0.266767944540E-14
  0.266930574866E-14
 -0.265531954063E-14
 -0.265445217890E-14
 -0.643549883522E-14
  0.805487470117E-17
  0.762259673049E-17
  0.798065674789E-17
  0.827013191197E-17
  0.847818437964E-17
  0.859513944645E-17
  0.861537559295E-17
  0.853793163528E-17
  0.836657786267E-17
  0.810940575587E-17
  0.777809841384E-17
  0.738685935490E-17
  0.695116595548E-17
  0.648665937377E-17
  0.600814862430E-17
  0.552883881836E-17
  0.505977033558E-17
  0.461017203006E-17
  0.418807913426E-17
  0.188787451882E-17
