# vtk DataFile Version 3.0
MachLine results file. Generated by MachLine, USU AeroLab (c) 2022.
ASCII
DATASET POLYDATA
POINTS                 111 float
  0.100000000000E+01  0.000000000000E+00  0.000000000000E+00
  0.200000000000E+02  0.000000000000E+00  0.000000000000E+00
  0.100000000000E+01  0.222222222220E+00  0.000000000000E+00
  0.200000000000E+02  0.222222222220E+00  0.000000000000E+00
  0.100000000000E+01  0.444444444440E+00  0.000000000000E+00
  0.200000000000E+02  0.444444444440E+00  0.000000000000E+00
  0.100000000000E+01  0.666666666670E+00  0.000000000000E+00
  0.200000000000E+02  0.666666666670E+00  0.000000000000E+00
  0.100000000000E+01  0.888888888890E+00  0.000000000000E+00
  0.200000000000E+02  0.888888888890E+00  0.000000000000E+00
  0.100000000000E+01  0.111111111110E+01  0.000000000000E+00
  0.200000000000E+02  0.111111111110E+01  0.000000000000E+00
  0.100000000000E+01  0.133333333330E+01  0.000000000000E+00
  0.200000000000E+02  0.133333333330E+01  0.000000000000E+00
  0.100000000000E+01  0.155555555560E+01  0.000000000000E+00
  0.200000000000E+02  0.155555555560E+01  0.000000000000E+00
  0.100000000000E+01  0.177777777780E+01  0.000000000000E+00
  0.200000000000E+02  0.177777777780E+01  0.000000000000E+00
  0.100000000000E+01  0.200000000000E+01  0.000000000000E+00
  0.200000000000E+02  0.200000000000E+01  0.000000000000E+00
  0.100000000000E+01 -0.222222222220E+00  0.000000000000E+00
  0.200000000000E+02 -0.222222222220E+00  0.000000000000E+00
  0.100000000000E+01 -0.444444444440E+00  0.000000000000E+00
  0.200000000000E+02 -0.444444444440E+00  0.000000000000E+00
  0.100000000000E+01 -0.666666666670E+00  0.000000000000E+00
  0.200000000000E+02 -0.666666666670E+00  0.000000000000E+00
  0.100000000000E+01 -0.888888888890E+00  0.000000000000E+00
  0.200000000000E+02 -0.888888888890E+00  0.000000000000E+00
  0.100000000000E+01 -0.111111111110E+01  0.000000000000E+00
  0.200000000000E+02 -0.111111111110E+01  0.000000000000E+00
  0.100000000000E+01 -0.133333333330E+01  0.000000000000E+00
  0.200000000000E+02 -0.133333333330E+01  0.000000000000E+00
  0.100000000000E+01 -0.155555555560E+01  0.000000000000E+00
  0.200000000000E+02 -0.155555555560E+01  0.000000000000E+00
  0.100000000000E+01 -0.177777777780E+01  0.000000000000E+00
  0.200000000000E+02 -0.177777777780E+01  0.000000000000E+00
  0.100000000000E+01 -0.200000000000E+01  0.000000000000E+00
  0.200000000000E+02 -0.200000000000E+01  0.000000000000E+00
  0.105000000000E+02  0.111111111110E+00  0.000000000000E+00
  0.105000000000E+02  0.222222222220E+00  0.000000000000E+00
  0.200000000000E+02  0.111111111110E+00  0.000000000000E+00
  0.105000000000E+02  0.000000000000E+00  0.000000000000E+00
  0.100000000000E+01  0.111111111110E+00  0.000000000000E+00
  0.105000000000E+02  0.333333333330E+00  0.000000000000E+00
  0.105000000000E+02  0.444444444440E+00  0.000000000000E+00
  0.200000000000E+02  0.333333333330E+00  0.000000000000E+00
  0.100000000000E+01  0.333333333330E+00  0.000000000000E+00
  0.105000000000E+02  0.555555555555E+00  0.000000000000E+00
  0.105000000000E+02  0.666666666670E+00  0.000000000000E+00
  0.200000000000E+02  0.555555555555E+00  0.000000000000E+00
  0.100000000000E+01  0.555555555555E+00  0.000000000000E+00
  0.105000000000E+02  0.777777777780E+00  0.000000000000E+00
  0.105000000000E+02  0.888888888890E+00  0.000000000000E+00
  0.200000000000E+02  0.777777777780E+00  0.000000000000E+00
  0.100000000000E+01  0.777777777780E+00  0.000000000000E+00
  0.105000000000E+02  0.999999999995E+00  0.000000000000E+00
  0.105000000000E+02  0.111111111110E+01  0.000000000000E+00
  0.200000000000E+02  0.999999999995E+00  0.000000000000E+00
  0.100000000000E+01  0.999999999995E+00  0.000000000000E+00
  0.105000000000E+02  0.122222222220E+01  0.000000000000E+00
  0.105000000000E+02  0.133333333330E+01  0.000000000000E+00
  0.200000000000E+02  0.122222222220E+01  0.000000000000E+00
  0.100000000000E+01  0.122222222220E+01  0.000000000000E+00
  0.105000000000E+02  0.144444444445E+01  0.000000000000E+00
  0.105000000000E+02  0.155555555560E+01  0.000000000000E+00
  0.200000000000E+02  0.144444444445E+01  0.000000000000E+00
  0.100000000000E+01  0.144444444445E+01  0.000000000000E+00
  0.105000000000E+02  0.166666666670E+01  0.000000000000E+00
  0.105000000000E+02  0.177777777780E+01  0.000000000000E+00
  0.200000000000E+02  0.166666666670E+01  0.000000000000E+00
  0.100000000000E+01  0.166666666670E+01  0.000000000000E+00
  0.105000000000E+02  0.188888888890E+01  0.000000000000E+00
  0.105000000000E+02  0.200000000000E+01  0.000000000000E+00
  0.200000000000E+02  0.188888888890E+01  0.000000000000E+00
  0.100000000000E+01  0.188888888890E+01  0.000000000000E+00
  0.105000000000E+02 -0.111111111110E+00  0.000000000000E+00
  0.200000000000E+02 -0.111111111110E+00  0.000000000000E+00
  0.105000000000E+02 -0.222222222220E+00  0.000000000000E+00
  0.100000000000E+01 -0.111111111110E+00  0.000000000000E+00
  0.105000000000E+02 -0.333333333330E+00  0.000000000000E+00
  0.200000000000E+02 -0.333333333330E+00  0.000000000000E+00
  0.105000000000E+02 -0.444444444440E+00  0.000000000000E+00
  0.100000000000E+01 -0.333333333330E+00  0.000000000000E+00
  0.105000000000E+02 -0.555555555555E+00  0.000000000000E+00
  0.200000000000E+02 -0.555555555555E+00  0.000000000000E+00
  0.105000000000E+02 -0.666666666670E+00  0.000000000000E+00
  0.100000000000E+01 -0.555555555555E+00  0.000000000000E+00
  0.105000000000E+02 -0.777777777780E+00  0.000000000000E+00
  0.200000000000E+02 -0.777777777780E+00  0.000000000000E+00
  0.105000000000E+02 -0.888888888890E+00  0.000000000000E+00
  0.100000000000E+01 -0.777777777780E+00  0.000000000000E+00
  0.105000000000E+02 -0.999999999995E+00  0.000000000000E+00
  0.200000000000E+02 -0.999999999995E+00  0.000000000000E+00
  0.105000000000E+02 -0.111111111110E+01  0.000000000000E+00
  0.100000000000E+01 -0.999999999995E+00  0.000000000000E+00
  0.105000000000E+02 -0.122222222220E+01  0.000000000000E+00
  0.200000000000E+02 -0.122222222220E+01  0.000000000000E+00
  0.105000000000E+02 -0.133333333330E+01  0.000000000000E+00
  0.100000000000E+01 -0.122222222220E+01  0.000000000000E+00
  0.105000000000E+02 -0.144444444445E+01  0.000000000000E+00
  0.200000000000E+02 -0.144444444445E+01  0.000000000000E+00
  0.105000000000E+02 -0.155555555560E+01  0.000000000000E+00
  0.100000000000E+01 -0.144444444445E+01  0.000000000000E+00
  0.105000000000E+02 -0.166666666670E+01  0.000000000000E+00
  0.200000000000E+02 -0.166666666670E+01  0.000000000000E+00
  0.105000000000E+02 -0.177777777780E+01  0.000000000000E+00
  0.100000000000E+01 -0.166666666670E+01  0.000000000000E+00
  0.105000000000E+02 -0.188888888890E+01  0.000000000000E+00
  0.200000000000E+02 -0.188888888890E+01  0.000000000000E+00
  0.105000000000E+02 -0.200000000000E+01  0.000000000000E+00
  0.100000000000E+01 -0.188888888890E+01  0.000000000000E+00
POLYGONS                 144                 576
3                  39                  40                  38
3                  39                   3                  40
3                  40                   1                  38
3                  38                   2                  39
3                  38                  41                  42
3                  38                   1                  41
3                  41                   0                  42
3                  42                   2                  38
3                  44                  45                  43
3                  44                   5                  45
3                  45                   3                  43
3                  43                   4                  44
3                  43                  39                  46
3                  43                   3                  39
3                  39                   2                  46
3                  46                   4                  43
3                  48                  49                  47
3                  48                   7                  49
3                  49                   5                  47
3                  47                   6                  48
3                  47                  44                  50
3                  47                   5                  44
3                  44                   4                  50
3                  50                   6                  47
3                  52                  53                  51
3                  52                   9                  53
3                  53                   7                  51
3                  51                   8                  52
3                  51                  48                  54
3                  51                   7                  48
3                  48                   6                  54
3                  54                   8                  51
3                  56                  57                  55
3                  56                  11                  57
3                  57                   9                  55
3                  55                  10                  56
3                  55                  52                  58
3                  55                   9                  52
3                  52                   8                  58
3                  58                  10                  55
3                  60                  61                  59
3                  60                  13                  61
3                  61                  11                  59
3                  59                  12                  60
3                  59                  56                  62
3                  59                  11                  56
3                  56                  10                  62
3                  62                  12                  59
3                  64                  65                  63
3                  64                  15                  65
3                  65                  13                  63
3                  63                  14                  64
3                  63                  60                  66
3                  63                  13                  60
3                  60                  12                  66
3                  66                  14                  63
3                  68                  69                  67
3                  68                  17                  69
3                  69                  15                  67
3                  67                  16                  68
3                  67                  64                  70
3                  67                  15                  64
3                  64                  14                  70
3                  70                  16                  67
3                  72                  73                  71
3                  72                  19                  73
3                  73                  17                  71
3                  71                  18                  72
3                  71                  68                  74
3                  71                  17                  68
3                  68                  16                  74
3                  74                  18                  71
3                  41                  76                  75
3                  41                   1                  76
3                  76                  21                  75
3                  75                   0                  41
3                  75                  77                  78
3                  75                  21                  77
3                  77                  20                  78
3                  78                   0                  75
3                  77                  80                  79
3                  77                  21                  80
3                  80                  23                  79
3                  79                  20                  77
3                  79                  81                  82
3                  79                  23                  81
3                  81                  22                  82
3                  82                  20                  79
3                  81                  84                  83
3                  81                  23                  84
3                  84                  25                  83
3                  83                  22                  81
3                  83                  85                  86
3                  83                  25                  85
3                  85                  24                  86
3                  86                  22                  83
3                  85                  88                  87
3                  85                  25                  88
3                  88                  27                  87
3                  87                  24                  85
3                  87                  89                  90
3                  87                  27                  89
3                  89                  26                  90
3                  90                  24                  87
3                  89                  92                  91
3                  89                  27                  92
3                  92                  29                  91
3                  91                  26                  89
3                  91                  93                  94
3                  91                  29                  93
3                  93                  28                  94
3                  94                  26                  91
3                  93                  96                  95
3                  93                  29                  96
3                  96                  31                  95
3                  95                  28                  93
3                  95                  97                  98
3                  95                  31                  97
3                  97                  30                  98
3                  98                  28                  95
3                  97                 100                  99
3                  97                  31                 100
3                 100                  33                  99
3                  99                  30                  97
3                  99                 101                 102
3                  99                  33                 101
3                 101                  32                 102
3                 102                  30                  99
3                 101                 104                 103
3                 101                  33                 104
3                 104                  35                 103
3                 103                  32                 101
3                 103                 105                 106
3                 103                  35                 105
3                 105                  34                 106
3                 106                  32                 103
3                 105                 108                 107
3                 105                  35                 108
3                 108                  37                 107
3                 107                  34                 105
3                 107                 109                 110
3                 107                  37                 109
3                 109                  36                 110
3                 110                  34                 107
CELL_DATA                 144
NORMALS normals float
  0.000000000000E+00  0.000000000000E+00 -0.100000000000E+01
  0.000000000000E+00  0.000000000000E+00 -0.100000000000E+01
  0.000000000000E+00  0.000000000000E+00 -0.100000000000E+01
  0.000000000000E+00  0.000000000000E+00 -0.100000000000E+01
 -0.000000000000E+00 -0.000000000000E+00 -0.100000000000E+01
 -0.000000000000E+00 -0.000000000000E+00 -0.100000000000E+01
 -0.000000000000E+00 -0.000000000000E+00 -0.100000000000E+01
 -0.000000000000E+00 -0.000000000000E+00 -0.100000000000E+01
  0.000000000000E+00  0.000000000000E+00 -0.100000000000E+01
  0.000000000000E+00  0.000000000000E+00 -0.100000000000E+01
  0.000000000000E+00  0.000000000000E+00 -0.100000000000E+01
  0.000000000000E+00  0.000000000000E+00 -0.100000000000E+01
 -0.000000000000E+00 -0.000000000000E+00 -0.100000000000E+01
 -0.000000000000E+00 -0.000000000000E+00 -0.100000000000E+01
 -0.000000000000E+00 -0.000000000000E+00 -0.100000000000E+01
 -0.000000000000E+00 -0.000000000000E+00 -0.100000000000E+01
  0.000000000000E+00  0.000000000000E+00 -0.100000000000E+01
  0.000000000000E+00  0.000000000000E+00 -0.100000000000E+01
  0.000000000000E+00  0.000000000000E+00 -0.100000000000E+01
  0.000000000000E+00  0.000000000000E+00 -0.100000000000E+01
 -0.000000000000E+00 -0.000000000000E+00 -0.100000000000E+01
 -0.000000000000E+00 -0.000000000000E+00 -0.100000000000E+01
 -0.000000000000E+00 -0.000000000000E+00 -0.100000000000E+01
 -0.000000000000E+00 -0.000000000000E+00 -0.100000000000E+01
  0.000000000000E+00  0.000000000000E+00 -0.100000000000E+01
  0.000000000000E+00  0.000000000000E+00 -0.100000000000E+01
  0.000000000000E+00  0.000000000000E+00 -0.100000000000E+01
  0.000000000000E+00  0.000000000000E+00 -0.100000000000E+01
 -0.000000000000E+00 -0.000000000000E+00 -0.100000000000E+01
 -0.000000000000E+00 -0.000000000000E+00 -0.100000000000E+01
 -0.000000000000E+00 -0.000000000000E+00 -0.100000000000E+01
 -0.000000000000E+00 -0.000000000000E+00 -0.100000000000E+01
  0.000000000000E+00  0.000000000000E+00 -0.100000000000E+01
  0.000000000000E+00  0.000000000000E+00 -0.100000000000E+01
  0.000000000000E+00  0.000000000000E+00 -0.100000000000E+01
  0.000000000000E+00  0.000000000000E+00 -0.100000000000E+01
 -0.000000000000E+00 -0.000000000000E+00 -0.100000000000E+01
 -0.000000000000E+00 -0.000000000000E+00 -0.100000000000E+01
 -0.000000000000E+00 -0.000000000000E+00 -0.100000000000E+01
 -0.000000000000E+00 -0.000000000000E+00 -0.100000000000E+01
  0.000000000000E+00  0.000000000000E+00 -0.100000000000E+01
  0.000000000000E+00  0.000000000000E+00 -0.100000000000E+01
  0.000000000000E+00  0.000000000000E+00 -0.100000000000E+01
  0.000000000000E+00  0.000000000000E+00 -0.100000000000E+01
 -0.000000000000E+00 -0.000000000000E+00 -0.100000000000E+01
 -0.000000000000E+00 -0.000000000000E+00 -0.100000000000E+01
 -0.000000000000E+00 -0.000000000000E+00 -0.100000000000E+01
 -0.000000000000E+00 -0.000000000000E+00 -0.100000000000E+01
  0.000000000000E+00  0.000000000000E+00 -0.100000000000E+01
  0.000000000000E+00  0.000000000000E+00 -0.100000000000E+01
  0.000000000000E+00  0.000000000000E+00 -0.100000000000E+01
  0.000000000000E+00  0.000000000000E+00 -0.100000000000E+01
 -0.000000000000E+00 -0.000000000000E+00 -0.100000000000E+01
 -0.000000000000E+00 -0.000000000000E+00 -0.100000000000E+01
 -0.000000000000E+00 -0.000000000000E+00 -0.100000000000E+01
 -0.000000000000E+00 -0.000000000000E+00 -0.100000000000E+01
  0.000000000000E+00  0.000000000000E+00 -0.100000000000E+01
  0.000000000000E+00  0.000000000000E+00 -0.100000000000E+01
  0.000000000000E+00  0.000000000000E+00 -0.100000000000E+01
  0.000000000000E+00  0.000000000000E+00 -0.100000000000E+01
 -0.000000000000E+00 -0.000000000000E+00 -0.100000000000E+01
 -0.000000000000E+00 -0.000000000000E+00 -0.100000000000E+01
 -0.000000000000E+00 -0.000000000000E+00 -0.100000000000E+01
 -0.000000000000E+00 -0.000000000000E+00 -0.100000000000E+01
  0.000000000000E+00  0.000000000000E+00 -0.100000000000E+01
  0.000000000000E+00  0.000000000000E+00 -0.100000000000E+01
  0.000000000000E+00  0.000000000000E+00 -0.100000000000E+01
  0.000000000000E+00  0.000000000000E+00 -0.100000000000E+01
 -0.000000000000E+00 -0.000000000000E+00 -0.100000000000E+01
 -0.000000000000E+00 -0.000000000000E+00 -0.100000000000E+01
 -0.000000000000E+00 -0.000000000000E+00 -0.100000000000E+01
 -0.000000000000E+00 -0.000000000000E+00 -0.100000000000E+01
  0.000000000000E+00  0.000000000000E+00 -0.100000000000E+01
  0.000000000000E+00  0.000000000000E+00 -0.100000000000E+01
  0.000000000000E+00  0.000000000000E+00 -0.100000000000E+01
  0.000000000000E+00  0.000000000000E+00 -0.100000000000E+01
 -0.000000000000E+00 -0.000000000000E+00 -0.100000000000E+01
 -0.000000000000E+00 -0.000000000000E+00 -0.100000000000E+01
 -0.000000000000E+00 -0.000000000000E+00 -0.100000000000E+01
 -0.000000000000E+00 -0.000000000000E+00 -0.100000000000E+01
  0.000000000000E+00  0.000000000000E+00 -0.100000000000E+01
  0.000000000000E+00  0.000000000000E+00 -0.100000000000E+01
  0.000000000000E+00  0.000000000000E+00 -0.100000000000E+01
  0.000000000000E+00  0.000000000000E+00 -0.100000000000E+01
 -0.000000000000E+00 -0.000000000000E+00 -0.100000000000E+01
 -0.000000000000E+00 -0.000000000000E+00 -0.100000000000E+01
 -0.000000000000E+00 -0.000000000000E+00 -0.100000000000E+01
 -0.000000000000E+00 -0.000000000000E+00 -0.100000000000E+01
  0.000000000000E+00  0.000000000000E+00 -0.100000000000E+01
  0.000000000000E+00  0.000000000000E+00 -0.100000000000E+01
  0.000000000000E+00  0.000000000000E+00 -0.100000000000E+01
  0.000000000000E+00  0.000000000000E+00 -0.100000000000E+01
 -0.000000000000E+00 -0.000000000000E+00 -0.100000000000E+01
 -0.000000000000E+00 -0.000000000000E+00 -0.100000000000E+01
 -0.000000000000E+00 -0.000000000000E+00 -0.100000000000E+01
 -0.000000000000E+00 -0.000000000000E+00 -0.100000000000E+01
  0.000000000000E+00  0.000000000000E+00 -0.100000000000E+01
  0.000000000000E+00  0.000000000000E+00 -0.100000000000E+01
  0.000000000000E+00  0.000000000000E+00 -0.100000000000E+01
  0.000000000000E+00  0.000000000000E+00 -0.100000000000E+01
 -0.000000000000E+00 -0.000000000000E+00 -0.100000000000E+01
 -0.000000000000E+00 -0.000000000000E+00 -0.100000000000E+01
 -0.000000000000E+00 -0.000000000000E+00 -0.100000000000E+01
 -0.000000000000E+00 -0.000000000000E+00 -0.100000000000E+01
  0.000000000000E+00  0.000000000000E+00 -0.100000000000E+01
  0.000000000000E+00  0.000000000000E+00 -0.100000000000E+01
  0.000000000000E+00  0.000000000000E+00 -0.100000000000E+01
  0.000000000000E+00  0.000000000000E+00 -0.100000000000E+01
 -0.000000000000E+00 -0.000000000000E+00 -0.100000000000E+01
 -0.000000000000E+00 -0.000000000000E+00 -0.100000000000E+01
 -0.000000000000E+00 -0.000000000000E+00 -0.100000000000E+01
 -0.000000000000E+00 -0.000000000000E+00 -0.100000000000E+01
  0.000000000000E+00  0.000000000000E+00 -0.100000000000E+01
  0.000000000000E+00  0.000000000000E+00 -0.100000000000E+01
  0.000000000000E+00  0.000000000000E+00 -0.100000000000E+01
  0.000000000000E+00  0.000000000000E+00 -0.100000000000E+01
 -0.000000000000E+00 -0.000000000000E+00 -0.100000000000E+01
 -0.000000000000E+00 -0.000000000000E+00 -0.100000000000E+01
 -0.000000000000E+00 -0.000000000000E+00 -0.100000000000E+01
 -0.000000000000E+00 -0.000000000000E+00 -0.100000000000E+01
  0.000000000000E+00  0.000000000000E+00 -0.100000000000E+01
  0.000000000000E+00  0.000000000000E+00 -0.100000000000E+01
  0.000000000000E+00  0.000000000000E+00 -0.100000000000E+01
  0.000000000000E+00  0.000000000000E+00 -0.100000000000E+01
 -0.000000000000E+00 -0.000000000000E+00 -0.100000000000E+01
 -0.000000000000E+00 -0.000000000000E+00 -0.100000000000E+01
 -0.000000000000E+00 -0.000000000000E+00 -0.100000000000E+01
 -0.000000000000E+00 -0.000000000000E+00 -0.100000000000E+01
  0.000000000000E+00  0.000000000000E+00 -0.100000000000E+01
  0.000000000000E+00  0.000000000000E+00 -0.100000000000E+01
  0.000000000000E+00  0.000000000000E+00 -0.100000000000E+01
  0.000000000000E+00  0.000000000000E+00 -0.100000000000E+01
 -0.000000000000E+00 -0.000000000000E+00 -0.100000000000E+01
 -0.000000000000E+00 -0.000000000000E+00 -0.100000000000E+01
 -0.000000000000E+00 -0.000000000000E+00 -0.100000000000E+01
 -0.000000000000E+00 -0.000000000000E+00 -0.100000000000E+01
  0.000000000000E+00  0.000000000000E+00 -0.100000000000E+01
  0.000000000000E+00  0.000000000000E+00 -0.100000000000E+01
  0.000000000000E+00  0.000000000000E+00 -0.100000000000E+01
  0.000000000000E+00  0.000000000000E+00 -0.100000000000E+01
 -0.000000000000E+00 -0.000000000000E+00 -0.100000000000E+01
 -0.000000000000E+00 -0.000000000000E+00 -0.100000000000E+01
 -0.000000000000E+00 -0.000000000000E+00 -0.100000000000E+01
 -0.000000000000E+00 -0.000000000000E+00 -0.100000000000E+01
POINT_DATA                 111
SCALARS mu float 1
LOOKUP_TABLE default
 -0.357913140486E-05
 -0.357913140486E-05
 -0.252604791400E-05
 -0.252604791400E-05
 -0.194657483392E-05
 -0.194657483392E-05
 -0.823134708804E-06
 -0.823134708804E-06
 -0.291910385586E-06
 -0.291910385586E-06
 -0.208972752491E-06
 -0.208972752491E-06
 -0.227849305645E-06
 -0.227849305645E-06
 -0.375456550128E-06
 -0.375456550128E-06
 -0.472231402406E-06
 -0.472231402406E-06
  0.000000000000E+00
  0.000000000000E+00
 -0.510225060034E-05
 -0.510225060034E-05
 -0.470909290583E-05
 -0.470909290583E-05
 -0.410494650385E-05
 -0.410494650385E-05
 -0.399736742808E-05
 -0.399736742808E-05
 -0.336309999514E-05
 -0.336309999514E-05
 -0.253164423011E-05
 -0.253164423011E-05
 -0.195830687676E-05
 -0.195830687676E-05
 -0.123084378268E-05
 -0.123084378268E-05
  0.000000000000E+00
  0.000000000000E+00
 -0.274435751600E-05
 -0.252604791400E-05
 -0.274435751600E-05
 -0.357913140486E-05
 -0.274435751600E-05
 -0.253642263127E-05
 -0.194657483392E-05
 -0.253642263127E-05
 -0.253642263127E-05
 -0.138150444132E-05
 -0.823134708804E-06
 -0.138150444132E-05
 -0.138150444132E-05
 -0.455889659294E-06
 -0.291910385586E-06
 -0.455889659294E-06
 -0.455889659294E-06
 -0.237938290404E-06
 -0.208972752491E-06
 -0.237938290404E-06
 -0.237938290404E-06
 -0.203469665096E-06
 -0.227849305645E-06
 -0.203469665096E-06
 -0.203469665096E-06
 -0.264030966847E-06
 -0.375456550128E-06
 -0.264030966847E-06
 -0.264030966847E-06
 -0.455853592207E-06
 -0.472231402406E-06
 -0.455853592207E-06
 -0.455853592207E-06
 -0.361756557703E-06
  0.000000000000E+00
 -0.361756557703E-06
 -0.361756557703E-06
 -0.459765905550E-05
 -0.459765905550E-05
 -0.510225060034E-05
 -0.459765905550E-05
 -0.532819923599E-05
 -0.532819923599E-05
 -0.470909290583E-05
 -0.532819923599E-05
 -0.420820389772E-05
 -0.420820389772E-05
 -0.410494650385E-05
 -0.420820389772E-05
 -0.418354626582E-05
 -0.418354626582E-05
 -0.399736742808E-05
 -0.418354626582E-05
 -0.381304541676E-05
 -0.381304541676E-05
 -0.336309999514E-05
 -0.381304541676E-05
 -0.296212233020E-05
 -0.296212233020E-05
 -0.253164423011E-05
 -0.296212233020E-05
 -0.222023764895E-05
 -0.222023764895E-05
 -0.195830687676E-05
 -0.222023764895E-05
 -0.171217718914E-05
 -0.171217718914E-05
 -0.123084378268E-05
 -0.171217718914E-05
 -0.769339715184E-06
 -0.769339715184E-06
  0.000000000000E+00
 -0.769339715184E-06
