# vtk DataFile Version 3.0
MachLine results file. Generated by MachLine, USU AeroLab (c) 2022.
ASCII
DATASET POLYDATA
POINTS                 312 float
  0.100000000000E+01  0.512820512820E-01  0.000000000000E+00
  0.100000000000E+01  0.000000000000E+00  0.000000000000E+00
  0.294663108147E+02  0.512820512820E-01  0.142331554074E+01
  0.294663108147E+02  0.000000000000E+00  0.142331554074E+01
  0.100000000000E+01  0.102564102560E+00  0.000000000000E+00
  0.100000000000E+01  0.512820512820E-01  0.000000000000E+00
  0.294663108147E+02  0.102564102560E+00  0.142331554074E+01
  0.294663108147E+02  0.512820512820E-01  0.142331554074E+01
  0.100000000000E+01  0.153846153850E+00  0.000000000000E+00
  0.100000000000E+01  0.102564102560E+00  0.000000000000E+00
  0.294663108147E+02  0.153846153850E+00  0.142331554074E+01
  0.294663108147E+02  0.102564102560E+00  0.142331554074E+01
  0.100000000000E+01  0.205128205130E+00  0.000000000000E+00
  0.100000000000E+01  0.153846153850E+00  0.000000000000E+00
  0.294663108147E+02  0.205128205130E+00  0.142331554074E+01
  0.294663108147E+02  0.153846153850E+00  0.142331554074E+01
  0.100000000000E+01  0.256410256410E+00  0.000000000000E+00
  0.100000000000E+01  0.205128205130E+00  0.000000000000E+00
  0.294663108147E+02  0.256410256410E+00  0.142331554074E+01
  0.294663108147E+02  0.205128205130E+00  0.142331554074E+01
  0.100000000000E+01  0.307692307690E+00  0.000000000000E+00
  0.100000000000E+01  0.256410256410E+00  0.000000000000E+00
  0.294663108147E+02  0.307692307690E+00  0.142331554074E+01
  0.294663108147E+02  0.256410256410E+00  0.142331554074E+01
  0.100000000000E+01  0.358974358970E+00  0.000000000000E+00
  0.100000000000E+01  0.307692307690E+00  0.000000000000E+00
  0.294663108147E+02  0.358974358970E+00  0.142331554074E+01
  0.294663108147E+02  0.307692307690E+00  0.142331554074E+01
  0.100000000000E+01  0.410256410260E+00  0.000000000000E+00
  0.100000000000E+01  0.358974358970E+00  0.000000000000E+00
  0.294663108147E+02  0.410256410260E+00  0.142331554074E+01
  0.294663108147E+02  0.358974358970E+00  0.142331554074E+01
  0.100000000000E+01  0.461538461540E+00  0.000000000000E+00
  0.100000000000E+01  0.410256410260E+00  0.000000000000E+00
  0.294663108147E+02  0.461538461540E+00  0.142331554074E+01
  0.294663108147E+02  0.410256410260E+00  0.142331554074E+01
  0.100000000000E+01  0.512820512820E+00  0.000000000000E+00
  0.100000000000E+01  0.461538461540E+00  0.000000000000E+00
  0.294663108147E+02  0.512820512820E+00  0.142331554074E+01
  0.294663108147E+02  0.461538461540E+00  0.142331554074E+01
  0.100000000000E+01  0.564102564100E+00  0.000000000000E+00
  0.100000000000E+01  0.512820512820E+00  0.000000000000E+00
  0.294663108147E+02  0.564102564100E+00  0.142331554074E+01
  0.294663108147E+02  0.512820512820E+00  0.142331554074E+01
  0.100000000000E+01  0.615384615380E+00  0.000000000000E+00
  0.100000000000E+01  0.564102564100E+00  0.000000000000E+00
  0.294663108147E+02  0.615384615380E+00  0.142331554074E+01
  0.294663108147E+02  0.564102564100E+00  0.142331554074E+01
  0.100000000000E+01  0.666666666670E+00  0.000000000000E+00
  0.100000000000E+01  0.615384615380E+00  0.000000000000E+00
  0.294663108147E+02  0.666666666670E+00  0.142331554074E+01
  0.294663108147E+02  0.615384615380E+00  0.142331554074E+01
  0.100000000000E+01  0.717948717950E+00  0.000000000000E+00
  0.100000000000E+01  0.666666666670E+00  0.000000000000E+00
  0.294663108147E+02  0.717948717950E+00  0.142331554074E+01
  0.294663108147E+02  0.666666666670E+00  0.142331554074E+01
  0.100000000000E+01  0.769230769230E+00  0.000000000000E+00
  0.100000000000E+01  0.717948717950E+00  0.000000000000E+00
  0.294663108147E+02  0.769230769230E+00  0.142331554074E+01
  0.294663108147E+02  0.717948717950E+00  0.142331554074E+01
  0.100000000000E+01  0.820512820510E+00  0.000000000000E+00
  0.100000000000E+01  0.769230769230E+00  0.000000000000E+00
  0.294663108147E+02  0.820512820510E+00  0.142331554074E+01
  0.294663108147E+02  0.769230769230E+00  0.142331554074E+01
  0.100000000000E+01  0.871794871790E+00  0.000000000000E+00
  0.100000000000E+01  0.820512820510E+00  0.000000000000E+00
  0.294663108147E+02  0.871794871790E+00  0.142331554074E+01
  0.294663108147E+02  0.820512820510E+00  0.142331554074E+01
  0.100000000000E+01  0.923076923080E+00  0.000000000000E+00
  0.100000000000E+01  0.871794871790E+00  0.000000000000E+00
  0.294663108147E+02  0.923076923080E+00  0.142331554074E+01
  0.294663108147E+02  0.871794871790E+00  0.142331554074E+01
  0.100000000000E+01  0.974358974360E+00  0.000000000000E+00
  0.100000000000E+01  0.923076923080E+00  0.000000000000E+00
  0.294663108147E+02  0.974358974360E+00  0.142331554074E+01
  0.294663108147E+02  0.923076923080E+00  0.142331554074E+01
  0.100000000000E+01  0.102564102560E+01  0.000000000000E+00
  0.100000000000E+01  0.974358974360E+00  0.000000000000E+00
  0.294663108147E+02  0.102564102560E+01  0.142331554074E+01
  0.294663108147E+02  0.974358974360E+00  0.142331554074E+01
  0.100000000000E+01  0.107692307690E+01  0.000000000000E+00
  0.100000000000E+01  0.102564102560E+01  0.000000000000E+00
  0.294663108147E+02  0.107692307690E+01  0.142331554074E+01
  0.294663108147E+02  0.102564102560E+01  0.142331554074E+01
  0.100000000000E+01  0.112820512820E+01  0.000000000000E+00
  0.100000000000E+01  0.107692307690E+01  0.000000000000E+00
  0.294663108147E+02  0.112820512820E+01  0.142331554074E+01
  0.294663108147E+02  0.107692307690E+01  0.142331554074E+01
  0.100000000000E+01  0.117948717950E+01  0.000000000000E+00
  0.100000000000E+01  0.112820512820E+01  0.000000000000E+00
  0.294663108147E+02  0.117948717950E+01  0.142331554074E+01
  0.294663108147E+02  0.112820512820E+01  0.142331554074E+01
  0.100000000000E+01  0.123076923080E+01  0.000000000000E+00
  0.100000000000E+01  0.117948717950E+01  0.000000000000E+00
  0.294663108147E+02  0.123076923080E+01  0.142331554074E+01
  0.294663108147E+02  0.117948717950E+01  0.142331554074E+01
  0.100000000000E+01  0.128205128210E+01  0.000000000000E+00
  0.100000000000E+01  0.123076923080E+01  0.000000000000E+00
  0.294663108147E+02  0.128205128210E+01  0.142331554074E+01
  0.294663108147E+02  0.123076923080E+01  0.142331554074E+01
  0.100000000000E+01  0.133333333330E+01  0.000000000000E+00
  0.100000000000E+01  0.128205128210E+01  0.000000000000E+00
  0.294663108147E+02  0.133333333330E+01  0.142331554074E+01
  0.294663108147E+02  0.128205128210E+01  0.142331554074E+01
  0.100000000000E+01  0.138461538460E+01  0.000000000000E+00
  0.100000000000E+01  0.133333333330E+01  0.000000000000E+00
  0.294663108147E+02  0.138461538460E+01  0.142331554074E+01
  0.294663108147E+02  0.133333333330E+01  0.142331554074E+01
  0.100000000000E+01  0.143589743590E+01  0.000000000000E+00
  0.100000000000E+01  0.138461538460E+01  0.000000000000E+00
  0.294663108147E+02  0.143589743590E+01  0.142331554074E+01
  0.294663108147E+02  0.138461538460E+01  0.142331554074E+01
  0.100000000000E+01  0.148717948720E+01  0.000000000000E+00
  0.100000000000E+01  0.143589743590E+01  0.000000000000E+00
  0.294663108147E+02  0.148717948720E+01  0.142331554074E+01
  0.294663108147E+02  0.143589743590E+01  0.142331554074E+01
  0.100000000000E+01  0.153846153850E+01  0.000000000000E+00
  0.100000000000E+01  0.148717948720E+01  0.000000000000E+00
  0.294663108147E+02  0.153846153850E+01  0.142331554074E+01
  0.294663108147E+02  0.148717948720E+01  0.142331554074E+01
  0.100000000000E+01  0.158974358970E+01  0.000000000000E+00
  0.100000000000E+01  0.153846153850E+01  0.000000000000E+00
  0.294663108147E+02  0.158974358970E+01  0.142331554074E+01
  0.294663108147E+02  0.153846153850E+01  0.142331554074E+01
  0.100000000000E+01  0.164102564100E+01  0.000000000000E+00
  0.100000000000E+01  0.158974358970E+01  0.000000000000E+00
  0.294663108147E+02  0.164102564100E+01  0.142331554074E+01
  0.294663108147E+02  0.158974358970E+01  0.142331554074E+01
  0.100000000000E+01  0.169230769230E+01  0.000000000000E+00
  0.100000000000E+01  0.164102564100E+01  0.000000000000E+00
  0.294663108147E+02  0.169230769230E+01  0.142331554074E+01
  0.294663108147E+02  0.164102564100E+01  0.142331554074E+01
  0.100000000000E+01  0.174358974360E+01  0.000000000000E+00
  0.100000000000E+01  0.169230769230E+01  0.000000000000E+00
  0.294663108147E+02  0.174358974360E+01  0.142331554074E+01
  0.294663108147E+02  0.169230769230E+01  0.142331554074E+01
  0.100000000000E+01  0.179487179490E+01  0.000000000000E+00
  0.100000000000E+01  0.174358974360E+01  0.000000000000E+00
  0.294663108147E+02  0.179487179490E+01  0.142331554074E+01
  0.294663108147E+02  0.174358974360E+01  0.142331554074E+01
  0.100000000000E+01  0.184615384620E+01  0.000000000000E+00
  0.100000000000E+01  0.179487179490E+01  0.000000000000E+00
  0.294663108147E+02  0.184615384620E+01  0.142331554074E+01
  0.294663108147E+02  0.179487179490E+01  0.142331554074E+01
  0.100000000000E+01  0.189743589740E+01  0.000000000000E+00
  0.100000000000E+01  0.184615384620E+01  0.000000000000E+00
  0.294663108147E+02  0.189743589740E+01  0.142331554074E+01
  0.294663108147E+02  0.184615384620E+01  0.142331554074E+01
  0.100000000000E+01  0.194871794870E+01  0.000000000000E+00
  0.100000000000E+01  0.189743589740E+01  0.000000000000E+00
  0.294663108147E+02  0.194871794870E+01  0.142331554074E+01
  0.294663108147E+02  0.189743589740E+01  0.142331554074E+01
  0.100000000000E+01  0.200000000000E+01  0.000000000000E+00
  0.100000000000E+01  0.194871794870E+01  0.000000000000E+00
  0.294663108147E+02  0.200000000000E+01  0.142331554074E+01
  0.294663108147E+02  0.194871794870E+01  0.142331554074E+01
  0.100000000000E+01  0.000000000000E+00  0.000000000000E+00
  0.100000000000E+01 -0.512820512820E-01  0.000000000000E+00
  0.294663108147E+02  0.000000000000E+00  0.142331554074E+01
  0.294663108147E+02 -0.512820512820E-01  0.142331554074E+01
  0.100000000000E+01 -0.512820512820E-01  0.000000000000E+00
[...]
POINT_DATA                 312
SCALARS mu float 1
LOOKUP_TABLE default
  0.709835525673E-03
  0.693436425070E-03
  0.709835525673E-03
  0.693436425070E-03
  0.714489077540E-03
  0.709835525673E-03
  0.714489077540E-03
  0.709835525673E-03
  0.744049181342E-03
  0.714489077540E-03
  0.744049181342E-03
  0.714489077540E-03
  0.760379685077E-03
  0.744049181342E-03
  0.760379685077E-03
  0.744049181342E-03
  0.805094956112E-03
  0.760379685077E-03
  0.805094956112E-03
  0.760379685077E-03
  0.845998215021E-03
  0.805094956112E-03
  0.845998215021E-03
  0.805094956112E-03
  0.887956717398E-03
  0.845998215021E-03
  0.887956717398E-03
  0.845998215021E-03
  0.793641383087E-03
  0.887956717398E-03
  0.793641383087E-03
  0.887956717398E-03
  0.582805396388E-03
  0.793641383087E-03
  0.582805396388E-03
  0.793641383087E-03
  0.296200739329E-03
  0.582805396388E-03
  0.296200739329E-03
  0.582805396388E-03
  0.124487096443E-03
  0.296200739329E-03
  0.124487096443E-03
  0.296200739329E-03
  0.477792352516E-04
  0.124487096443E-03
  0.477792352516E-04
  0.124487096443E-03
  0.176487107711E-04
  0.477792352516E-04
  0.176487107711E-04
  0.477792352516E-04
  0.642417143690E-05
  0.176487107711E-04
  0.642417143690E-05
  0.176487107711E-04
  0.232641372406E-05
  0.642417143690E-05
  0.232641372406E-05
  0.642417143690E-05
  0.841061513797E-06
  0.232641372406E-05
  0.841061513797E-06
  0.232641372406E-05
  0.303909222992E-06
  0.841061513797E-06
  0.303909222992E-06
  0.841061513797E-06
  0.109797814616E-06
  0.303909222992E-06
  0.109797814616E-06
  0.303909222992E-06
  0.396665640880E-07
  0.109797814616E-06
  0.396665640880E-07
  0.109797814616E-06
  0.143301323855E-07
  0.396665640880E-07
  0.143301323855E-07
  0.396665640880E-07
  0.517695492276E-08
  0.143301323855E-07
  0.517695492276E-08
  0.143301323855E-07
  0.187024360254E-08
  0.517695492276E-08
  0.187024360254E-08
  0.517695492276E-08
  0.675650137636E-09
  0.187024360254E-08
  0.675650137636E-09
  0.187024360254E-08
  0.244087497311E-09
  0.675650137636E-09
  0.244087497311E-09
  0.675650137636E-09
  0.881798168407E-10
  0.244087497311E-09
  0.881798168407E-10
  0.244087497311E-09
  0.318561178303E-10
  0.881798168407E-10
  0.318561178303E-10
  0.881798168407E-10
  0.115084412406E-10
  0.318561178303E-10
  0.115084412406E-10
  0.318561178303E-10
  0.415757564752E-11
  0.115084412406E-10
  0.415757564752E-11
  0.115084412406E-10
  0.150197884321E-11
  0.415757564752E-11
  0.150197884321E-11
  0.415757564752E-11
  0.542609596882E-12
  0.150197884321E-11
  0.542609596882E-12
  0.150197884321E-11
  0.196024848336E-12
  0.542609596882E-12
  0.196024848336E-12
  0.542609596882E-12
  0.708165526975E-13
  0.196024848336E-12
  0.708165526975E-13
  0.196024848336E-12
  0.255834103708E-13
  0.708165526975E-13
  0.255834103708E-13
  0.708165526975E-13
  0.924234322484E-14
  0.255834103708E-13
  0.924234322484E-14
  0.255834103708E-13
  0.333891795651E-14
  0.924234322484E-14
  0.333891795651E-14
  0.924234322484E-14
  0.120622799355E-14
  0.333891795651E-14
  0.120622799355E-14
  0.333891795651E-14
  0.435765715998E-15
  0.120622799355E-14
  0.435765715998E-15
  0.120622799355E-14
  0.157426091920E-15
  0.435765715998E-15
  0.157426091920E-15
  0.435765715998E-15
  0.000000000000E+00
  0.157426091920E-15
  0.000000000000E+00
  0.157426091920E-15
  0.693436425070E-03
  0.709835521193E-03
  0.693436425070E-03
  0.709835521193E-03
  0.709835521193E-03
  0.714489078057E-03
  0.709835521193E-03
  0.714489078057E-03
  0.714489078057E-03
  0.744049175621E-03
  0.714489078057E-03
  0.744049175621E-03
  0.744049175621E-03
  0.760379683230E-03
  0.744049175621E-03
  0.760379683230E-03
  0.760379683230E-03
  0.805094961267E-03
  0.760379683230E-03
  0.805094961267E-03
  0.805094961267E-03
  0.845998218483E-03
  0.805094961267E-03
  0.845998218483E-03
  0.845998218483E-03
  0.887956718466E-03
  0.845998218483E-03
  0.887956718466E-03
  0.887956718466E-03
  0.793641398072E-03
  0.887956718466E-03
  0.793641398072E-03
  0.793641398072E-03
  0.582805398200E-03
  0.793641398072E-03
  0.582805398200E-03
  0.582805398200E-03
  0.296200740034E-03
  0.582805398200E-03
  0.296200740034E-03
  0.296200740034E-03
  0.124487096682E-03
  0.296200740034E-03
  0.124487096682E-03
  0.124487096682E-03
  0.477792353285E-04
  0.124487096682E-03
  0.477792353285E-04
  0.477792353285E-04
  0.176487107981E-04
  0.477792353285E-04
  0.176487107981E-04
  0.176487107981E-04
  0.642417144664E-05
  0.176487107981E-04
  0.642417144664E-05
  0.642417144664E-05
  0.232641372795E-05
  0.642417144664E-05
  0.232641372795E-05
  0.232641372795E-05
  0.841061515091E-06
  0.232641372795E-05
  0.841061515091E-06
  0.841061515091E-06
  0.303909223446E-06
  0.841061515091E-06
  0.303909223446E-06
  0.303909223446E-06
  0.109797814779E-06
  0.303909223446E-06
  0.109797814779E-06
  0.109797814779E-06
  0.396665641428E-07
  0.109797814779E-06
  0.396665641428E-07
  0.396665641428E-07
  0.143301324061E-07
  0.396665641428E-07
  0.143301324061E-07
  0.143301324061E-07
  0.517695492964E-08
  0.143301324061E-07
  0.517695492964E-08
  0.517695492964E-08
  0.187024360502E-08
  0.517695492964E-08
  0.187024360502E-08
  0.187024360502E-08
  0.675650138763E-09
  0.187024360502E-08
  0.675650138763E-09
  0.675650138763E-09
  0.244087497654E-09
  0.675650138763E-09
  0.244087497654E-09
  0.244087497654E-09
  0.881798169434E-10
  0.244087497654E-09
  0.881798169434E-10
  0.881798169434E-10
  0.318561178632E-10
  0.881798169434E-10
  0.318561178632E-10
  0.318561178632E-10
  0.115084412512E-10
  0.318561178632E-10
  0.115084412512E-10
  0.115084412512E-10
  0.415757565112E-11
  0.115084412512E-10
  0.415757565112E-11
  0.415757565112E-11
  0.150197884502E-11
  0.415757565112E-11
  0.150197884502E-11
  0.150197884502E-11
  0.542609597464E-12
  0.150197884502E-11
  0.542609597464E-12
  0.542609597464E-12
  0.196024848576E-12
  0.542609597464E-12
  0.196024848576E-12
  0.196024848576E-12
  0.708165527975E-13
  0.196024848576E-12
  0.708165527975E-13
  0.708165527975E-13
  0.255834104041E-13
  0.708165527975E-13
  0.255834104041E-13
  0.255834104041E-13
  0.924234323634E-14
  0.255834104041E-13
  0.924234323634E-14
  0.924234323634E-14
  0.333891796180E-14
  0.924234323634E-14
  0.333891796180E-14
  0.333891796180E-14
  0.120622799530E-14
  0.333891796180E-14
  0.120622799530E-14
  0.120622799530E-14
  0.435765716696E-15
  0.120622799530E-14
  0.435765716696E-15
  0.435765716696E-15
  0.157426092202E-15
  0.435765716696E-15
  0.157426092202E-15
  0.157426092202E-15
  0.000000000000E+00
  0.157426092202E-15
  0.000000000000E+00
