# vtk DataFile Version 3.0
TriPan results file. Generated by TriPan, USU AeroLab (c) 2021.
ASCII
DATASET POLYDATA
POINTS                 446 float
  0.000000000000E+00  0.000000000000E+00  0.000000000000E+00
  0.000000000000E+00  0.217527970672E+00  0.000000000000E+00
  0.000000000000E+00  0.448061168194E+00  0.000000000000E+00
  0.000000000000E+00  0.689725637436E+00  0.000000000000E+00
  0.000000000000E+00  0.940178275108E+00  0.000000000000E+00
  0.000000000000E+00  0.119668114185E+01  0.000000000000E+00
  0.000000000000E+00  0.145621216297E+01  0.000000000000E+00
  0.000000000000E+00  0.171560299397E+01  0.000000000000E+00
  0.000000000000E+00  0.197169232368E+01  0.000000000000E+00
  0.000000000000E+00  0.222147774696E+01  0.000000000000E+00
  0.000000000000E+00  0.246225214005E+01  0.000000000000E+00
  0.000000000000E+00  0.269171094894E+01  0.000000000000E+00
  0.000000000000E+00  0.290802383423E+01  0.000000000000E+00
  0.000000000000E+00  0.310986590385E+01  0.000000000000E+00
  0.000000000000E+00  0.329641318321E+01  0.000000000000E+00
  0.000000000000E+00  0.346730756760E+01  0.000000000000E+00
  0.000000000000E+00  0.362259936333E+01  0.000000000000E+00
  0.000000000000E+00  0.376267743111E+01  0.000000000000E+00
  0.000000000000E+00  0.388819599152E+01  0.000000000000E+00
  0.000000000000E+00  0.400000000000E+01  0.000000000000E+00
  0.341100133955E-01  0.000000000000E+00 -0.298423948698E-02
  0.341100133955E-01  0.000000000000E+00  0.298423948698E-02
  0.341100133955E-01  0.217527970672E+00 -0.298423948698E-02
  0.341100133955E-01  0.217527970672E+00  0.298423948698E-02
  0.341100133955E-01  0.448061168194E+00 -0.298423948698E-02
  0.341100133955E-01  0.448061168194E+00  0.298423948698E-02
  0.341100133955E-01  0.689725637436E+00 -0.298423948698E-02
  0.341100133955E-01  0.689725637436E+00  0.298423948698E-02
  0.341100133955E-01  0.940178275108E+00 -0.298423948698E-02
  0.341100133955E-01  0.940178275108E+00  0.298423948698E-02
  0.341100133955E-01  0.119668114185E+01 -0.298423948698E-02
  0.341100133955E-01  0.119668114185E+01  0.298423948698E-02
  0.341100133955E-01  0.145621216297E+01 -0.298423948698E-02
  0.341100133955E-01  0.145621216297E+01  0.298423948698E-02
  0.341100133955E-01  0.171560299397E+01 -0.298423948698E-02
  0.341100133955E-01  0.171560299397E+01  0.298423948698E-02
  0.341100133955E-01  0.197169232368E+01 -0.298423948698E-02
  0.341100133955E-01  0.197169232368E+01  0.298423948698E-02
  0.341100133955E-01  0.222147774696E+01 -0.298423948698E-02
  0.341100133955E-01  0.222147774696E+01  0.298423948698E-02
  0.341100133955E-01  0.246225214005E+01 -0.298423948698E-02
  0.341100133955E-01  0.246225214005E+01  0.298423948698E-02
  0.341100133955E-01  0.269171094894E+01 -0.298423948698E-02
  0.341100133955E-01  0.269171094894E+01  0.298423948698E-02
  0.341100133955E-01  0.290802383423E+01 -0.298423948698E-02
  0.341100133955E-01  0.290802383423E+01  0.298423948698E-02
  0.341100133955E-01  0.310986590385E+01 -0.298423948698E-02
  0.341100133955E-01  0.310986590385E+01  0.298423948698E-02
  0.341100133955E-01  0.329641318321E+01 -0.298423948698E-02
  0.341100133955E-01  0.329641318321E+01  0.298423948698E-02
  0.341100133955E-01  0.346730756760E+01 -0.298423948698E-02
  0.341100133955E-01  0.346730756760E+01  0.298423948698E-02
  0.341100133955E-01  0.362259936333E+01 -0.298423948698E-02
  0.341100133955E-01  0.362259936333E+01  0.298423948698E-02
  0.341100133955E-01  0.376267743111E+01 -0.298423948698E-02
  0.341100133955E-01  0.376267743111E+01  0.298423948698E-02
  0.341100133955E-01  0.388819599152E+01 -0.298423948698E-02
  0.341100133955E-01  0.388819599152E+01  0.298423948698E-02
  0.341100133955E-01  0.400000000000E+01 -0.298423948698E-02
  0.341100133955E-01  0.400000000000E+01  0.298423948698E-02
  0.341100133955E-01  0.400210952759E+01 -0.210976228118E-02
  0.341100133955E-01  0.400210952759E+01  0.210976228118E-02
  0.341100133955E-01  0.400298404694E+01  0.000000000000E+00
  0.937237665057E-01  0.000000000000E+00 -0.819976720959E-02
  0.937237665057E-01  0.000000000000E+00  0.819976720959E-02
  0.937237665057E-01  0.217527970672E+00 -0.819976720959E-02
  0.937237665057E-01  0.217527970672E+00  0.819976720959E-02
  0.937237665057E-01  0.448061168194E+00 -0.819976720959E-02
  0.937237665057E-01  0.448061168194E+00  0.819976720959E-02
  0.937237665057E-01  0.689725637436E+00 -0.819976720959E-02
  0.937237665057E-01  0.689725637436E+00  0.819976720959E-02
  0.937237665057E-01  0.940178275108E+00 -0.819976720959E-02
  0.937237665057E-01  0.940178275108E+00  0.819976720959E-02
  0.937237665057E-01  0.119668114185E+01 -0.819976720959E-02
  0.937237665057E-01  0.119668114185E+01  0.819976720959E-02
  0.937237665057E-01  0.145621216297E+01 -0.819976720959E-02
  0.937237665057E-01  0.145621216297E+01  0.819976720959E-02
  0.937237665057E-01  0.171560299397E+01 -0.819976720959E-02
  0.937237665057E-01  0.171560299397E+01  0.819976720959E-02
  0.937237665057E-01  0.197169232368E+01 -0.819976720959E-02
  0.937237665057E-01  0.197169232368E+01  0.819976720959E-02
  0.937237665057E-01  0.222147774696E+01 -0.819976720959E-02
  0.937237665057E-01  0.222147774696E+01  0.819976720959E-02
  0.937237665057E-01  0.246225214005E+01 -0.819976720959E-02
  0.937237665057E-01  0.246225214005E+01  0.819976720959E-02
  0.937237665057E-01  0.269171094894E+01 -0.819976720959E-02
  0.937237665057E-01  0.269171094894E+01  0.819976720959E-02
  0.937237665057E-01  0.290802383423E+01 -0.819976720959E-02
  0.937237665057E-01  0.290802383423E+01  0.819976720959E-02
  0.937237665057E-01  0.310986590385E+01 -0.819976720959E-02
  0.937237665057E-01  0.310986590385E+01  0.819976720959E-02
  0.937237665057E-01  0.329641318321E+01 -0.819976720959E-02
  0.937237665057E-01  0.329641318321E+01  0.819976720959E-02
  0.937237665057E-01  0.346730756760E+01 -0.819976720959E-02
  0.937237665057E-01  0.346730756760E+01  0.819976720959E-02
  0.937237665057E-01  0.362259936333E+01 -0.819976720959E-02
  0.937237665057E-01  0.362259936333E+01  0.819976720959E-02
  0.937237665057E-01  0.376267743111E+01 -0.819976720959E-02
  0.937237665057E-01  0.376267743111E+01  0.819976720959E-02
  0.937237665057E-01  0.388819599152E+01 -0.819976720959E-02
  0.937237665057E-01  0.388819599152E+01  0.819976720959E-02
  0.937237665057E-01  0.400000000000E+01 -0.819976720959E-02
  0.937237665057E-01  0.400000000000E+01  0.819976720959E-02
  0.937237665057E-01  0.400579690933E+01 -0.579697405919E-02
  0.937237665057E-01  0.400579690933E+01  0.579697405919E-02
  0.937237665057E-01  0.400819969177E+01  0.000000000000E+00
  0.190432325006E+00  0.000000000000E+00 -0.166606698185E-01
  0.190432325006E+00  0.000000000000E+00  0.166606698185E-01
  0.190432325006E+00  0.217527970672E+00 -0.166606698185E-01
  0.190432325006E+00  0.217527970672E+00  0.166606698185E-01
  0.190432325006E+00  0.448061168194E+00 -0.166606698185E-01
  0.190432325006E+00  0.448061168194E+00  0.166606698185E-01
  0.190432325006E+00  0.689725637436E+00 -0.166606698185E-01
  0.190432325006E+00  0.689725637436E+00  0.166606698185E-01
  0.190432325006E+00  0.940178275108E+00 -0.166606698185E-01
  0.190432325006E+00  0.940178275108E+00  0.166606698185E-01
  0.190432325006E+00  0.119668114185E+01 -0.166606698185E-01
  0.190432325006E+00  0.119668114185E+01  0.166606698185E-01
  0.190432325006E+00  0.145621216297E+01 -0.166606698185E-01
  0.190432325006E+00  0.145621216297E+01  0.166606698185E-01
  0.190432325006E+00  0.171560299397E+01 -0.166606698185E-01
  0.190432325006E+00  0.171560299397E+01  0.166606698185E-01
  0.190432325006E+00  0.197169232368E+01 -0.166606698185E-01
  0.190432325006E+00  0.197169232368E+01  0.166606698185E-01
  0.190432325006E+00  0.222147774696E+01 -0.166606698185E-01
  0.190432325006E+00  0.222147774696E+01  0.166606698185E-01
  0.190432325006E+00  0.246225214005E+01 -0.166606698185E-01
  0.190432325006E+00  0.246225214005E+01  0.166606698185E-01
  0.190432325006E+00  0.269171094894E+01 -0.166606698185E-01
  0.190432325006E+00  0.269171094894E+01  0.166606698185E-01
  0.190432325006E+00  0.290802383423E+01 -0.166606698185E-01
  0.190432325006E+00  0.290802383423E+01  0.166606698185E-01
  0.190432325006E+00  0.310986590385E+01 -0.166606698185E-01
  0.190432325006E+00  0.310986590385E+01  0.166606698185E-01
  0.190432325006E+00  0.329641318321E+01 -0.166606698185E-01
  0.190432325006E+00  0.329641318321E+01  0.166606698185E-01
  0.190432325006E+00  0.346730756760E+01 -0.166606698185E-01
  0.190432325006E+00  0.346730756760E+01  0.166606698185E-01
  0.190432325006E+00  0.362259936333E+01 -0.166606698185E-01
  0.190432325006E+00  0.362259936333E+01  0.166606698185E-01
  0.190432325006E+00  0.376267743111E+01 -0.166606698185E-01
  0.190432325006E+00  0.376267743111E+01  0.166606698185E-01
  0.190432325006E+00  0.388819599152E+01 -0.166606698185E-01
  0.190432325006E+00  0.388819599152E+01  0.166606698185E-01
  0.190432325006E+00  0.400000000000E+01 -0.166606698185E-01
  0.190432325006E+00  0.400000000000E+01  0.166606698185E-01
  0.190432325006E+00  0.401177835464E+01 -0.117785623297E-01
  0.190432325006E+00  0.401177835464E+01  0.117785623297E-01
  0.190432325006E+00  0.401666069031E+01 -0.272416755980E-17
  0.329831987619E+00  0.000000000000E+00 -0.288565587252E-01
  0.329831987619E+00  0.000000000000E+00  0.288565587252E-01
  0.329831987619E+00  0.217527970672E+00 -0.288565587252E-01
  0.329831987619E+00  0.217527970672E+00  0.288565587252E-01
  0.329831987619E+00  0.448061168194E+00 -0.288565587252E-01
  0.329831987619E+00  0.448061168194E+00  0.288565587252E-01
  0.329831987619E+00  0.689725637436E+00 -0.288565587252E-01
  0.329831987619E+00  0.689725637436E+00  0.288565587252E-01
  0.329831987619E+00  0.940178275108E+00 -0.288565587252E-01
  0.329831987619E+00  0.940178275108E+00  0.288565587252E-01
  0.329831987619E+00  0.119668114185E+01 -0.288565587252E-01
  0.329831987619E+00  0.119668114185E+01  0.288565587252E-01
[...]
CELL_DATA                 832
SCALARS sigma float 1
LOOKUP_TABLE default
 -0.871557522570E-01
 -0.871557522570E-01
 -0.871557287754E-01
 -0.871557287754E-01
 -0.871557634975E-01
 -0.871557634975E-01
 -0.871557429768E-01
 -0.871557429768E-01
 -0.871557414567E-01
 -0.871557414567E-01
  0.871557566045E-01
  0.871557566045E-01
  0.871557337317E-01
  0.871557337317E-01
  0.871557435062E-01
  0.871557435062E-01
  0.871557449904E-01
  0.871557449904E-01
  0.871557428102E-01
  0.871557428102E-01
  0.871557428102E-01
  0.871557428102E-01
  0.871557449904E-01
  0.871557449904E-01
  0.871557435062E-01
  0.871557435062E-01
  0.871557337317E-01
  0.871557337317E-01
  0.871557566045E-01
  0.871557566045E-01
 -0.871557414567E-01
 -0.871557414567E-01
 -0.871557429768E-01
 -0.871557429768E-01
 -0.871557634975E-01
 -0.871557634975E-01
 -0.871557287754E-01
 -0.871557287754E-01
 -0.871557522570E-01
 -0.871557522570E-01
 -0.871557522570E-01
 -0.871557522570E-01
 -0.871557287754E-01
 -0.871557287754E-01
 -0.871557634975E-01
 -0.871557634975E-01
 -0.871557429768E-01
 -0.871557429768E-01
 -0.871557414567E-01
 -0.871557414567E-01
  0.871557566045E-01
  0.871557566045E-01
  0.871557337317E-01
  0.871557337317E-01
  0.871557435062E-01
  0.871557435062E-01
  0.871557449904E-01
  0.871557449904E-01
  0.871557428102E-01
  0.871557428102E-01
  0.871557428102E-01
  0.871557428102E-01
  0.871557449904E-01
  0.871557449904E-01
  0.871557435062E-01
  0.871557435062E-01
  0.871557337317E-01
  0.871557337317E-01
  0.871557566045E-01
  0.871557566045E-01
 -0.871557414567E-01
 -0.871557414567E-01
 -0.871557429768E-01
 -0.871557429768E-01
 -0.871557634975E-01
 -0.871557634975E-01
 -0.871557287754E-01
 -0.871557287754E-01
 -0.871557522570E-01
 -0.871557522570E-01
 -0.871557522570E-01
 -0.871557522570E-01
 -0.871557287754E-01
 -0.871557287754E-01
 -0.871557634975E-01
 -0.871557634975E-01
 -0.871557429768E-01
 -0.871557429768E-01
 -0.871557414567E-01
 -0.871557414567E-01
  0.871557566045E-01
  0.871557566045E-01
  0.871557337317E-01
  0.871557337317E-01
  0.871557435062E-01
  0.871557435062E-01
  0.871557449904E-01
  0.871557449904E-01
  0.871557428102E-01
  0.871557428102E-01
  0.871557428102E-01
  0.871557428102E-01
  0.871557449904E-01
  0.871557449904E-01
  0.871557435062E-01
  0.871557435062E-01
  0.871557337317E-01
  0.871557337317E-01
  0.871557566045E-01
  0.871557566045E-01
 -0.871557414567E-01
 -0.871557414567E-01
 -0.871557429768E-01
 -0.871557429768E-01
 -0.871557634975E-01
 -0.871557634975E-01
 -0.871557287754E-01
 -0.871557287754E-01
 -0.871557522570E-01
 -0.871557522570E-01
 -0.871557522570E-01
 -0.871557522570E-01
 -0.871557287754E-01
 -0.871557287754E-01
 -0.871557634975E-01
 -0.871557634975E-01
 -0.871557429768E-01
 -0.871557429768E-01
 -0.871557414567E-01
 -0.871557414567E-01
  0.871557566045E-01
  0.871557566045E-01
  0.871557337317E-01
  0.871557337317E-01
  0.871557435062E-01
  0.871557435062E-01
  0.871557449904E-01
  0.871557449904E-01
  0.871557428102E-01
  0.871557428102E-01
  0.871557428102E-01
  0.871557428102E-01
  0.871557449904E-01
  0.871557449904E-01
  0.871557435062E-01
  0.871557435062E-01
  0.871557337317E-01
  0.871557337317E-01
  0.871557566045E-01
  0.871557566045E-01
 -0.871557414567E-01
 -0.871557414567E-01
 -0.871557429768E-01
 -0.871557429768E-01
 -0.871557634975E-01
 -0.871557634975E-01
 -0.871557287754E-01
 -0.871557287754E-01
 -0.871557522570E-01
 -0.871557522570E-01
 -0.871557522570E-01
 -0.871557522570E-01
 -0.871557287754E-01
 -0.871557287754E-01
 -0.871557634975E-01
 -0.871557634975E-01
 -0.871557429768E-01
 -0.871557429768E-01
 -0.871557414567E-01
 -0.871557414567E-01
  0.871557566045E-01
  0.871557566045E-01
  0.871557337317E-01
  0.871557337317E-01
  0.871557435062E-01
  0.871557435062E-01
  0.871557449904E-01
  0.871557449904E-01
  0.871557428102E-01
  0.871557428102E-01
  0.871557428102E-01
  0.871557428102E-01
  0.871557449904E-01
  0.871557449904E-01
  0.871557435062E-01
  0.871557435062E-01
  0.871557337317E-01
  0.871557337317E-01
  0.871557566045E-01
  0.871557566045E-01
 -0.871557414567E-01
 -0.871557414567E-01
 -0.871557429768E-01
 -0.871557429768E-01
 -0.871557634975E-01
 -0.871557634975E-01
 -0.871557287754E-01
 -0.871557287754E-01
 -0.871557522570E-01
 -0.871557522570E-01
 -0.871557522570E-01
 -0.871557522570E-01
 -0.871557287754E-01
 -0.871557287754E-01
 -0.871557634975E-01
 -0.871557634975E-01
 -0.871557429768E-01
 -0.871557429768E-01
 -0.871557414567E-01
 -0.871557414567E-01
  0.871557566045E-01
  0.871557566045E-01
  0.871557337317E-01
  0.871557337317E-01
  0.871557435062E-01
  0.871557435062E-01
  0.871557449904E-01
  0.871557449904E-01
  0.871557428102E-01
  0.871557428102E-01
  0.871557428102E-01
  0.871557428102E-01
  0.871557449904E-01
  0.871557449904E-01
  0.871557435062E-01
  0.871557435062E-01
  0.871557337317E-01
  0.871557337317E-01
  0.871557566045E-01
  0.871557566045E-01
 -0.871557414567E-01
 -0.871557414567E-01
 -0.871557429768E-01
 -0.871557429768E-01
 -0.871557634975E-01
 -0.871557634975E-01
 -0.871557287754E-01
 -0.871557287754E-01
 -0.871557522570E-01
 -0.871557522570E-01
 -0.871557522570E-01
 -0.871557522570E-01
 -0.871557287754E-01
 -0.871557287754E-01
 -0.871557634975E-01
 -0.871557634975E-01
 -0.871557429768E-01
 -0.871557429768E-01
 -0.871557414567E-01
 -0.871557414567E-01
  0.871557566045E-01
  0.871557566045E-01
  0.871557337317E-01
  0.871557337317E-01
  0.871557435062E-01
  0.871557435062E-01
  0.871557449904E-01
  0.871557449904E-01
  0.871557428102E-01
  0.871557428102E-01
  0.871557428102E-01
  0.871557428102E-01
  0.871557449904E-01
  0.871557449904E-01
  0.871557435062E-01
  0.871557435062E-01
  0.871557337317E-01
  0.871557337317E-01
  0.871557566045E-01
  0.871557566045E-01
 -0.871557414567E-01
 -0.871557414567E-01
 -0.871557429768E-01
 -0.871557429768E-01
 -0.871557634975E-01
 -0.871557634975E-01
 -0.871557287754E-01
 -0.871557287754E-01
 -0.871557522570E-01
 -0.871557522570E-01
 -0.871557522570E-01
 -0.871557522570E-01
 -0.871557287754E-01
 -0.871557287754E-01
 -0.871557634975E-01
 -0.871557634975E-01
 -0.871557429768E-01
 -0.871557429768E-01
 -0.871557414567E-01
 -0.871557414567E-01
  0.871557566045E-01
  0.871557566045E-01
  0.871557337317E-01
  0.871557337317E-01
  0.871557435062E-01
  0.871557435062E-01
  0.871557449904E-01
  0.871557449904E-01
  0.871557428102E-01
  0.871557428102E-01
  0.871557428102E-01
  0.871557428102E-01
  0.871557449904E-01
  0.871557449904E-01
  0.871557435062E-01
  0.871557435062E-01
  0.871557337317E-01
  0.871557337317E-01
  0.871557566045E-01
  0.871557566045E-01
 -0.871557414567E-01
 -0.871557414567E-01
 -0.871557429768E-01
 -0.871557429768E-01
 -0.871557634975E-01
 -0.871557634975E-01
 -0.871557287754E-01
 -0.871557287754E-01
 -0.871557522570E-01
 -0.871557522570E-01
 -0.871557522570E-01
 -0.871557522570E-01
 -0.871557287754E-01
 -0.871557287754E-01
 -0.871557634975E-01
 -0.871557634975E-01
 -0.871557429768E-01
 -0.871557429768E-01
 -0.871557414567E-01
 -0.871557414567E-01
  0.871557566045E-01
  0.871557566045E-01
  0.871557337317E-01
  0.871557337317E-01
  0.871557435062E-01
  0.871557435062E-01
  0.871557449904E-01
  0.871557449904E-01
  0.871557428102E-01
  0.871557428102E-01
  0.871557428102E-01
  0.871557428102E-01
  0.871557449904E-01
  0.871557449904E-01
  0.871557435062E-01
  0.871557435062E-01
  0.871557337317E-01
  0.871557337317E-01
  0.871557566045E-01
  0.871557566045E-01
 -0.871557414567E-01
 -0.871557414567E-01
 -0.871557429768E-01
 -0.871557429768E-01
 -0.871557634975E-01
 -0.871557634975E-01
 -0.871557287754E-01
 -0.871557287754E-01
 -0.871557522570E-01
 -0.871557522570E-01
 -0.871557522570E-01
 -0.871557522570E-01
 -0.871557287754E-01
 -0.871557287754E-01
 -0.871557634975E-01
 -0.871557634975E-01
 -0.871557429768E-01
 -0.871557429768E-01
 -0.871557414567E-01
 -0.871557414567E-01
  0.871557566045E-01
  0.871557566045E-01
  0.871557337317E-01
  0.871557337317E-01
  0.871557435062E-01
  0.871557435062E-01
  0.871557449904E-01
  0.871557449904E-01
  0.871557428102E-01
  0.871557428102E-01
  0.871557428102E-01
  0.871557428102E-01
  0.871557449904E-01
  0.871557449904E-01
  0.871557435062E-01
  0.871557435062E-01
  0.871557337317E-01
  0.871557337317E-01
  0.871557566045E-01
  0.871557566045E-01
 -0.871557414567E-01
 -0.871557414567E-01
 -0.871557429768E-01
 -0.871557429768E-01
 -0.871557634975E-01
 -0.871557634975E-01
 -0.871557287754E-01
 -0.871557287754E-01
 -0.871557522570E-01
 -0.871557522570E-01
 -0.871557522570E-01
 -0.871557522570E-01
 -0.871557287754E-01
 -0.871557287754E-01
 -0.871557634975E-01
 -0.871557634975E-01
 -0.871557429768E-01
 -0.871557429768E-01
 -0.871557414567E-01
 -0.871557414567E-01
  0.871557566045E-01
  0.871557566045E-01
  0.871557337317E-01
  0.871557337317E-01
  0.871557435062E-01
  0.871557435062E-01
  0.871557449904E-01
  0.871557449904E-01
  0.871557428102E-01
  0.871557428102E-01
  0.871557428102E-01
  0.871557428102E-01
  0.871557449904E-01
  0.871557449904E-01
  0.871557435062E-01
  0.871557435062E-01
  0.871557337317E-01
  0.871557337317E-01
  0.871557566045E-01
  0.871557566045E-01
 -0.871557414567E-01
 -0.871557414567E-01
 -0.871557429768E-01
 -0.871557429768E-01
 -0.871557634975E-01
 -0.871557634975E-01
 -0.871557287754E-01
 -0.871557287754E-01
 -0.871557522570E-01
 -0.871557522570E-01
 -0.871557522570E-01
 -0.871557522570E-01
 -0.871557287754E-01
 -0.871557287754E-01
 -0.871557634975E-01
 -0.871557634975E-01
 -0.871557429768E-01
 -0.871557429768E-01
 -0.871557414567E-01
 -0.871557414567E-01
  0.871557566045E-01
  0.871557566045E-01
  0.871557337317E-01
  0.871557337317E-01
  0.871557435062E-01
  0.871557435062E-01
  0.871557449904E-01
  0.871557449904E-01
  0.871557428102E-01
  0.871557428102E-01
  0.871557428102E-01
  0.871557428102E-01
  0.871557449904E-01
  0.871557449904E-01
  0.871557435062E-01
  0.871557435062E-01
  0.871557337317E-01
  0.871557337317E-01
  0.871557566045E-01
  0.871557566045E-01
 -0.871557414567E-01
 -0.871557414567E-01
 -0.871557429768E-01
 -0.871557429768E-01
 -0.871557634975E-01
 -0.871557634975E-01
 -0.871557287754E-01
 -0.871557287754E-01
 -0.871557522570E-01
 -0.871557522570E-01
 -0.871557522570E-01
 -0.871557522570E-01
 -0.871557287754E-01
 -0.871557287754E-01
 -0.871557634975E-01
 -0.871557634975E-01
 -0.871557429768E-01
 -0.871557429768E-01
 -0.871557414567E-01
 -0.871557414567E-01
  0.871557566045E-01
  0.871557566045E-01
  0.871557337317E-01
  0.871557337317E-01
  0.871557435062E-01
  0.871557435062E-01
  0.871557449904E-01
  0.871557449904E-01
  0.871557428102E-01
  0.871557428102E-01
  0.871557428102E-01
  0.871557428102E-01
  0.871557449904E-01
  0.871557449904E-01
  0.871557435062E-01
  0.871557435062E-01
  0.871557337317E-01
  0.871557337317E-01
  0.871557566045E-01
  0.871557566045E-01
 -0.871557414567E-01
 -0.871557414567E-01
 -0.871557429768E-01
 -0.871557429768E-01
 -0.871557634975E-01
 -0.871557634975E-01
 -0.871557287754E-01
 -0.871557287754E-01
 -0.871557522570E-01
 -0.871557522570E-01
 -0.871557522570E-01
 -0.871557522570E-01
 -0.871557287754E-01
 -0.871557287754E-01
 -0.871557634975E-01
 -0.871557634975E-01
 -0.871557429768E-01
 -0.871557429768E-01
 -0.871557414567E-01
 -0.871557414567E-01
  0.871557566045E-01
  0.871557566045E-01
  0.871557337317E-01
  0.871557337317E-01
  0.871557435062E-01
  0.871557435062E-01
  0.871557449904E-01
  0.871557449904E-01
  0.871557428102E-01
  0.871557428102E-01
  0.871557428102E-01
  0.871557428102E-01
  0.871557449904E-01
  0.871557449904E-01
  0.871557435062E-01
  0.871557435062E-01
  0.871557337317E-01
  0.871557337317E-01
  0.871557566045E-01
  0.871557566045E-01
 -0.871557414567E-01
 -0.871557414567E-01
 -0.871557429768E-01
 -0.871557429768E-01
 -0.871557634975E-01
 -0.871557634975E-01
 -0.871557287754E-01
 -0.871557287754E-01
 -0.871557522570E-01
 -0.871557522570E-01
 -0.871557522570E-01
 -0.871557522570E-01
 -0.871557287754E-01
 -0.871557287754E-01
 -0.871557634975E-01
 -0.871557634975E-01
 -0.871557429768E-01
 -0.871557429768E-01
 -0.871557414567E-01
 -0.871557414567E-01
  0.871557566045E-01
  0.871557566045E-01
  0.871557337317E-01
  0.871557337317E-01
  0.871557435062E-01
  0.871557435062E-01
  0.871557449904E-01
  0.871557449904E-01
  0.871557428102E-01
  0.871557428102E-01
  0.871557428102E-01
  0.871557428102E-01
  0.871557449904E-01
  0.871557449904E-01
  0.871557435062E-01
  0.871557435062E-01
  0.871557337317E-01
  0.871557337317E-01
  0.871557566045E-01
  0.871557566045E-01
 -0.871557414567E-01
 -0.871557414567E-01
 -0.871557429768E-01
 -0.871557429768E-01
 -0.871557634975E-01
 -0.871557634975E-01
 -0.871557287754E-01
 -0.871557287754E-01
 -0.871557522570E-01
 -0.871557522570E-01
 -0.871557522570E-01
 -0.871557522570E-01
 -0.871557287754E-01
 -0.871557287754E-01
 -0.871557634975E-01
 -0.871557634975E-01
 -0.871557429768E-01
 -0.871557429768E-01
 -0.871557414567E-01
 -0.871557414567E-01
  0.871557566045E-01
  0.871557566045E-01
  0.871557337317E-01
  0.871557337317E-01
  0.871557435062E-01
  0.871557435062E-01
  0.871557449904E-01
  0.871557449904E-01
  0.871557428102E-01
  0.871557428102E-01
  0.871557428102E-01
  0.871557428102E-01
  0.871557449904E-01
  0.871557449904E-01
  0.871557435062E-01
  0.871557435062E-01
  0.871557337317E-01
  0.871557337317E-01
  0.871557566045E-01
  0.871557566045E-01
 -0.871557414567E-01
 -0.871557414567E-01
 -0.871557429768E-01
 -0.871557429768E-01
 -0.871557634975E-01
 -0.871557634975E-01
 -0.871557287754E-01
 -0.871557287754E-01
 -0.871557522570E-01
 -0.871557522570E-01
 -0.871557522570E-01
 -0.871557522570E-01
 -0.871557287754E-01
 -0.871557287754E-01
 -0.871557634975E-01
 -0.871557634975E-01
 -0.871557429768E-01
 -0.871557429768E-01
 -0.871557414567E-01
 -0.871557414567E-01
  0.871557566045E-01
  0.871557566045E-01
  0.871557337317E-01
  0.871557337317E-01
  0.871557435062E-01
  0.871557435062E-01
  0.871557449904E-01
  0.871557449904E-01
  0.871557428102E-01
  0.871557428102E-01
  0.871557428102E-01
  0.871557428102E-01
  0.871557449904E-01
  0.871557449904E-01
  0.871557435062E-01
  0.871557435062E-01
  0.871557337317E-01
  0.871557337317E-01
  0.871557566045E-01
  0.871557566045E-01
 -0.871557414567E-01
 -0.871557414567E-01
 -0.871557429768E-01
 -0.871557429768E-01
 -0.871557634975E-01
 -0.871557634975E-01
 -0.871557287754E-01
 -0.871557287754E-01
 -0.871557522570E-01
 -0.871557522570E-01
 -0.871557522570E-01
 -0.871557522570E-01
 -0.871557287754E-01
 -0.871557287754E-01
 -0.871557634975E-01
 -0.871557634975E-01
 -0.871557429768E-01
 -0.871557429768E-01
 -0.871557414567E-01
 -0.871557414567E-01
  0.871557566045E-01
  0.871557566045E-01
  0.871557337317E-01
  0.871557337317E-01
  0.871557435062E-01
  0.871557435062E-01
  0.871557449904E-01
  0.871557449904E-01
  0.871557428102E-01
  0.871557428102E-01
  0.871557428102E-01
  0.871557428102E-01
  0.871557449904E-01
  0.871557449904E-01
  0.871557435062E-01
  0.871557435062E-01
  0.871557337317E-01
  0.871557337317E-01
  0.871557566045E-01
  0.871557566045E-01
 -0.871557414567E-01
 -0.871557414567E-01
 -0.871557429768E-01
 -0.871557429768E-01
 -0.871557634975E-01
 -0.871557634975E-01
 -0.871557287754E-01
 -0.871557287754E-01
 -0.871557522570E-01
 -0.871557522570E-01
 -0.871557522570E-01
 -0.871557522570E-01
 -0.871557287754E-01
 -0.871557287754E-01
 -0.871557634975E-01
 -0.871557634975E-01
 -0.871557429768E-01
 -0.871557429768E-01
 -0.871557414567E-01
 -0.871557414567E-01
  0.871557566045E-01
  0.871557566045E-01
  0.871557337317E-01
  0.871557337317E-01
  0.871557435062E-01
  0.871557435062E-01
  0.871557449904E-01
  0.871557449904E-01
  0.871557428102E-01
  0.871557428102E-01
  0.871557428102E-01
  0.871557428102E-01
  0.871557449904E-01
  0.871557449904E-01
  0.871557435062E-01
  0.871557435062E-01
  0.871557337317E-01
  0.871557337317E-01
  0.871557566045E-01
  0.871557566045E-01
 -0.871557414567E-01
 -0.871557414567E-01
 -0.871557429768E-01
 -0.871557429768E-01
 -0.871557634975E-01
 -0.871557634975E-01
 -0.871557287754E-01
 -0.871557287754E-01
 -0.871557522570E-01
 -0.871557522570E-01
 -0.805570854206E-01
 -0.805607490770E-01
 -0.805582366092E-01
 -0.805579675070E-01
 -0.805581921972E-01
 -0.805587675784E-01
 -0.805582988966E-01
 -0.805585603312E-01
 -0.805583422474E-01
  0.805583562642E-01
  0.805585743480E-01
  0.805582903418E-01
  0.805587590236E-01
  0.805581736985E-01
  0.805579490084E-01
  0.805582516135E-01
  0.805607640817E-01
  0.805570766793E-01
  0.805570766793E-01
  0.805607640817E-01
  0.805582516135E-01
  0.805579490084E-01
  0.805581736985E-01
  0.805587590236E-01
  0.805582903418E-01
  0.805585743480E-01
  0.805583562642E-01
 -0.805583422474E-01
 -0.805585603312E-01
 -0.805582988966E-01
 -0.805587675784E-01
 -0.805581921972E-01
 -0.805579675070E-01
 -0.805582366092E-01
 -0.805607490770E-01
 -0.805570854206E-01
 -0.805526614465E-01
 -0.805596007597E-01
 -0.805609217743E-01
 -0.805593595294E-01
 -0.805575932169E-01
 -0.805589806506E-01
 -0.805592763996E-01
 -0.805580998396E-01
 -0.805589203269E-01
  0.805589343439E-01
  0.805581138564E-01
  0.805592678448E-01
  0.805589720958E-01
  0.805575747185E-01
  0.805593410305E-01
  0.805609367791E-01
  0.805596157642E-01
  0.805526527056E-01
  0.805526527056E-01
  0.805596157642E-01
  0.805609367791E-01
  0.805593410305E-01
  0.805575747185E-01
  0.805589720958E-01
  0.805592678448E-01
  0.805581138564E-01
  0.805589343439E-01
 -0.805589203269E-01
 -0.805580998396E-01
 -0.805592763996E-01
 -0.805589806506E-01
 -0.805575932169E-01
 -0.805593595294E-01
 -0.805609217743E-01
 -0.805596007597E-01
 -0.805526614465E-01
SCALARS C_p_ise float 1
LOOKUP_TABLE default
 -0.388395012529E-01
 -0.156323197252E+00
 -0.236499498227E-01
 -0.405280713846E-01
 -0.131756230256E-01
 -0.961673385577E-01
 -0.132683943210E-01
  0.101298748815E+00
 -0.365552328239E-01
  0.163184311893E+00
  0.369593898803E-01
  0.369593898803E-01
  0.369593791417E-01
  0.369593791417E-01
  0.369593837307E-01
  0.369593837307E-01
  0.369593844275E-01
  0.369593844275E-01
  0.369593834039E-01
  0.369593834039E-01
  0.369593834039E-01
  0.369593834039E-01
  0.369593844275E-01
  0.369593844275E-01
  0.369593837307E-01
  0.369593837307E-01
  0.369593791417E-01
  0.369593791417E-01
  0.369593898803E-01
  0.369593898803E-01
  0.419234819516E-02
 -0.330375476355E-01
  0.195765848773E-01
 -0.502238944135E-01
 -0.433475702794E-01
 -0.595872501151E-01
 -0.186960138252E-01
 -0.623577273934E-01
 -0.566324258059E-01
 -0.606780344694E-01
  0.146526361765E-02
 -0.343153187365E-01
 -0.235546014617E-01
 -0.173323902692E-01
 -0.241715580005E-01
 -0.624231439863E-02
 -0.300248206130E-01
 -0.260218884607E-02
 -0.324984748367E-01
 -0.318652581711E-01
  0.369593898803E-01
  0.369593898803E-01
  0.369593791417E-01
  0.369593791417E-01
  0.369593837307E-01
  0.369593837307E-01
  0.369593844275E-01
  0.369593844275E-01
  0.369593834039E-01
  0.369593834039E-01
  0.369593834039E-01
  0.369593834039E-01
  0.369593844275E-01
  0.369593844275E-01
  0.369593837307E-01
  0.369593837307E-01
  0.369593791417E-01
  0.369593791417E-01
  0.369593898803E-01
  0.369593898803E-01
 -0.328314555324E-01
 -0.325047792038E-01
 -0.489597465716E-01
 -0.348387368239E-01
 -0.581014313690E-01
 -0.407921236468E-01
 -0.604341392795E-01
 -0.428904847366E-01
 -0.587605056522E-01
 -0.639945093643E-01
 -0.181129717481E-01
  0.157167885319E-02
 -0.293434715874E-01
 -0.233872314504E-01
 -0.310446670672E-01
 -0.240209514870E-01
 -0.322637267047E-01
 -0.299528127856E-01
 -0.325017809664E-01
 -0.324984180870E-01
  0.369593898803E-01
  0.369593898803E-01
  0.369593791417E-01
  0.369593791417E-01
  0.369593837307E-01
  0.369593837307E-01
  0.369593844275E-01
  0.369593844275E-01
  0.369593834039E-01
  0.369593834039E-01
  0.369593834039E-01
  0.369593834039E-01
  0.369593844275E-01
  0.369593844275E-01
  0.369593837307E-01
  0.369593837307E-01
  0.369593791417E-01
  0.369593791417E-01
  0.369593898803E-01
  0.369593898803E-01
 -0.325047640721E-01
 -0.325018208931E-01
 -0.348181205247E-01
 -0.327370108815E-01