# vtk DataFile Version 3.0
MachLine results file. Generated by MachLine, USU AeroLab (c) 2022.
ASCII
DATASET POLYDATA
POINTS                1127 float
  0.999999041957E+00  0.000000000000E+00 -0.417491494650E-07
  0.973034383663E+00  0.105263157890E+00 -0.235825883963E-02
  0.999999119618E+00  0.105263157890E+00 -0.383648804671E-07
  0.973034382832E+00  0.000000000000E+00 -0.235824933777E-02
  0.929717675664E+00  0.105263157890E+00 -0.614787723533E-02
  0.929717673943E+00  0.000000000000E+00 -0.614785756087E-02
  0.863184699151E+00  0.105263157890E+00 -0.119686097007E-01
  0.863184696324E+00  0.000000000000E+00 -0.119685773901E-01
  0.767714125425E+00  0.105263157890E+00 -0.203210244768E-01
  0.767714122072E+00  0.000000000000E+00 -0.203209861486E-01
  0.643290413741E+00  0.105263157890E+00 -0.312065343397E-01
  0.643290411360E+00  0.000000000000E+00 -0.312065071268E-01
  0.500000000000E+00  0.105263157890E+00 -0.437427648440E-01
  0.500000000000E+00  0.000000000000E+00 -0.437429617072E-01
  0.356709588640E+00  0.000000000000E+00 -0.312065071268E-01
  0.356709586259E+00  0.105263157890E+00 -0.312065343397E-01
  0.232285877928E+00  0.000000000000E+00 -0.203209861486E-01
  0.232285874575E+00  0.105263157890E+00 -0.203210244768E-01
  0.136815303676E+00  0.000000000000E+00 -0.119685773901E-01
  0.136815300849E+00  0.105263157890E+00 -0.119686097007E-01
  0.702823260562E-01  0.000000000000E+00 -0.614785756087E-02
  0.702823243349E-01  0.105263157890E+00 -0.614787723533E-02
  0.269656171711E-01  0.000000000000E+00 -0.235824933777E-02
  0.269656163398E-01  0.105263157890E+00 -0.235825883963E-02
  0.961695078561E-06  0.000000000000E+00  0.000000000000E+00
  0.883738164913E-06  0.105263157890E+00  0.000000000000E+00
  0.269656163398E-01  0.105263157890E+00  0.235825883963E-02
  0.269656171711E-01  0.000000000000E+00  0.235824933777E-02
  0.702823243349E-01  0.105263157890E+00  0.614787723533E-02
  0.702823260562E-01  0.000000000000E+00  0.614785756087E-02
  0.136815300849E+00  0.105263157890E+00  0.119686097007E-01
  0.136815303676E+00  0.000000000000E+00  0.119685773901E-01
  0.232285874575E+00  0.105263157890E+00  0.203210244768E-01
  0.232285877928E+00  0.000000000000E+00  0.203209861486E-01
  0.356709586259E+00  0.105263157890E+00  0.312065343397E-01
  0.356709588640E+00  0.000000000000E+00  0.312065071268E-01
  0.500000000000E+00  0.105263157890E+00  0.437427648440E-01
  0.500000000000E+00  0.000000000000E+00  0.437429617072E-01
  0.643290411360E+00  0.000000000000E+00  0.312065071268E-01
  0.643290413741E+00  0.105263157890E+00  0.312065343397E-01
  0.767714122072E+00  0.000000000000E+00  0.203209861486E-01
  0.767714125425E+00  0.105263157890E+00  0.203210244768E-01
  0.863184696324E+00  0.000000000000E+00  0.119685773901E-01
  0.863184699151E+00  0.105263157890E+00  0.119686097007E-01
  0.929717673943E+00  0.000000000000E+00  0.614785756087E-02
  0.929717675664E+00  0.105263157890E+00  0.614787723533E-02
  0.973034382832E+00  0.000000000000E+00  0.235824933777E-02
  0.973034383663E+00  0.105263157890E+00  0.235825883963E-02
  0.973034383663E+00  0.210526315790E+00 -0.235825883963E-02
  0.999999119618E+00  0.210526315790E+00 -0.383648804656E-07
  0.929717675664E+00  0.210526315790E+00 -0.614787723533E-02
  0.863184699151E+00  0.210526315790E+00 -0.119686097007E-01
  0.767714125425E+00  0.210526315790E+00 -0.203210244768E-01
  0.643290413741E+00  0.210526315790E+00 -0.312065343397E-01
  0.500000000000E+00  0.210526315790E+00 -0.437427648440E-01
  0.356709586259E+00  0.210526315790E+00 -0.312065343397E-01
  0.232285874575E+00  0.210526315790E+00 -0.203210244768E-01
  0.136815300849E+00  0.210526315790E+00 -0.119686097007E-01
  0.702823243349E-01  0.210526315790E+00 -0.614787723533E-02
  0.269656163398E-01  0.210526315790E+00 -0.235825883963E-02
  0.883738164878E-06  0.210526315790E+00  0.000000000000E+00
  0.269656163398E-01  0.210526315790E+00  0.235825883963E-02
  0.702823243349E-01  0.210526315790E+00  0.614787723533E-02
  0.136815300849E+00  0.210526315790E+00  0.119686097007E-01
  0.232285874575E+00  0.210526315790E+00  0.203210244768E-01
  0.356709586259E+00  0.210526315790E+00  0.312065343397E-01
  0.500000000000E+00  0.210526315790E+00  0.437427648440E-01
  0.643290413741E+00  0.210526315790E+00  0.312065343397E-01
  0.767714125425E+00  0.210526315790E+00  0.203210244768E-01
  0.863184699151E+00  0.210526315790E+00  0.119686097007E-01
  0.929717675664E+00  0.210526315790E+00  0.614787723533E-02
  0.973034383663E+00  0.210526315790E+00  0.235825883963E-02
  0.973034383663E+00  0.315789473680E+00 -0.235825883963E-02
  0.999999119618E+00  0.315789473680E+00 -0.383648804671E-07
  0.929717675664E+00  0.315789473680E+00 -0.614787723533E-02
  0.863184699151E+00  0.315789473680E+00 -0.119686097007E-01
  0.767714125425E+00  0.315789473680E+00 -0.203210244768E-01
  0.643290413741E+00  0.315789473680E+00 -0.312065343397E-01
  0.500000000000E+00  0.315789473680E+00 -0.437427648440E-01
  0.356709586259E+00  0.315789473680E+00 -0.312065343397E-01
  0.232285874575E+00  0.315789473680E+00 -0.203210244768E-01
  0.136815300849E+00  0.315789473680E+00 -0.119686097007E-01
  0.702823243349E-01  0.315789473680E+00 -0.614787723533E-02
  0.269656163398E-01  0.315789473680E+00 -0.235825883963E-02
  0.883738164913E-06  0.315789473680E+00  0.000000000000E+00
  0.269656163398E-01  0.315789473680E+00  0.235825883963E-02
  0.702823243349E-01  0.315789473680E+00  0.614787723533E-02
  0.136815300849E+00  0.315789473680E+00  0.119686097007E-01
  0.232285874575E+00  0.315789473680E+00  0.203210244768E-01
  0.356709586259E+00  0.315789473680E+00  0.312065343397E-01
  0.500000000000E+00  0.315789473680E+00  0.437427648440E-01
  0.643290413741E+00  0.315789473680E+00  0.312065343397E-01
  0.767714125425E+00  0.315789473680E+00  0.203210244768E-01
  0.863184699151E+00  0.315789473680E+00  0.119686097007E-01
  0.929717675664E+00  0.315789473680E+00  0.614787723533E-02
  0.973034383663E+00  0.315789473680E+00  0.235825883963E-02
  0.973034383663E+00  0.421052631580E+00 -0.235825883963E-02
  0.999999119618E+00  0.421052631580E+00 -0.383648804656E-07
  0.929717675664E+00  0.421052631580E+00 -0.614787723533E-02
  0.863184699151E+00  0.421052631580E+00 -0.119686097007E-01
  0.767714125425E+00  0.421052631580E+00 -0.203210244768E-01
  0.643290413741E+00  0.421052631580E+00 -0.312065343397E-01
  0.500000000000E+00  0.421052631580E+00 -0.437427648440E-01
  0.356709586259E+00  0.421052631580E+00 -0.312065343397E-01
  0.232285874575E+00  0.421052631580E+00 -0.203210244768E-01
  0.136815300849E+00  0.421052631580E+00 -0.119686097007E-01
  0.702823243349E-01  0.421052631580E+00 -0.614787723533E-02
  0.269656163398E-01  0.421052631580E+00 -0.235825883963E-02
  0.883738164878E-06  0.421052631580E+00  0.187623218593E-21
  0.269656163398E-01  0.421052631580E+00  0.235825883963E-02
  0.702823243349E-01  0.421052631580E+00  0.614787723533E-02
  0.136815300849E+00  0.421052631580E+00  0.119686097007E-01
  0.232285874575E+00  0.421052631580E+00  0.203210244768E-01
  0.356709586259E+00  0.421052631580E+00  0.312065343397E-01
  0.500000000000E+00  0.421052631580E+00  0.437427648440E-01
  0.643290413741E+00  0.421052631580E+00  0.312065343397E-01
  0.767714125425E+00  0.421052631580E+00  0.203210244768E-01
  0.863184699151E+00  0.421052631580E+00  0.119686097007E-01
  0.929717675664E+00  0.421052631580E+00  0.614787723533E-02
  0.973034383663E+00  0.421052631580E+00  0.235825883963E-02
  0.973034383663E+00  0.526315789470E+00 -0.235825883963E-02
  0.999999119618E+00  0.526315789470E+00 -0.383648804671E-07
  0.929717675664E+00  0.526315789470E+00 -0.614787723533E-02
  0.863184699151E+00  0.526315789470E+00 -0.119686097007E-01
  0.767714125425E+00  0.526315789470E+00 -0.203210244768E-01
  0.643290413741E+00  0.526315789470E+00 -0.312065343397E-01
  0.500000000000E+00  0.526315789470E+00 -0.437427648440E-01
  0.356709586259E+00  0.526315789470E+00 -0.312065343397E-01
  0.232285874575E+00  0.526315789470E+00 -0.203210244768E-01
  0.136815300849E+00  0.526315789470E+00 -0.119686097007E-01
  0.702823243349E-01  0.526315789470E+00 -0.614787723533E-02
  0.269656163398E-01  0.526315789470E+00 -0.235825883963E-02
  0.883738164913E-06  0.526315789470E+00  0.187623218601E-21
  0.269656163398E-01  0.526315789470E+00  0.235825883963E-02
  0.702823243349E-01  0.526315789470E+00  0.614787723533E-02
  0.136815300849E+00  0.526315789470E+00  0.119686097007E-01
  0.232285874575E+00  0.526315789470E+00  0.203210244768E-01
  0.356709586259E+00  0.526315789470E+00  0.312065343397E-01
  0.500000000000E+00  0.526315789470E+00  0.437427648440E-01
  0.643290413741E+00  0.526315789470E+00  0.312065343397E-01
  0.767714125425E+00  0.526315789470E+00  0.203210244768E-01
  0.863184699151E+00  0.526315789470E+00  0.119686097007E-01
  0.929717675664E+00  0.526315789470E+00  0.614787723533E-02
  0.973034383663E+00  0.526315789470E+00  0.235825883963E-02
  0.973034383663E+00  0.631578947370E+00 -0.235825883963E-02
  0.999999119618E+00  0.631578947370E+00 -0.383648804656E-07
  0.929717675664E+00  0.631578947370E+00 -0.614787723533E-02
  0.863184699151E+00  0.631578947370E+00 -0.119686097007E-01
  0.767714125425E+00  0.631578947370E+00 -0.203210244768E-01
  0.643290413741E+00  0.631578947370E+00 -0.312065343397E-01
  0.500000000000E+00  0.631578947370E+00 -0.437427648440E-01
  0.356709586259E+00  0.631578947370E+00 -0.312065343397E-01
  0.232285874575E+00  0.631578947370E+00 -0.203210244768E-01
  0.136815300849E+00  0.631578947370E+00 -0.119686097007E-01
  0.702823243349E-01  0.631578947370E+00 -0.614787723533E-02
  0.269656163398E-01  0.631578947370E+00 -0.235825883963E-02
  0.883738164878E-06  0.631578947370E+00  0.000000000000E+00
  0.269656163398E-01  0.631578947370E+00  0.235825883963E-02
  0.702823243349E-01  0.631578947370E+00  0.614787723533E-02
  0.136815300849E+00  0.631578947370E+00  0.119686097007E-01
  0.232285874575E+00  0.631578947370E+00  0.203210244768E-01
[...]
POINT_DATA                1127
SCALARS phi float 1
LOOKUP_TABLE default
  0.276471553984E-17
 -0.108420217249E-16
 -0.768900775315E-18
 -0.628837260042E-17
 -0.125767452008E-16
 -0.520417042793E-17
  0.693889390391E-17
 -0.780625564190E-17
  0.520417042793E-17
 -0.121430643318E-16
  0.121430643318E-16
  0.156125112838E-16
 -0.208166817117E-16
 -0.312250225676E-16
  0.104083408559E-16
  0.000000000000E+00
  0.173472347598E-17
  0.000000000000E+00
  0.000000000000E+00
  0.346944695195E-17
 -0.867361737988E-18
  0.433680868994E-18
  0.000000000000E+00
  0.216840434497E-18
  0.132348898008E-22
  0.000000000000E+00
  0.000000000000E+00
  0.216840434497E-18
  0.000000000000E+00
  0.000000000000E+00
  0.173472347598E-17
  0.000000000000E+00
 -0.520417042793E-17
  0.520417042793E-17
  0.346944695195E-17
  0.000000000000E+00
  0.693889390391E-17
 -0.208166817117E-16
  0.346944695195E-17
 -0.346944695195E-17
 -0.329597460436E-16
  0.138777878078E-16
 -0.693889390391E-17
  0.693889390391E-17
 -0.433680868994E-17
 -0.156125112838E-16
 -0.845677694539E-17
 -0.715573433840E-17
  0.910729824888E-17
 -0.166967134563E-16
  0.216840434497E-17
  0.156125112838E-16
 -0.173472347598E-17
 -0.104083408559E-16
  0.693889390391E-17
 -0.346944695195E-17
  0.173472347598E-17
 -0.867361737988E-18
 -0.433680868994E-18
  0.216840434497E-18
  0.000000000000E+00
  0.000000000000E+00
  0.867361737988E-18
  0.173472347598E-17
 -0.346944695195E-17
  0.000000000000E+00
  0.693889390391E-17
 -0.138777878078E-16
 -0.121430643318E-16
  0.520417042793E-17
  0.910729824888E-17
  0.127935856353E-16
 -0.585469173142E-17
 -0.975781955237E-17
 -0.108420217249E-16
  0.000000000000E+00
 -0.173472347598E-17
  0.156125112838E-16
  0.346944695195E-17
  0.000000000000E+00
  0.520417042793E-17
  0.867361737988E-18
 -0.433680868994E-18
  0.000000000000E+00
  0.661744490042E-23
  0.000000000000E+00
  0.867361737988E-18
 -0.173472347598E-17
 -0.693889390391E-17
  0.000000000000E+00
  0.346944695195E-16
  0.242861286637E-16
  0.000000000000E+00
 -0.138777878078E-16
 -0.867361737988E-17
 -0.205998412772E-16
 -0.173472347598E-16
 -0.504154010206E-17
  0.867361737988E-18
 -0.147451495458E-16
  0.346944695195E-17
 -0.346944695195E-17
  0.000000000000E+00
 -0.104083408559E-16
 -0.867361737988E-17
 -0.173472347598E-17
  0.433680868994E-18
  0.216840434497E-18
  0.198523347013E-22
  0.000000000000E+00
 -0.867361737988E-18
  0.000000000000E+00
 -0.867361737988E-17
  0.000000000000E+00
  0.208166817117E-16
  0.000000000000E+00
  0.000000000000E+00
 -0.286229373536E-16
  0.216840434497E-17
 -0.240692882292E-16
  0.477048955894E-17
 -0.514996031931E-17
 -0.607153216592E-17
 -0.173472347598E-17
  0.104083408559E-16
  0.520417042793E-17
  0.138777878078E-16
  0.000000000000E+00
  0.693889390391E-17
 -0.173472347598E-17
 -0.433680868994E-18
  0.000000000000E+00
  0.661744490042E-23
  0.000000000000E+00
  0.867361737988E-18
  0.173472347598E-17
 -0.173472347598E-17
 -0.693889390391E-17
 -0.693889390391E-17
  0.693889390391E-17
  0.156125112838E-16
 -0.433680868994E-17
 -0.216840434497E-17
 -0.650521303491E-17
 -0.823993651089E-17
  0.986623976962E-17
  0.650521303491E-17
 -0.954097911787E-17
  0.138777878078E-16
  0.693889390391E-17
 -0.346944695195E-17
 -0.104083408559E-16
 -0.173472347598E-17
 -0.867361737988E-18
 -0.867361737988E-18
  0.000000000000E+00
  0.661744490042E-23
 -0.216840434497E-18
 -0.867361737988E-18
 -0.173472347598E-17
 -0.693889390391E-17
 -0.693889390391E-17
  0.138777878078E-16
  0.277555756156E-16
  0.520417042793E-17
 -0.130104260698E-16
  0.823993651089E-17
 -0.520417042793E-17
 -0.260208521397E-17
  0.271050543121E-18
 -0.303576608296E-17
  0.433680868994E-17
 -0.346944695195E-17
 -0.104083408559E-16
  0.693889390391E-17
  0.693889390391E-17
 -0.346944695195E-17
 -0.433680868994E-17
 -0.433680868994E-18
 -0.216840434497E-18
  0.661744490042E-23
  0.000000000000E+00
  0.000000000000E+00
 -0.173472347598E-17
 -0.173472347598E-17
  0.346944695195E-17
  0.138777878078E-16
  0.000000000000E+00
  0.520417042793E-17
  0.000000000000E+00
 -0.390312782095E-17
  0.216840434497E-18
 -0.737257477290E-17
 -0.140946282423E-17
 -0.823993651089E-17
  0.693889390391E-17
  0.520417042793E-17
  0.346944695195E-17
  0.000000000000E+00
 -0.346944695195E-17
 -0.520417042793E-17
 -0.867361737988E-18
  0.433680868994E-18
  0.000000000000E+00
  0.000000000000E+00
  0.000000000000E+00
  0.000000000000E+00
 -0.173472347598E-17
  0.173472347598E-17
  0.346944695195E-17
  0.277555756156E-16
  0.693889390391E-17
 -0.346944695195E-17
  0.693889390391E-17
  0.216840434497E-17
 -0.110588621594E-16
 -0.390312782095E-17
 -0.117635935715E-16
 -0.693889390391E-17
  0.520417042793E-17
 -0.225514051877E-16
  0.190819582357E-16
 -0.346944695195E-17
  0.693889390391E-17
  0.173472347598E-17
  0.000000000000E+00
 -0.867361737988E-18
  0.000000000000E+00
 -0.661744490042E-23
 -0.216840434497E-18
 -0.867361737988E-18
 -0.173472347598E-17
  0.173472347598E-17
 -0.104083408559E-16
 -0.693889390391E-17
  0.208166817117E-16
 -0.242861286637E-16
  0.780625564190E-17
 -0.780625564190E-17
  0.195156391047E-17
  0.780625564190E-17
 -0.460785923306E-17
 -0.216840434497E-17
 -0.104083408559E-16
 -0.173472347598E-17
  0.693889390391E-17
  0.346944695195E-17
 -0.693889390391E-17
 -0.173472347598E-17
  0.000000000000E+00
  0.000000000000E+00
 -0.216840434497E-18
  0.000000000000E+00
  0.000000000000E+00
  0.867361737988E-18
  0.000000000000E+00
 -0.173472347598E-17
  0.346944695195E-17
  0.138777878078E-16
  0.242861286637E-16
  0.138777878078E-16
  0.173472347598E-17
 -0.173472347598E-17
  0.156125112838E-16
  0.119262238973E-16
  0.195156391047E-17
 -0.867361737988E-18
 -0.433680868994E-17
 -0.520417042793E-17
  0.520417042793E-17
 -0.346944695195E-17
 -0.693889390391E-17
  0.346944695195E-17
 -0.173472347598E-17
  0.433680868994E-18
 -0.433680868994E-18
 -0.661744490042E-23
  0.000000000000E+00
  0.000000000000E+00
 -0.173472347598E-17
  0.000000000000E+00
  0.346944695195E-17
 -0.693889390391E-17
  0.346944695195E-17
  0.121430643318E-16
 -0.112757025938E-16
  0.260208521397E-17
  0.199493199737E-16
  0.238524477947E-17
 -0.834835672814E-17
 -0.867361737988E-18
  0.867361737988E-18
 -0.312250225676E-16
 -0.693889390391E-17
 -0.104083408559E-16
  0.000000000000E+00
  0.173472347598E-17
  0.173472347598E-17
 -0.433680868994E-18
  0.000000000000E+00
  0.132348898008E-22
  0.000000000000E+00
  0.000000000000E+00
 -0.173472347598E-17
  0.346944695195E-17
 -0.346944695195E-17
 -0.277555756156E-16
 -0.693889390391E-17
 -0.398986399475E-16
  0.954097911787E-17
  0.910729824888E-17
 -0.867361737988E-18
  0.761109925085E-16
 -0.164798730218E-16
 -0.910729824888E-17
  0.000000000000E+00
 -0.208166817117E-16
 -0.346944695195E-17
  0.242861286637E-16
  0.242861286637E-16
 -0.780625564190E-16
  0.119695919842E-15
  0.711236625150E-16
 -0.650521303491E-18
  0.755062566445E-15
 -0.216840434497E-18
  0.000000000000E+00
  0.000000000000E+00
  0.173472347598E-17
  0.346944695195E-17
  0.000000000000E+00
  0.381639164715E-16
 -0.138777878078E-16
 -0.607153216592E-17
  0.355618312575E-16
 -0.414165229889E-16
  0.169135538908E-16
 -0.990093423914E-15
  0.133140026781E-15
 -0.407660016855E-16
 -0.114491749414E-15
 -0.902056207508E-16
  0.124900090270E-15
 -0.693889390391E-17
 -0.121430643318E-16
 -0.936750677027E-16
  0.216840434497E-17
 -0.581132364452E-16
 -0.734536383947E-21
 -0.316587034366E-16
 -0.980118763927E-16
 -0.124900090270E-15
  0.242861286637E-16
  0.000000000000E+00
 -0.832667268469E-16
 -0.277555756156E-16
 -0.149186218934E-15
 -0.581132364452E-16
 -0.163931368480E-15
 -0.151788304148E-15
  0.577532813240E-14
 -0.101004274389E-14
  0.885576334486E-15
 -0.806646416329E-16
 -0.111022302463E-15
  0.220309881449E-15
  0.208166817117E-16
  0.350414142147E-15
 -0.230718222305E-15
 -0.867361737988E-17
 -0.173472347598E-17
 -0.108420217249E-17
 -0.198523347013E-22
 -0.867361737988E-18
 -0.433680868994E-17
  0.000000000000E+00
 -0.381639164715E-16
  0.249800180541E-15
  0.131838984174E-15
  0.222044604925E-15
 -0.248065457065E-15
  0.374700270811E-15
  0.737257477290E-15
  0.297765284651E-14
 -0.770217223334E-15
  0.100154259886E-13
  0.556759499615E-14
  0.157686363966E-14
 -0.678276879107E-15
  0.208166817117E-15
 -0.208166817117E-15
 -0.693889390391E-17
  0.173472347598E-17
  0.173472347598E-17
  0.130104260698E-17
  0.130104260698E-17
  0.463221143030E-22
  0.173472347598E-17
  0.346944695195E-17
  0.520417042793E-17
 -0.173472347598E-17
 -0.693889390391E-17
  0.381639164715E-15
 -0.111022302463E-15
 -0.217360851540E-14
  0.331505656259E-14
  0.106316865034E-13
 -0.981333070360E-14
 -0.335495520254E-14
 -0.602642935554E-14
 -0.202685090933E-13
  0.236486177863E-13
  0.183186799063E-14
 -0.479130624065E-14
  0.101654795692E-14
 -0.693889390391E-17
  0.121430643318E-16
 -0.173472347598E-17
 -0.260208521397E-17
 -0.216840434497E-18
  0.661744490042E-23
 -0.216840434497E-18
 -0.260208521397E-17
  0.000000000000E+00
  0.225514051877E-16
 -0.346944695195E-16
 -0.555111512313E-15
 -0.928770949038E-14
 -0.716440795578E-15
 -0.122905158273E-13
 -0.630016872005E-13
 -0.642437492093E-13
 -0.951513173808E-13
 -0.612964540236E-13
  0.695797586214E-14
 -0.111889664201E-13
  0.461158888854E-13
  0.112219261661E-13
  0.350067197452E-14
 -0.333066907388E-15
  0.693889390391E-17
  0.867361737988E-18
 -0.867361737988E-18
  0.216840434497E-18
  0.132348898008E-22
  0.216840434497E-18
  0.867361737988E-18
 -0.346944695195E-17
 -0.693889390391E-17
 -0.485722573274E-16
 -0.271310751643E-14
  0.494396190653E-15
 -0.728583859910E-16
  0.908526726073E-13
  0.143522346785E-13
 -0.107622244450E-13
 -0.135202287734E-12
  0.797972798949E-16
  0.139367358799E-12
  0.724997319124E-13
 -0.596103028050E-13
  0.110085551785E-13
 -0.755957796361E-13
  0.622973894693E-13
  0.300870439673E-13
 -0.409308004157E-14
 -0.867361737988E-18
 -0.216840434497E-18
 -0.723783035984E-24
  0.161350967309E-14
 -0.429951213521E-14
  0.000000000000E+00
 -0.102348685083E-15
 -0.228983498829E-15
  0.244283759887E-13
  0.224549545624E-12
  0.172689987310E-12
  0.195905195278E-12
  0.734308447381E-14
  0.189168559289E-12
  0.318798806798E-14
 -0.256199141763E-13
  0.359651544657E-14
  0.688993133380E-13
  0.143433442207E-13
 -0.215244488899E-13
 -0.193595139919E-13
  0.618793211116E-13
 -0.479121950447E-13
 -0.258517166007E-14
  0.419586240752E-15
 -0.802309607639E-17
  0.316682444157E-13
  0.128855259796E-13
  0.137424793767E-13
  0.347239598186E-13
  0.163272173559E-13
 -0.326186018300E-13
  0.513389461151E-12
 -0.266103545449E-12
 -0.373099554724E-12
  0.643781035425E-12
  0.123797239820E-12
  0.755866723379E-13
  0.281152054762E-13
 -0.763770015115E-13
  0.135537414625E-12
 -0.165815278175E-12
  0.105193631583E-13
  0.646011022454E-13
 -0.525621213221E-14
  0.125620000513E-13
 -0.785873102704E-14
 -0.106822103246E-13
  0.207993344770E-14
 -0.284754858582E-14
  0.795665616726E-13
 -0.319674842153E-13
  0.782568454483E-13
  0.979398853684E-13
 -0.494910102483E-13
  0.543908993365E-13
 -0.134631997391E-12
  0.118600875648E-12
 -0.226614517082E-12
  0.131094028862E-12
  0.672563133658E-14
 -0.236089034607E-12
  0.458400678527E-14
 -0.518717013787E-13
  0.666012384132E-13
  0.129625477019E-12
 -0.299621438771E-13
 -0.838608696374E-14
 -0.185951514603E-14
 -0.957805883217E-14
  0.000000000000E+00
  0.173472347598E-17
  0.104083408559E-16
  0.343475248243E-15
  0.170315150871E-13
  0.512055675639E-13
 -0.348605692924E-13
  0.139879691760E-12
  0.117495206273E-12
  0.253642593040E-13
 -0.268220775451E-12
  0.179962381802E-12
 -0.106668539561E-12
 -0.129653449435E-12
  0.218336633495E-13
 -0.442909597886E-13
  0.728236915215E-14
 -0.144953493653E-13
 -0.759461937783E-14
 -0.131461681818E-13
 -0.152612297799E-14
  0.319839640883E-17
  0.368628738645E-17
 -0.433680868994E-17
 -0.182145964978E-16
  0.346944695195E-17
  0.294902990916E-16
 -0.173472347598E-16
  0.693889390391E-17
 -0.346944695195E-17
  0.346944695195E-17
  0.130104260698E-17
 -0.433680868994E-18
 -0.661744490042E-23
  0.000000000000E+00
  0.173472347598E-17
  0.000000000000E+00
  0.173472347598E-17
  0.346944695195E-17
 -0.208166817117E-16
 -0.104083408559E-16
 -0.121430643318E-16
 -0.346944695195E-17
 -0.693889390391E-17
  0.889045781438E-17
 -0.216840434497E-18
  0.932413868338E-17
  0.693889390391E-17
 -0.867361737988E-18
  0.138777878078E-16
  0.138777878078E-16
  0.693889390391E-17
  0.138777878078E-16
  0.520417042793E-17
  0.000000000000E+00
  0.433680868994E-18
  0.433680868994E-18
  0.000000000000E+00
  0.000000000000E+00
  0.000000000000E+00
 -0.173472347598E-17
 -0.346944695195E-17
  0.173472347598E-16
  0.000000000000E+00
  0.104083408559E-16
  0.260208521397E-16
  0.000000000000E+00
 -0.173472347598E-17
  0.520417042793E-17
  0.126851654181E-16
  0.151788304148E-16
 -0.910729824888E-17
 -0.138777878078E-16
  0.520417042793E-17
  0.104083408559E-16
 -0.346944695195E-17
 -0.173472347598E-16
 -0.346944695195E-17
  0.867361737988E-18
  0.433680868994E-18
  0.216840434497E-18
  0.000000000000E+00
 -0.216840434497E-18
  0.000000000000E+00
  0.173472347598E-17
 -0.104083408559E-16
 -0.104083408559E-16
  0.208166817117E-16
  0.173472347598E-16
 -0.156125112838E-16
 -0.225514051877E-16
 -0.125767452008E-16
  0.390312782095E-17
 -0.889045781438E-17
 -0.179977560633E-16
  0.997465998687E-17
 -0.954097911787E-17
  0.520417042793E-17
 -0.867361737988E-17
  0.346944695195E-17
 -0.693889390391E-17
 -0.520417042793E-17
 -0.260208521397E-17
 -0.867361737988E-18
  0.000000000000E+00
  0.000000000000E+00
  0.000000000000E+00
 -0.867361737988E-18
  0.000000000000E+00
 -0.867361737988E-17
 -0.138777878078E-16
  0.346944695195E-16
 -0.138777878078E-16
  0.346944695195E-17
 -0.130104260698E-16
  0.780625564190E-17
 -0.147451495458E-16
  0.921571846613E-17
  0.140946282423E-16
 -0.173472347598E-17
 -0.607153216592E-17
  0.693889390391E-17
 -0.173472347598E-17
  0.173472347598E-16
 -0.346944695195E-17
  0.000000000000E+00
 -0.346944695195E-17
 -0.130104260698E-17
 -0.216840434497E-18
  0.000000000000E+00
  0.000000000000E+00
  0.000000000000E+00
  0.000000000000E+00
 -0.867361737988E-17
 -0.346944695195E-17
  0.000000000000E+00
  0.104083408559E-16
  0.693889390391E-17
  0.867361737988E-18
 -0.563785129692E-17
  0.110588621594E-16
  0.108420217249E-17
  0.650521303491E-18
 -0.260208521397E-17
 -0.346944695195E-17
 -0.520417042793E-17
 -0.173472347598E-17
  0.346944695195E-17
 -0.104083408559E-16
  0.000000000000E+00
  0.000000000000E+00
  0.000000000000E+00
  0.000000000000E+00
  0.000000000000E+00
  0.000000000000E+00
  0.000000000000E+00
 -0.173472347598E-17
 -0.346944695195E-17
 -0.346944695195E-17
  0.138777878078E-16
  0.693889390391E-17
  0.173472347598E-17
 -0.346944695195E-17
 -0.303576608296E-17
  0.238524477947E-17
  0.477048955894E-17
 -0.477048955894E-17
  0.346944695195E-17
 -0.780625564190E-17
  0.104083408559E-16
  0.000000000000E+00
  0.346944695195E-17
 -0.346944695195E-17
 -0.173472347598E-17
 -0.433680868994E-17
  0.000000000000E+00
  0.000000000000E+00
  0.661744490042E-23
  0.000000000000E+00
  0.867361737988E-18
 -0.173472347598E-17
 -0.520417042793E-17
  0.104083408559E-16
  0.138777878078E-16
  0.693889390391E-17
  0.156125112838E-16
 -0.780625564190E-17
  0.650521303491E-17
 -0.151788304148E-17
 -0.130104260698E-17
 -0.867361737988E-17
  0.260208521397E-17
  0.693889390391E-17
  0.000000000000E+00
  0.693889390391E-17
  0.000000000000E+00
 -0.693889390391E-17
 -0.173472347598E-17
 -0.867361737988E-18
 -0.433680868994E-18
  0.000000000000E+00
 -0.661744490042E-23
  0.000000000000E+00
  0.000000000000E+00
 -0.173472347598E-17
  0.346944695195E-17
 -0.104083408559E-16
  0.693889390391E-17
 -0.104083408559E-16
  0.000000000000E+00
  0.867361737988E-17
  0.607153216592E-17
 -0.114925430283E-16
 -0.123056946577E-16
 -0.477048955894E-17
  0.303576608296E-17
  0.208166817117E-16
 -0.173472347598E-16
  0.156125112838E-16
  0.000000000000E+00
 -0.693889390391E-17
  0.520417042793E-17
  0.000000000000E+00
  0.000000000000E+00
  0.000000000000E+00
  0.661744490042E-23
  0.000000000000E+00
  0.000000000000E+00
  0.173472347598E-17
  0.520417042793E-17
  0.346944695195E-17
  0.693889390391E-17
 -0.346944695195E-17
  0.173472347598E-17
  0.112757025938E-16
 -0.780625564190E-17
  0.477048955894E-17
  0.401154803820E-17
  0.433680868994E-18
 -0.433680868994E-18
 -0.173472347598E-17
 -0.121430643318E-16
  0.121430643318E-16
  0.000000000000E+00
 -0.346944695195E-17
  0.173472347598E-17
 -0.173472347598E-17
 -0.433680868994E-18
  0.000000000000E+00
 -0.661744490042E-23
  0.000000000000E+00
  0.000000000000E+00
 -0.173472347598E-17
 -0.173472347598E-17
  0.346944695195E-17
  0.693889390391E-17
  0.173472347598E-16
  0.346944695195E-17
 -0.867361737988E-18
  0.867361737988E-18
  0.693889390391E-17
  0.628837260042E-17
 -0.195156391047E-17
  0.823993651089E-17
 -0.954097911787E-17
 -0.693889390391E-17
 -0.173472347598E-17
  0.104083408559E-16
 -0.104083408559E-16
  0.173472347598E-17
 -0.173472347598E-17
  0.433680868994E-18
 -0.433680868994E-18
 -0.661744490042E-23
  0.000000000000E+00
  0.867361737988E-18
  0.173472347598E-17
 -0.693889390391E-17
 -0.346944695195E-17
  0.138777878078E-16
 -0.104083408559E-16
 -0.173472347598E-16
 -0.104083408559E-16
  0.737257477290E-17
  0.216840434497E-18
  0.341523684333E-17
  0.650521303491E-18
  0.867361737988E-18
  0.867361737988E-18
  0.000000000000E+00
  0.156125112838E-16
  0.693889390391E-17
  0.000000000000E+00
  0.693889390391E-17
  0.346944695195E-17
  0.000000000000E+00
 -0.216840434497E-18
 -0.661744490042E-23
 -0.216840434497E-18
  0.867361737988E-18
  0.000000000000E+00
 -0.173472347598E-17
  0.000000000000E+00
 -0.208166817117E-16
  0.000000000000E+00
  0.121430643318E-16
  0.693889390391E-17
  0.477048955894E-17
 -0.585469173142E-17
  0.333392168039E-16
 -0.438017677684E-16
  0.689552581701E-16
 -0.190819582357E-16
 -0.260208521397E-16
 -0.867361737988E-17
  0.000000000000E+00
  0.000000000000E+00
  0.832667268469E-16
 -0.173472347598E-15
  0.615826833972E-16
  0.672205346941E-17
  0.307920279276E-15
 -0.216840434497E-18
  0.000000000000E+00
  0.173472347598E-17
 -0.346944695195E-17
  0.346944695195E-17
 -0.277555756156E-16
 -0.693889390391E-17
  0.520417042793E-17
 -0.208166817117E-16
 -0.242861286637E-16
 -0.370797142990E-16
 -0.120216336885E-14
 -0.114058068545E-15
  0.216840434497E-15
 -0.338271077815E-16
  0.919403442268E-16
  0.312250225676E-16
  0.104083408559E-16
 -0.267147415300E-15
 -0.468375338514E-16
 -0.407660016855E-16
  0.611490025282E-16
  0.650521303491E-18
  0.509543257333E-21
  0.429344060304E-16
 -0.147451495458E-16
  0.277555756156E-16
 -0.121430643318E-16
  0.114491749414E-15
 -0.277555756156E-16
  0.520417042793E-16
  0.537764277553E-16
 -0.433680868994E-16
  0.329597460436E-16
 -0.140512601554E-15
 -0.309474668114E-14
 -0.285362011798E-15
  0.671337985203E-15
 -0.234187669257E-15
  0.138777878078E-15
  0.676542155631E-16
  0.832667268469E-16
  0.659194920871E-16
  0.124900090270E-15
 -0.104083408559E-16
 -0.390312782095E-17
 -0.867361737988E-18
 -0.132348898008E-22
 -0.433680868994E-18
 -0.954097911787E-17
 -0.346944695195E-17
  0.537764277553E-16
  0.201227923213E-15
 -0.298372437868E-15
  0.100613961607E-15
  0.189084858881E-15
 -0.763278329430E-15
  0.195763544264E-14
  0.310515502200E-15
  0.242377732468E-13
  0.213540123084E-13
  0.421364332315E-14
  0.834401991945E-15
 -0.192380833486E-14
  0.662664367823E-15
 -0.385108611667E-15
 -0.173472347598E-16
  0.520417042793E-17
  0.000000000000E+00
  0.000000000000E+00
  0.130104260698E-17
  0.463221143030E-22
  0.173472347598E-17
  0.260208521397E-17
  0.693889390391E-17
  0.693889390391E-17
 -0.242861286637E-16
  0.575928194024E-15
  0.974914593499E-15
 -0.465079363909E-14
 -0.624500451352E-15
  0.614525791365E-15
  0.165666091956E-13
 -0.166845703919E-13
 -0.407868183672E-13
 -0.425666446535E-13
  0.166724273276E-13
 -0.752176099184E-14
 -0.752869988574E-15
  0.148145384848E-14