# vtk DataFile Version 3.0
MachLine results file. Generated by MachLine, USU AeroLab (c) 2022.
ASCII
DATASET POLYDATA
POINTS                1127 float
  0.117196628552E-04  0.000000000000E+00  0.000000000000E+00
  0.541040252445E-05  0.105263157890E+00  0.000000000000E+00
  0.144906925955E-04  0.210526315790E+00  0.000000000000E+00
  0.169940951874E-04  0.315789473680E+00  0.000000000000E+00
  0.931510477702E-05  0.421052631580E+00  0.000000000000E+00
  0.100704461272E-04  0.526315789470E+00  0.000000000000E+00
  0.178033624519E-04  0.631578947370E+00  0.000000000000E+00
  0.181791769047E-04  0.736842105260E+00  0.000000000000E+00
  0.809969724904E-05  0.842105263160E+00  0.000000000000E+00
  0.145886572139E-04  0.947368421050E+00  0.000000000000E+00
  0.180448230186E-04  0.105263157890E+01  0.000000000000E+00
  0.212955871431E-04  0.115789473680E+01  0.000000000000E+00
  0.108964583735E-04  0.126315789470E+01  0.000000000000E+00
  0.209419783263E-04  0.136842105260E+01  0.000000000000E+00
  0.178268959588E-04  0.147368421050E+01  0.000000000000E+00
  0.238981759716E-04  0.157894736840E+01  0.000000000000E+00
  0.146920321958E-04  0.168421052630E+01  0.000000000000E+00
  0.274367447616E-04  0.178947368420E+01  0.000000000000E+00
  0.212409048173E-04  0.189473684210E+01  0.000000000000E+00
  0.428352552427E-05  0.199997447565E+01 -0.692622288342E-21
  0.118817596440E-04 -0.105263157890E+00  0.000000000000E+00
  0.111367871529E-04 -0.210526315790E+00  0.000000000000E+00
  0.165818300293E-04 -0.315789473680E+00  0.000000000000E+00
  0.143150705123E-04 -0.421052631580E+00  0.000000000000E+00
  0.132846139378E-04 -0.526315789470E+00  0.000000000000E+00
  0.119703493337E-04 -0.631578947370E+00  0.000000000000E+00
  0.123826181667E-04 -0.736842105260E+00  0.000000000000E+00
  0.104040690656E-04 -0.842105263160E+00  0.000000000000E+00
  0.174368767475E-04 -0.947368421050E+00  0.000000000000E+00
  0.155255329490E-04 -0.105263157890E+01  0.000000000000E+00
  0.183008746412E-04 -0.115789473680E+01  0.000000000000E+00
  0.138808070511E-04 -0.126315789470E+01  0.000000000000E+00
  0.236545334305E-04 -0.136842105260E+01  0.000000000000E+00
  0.235200954404E-04 -0.147368421050E+01  0.000000000000E+00
  0.292406164382E-04 -0.157894736840E+01  0.000000000000E+00
  0.172978326859E-04 -0.168421052630E+01  0.000000000000E+00
  0.298763150807E-04 -0.178947368420E+01  0.000000000000E+00
  0.327380776933E-04 -0.189473684210E+01  0.000000000000E+00
  0.543700196778E-05 -0.199996760241E+01  0.000000000000E+00
  0.269662818688E-01  0.000000000000E+00 -0.235065180910E-02
  0.269662091401E-01  0.105263157890E+00 -0.235148310090E-02
  0.269667645456E-01  0.210526315790E+00 -0.234513478770E-02
  0.269666130405E-01  0.315789473680E+00 -0.234686649915E-02
  0.269670002483E-01  0.421052631580E+00 -0.234244069318E-02
  0.269666802555E-01  0.526315789470E+00 -0.234609822751E-02
  0.269667328164E-01  0.631578947370E+00 -0.234549745445E-02
  0.269667491971E-01  0.736842105260E+00 -0.234531022186E-02
  0.269666521440E-01  0.842105263160E+00 -0.234641954380E-02
  0.269666342782E-01  0.947368421050E+00 -0.234662375086E-02
  0.269670063204E-01  0.105263157890E+01 -0.234237128877E-02
  0.269670209901E-01  0.115789473680E+01 -0.234220361397E-02
  0.269669487859E-01  0.126315789470E+01 -0.234302891123E-02
  0.269671669935E-01  0.136842105260E+01 -0.234053478681E-02
  0.269670354279E-01  0.147368421050E+01 -0.234203858809E-02
  0.269676656574E-01  0.157894736840E+01 -0.233483503301E-02
  0.269669564707E-01  0.168421052630E+01 -0.234294107313E-02
  0.269677275746E-01  0.178947368420E+01 -0.233412731524E-02
  0.269673323720E-01  0.189473684210E+01 -0.233864450221E-02
  0.269681705962E-01  0.199999698702E+01 -0.232906355578E-02
  0.269664331301E-01 -0.105263157890E+00 -0.234892288361E-02
  0.269666366768E-01 -0.210526315790E+00 -0.234659633453E-02
  0.269666769530E-01 -0.315789473680E+00 -0.234613597596E-02
  0.269668100630E-01 -0.421052631580E+00 -0.234461452144E-02
  0.269671375283E-01 -0.526315789470E+00 -0.234087157599E-02
  0.269664894232E-01 -0.631578947370E+00 -0.234827945088E-02
  0.269666798489E-01 -0.736842105260E+00 -0.234610287483E-02
  0.269664654740E-01 -0.842105263160E+00 -0.234855319128E-02
  0.269668542553E-01 -0.947368421050E+00 -0.234410940041E-02
  0.269668026253E-01 -0.105263157890E+01 -0.234469953507E-02
  0.269671191133E-01 -0.115789473680E+01 -0.234108206020E-02
  0.269667100695E-01 -0.126315789470E+01 -0.234575745213E-02
  0.269673881812E-01 -0.136842105260E+01 -0.233800660027E-02
  0.269671083849E-01 -0.147368421050E+01 -0.234120468597E-02
  0.269676543620E-01 -0.157894736840E+01 -0.233496413905E-02
  0.269670062079E-01 -0.168421052630E+01 -0.234237257457E-02
  0.269679274619E-01 -0.178947368420E+01 -0.233184259291E-02
  0.269678704014E-01 -0.189473684210E+01 -0.233249479828E-02
  0.269681272666E-01 -0.199999703657E+01 -0.232955881480E-02
  0.269669256284E-01  0.200091121459E+01 -0.215925545500E-02
  0.269675436685E-01 -0.200090822784E+01 -0.215284960055E-02
  0.269679474750E-01  0.200164761104E+01 -0.164912708713E-02
  0.269680080250E-01 -0.200164710253E+01 -0.164865664238E-02
  0.269672628831E-01  0.200215514697E+01 -0.911036233499E-03
  0.269670097419E-01 -0.200215786056E+01 -0.912046822395E-03
  0.269680518445E-01  0.200233042090E+01  0.408658261354E-21
  0.269678493691E-01 -0.200233273520E+01  0.000000000000E+00
  0.269673073017E-01  0.200215467081E+01  0.910858905712E-03
  0.269670592386E-01 -0.200215732998E+01  0.911849222002E-03
  0.269680011786E-01  0.200164716003E+01  0.164870983536E-02
  0.269680785006E-01 -0.200164651066E+01  0.164810908094E-02
  0.269668851116E-01  0.200091141039E+01  0.215967540280E-02
  0.269675658734E-01 -0.200090812053E+01  0.215261945155E-02
  0.269662257607E-01  0.105263157890E+00  0.235129312660E-02
  0.269666981449E-01  0.000000000000E+00  0.234589375155E-02
  0.269666299953E-01  0.210526315790E+00  0.234667270456E-02
  0.269667475999E-01  0.315789473680E+00  0.234532847719E-02
  0.269666656766E-01  0.421052631580E+00  0.234626486544E-02
  0.269664454549E-01  0.526315789470E+00  0.234878201137E-02
  0.269667658254E-01  0.631578947370E+00  0.234512015989E-02
  0.269667150667E-01  0.736842105260E+00  0.234570033408E-02
  0.269665756864E-01  0.842105263160E+00  0.234729345808E-02
  0.269666874361E-01  0.947368421050E+00  0.234601615287E-02
  0.269667035004E-01  0.105263157890E+01  0.234583253693E-02
  0.269671712207E-01  0.115789473680E+01  0.234048647007E-02
  0.269666150206E-01  0.126315789470E+01  0.234684386605E-02
  0.269672422335E-01  0.136842105260E+01  0.233967478935E-02
  0.269669723553E-01  0.147368421050E+01  0.234275951143E-02
  0.269677335707E-01  0.157894736840E+01  0.233405878034E-02
  0.269669236932E-01  0.168421052630E+01  0.234331572196E-02
  0.269672496771E-01  0.178947368420E+01  0.233958970952E-02
  0.269666897602E-01  0.189473684210E+01  0.234598958812E-02
  0.269682062109E-01  0.199999694629E+01  0.232865647733E-02
  0.269666270514E-01 -0.105263157890E+00  0.234670635337E-02
  0.269667643480E-01 -0.210526315790E+00  0.234513704641E-02
  0.269667403060E-01 -0.315789473680E+00  0.234541184762E-02
  0.269665114445E-01 -0.421052631580E+00  0.234802774588E-02
  0.269669052197E-01 -0.526315789470E+00  0.234352687526E-02
  0.269665861200E-01 -0.631578947370E+00  0.234717420198E-02
  0.269667377389E-01 -0.736842105260E+00  0.234544118960E-02
  0.269664505876E-01 -0.842105263160E+00  0.234872334350E-02
  0.269669490965E-01 -0.947368421050E+00  0.234302536132E-02
  0.269669016843E-01 -0.105263157890E+01  0.234356728501E-02
  0.269672705479E-01 -0.115789473680E+01  0.233935115430E-02
  0.269667586238E-01 -0.126315789470E+01  0.234520247414E-02
  0.269674918826E-01 -0.136842105260E+01  0.233682128807E-02
  0.269675866707E-01 -0.147368421050E+01  0.233573785439E-02
  0.269677928430E-01 -0.157894736840E+01  0.233338129394E-02
  0.269675056595E-01 -0.168421052630E+01  0.233666381671E-02
  0.269677036303E-01 -0.178947368420E+01  0.233440099995E-02
  0.269675882680E-01 -0.189473684210E+01  0.233571959779E-02
  0.269682240076E-01 -0.199999692594E+01  0.232845306082E-02
  0.702834518709E-01  0.000000000000E+00 -0.613498943964E-02
  0.702833153115E-01  0.105263157890E+00 -0.613655032054E-02
  0.702833647660E-01  0.210526315790E+00 -0.613598505334E-02
  0.702836660935E-01  0.315789473680E+00 -0.613254086386E-02
  0.702839686543E-01  0.421052631580E+00 -0.612908257855E-02
  0.702833117853E-01  0.526315789470E+00 -0.613659062567E-02
  0.702837338494E-01  0.631578947370E+00 -0.613176641052E-02
  0.702838515467E-01  0.736842105260E+00 -0.613042112422E-02
  0.702833985843E-01  0.842105263160E+00 -0.613559850802E-02
  0.702833130007E-01  0.947368421050E+00 -0.613657673294E-02
  0.702837022937E-01  0.105263157890E+01 -0.613212709377E-02
  0.702843574348E-01  0.115789473680E+01 -0.612463879714E-02
  0.702835735109E-01  0.126315789470E+01 -0.613359908796E-02
  0.702838248263E-01  0.136842105260E+01 -0.613072654020E-02
  0.702837763595E-01  0.147368421050E+01 -0.613128051736E-02
  0.702843438172E-01  0.157894736840E+01 -0.612479444699E-02
  0.702836742989E-01  0.168421052630E+01 -0.613244707536E-02
  0.702843801200E-01  0.178947368420E+01 -0.612437950322E-02
  0.702840501565E-01  0.189473684210E+01 -0.612815100354E-02
  0.702848299654E-01  0.199999703245E+01 -0.611923774763E-02
  0.702832456364E-01 -0.105263157890E+00 -0.613734671036E-02
  0.702834337067E-01 -0.210526315790E+00 -0.613519705756E-02
  0.702833253532E-01 -0.315789473680E+00 -0.613643554312E-02
  0.702840075896E-01 -0.421052631580E+00 -0.612863754580E-02
  0.702837833643E-01 -0.526315789470E+00 -0.613120045272E-02
  0.702834325657E-01 -0.631578947370E+00 -0.613521009931E-02
  0.702836008202E-01 -0.736842105260E+00 -0.613328694107E-02
  0.702833776359E-01 -0.842105263160E+00 -0.613583794913E-02
  0.702835166703E-01 -0.947368421050E+00 -0.613424877917E-02
  0.702834490151E-01 -0.105263157890E+01 -0.613502208176E-02
[...]
POINT_DATA                1127
SCALARS phi float 1
LOOKUP_TABLE default
  0.105879118407E-21
  0.529395592034E-22
 -0.211758236814E-21
  0.000000000000E+00
  0.529395592034E-22
  0.529395592034E-22
  0.211758236814E-21
  0.000000000000E+00
  0.529395592034E-22
  0.000000000000E+00
 -0.105879118407E-21
  0.000000000000E+00
 -0.105879118407E-21
 -0.105879118407E-21
 -0.105879118407E-21
  0.000000000000E+00
  0.000000000000E+00
  0.000000000000E+00
 -0.105879118407E-21
 -0.198523347013E-22
  0.105879118407E-21
  0.000000000000E+00
  0.000000000000E+00
 -0.105879118407E-21
  0.000000000000E+00
 -0.105879118407E-21
 -0.105879118407E-21
 -0.529395592034E-22
  0.000000000000E+00
 -0.105879118407E-21
  0.000000000000E+00
  0.000000000000E+00
  0.000000000000E+00
 -0.211758236814E-21
 -0.211758236814E-21
  0.000000000000E+00
  0.211758236814E-21
  0.000000000000E+00
 -0.661744490042E-23
  0.216840434497E-18
  0.000000000000E+00
  0.216840434497E-18
  0.000000000000E+00
 -0.216840434497E-18
 -0.216840434497E-18
 -0.216840434497E-18
  0.433680868994E-18
  0.000000000000E+00
  0.216840434497E-18
  0.216840434497E-18
  0.433680868994E-18
  0.000000000000E+00
  0.216840434497E-18
  0.433680868994E-18
 -0.216840434497E-18
  0.000000000000E+00
 -0.216840434497E-18
  0.000000000000E+00
  0.108420217249E-18
  0.216840434497E-18
  0.216840434497E-18
  0.433680868994E-18
  0.216840434497E-18
 -0.216840434497E-18
 -0.216840434497E-18
  0.216840434497E-18
 -0.867361737988E-18
  0.433680868994E-18
  0.216840434497E-18
  0.216840434497E-18
  0.000000000000E+00
 -0.216840434497E-18
  0.433680868994E-18
  0.216840434497E-18
 -0.433680868994E-18
  0.000000000000E+00
 -0.433680868994E-18
  0.000000000000E+00
  0.216840434497E-18
  0.433680868994E-18
 -0.108420217249E-18
  0.108420217249E-18
  0.216840434497E-18
  0.000000000000E+00
 -0.108420217249E-18
  0.108420217249E-18
 -0.108420217249E-18
  0.108420217249E-18
  0.000000000000E+00
  0.108420217249E-18
  0.000000000000E+00
  0.108420217249E-18
 -0.650521303491E-18
  0.433680868994E-18
  0.000000000000E+00
  0.000000000000E+00
 -0.216840434497E-18
  0.000000000000E+00
 -0.433680868994E-18
  0.433680868994E-18
  0.000000000000E+00
  0.000000000000E+00
  0.216840434497E-18
  0.433680868994E-18
  0.216840434497E-18
  0.433680868994E-18
  0.000000000000E+00
 -0.650521303491E-18
 -0.216840434497E-18
  0.216840434497E-18
 -0.216840434497E-18
  0.000000000000E+00
  0.433680868994E-18
 -0.433680868994E-18
  0.216840434497E-18
  0.216840434497E-18
  0.000000000000E+00
  0.216840434497E-18
  0.000000000000E+00
 -0.216840434497E-18
  0.000000000000E+00
  0.216840434497E-18
 -0.216840434497E-18
  0.000000000000E+00
  0.000000000000E+00
  0.000000000000E+00
  0.000000000000E+00
 -0.216840434497E-18
  0.216840434497E-18
 -0.216840434497E-18
 -0.108420217249E-18
 -0.867361737988E-18
 -0.867361737988E-18
  0.867361737988E-18
  0.000000000000E+00
  0.433680868994E-18
 -0.433680868994E-18
 -0.433680868994E-18
  0.000000000000E+00
  0.000000000000E+00
  0.000000000000E+00
 -0.867361737988E-18
  0.000000000000E+00
  0.433680868994E-18
 -0.433680868994E-18
 -0.867361737988E-18
  0.000000000000E+00
  0.433680868994E-18
  0.000000000000E+00
  0.000000000000E+00
 -0.130104260698E-17
  0.433680868994E-18
  0.000000000000E+00
  0.867361737988E-18
  0.433680868994E-18
  0.000000000000E+00
  0.433680868994E-18
  0.433680868994E-18
  0.433680868994E-18
 -0.433680868994E-18
 -0.216840434497E-17
 -0.867361737988E-18
  0.433680868994E-18
 -0.433680868994E-18
  0.000000000000E+00
 -0.433680868994E-18
  0.000000000000E+00
 -0.433680868994E-18
  0.433680868994E-18
  0.000000000000E+00
  0.867361737988E-18
 -0.130104260698E-17
  0.216840434497E-18
 -0.108420217249E-17
  0.216840434497E-18
  0.433680868994E-18
  0.216840434497E-18
 -0.216840434497E-18
  0.000000000000E+00
  0.216840434497E-18
  0.216840434497E-18
 -0.433680868994E-18
  0.650521303491E-18
 -0.216840434497E-18
 -0.867361737988E-18
  0.260208521397E-17
  0.867361737988E-18
  0.433680868994E-18
  0.867361737988E-18
  0.867361737988E-18
  0.000000000000E+00
  0.433680868994E-18
  0.000000000000E+00
  0.433680868994E-18
  0.433680868994E-18
  0.433680868994E-18
 -0.130104260698E-17
  0.433680868994E-18
  0.433680868994E-18
 -0.867361737988E-18
 -0.433680868994E-18
  0.433680868994E-18
  0.000000000000E+00
  0.000000000000E+00
  0.867361737988E-18
  0.000000000000E+00
  0.000000000000E+00
  0.000000000000E+00
  0.130104260698E-17
  0.216840434497E-17
  0.433680868994E-18
 -0.130104260698E-17
  0.867361737988E-18
  0.867361737988E-18
 -0.173472347598E-17
 -0.433680868994E-18
  0.867361737988E-18
  0.867361737988E-18
  0.000000000000E+00
 -0.433680868994E-18
 -0.433680868994E-18
 -0.433680868994E-18
  0.000000000000E+00
 -0.173472347598E-17
 -0.867361737988E-18
  0.867361737988E-18
 -0.173472347598E-17
 -0.867361737988E-18
  0.260208521397E-17
 -0.867361737988E-18
  0.000000000000E+00
  0.000000000000E+00
  0.867361737988E-18
  0.173472347598E-17
  0.867361737988E-18
  0.867361737988E-18
  0.867361737988E-18
 -0.173472347598E-17
  0.173472347598E-17
 -0.260208521397E-17
  0.867361737988E-18
  0.000000000000E+00
 -0.346944695195E-17
 -0.433680868994E-17
  0.000000000000E+00
  0.173472347598E-17
  0.173472347598E-17
  0.173472347598E-17
  0.260208521397E-17
 -0.867361737988E-18
 -0.260208521397E-17
  0.867361737988E-18
 -0.260208521397E-17
  0.867361737988E-18
  0.867361737988E-18
  0.260208521397E-17
  0.867361737988E-18
 -0.173472347598E-17
 -0.260208521397E-17
 -0.173472347598E-17
 -0.867361737988E-18
  0.867361737988E-18
 -0.260208521397E-17
 -0.173472347598E-17
  0.433680868994E-18
 -0.867361737988E-18
  0.867361737988E-18
  0.000000000000E+00
  0.000000000000E+00
  0.000000000000E+00
 -0.173472347598E-17
  0.000000000000E+00
  0.867361737988E-18
 -0.433680868994E-18
  0.867361737988E-18
 -0.433680868994E-18
 -0.520417042793E-17
 -0.260208521397E-17
  0.173472347598E-17
 -0.173472347598E-17
 -0.260208521397E-17
 -0.260208521397E-17
 -0.867361737988E-18
  0.346944695195E-17
  0.173472347598E-17
  0.867361737988E-18
  0.867361737988E-18
  0.000000000000E+00
  0.260208521397E-17
 -0.867361737988E-18
  0.260208521397E-17
  0.260208521397E-17
  0.867361737988E-18
 -0.867361737988E-18
  0.000000000000E+00
 -0.433680868994E-18
  0.260208521397E-17
  0.000000000000E+00
 -0.260208521397E-17
  0.000000000000E+00
  0.000000000000E+00
  0.000000000000E+00
  0.260208521397E-17
 -0.867361737988E-18
 -0.260208521397E-17
 -0.867361737988E-18
  0.173472347598E-17
  0.260208521397E-17
  0.433680868994E-17
  0.000000000000E+00
 -0.260208521397E-17
  0.173472347598E-17
  0.867361737988E-18
  0.000000000000E+00
 -0.433680868994E-18
 -0.138777878078E-16
  0.520417042793E-17
 -0.520417042793E-17
 -0.173472347598E-17
  0.000000000000E+00
 -0.346944695195E-17
  0.173472347598E-17
 -0.346944695195E-17
  0.173472347598E-17
 -0.693889390391E-17
  0.173472347598E-17
  0.000000000000E+00
  0.346944695195E-17
 -0.346944695195E-17
 -0.693889390391E-17
 -0.346944695195E-17
  0.346944695195E-17
  0.000000000000E+00
 -0.693889390391E-17
  0.000000000000E+00
 -0.346944695195E-17
  0.346944695195E-17
  0.000000000000E+00
  0.520417042793E-17
 -0.173472347598E-17
 -0.173472347598E-17
 -0.346944695195E-17
  0.173472347598E-17
  0.520417042793E-17
  0.173472347598E-17
 -0.173472347598E-17
  0.173472347598E-17
 -0.520417042793E-17
  0.693889390391E-17
  0.000000000000E+00
  0.173472347598E-17
 -0.173472347598E-17
  0.173472347598E-17
  0.867361737988E-18
  0.173472347598E-17
  0.346944695195E-17
  0.867361737988E-18
 -0.173472347598E-17
  0.000000000000E+00
 -0.173472347598E-17
 -0.867361737988E-18
 -0.173472347598E-17
  0.867361737988E-18
  0.867361737988E-18
 -0.867361737988E-18
 -0.173472347598E-17
  0.000000000000E+00
 -0.260208521397E-17
  0.000000000000E+00
 -0.104083408559E-16
 -0.346944695195E-17
  0.693889390391E-17
  0.346944695195E-17
  0.346944695195E-17
 -0.520417042793E-17
  0.346944695195E-17
 -0.346944695195E-17
 -0.173472347598E-17
  0.520417042793E-17
  0.173472347598E-17
  0.346944695195E-17
  0.173472347598E-17
  0.173472347598E-17
 -0.693889390391E-17
  0.000000000000E+00
  0.867361737988E-17
  0.693889390391E-17
 -0.173472347598E-17
  0.346944695195E-17
  0.104083408559E-16
  0.000000000000E+00
  0.000000000000E+00
  0.693889390391E-17
  0.104083408559E-16
 -0.693889390391E-17
  0.173472347598E-17
  0.000000000000E+00
  0.520417042793E-17
  0.520417042793E-17
 -0.520417042793E-17
 -0.867361737988E-17
  0.693889390391E-17
 -0.693889390391E-17
 -0.520417042793E-17
  0.000000000000E+00
 -0.173472347598E-17
  0.867361737988E-18
  0.000000000000E+00
  0.104083408559E-16
 -0.693889390391E-17
 -0.104083408559E-16
  0.000000000000E+00
 -0.693889390391E-17
  0.173472347598E-16
  0.104083408559E-16
  0.346944695195E-17
  0.000000000000E+00
  0.000000000000E+00
  0.138777878078E-16
  0.000000000000E+00
  0.000000000000E+00
  0.346944695195E-17
 -0.104083408559E-16
  0.346944695195E-17
  0.138777878078E-16
 -0.520417042793E-17
 -0.346944695195E-17
  0.104083408559E-16
 -0.346944695195E-17
  0.693889390391E-17
 -0.104083408559E-16
 -0.346944695195E-17
  0.104083408559E-16
 -0.208166817117E-16
 -0.693889390391E-17
 -0.346944695195E-17
  0.000000000000E+00
 -0.693889390391E-17
  0.693889390391E-17
 -0.138777878078E-16
  0.000000000000E+00
  0.693889390391E-17
  0.346944695195E-17
 -0.693889390391E-17
 -0.173472347598E-17
  0.000000000000E+00
  0.000000000000E+00
  0.346944695195E-17
  0.000000000000E+00
  0.000000000000E+00
  0.693889390391E-17
  0.000000000000E+00
  0.693889390391E-17
 -0.693889390391E-17
 -0.173472347598E-17
  0.173472347598E-17
  0.173472347598E-17
  0.000000000000E+00
  0.520417042793E-17
  0.000000000000E+00
  0.867361737988E-17
 -0.346944695195E-17
  0.867361737988E-17
 -0.346944695195E-17
  0.000000000000E+00
  0.000000000000E+00
  0.520417042793E-17
 -0.520417042793E-17
 -0.520417042793E-17
 -0.173472347598E-17
  0.000000000000E+00
  0.693889390391E-17
 -0.173472347598E-17
  0.346944695195E-17
  0.173472347598E-17
 -0.104083408559E-16
  0.000000000000E+00
 -0.346944695195E-17
 -0.346944695195E-17
 -0.173472347598E-17
 -0.346944695195E-17
  0.346944695195E-17
  0.000000000000E+00
  0.000000000000E+00
  0.693889390391E-17
 -0.520417042793E-17
 -0.346944695195E-17
 -0.173472347598E-17
  0.520417042793E-17
 -0.693889390391E-17
 -0.520417042793E-17
 -0.520417042793E-17
  0.173472347598E-17
 -0.867361737988E-17
  0.693889390391E-17
  0.346944695195E-17
  0.121430643318E-16
  0.346944695195E-17
  0.000000000000E+00
  0.346944695195E-17
  0.346944695195E-16
 -0.693889390391E-17
  0.693889390391E-17
  0.104083408559E-16
  0.693889390391E-17
  0.693889390391E-17
  0.104083408559E-16
  0.346944695195E-17
  0.000000000000E+00
  0.693889390391E-17
  0.208166817117E-16
  0.104083408559E-16
  0.138777878078E-16
 -0.693889390391E-17
 -0.346944695195E-17
  0.138777878078E-16
  0.346944695195E-17
  0.346944695195E-17
  0.173472347598E-17
 -0.693889390391E-17
 -0.346944695195E-17
 -0.693889390391E-17
  0.346944695195E-17
  0.000000000000E+00
  0.346944695195E-17
  0.693889390391E-17
  0.138777878078E-16
  0.346944695195E-17
  0.242861286637E-16
  0.173472347598E-16
  0.104083408559E-16
  0.346944695195E-17
 -0.173472347598E-16
  0.693889390391E-17
 -0.693889390391E-17
  0.242861286637E-16
 -0.346944695195E-17
  0.520417042793E-17
  0.693889390391E-17
  0.173472347598E-17
 -0.693889390391E-17
 -0.346944695195E-17
  0.520417042793E-17
  0.346944695195E-17
 -0.173472347598E-17
 -0.173472347598E-17
  0.346944695195E-17
 -0.173472347598E-17
 -0.173472347598E-17
  0.000000000000E+00
  0.173472347598E-17
  0.520417042793E-17
 -0.173472347598E-16
  0.173472347598E-16
 -0.346944695195E-17
  0.000000000000E+00
 -0.173472347598E-16
 -0.277555756156E-16
 -0.693889390391E-17
  0.346944695195E-17
  0.173472347598E-16
 -0.693889390391E-17
  0.693889390391E-17
  0.104083408559E-16
  0.104083408559E-16
 -0.173472347598E-16
  0.138777878078E-16
 -0.693889390391E-17
  0.693889390391E-17
  0.242861286637E-16
 -0.104083408559E-16
  0.121430643318E-16
  0.208166817117E-16
 -0.346944695195E-17
  0.104083408559E-16
  0.104083408559E-16
 -0.693889390391E-17
  0.346944695195E-17
  0.000000000000E+00
 -0.208166817117E-16
 -0.208166817117E-16
 -0.173472347598E-16
 -0.346944695195E-17
 -0.346944695195E-17
  0.138777878078E-16
 -0.173472347598E-16
 -0.208166817117E-16
  0.138777878078E-16
  0.138777878078E-16
 -0.346944695195E-17
  0.000000000000E+00
 -0.208166817117E-16
 -0.346944695195E-17
 -0.208166817117E-16
 -0.346944695195E-17
 -0.104083408559E-16
 -0.346944695195E-17
 -0.138777878078E-16
  0.104083408559E-16
 -0.138777878078E-16
 -0.208166817117E-16
 -0.104083408559E-16
 -0.138777878078E-16
 -0.693889390391E-17
 -0.138777878078E-16
 -0.346944695195E-17
  0.138777878078E-16
  0.346944695195E-17
  0.693889390391E-17
  0.000000000000E+00
 -0.520417042793E-17
 -0.173472347598E-16
 -0.138777878078E-16
 -0.104083408559E-16
 -0.312250225676E-16
  0.104083408559E-16
 -0.693889390391E-17
 -0.138777878078E-16
  0.693889390391E-17
  0.693889390391E-17
  0.000000000000E+00
 -0.104083408559E-16
 -0.104083408559E-16
  0.000000000000E+00
  0.138777878078E-16
 -0.693889390391E-17
 -0.346944695195E-17
  0.138777878078E-16
  0.693889390391E-17
  0.173472347598E-17
  0.173472347598E-17
 -0.104083408559E-16
  0.867361737988E-17
 -0.346944695195E-17
  0.867361737988E-17
 -0.693889390391E-17
  0.000000000000E+00
 -0.346944695195E-17
  0.520417042793E-17
  0.693889390391E-17
 -0.173472347598E-17
  0.000000000000E+00
  0.000000000000E+00
  0.121430643318E-16
  0.104083408559E-16
  0.173472347598E-16
 -0.104083408559E-16
  0.173472347598E-16
  0.104083408559E-16
 -0.104083408559E-16
  0.173472347598E-16
 -0.693889390391E-17
  0.693889390391E-17
 -0.693889390391E-17
  0.000000000000E+00
  0.138777878078E-16
  0.104083408559E-16
  0.138777878078E-16
  0.346944695195E-17
  0.693889390391E-17
  0.000000000000E+00
 -0.693889390391E-17
 -0.173472347598E-17
  0.867361737988E-17
 -0.104083408559E-16
  0.104083408559E-16
  0.173472347598E-16
  0.312250225676E-16
 -0.208166817117E-16
 -0.346944695195E-17
  0.104083408559E-16
 -0.346944695195E-17
  0.242861286637E-16
 -0.173472347598E-16
 -0.208166817117E-16
  0.104083408559E-16
  0.000000000000E+00
 -0.138777878078E-16
 -0.277555756156E-16
 -0.104083408559E-16
 -0.104083408559E-16
 -0.173472347598E-17
 -0.173472347598E-17
  0.000000000000E+00
  0.173472347598E-17
  0.346944695195E-17
 -0.173472347598E-16
 -0.121430643318E-16
  0.104083408559E-16
  0.156125112838E-16
 -0.208166817117E-16
 -0.173472347598E-17
 -0.121430643318E-16
 -0.138777878078E-16
 -0.693889390391E-17
  0.173472347598E-17
  0.173472347598E-17
  0.346944695195E-17
  0.173472347598E-17
 -0.693889390391E-17
  0.104083408559E-16
 -0.346944695195E-17
 -0.346944695195E-17
  0.173472347598E-17
  0.173472347598E-17
 -0.104083408559E-16
 -0.225514051877E-16
  0.346944695195E-17
 -0.121430643318E-16
  0.138777878078E-16
 -0.173472347598E-17
 -0.173472347598E-17
 -0.693889390391E-17
 -0.520417042793E-17
  0.000000000000E+00
  0.000000000000E+00
 -0.104083408559E-16
  0.173472347598E-17
 -0.173472347598E-17
  0.000000000000E+00
  0.520417042793E-17
 -0.173472347598E-17
  0.173472347598E-17
  0.433680868994E-17
  0.520417042793E-17
 -0.346944695195E-17
 -0.346944695195E-17
  0.260208521397E-17
  0.000000000000E+00
  0.173472347598E-17
  0.433680868994E-17
  0.260208521397E-17
  0.260208521397E-17
 -0.346944695195E-17
  0.867361737988E-18
 -0.260208521397E-17
  0.520417042793E-17
  0.867361737988E-17
  0.000000000000E+00
 -0.346944695195E-17
 -0.104083408559E-16
  0.173472347598E-17
 -0.867361737988E-17
  0.138777878078E-16
 -0.173472347598E-17
 -0.173472347598E-16
  0.346944695195E-17
  0.693889390391E-17
 -0.346944695195E-17
  0.000000000000E+00
  0.138777878078E-16
 -0.173472347598E-17
  0.346944695195E-17
  0.173472347598E-17
  0.433680868994E-17
  0.130104260698E-17
 -0.346944695195E-17
 -0.693889390391E-17
  0.000000000000E+00
 -0.693889390391E-17
 -0.520417042793E-17
  0.104083408559E-16
 -0.173472347598E-17
  0.346944695195E-17
 -0.173472347598E-17
  0.520417042793E-17
  0.693889390391E-17
 -0.173472347598E-17
 -0.867361737988E-17
 -0.520417042793E-17
  0.000000000000E+00
 -0.138777878078E-16
  0.346944695195E-17
  0.173472347598E-17
  0.867361737988E-18
 -0.156125112838E-16
 -0.867361737988E-17
 -0.173472347598E-17
 -0.693889390391E-17
 -0.173472347598E-17
 -0.173472347598E-17
 -0.693889390391E-17
 -0.346944695195E-17
 -0.346944695195E-17
  0.520417042793E-17
  0.520417042793E-17
  0.867361737988E-17
 -0.693889390391E-17
  0.520417042793E-17
  0.104083408559E-16
 -0.173472347598E-17
  0.346944695195E-17
 -0.260208521397E-17
  0.867361737988E-18
 -0.216840434497E-17
 -0.156125112838E-16
 -0.520417042793E-17
  0.000000000000E+00
 -0.693889390391E-17
  0.121430643318E-16
  0.173472347598E-17
  0.000000000000E+00
 -0.693889390391E-17
 -0.693889390391E-17
  0.121430643318E-16
 -0.173472347598E-17
 -0.173472347598E-17
 -0.693889390391E-17
 -0.867361737988E-17
  0.121430643318E-16
 -0.607153216592E-17
  0.433680868994E-18
  0.000000000000E+00
  0.173472347598E-17
  0.130104260698E-17
  0.130104260698E-17
 -0.303576608296E-17
  0.173472347598E-17
  0.216840434497E-17
  0.867361737988E-18
  0.173472347598E-17
  0.867361737988E-18
 -0.390312782095E-17
 -0.130104260698E-17
  0.650521303491E-18
 -0.433680868994E-18
 -0.433680868994E-18
  0.108420217249E-17
  0.173472347598E-17
  0.867361737988E-17
 -0.867361737988E-17
  0.954097911787E-17
 -0.260208521397E-17
  0.346944695195E-17
  0.173472347598E-17
  0.000000000000E+00
  0.346944695195E-17
  0.433680868994E-17
  0.520417042793E-17
  0.867361737988E-17
  0.780625564190E-17
  0.867361737988E-18
  0.867361737988E-18
  0.867361737988E-18
  0.000000000000E+00
  0.867361737988E-18
  0.173472347598E-17
 -0.867361737988E-18
 -0.260208521397E-17
 -0.173472347598E-17
 -0.693889390391E-17
 -0.173472347598E-17
  0.000000000000E+00
  0.000000000000E+00
  0.260208521397E-17
 -0.433680868994E-17
 -0.433680868994E-17
  0.260208521397E-17
 -0.520417042793E-17
 -0.260208521397E-17
  0.173472347598E-17
  0.520417042793E-17
  0.433680868994E-17
 -0.607153216592E-17
  0.867361737988E-18
 -0.216840434497E-18
  0.216840434497E-17
 -0.173472347598E-17
  0.867361737988E-18
 -0.867361737988E-18
  0.607153216592E-17
  0.112757025938E-16
  0.867361737988E-18
  0.173472347598E-17
 -0.867361737988E-18
  0.607153216592E-17
 -0.260208521397E-17
  0.000000000000E+00
  0.520417042793E-17
  0.260208521397E-17
  0.260208521397E-17
 -0.867361737988E-18
  0.433680868994E-18
 -0.195156391047E-17
 -0.151788304148E-17
 -0.433680868994E-18
 -0.542101086243E-19
  0.607153216592E-17
 -0.607153216592E-17
  0.173472347598E-17
 -0.173472347598E-17
  0.173472347598E-17
 -0.433680868994E-17
 -0.867361737988E-18
 -0.433680868994E-17
 -0.173472347598E-17
 -0.520417042793E-17
  0.346944695195E-17
 -0.867361737988E-18
 -0.260208521397E-17
  0.173472347598E-17
  0.000000000000E+00
  0.108420217249E-17
 -0.433680868994E-18
  0.000000000000E+00
  0.271050543121E-18
  0.758941520740E-18
 -0.119262238973E-17
  0.542101086243E-18
  0.650521303491E-18
 -0.216840434497E-18
  0.433680868994E-18
  0.108420217249E-18
 -0.108420217249E-18
  0.000000000000E+00
 -0.542101086243E-19
  0.271050543121E-18
  0.813151629364E-18
 -0.433680868994E-18
 -0.230392961653E-18
  0.997465998687E-17
 -0.216840434497E-17
  0.477048955894E-17
  0.260208521397E-17
 -0.390312782095E-17
 -0.216840434497E-17
 -0.173472347598E-17
  0.130104260698E-17
  0.130104260698E-17
  0.173472347598E-17
 -0.260208521397E-17
 -0.867361737988E-18
 -0.867361737988E-18
  0.303576608296E-17
 -0.390312782095E-17
  0.433680868994E-17
  0.119262238973E-17
  0.433680868994E-18
 -0.867361737988E-18
 -0.135525271561E-18
  0.433680868994E-17
  0.216840434497E-17
  0.780625564190E-17
 -0.433680868994E-18
 -0.390312782095E-17
 -0.130104260698E-17
 -0.867361737988E-18
  0.000000000000E+00