# vtk DataFile Version 3.0
MachLine results file. Generated by MachLine, USU AeroLab (c) 2022.
ASCII
DATASET POLYDATA
POINTS                 419 float
  0.100000000000E+01  0.000000000000E+00  0.000000000000E+00
  0.953837434700E+00  0.222222222220E+00 -0.403870114270E-02
  0.100000000000E+01  0.222222222220E+00  0.000000000000E+00
  0.953837434700E+00  0.000000000000E+00 -0.403870114270E-02
  0.863184801440E+00  0.222222222220E+00 -0.119697788720E-01
  0.863184801440E+00  0.000000000000E+00 -0.119697788720E-01
  0.708754398800E+00  0.222222222220E+00 -0.254806884070E-01
  0.708754398800E+00  0.000000000000E+00 -0.254806884070E-01
  0.500000000000E+00  0.222222222220E+00 -0.437443317630E-01
  0.500000000000E+00  0.000000000000E+00 -0.437443317630E-01
  0.291245601200E+00  0.000000000000E+00 -0.254806884070E-01
  0.291245601200E+00  0.222222222220E+00 -0.254806884070E-01
  0.136815198560E+00  0.000000000000E+00 -0.119697788720E-01
  0.136815198560E+00  0.222222222220E+00 -0.119697788720E-01
  0.461625652960E-01  0.000000000000E+00 -0.403870114270E-02
  0.461625652960E-01  0.222222222220E+00 -0.403870114270E-02
  0.000000000000E+00  0.000000000000E+00  0.000000000000E+00
  0.000000000000E+00  0.222222222220E+00  0.000000000000E+00
  0.461625652960E-01  0.222222222220E+00  0.403870114270E-02
  0.461625652960E-01  0.000000000000E+00  0.403870114270E-02
  0.136815198560E+00  0.222222222220E+00  0.119697788720E-01
  0.136815198560E+00  0.000000000000E+00  0.119697788720E-01
  0.291245601200E+00  0.222222222220E+00  0.254806884070E-01
  0.291245601200E+00  0.000000000000E+00  0.254806884070E-01
  0.500000000000E+00  0.222222222220E+00  0.437443317630E-01
  0.500000000000E+00  0.000000000000E+00  0.437443317630E-01
  0.708754398800E+00  0.000000000000E+00  0.254806884070E-01
  0.708754398800E+00  0.222222222220E+00  0.254806884070E-01
  0.863184801440E+00  0.000000000000E+00  0.119697788720E-01
  0.863184801440E+00  0.222222222220E+00  0.119697788720E-01
  0.953837434700E+00  0.000000000000E+00  0.403870114270E-02
  0.953837434700E+00  0.222222222220E+00  0.403870114270E-02
  0.953837434700E+00  0.444444444440E+00 -0.403870114270E-02
  0.100000000000E+01  0.444444444440E+00  0.000000000000E+00
  0.863184801440E+00  0.444444444440E+00 -0.119697788720E-01
  0.708754398800E+00  0.444444444440E+00 -0.254806884070E-01
  0.500000000000E+00  0.444444444440E+00 -0.437443317630E-01
  0.291245601200E+00  0.444444444440E+00 -0.254806884070E-01
  0.136815198560E+00  0.444444444440E+00 -0.119697788720E-01
  0.461625652960E-01  0.444444444440E+00 -0.403870114270E-02
  0.000000000000E+00  0.444444444440E+00  0.000000000000E+00
  0.461625652960E-01  0.444444444440E+00  0.403870114270E-02
  0.136815198560E+00  0.444444444440E+00  0.119697788720E-01
  0.291245601200E+00  0.444444444440E+00  0.254806884070E-01
  0.500000000000E+00  0.444444444440E+00  0.437443317630E-01
  0.708754398800E+00  0.444444444440E+00  0.254806884070E-01
  0.863184801440E+00  0.444444444440E+00  0.119697788720E-01
  0.953837434700E+00  0.444444444440E+00  0.403870114270E-02
  0.953837434700E+00  0.666666666670E+00 -0.403870114270E-02
  0.100000000000E+01  0.666666666670E+00  0.000000000000E+00
  0.863184801440E+00  0.666666666670E+00 -0.119697788720E-01
  0.708754398800E+00  0.666666666670E+00 -0.254806884070E-01
  0.500000000000E+00  0.666666666670E+00 -0.437443317630E-01
  0.291245601200E+00  0.666666666670E+00 -0.254806884070E-01
  0.136815198560E+00  0.666666666670E+00 -0.119697788720E-01
  0.461625652960E-01  0.666666666670E+00 -0.403870114270E-02
  0.000000000000E+00  0.666666666670E+00  0.000000000000E+00
  0.461625652960E-01  0.666666666670E+00  0.403870114270E-02
  0.136815198560E+00  0.666666666670E+00  0.119697788720E-01
  0.291245601200E+00  0.666666666670E+00  0.254806884070E-01
  0.500000000000E+00  0.666666666670E+00  0.437443317630E-01
  0.708754398800E+00  0.666666666670E+00  0.254806884070E-01
  0.863184801440E+00  0.666666666670E+00  0.119697788720E-01
  0.953837434700E+00  0.666666666670E+00  0.403870114270E-02
  0.953837434700E+00  0.888888888890E+00 -0.403870114270E-02
  0.100000000000E+01  0.888888888890E+00  0.000000000000E+00
  0.863184801440E+00  0.888888888890E+00 -0.119697788720E-01
  0.708754398800E+00  0.888888888890E+00 -0.254806884070E-01
  0.500000000000E+00  0.888888888890E+00 -0.437443317630E-01
  0.291245601200E+00  0.888888888890E+00 -0.254806884070E-01
  0.136815198560E+00  0.888888888890E+00 -0.119697788720E-01
  0.461625652960E-01  0.888888888890E+00 -0.403870114270E-02
  0.000000000000E+00  0.888888888890E+00  0.000000000000E+00
  0.461625652960E-01  0.888888888890E+00  0.403870114270E-02
  0.136815198560E+00  0.888888888890E+00  0.119697788720E-01
  0.291245601200E+00  0.888888888890E+00  0.254806884070E-01
  0.500000000000E+00  0.888888888890E+00  0.437443317630E-01
  0.708754398800E+00  0.888888888890E+00  0.254806884070E-01
  0.863184801440E+00  0.888888888890E+00  0.119697788720E-01
  0.953837434700E+00  0.888888888890E+00  0.403870114270E-02
  0.953837434700E+00  0.111111111110E+01 -0.403870114270E-02
  0.100000000000E+01  0.111111111110E+01  0.000000000000E+00
  0.863184801440E+00  0.111111111110E+01 -0.119697788720E-01
  0.708754398800E+00  0.111111111110E+01 -0.254806884070E-01
  0.500000000000E+00  0.111111111110E+01 -0.437443317630E-01
  0.291245601200E+00  0.111111111110E+01 -0.254806884070E-01
  0.136815198560E+00  0.111111111110E+01 -0.119697788720E-01
  0.461625652960E-01  0.111111111110E+01 -0.403870114270E-02
  0.000000000000E+00  0.111111111110E+01  0.000000000000E+00
  0.461625652960E-01  0.111111111110E+01  0.403870114270E-02
  0.136815198560E+00  0.111111111110E+01  0.119697788720E-01
  0.291245601200E+00  0.111111111110E+01  0.254806884070E-01
  0.500000000000E+00  0.111111111110E+01  0.437443317630E-01
  0.708754398800E+00  0.111111111110E+01  0.254806884070E-01
  0.863184801440E+00  0.111111111110E+01  0.119697788720E-01
  0.953837434700E+00  0.111111111110E+01  0.403870114270E-02
  0.953837434700E+00  0.133333333330E+01 -0.403870114270E-02
  0.100000000000E+01  0.133333333330E+01  0.000000000000E+00
  0.863184801440E+00  0.133333333330E+01 -0.119697788720E-01
  0.708754398800E+00  0.133333333330E+01 -0.254806884070E-01
  0.500000000000E+00  0.133333333330E+01 -0.437443317630E-01
  0.291245601200E+00  0.133333333330E+01 -0.254806884070E-01
  0.136815198560E+00  0.133333333330E+01 -0.119697788720E-01
  0.461625652960E-01  0.133333333330E+01 -0.403870114270E-02
  0.000000000000E+00  0.133333333330E+01  0.000000000000E+00
  0.461625652960E-01  0.133333333330E+01  0.403870114270E-02
  0.136815198560E+00  0.133333333330E+01  0.119697788720E-01
  0.291245601200E+00  0.133333333330E+01  0.254806884070E-01
  0.500000000000E+00  0.133333333330E+01  0.437443317630E-01
  0.708754398800E+00  0.133333333330E+01  0.254806884070E-01
  0.863184801440E+00  0.133333333330E+01  0.119697788720E-01
  0.953837434700E+00  0.133333333330E+01  0.403870114270E-02
  0.953837434700E+00  0.155555555560E+01 -0.403870114270E-02
  0.100000000000E+01  0.155555555560E+01  0.000000000000E+00
  0.863184801440E+00  0.155555555560E+01 -0.119697788720E-01
  0.708754398800E+00  0.155555555560E+01 -0.254806884070E-01
  0.500000000000E+00  0.155555555560E+01 -0.437443317630E-01
  0.291245601200E+00  0.155555555560E+01 -0.254806884070E-01
  0.136815198560E+00  0.155555555560E+01 -0.119697788720E-01
  0.461625652960E-01  0.155555555560E+01 -0.403870114270E-02
  0.000000000000E+00  0.155555555560E+01  0.000000000000E+00
  0.461625652960E-01  0.155555555560E+01  0.403870114270E-02
  0.136815198560E+00  0.155555555560E+01  0.119697788720E-01
  0.291245601200E+00  0.155555555560E+01  0.254806884070E-01
  0.500000000000E+00  0.155555555560E+01  0.437443317630E-01
  0.708754398800E+00  0.155555555560E+01  0.254806884070E-01
  0.863184801440E+00  0.155555555560E+01  0.119697788720E-01
  0.953837434700E+00  0.155555555560E+01  0.403870114270E-02
  0.953837434700E+00  0.177777777780E+01 -0.403870114270E-02
  0.100000000000E+01  0.177777777780E+01  0.000000000000E+00
  0.863184801440E+00  0.177777777780E+01 -0.119697788720E-01
  0.708754398800E+00  0.177777777780E+01 -0.254806884070E-01
  0.500000000000E+00  0.177777777780E+01 -0.437443317630E-01
  0.291245601200E+00  0.177777777780E+01 -0.254806884070E-01
  0.136815198560E+00  0.177777777780E+01 -0.119697788720E-01
  0.461625652960E-01  0.177777777780E+01 -0.403870114270E-02
  0.000000000000E+00  0.177777777780E+01  0.000000000000E+00
  0.461625652960E-01  0.177777777780E+01  0.403870114270E-02
  0.136815198560E+00  0.177777777780E+01  0.119697788720E-01
  0.291245601200E+00  0.177777777780E+01  0.254806884070E-01
  0.500000000000E+00  0.177777777780E+01  0.437443317630E-01
  0.708754398800E+00  0.177777777780E+01  0.254806884070E-01
  0.863184801440E+00  0.177777777780E+01  0.119697788720E-01
  0.953837434700E+00  0.177777777780E+01  0.403870114270E-02
  0.953837434700E+00  0.200000000000E+01 -0.403870114270E-02
  0.100000000000E+01  0.200000000000E+01  0.000000000000E+00
  0.863184801440E+00  0.200000000000E+01 -0.119697788720E-01
  0.708754398800E+00  0.200000000000E+01 -0.254806884070E-01
  0.500000000000E+00  0.200000000000E+01 -0.437443317630E-01
  0.291245601200E+00  0.200000000000E+01 -0.254806884070E-01
  0.136815198560E+00  0.200000000000E+01 -0.119697788720E-01
  0.461625652960E-01  0.200000000000E+01 -0.403870114270E-02
  0.000000000000E+00  0.200000000000E+01  0.000000000000E+00
  0.461625652960E-01  0.200000000000E+01  0.403870114270E-02
  0.136815198560E+00  0.200000000000E+01  0.119697788720E-01
  0.291245601200E+00  0.200000000000E+01  0.254806884070E-01
  0.500000000000E+00  0.200000000000E+01  0.437443317630E-01
  0.708754398800E+00  0.200000000000E+01  0.254806884070E-01
  0.863184801440E+00  0.200000000000E+01  0.119697788720E-01
  0.953837434700E+00  0.200000000000E+01  0.403870114270E-02
  0.953837434700E+00  0.200157141480E+01 -0.372111000410E-02
[...]
CELL_DATA                 800
SCALARS sigma float 1
LOOKUP_TABLE default
 -0.523359562360E-01
 -0.523359562360E-01
 -0.523359562460E-01
 -0.523359562460E-01
 -0.523359562446E-01
 -0.523359562446E-01
 -0.523359562421E-01
 -0.523359562421E-01
  0.121869343404E+00
  0.121869343404E+00
  0.121869343407E+00
  0.121869343407E+00
  0.121869343404E+00
  0.121869343404E+00
  0.121869343406E+00
  0.121869343406E+00
  0.523359562435E-01
  0.523359562435E-01
  0.523359562421E-01
  0.523359562421E-01
  0.523359562446E-01
  0.523359562446E-01
  0.523359562421E-01
  0.523359562421E-01
 -0.121869343404E+00
 -0.121869343404E+00
 -0.121869343407E+00
 -0.121869343407E+00
 -0.121869343408E+00
 -0.121869343408E+00
 -0.121869343398E+00
 -0.121869343398E+00
 -0.523359562360E-01
 -0.523359562360E-01
 -0.523359562460E-01
 -0.523359562460E-01
 -0.523359562446E-01
 -0.523359562446E-01
 -0.523359562421E-01
 -0.523359562421E-01
  0.121869343404E+00
  0.121869343404E+00
  0.121869343407E+00
  0.121869343407E+00
  0.121869343404E+00
  0.121869343404E+00
  0.121869343406E+00
  0.121869343406E+00
  0.523359562435E-01
  0.523359562435E-01
  0.523359562421E-01
  0.523359562421E-01
  0.523359562446E-01
  0.523359562446E-01
  0.523359562421E-01
  0.523359562421E-01
 -0.121869343404E+00
 -0.121869343404E+00
 -0.121869343407E+00
 -0.121869343407E+00
 -0.121869343408E+00
 -0.121869343408E+00
 -0.121869343398E+00
 -0.121869343398E+00
 -0.523359562360E-01
 -0.523359562360E-01
 -0.523359562460E-01
 -0.523359562460E-01
 -0.523359562446E-01
 -0.523359562446E-01
 -0.523359562421E-01
 -0.523359562421E-01
  0.121869343404E+00
  0.121869343404E+00
  0.121869343407E+00
  0.121869343407E+00
  0.121869343404E+00
  0.121869343404E+00
  0.121869343406E+00
  0.121869343406E+00
  0.523359562435E-01
  0.523359562435E-01
  0.523359562421E-01
  0.523359562421E-01
  0.523359562446E-01
  0.523359562446E-01
  0.523359562421E-01
  0.523359562421E-01
 -0.121869343404E+00
 -0.121869343404E+00
 -0.121869343407E+00
 -0.121869343407E+00
 -0.121869343408E+00
 -0.121869343408E+00
 -0.121869343398E+00
 -0.121869343398E+00
 -0.523359562360E-01
 -0.523359562360E-01
 -0.523359562460E-01
 -0.523359562460E-01
 -0.523359562446E-01
 -0.523359562446E-01
 -0.523359562421E-01
 -0.523359562421E-01
  0.121869343404E+00
  0.121869343404E+00
  0.121869343407E+00
  0.121869343407E+00
  0.121869343404E+00
  0.121869343404E+00
  0.121869343406E+00
  0.121869343406E+00
  0.523359562435E-01
  0.523359562435E-01
  0.523359562421E-01
  0.523359562421E-01
  0.523359562446E-01
  0.523359562446E-01
  0.523359562421E-01
  0.523359562421E-01
 -0.121869343404E+00
 -0.121869343404E+00
 -0.121869343407E+00
 -0.121869343407E+00
 -0.121869343408E+00
 -0.121869343408E+00
 -0.121869343398E+00
 -0.121869343398E+00
 -0.523359562360E-01
 -0.523359562360E-01
 -0.523359562460E-01
 -0.523359562460E-01
 -0.523359562446E-01
 -0.523359562446E-01
 -0.523359562421E-01
 -0.523359562421E-01
  0.121869343404E+00
  0.121869343404E+00
  0.121869343407E+00
  0.121869343407E+00
  0.121869343404E+00
  0.121869343404E+00
  0.121869343406E+00
  0.121869343406E+00
  0.523359562435E-01
  0.523359562435E-01
  0.523359562421E-01
  0.523359562421E-01
  0.523359562446E-01
  0.523359562446E-01
  0.523359562421E-01
  0.523359562421E-01
 -0.121869343404E+00
 -0.121869343404E+00
 -0.121869343407E+00
 -0.121869343407E+00
 -0.121869343408E+00
 -0.121869343408E+00
 -0.121869343398E+00
 -0.121869343398E+00
 -0.523359562360E-01
 -0.523359562360E-01
 -0.523359562460E-01
 -0.523359562460E-01
 -0.523359562446E-01
 -0.523359562446E-01
 -0.523359562421E-01
 -0.523359562421E-01
  0.121869343404E+00
  0.121869343404E+00
  0.121869343407E+00
  0.121869343407E+00
  0.121869343404E+00
  0.121869343404E+00
  0.121869343406E+00
  0.121869343406E+00
  0.523359562435E-01
  0.523359562435E-01
  0.523359562421E-01
  0.523359562421E-01
  0.523359562446E-01
  0.523359562446E-01
  0.523359562421E-01
  0.523359562421E-01
 -0.121869343404E+00
 -0.121869343404E+00
 -0.121869343407E+00
 -0.121869343407E+00
 -0.121869343408E+00
 -0.121869343408E+00
 -0.121869343398E+00
 -0.121869343398E+00
 -0.523359562360E-01
 -0.523359562360E-01
 -0.523359562460E-01
 -0.523359562460E-01
 -0.523359562446E-01
 -0.523359562446E-01
 -0.523359562421E-01
 -0.523359562421E-01
  0.121869343404E+00
  0.121869343404E+00
  0.121869343407E+00
  0.121869343407E+00
  0.121869343404E+00
  0.121869343404E+00
  0.121869343406E+00
  0.121869343406E+00
  0.523359562435E-01
  0.523359562435E-01
  0.523359562421E-01
  0.523359562421E-01
  0.523359562446E-01
  0.523359562446E-01
  0.523359562421E-01
  0.523359562421E-01
 -0.121869343404E+00
 -0.121869343404E+00
 -0.121869343407E+00
 -0.121869343407E+00
 -0.121869343408E+00
 -0.121869343408E+00
 -0.121869343398E+00
 -0.121869343398E+00
 -0.523359562360E-01
 -0.523359562360E-01
 -0.523359562460E-01
 -0.523359562460E-01
 -0.523359562446E-01
 -0.523359562446E-01
 -0.523359562421E-01
 -0.523359562421E-01
  0.121869343404E+00
  0.121869343404E+00
  0.121869343407E+00
  0.121869343407E+00
  0.121869343404E+00
  0.121869343404E+00
  0.121869343406E+00
  0.121869343406E+00
  0.523359562435E-01
  0.523359562435E-01
  0.523359562421E-01
  0.523359562421E-01
  0.523359562446E-01
  0.523359562446E-01
  0.523359562421E-01
  0.523359562421E-01
 -0.121869343404E+00
 -0.121869343404E+00
 -0.121869343407E+00
 -0.121869343407E+00
 -0.121869343408E+00
 -0.121869343408E+00
 -0.121869343398E+00
 -0.121869343398E+00
 -0.523359562360E-01
 -0.523359562360E-01
 -0.523359562460E-01
 -0.523359562460E-01
 -0.523359562446E-01
 -0.523359562446E-01
 -0.523359562421E-01
 -0.523359562421E-01
  0.121869343404E+00
  0.121869343404E+00
  0.121869343407E+00
  0.121869343407E+00
  0.121869343404E+00
  0.121869343404E+00
  0.121869343406E+00
  0.121869343406E+00
  0.523359562435E-01
  0.523359562435E-01
  0.523359562421E-01
  0.523359562421E-01
  0.523359562446E-01
  0.523359562446E-01
  0.523359562421E-01
  0.523359562421E-01
 -0.121869343404E+00
 -0.121869343404E+00
 -0.121869343407E+00
 -0.121869343407E+00
 -0.121869343408E+00
 -0.121869343408E+00
 -0.121869343398E+00
 -0.121869343398E+00
 -0.513064017016E-01
 -0.513064017062E-01
 -0.513064017104E-01
 -0.513064016845E-01
 -0.513064017051E-01
 -0.513064017251E-01
 -0.513064017055E-01
  0.119471925943E+00
  0.119471925958E+00
  0.119471925938E+00
  0.119471925923E+00
  0.119471925945E+00
  0.119471925942E+00
  0.119471925949E+00
  0.513064017090E-01
  0.513064017024E-01
  0.513064017066E-01
  0.513064016845E-01
  0.513064017051E-01
  0.513064017251E-01
  0.513064017055E-01
 -0.119471925943E+00
 -0.119471925958E+00
 -0.119471925938E+00
 -0.119471925923E+00
 -0.119471925949E+00
 -0.119471925946E+00
 -0.119471925942E+00
 -0.566692513550E-01
 -0.566692513536E-01
 -0.566692513487E-01
 -0.566692514782E-01
 -0.566692512695E-01
 -0.566692514682E-01
 -0.566692513662E-01
  0.114324543885E+00
  0.114324543939E+00
  0.114324543741E+00
  0.114324543825E+00
  0.114324543692E+00
  0.114324543694E+00
  0.114324543706E+00
  0.566692513624E-01
  0.566692513498E-01
  0.566692513450E-01
  0.566692514782E-01
  0.566692512695E-01
  0.566692514682E-01
  0.566692513662E-01
 -0.114324543885E+00
 -0.114324543939E+00
 -0.114324543741E+00
 -0.114324543825E+00
 -0.114324543696E+00
 -0.114324543698E+00
 -0.114324543699E+00
 -0.660539610992E-01
 -0.660539614645E-01
 -0.660539610000E-01
 -0.660539607264E-01
 -0.660539612825E-01
 -0.660539609727E-01
 -0.660539615102E-01
  0.104939833873E+00
  0.104939833674E+00
  0.104939833983E+00
  0.104939833856E+00
  0.104939834125E+00
  0.104939834160E+00
  0.104939833807E+00
  0.660539611065E-01
  0.660539614607E-01
  0.660539609963E-01
  0.660539607264E-01
  0.660539612825E-01
  0.660539609727E-01
  0.660539615102E-01
 -0.104939833873E+00
 -0.104939833674E+00
 -0.104939833983E+00
 -0.104939833856E+00
 -0.104939834129E+00
 -0.104939834164E+00
 -0.104939833799E+00
 -0.785008598857E-01
 -0.785008615483E-01
 -0.785008599134E-01
 -0.785008593524E-01
 -0.785008594668E-01
 -0.785008598458E-01
 -0.785008592580E-01
  0.922774680701E-01
  0.922774682533E-01
  0.922774678748E-01
  0.922774678559E-01
  0.922774684125E-01
  0.922774684246E-01
  0.922774667751E-01
  0.785008598931E-01
  0.785008615446E-01
  0.785008599096E-01
  0.785008593524E-01
  0.785008594668E-01
  0.785008598458E-01
  0.785008592580E-01
 -0.922774680701E-01
 -0.922774682533E-01
 -0.922774678748E-01
 -0.922774678559E-01
 -0.922774684162E-01
 -0.922774684284E-01
 -0.922774667677E-01
 -0.523359562360E-01
 -0.523359562360E-01
 -0.523359562460E-01
 -0.523359562460E-01
 -0.523359562446E-01
 -0.523359562446E-01
 -0.523359562421E-01
 -0.523359562421E-01
  0.121869343404E+00
  0.121869343404E+00
  0.121869343407E+00
  0.121869343407E+00
  0.121869343404E+00
  0.121869343404E+00
  0.121869343406E+00
  0.121869343406E+00
  0.523359562435E-01
  0.523359562435E-01
  0.523359562421E-01
  0.523359562421E-01
  0.523359562446E-01
  0.523359562446E-01
  0.523359562421E-01
  0.523359562421E-01
 -0.121869343404E+00
 -0.121869343404E+00
 -0.121869343407E+00
 -0.121869343407E+00
 -0.121869343408E+00
 -0.121869343408E+00
 -0.121869343398E+00
 -0.121869343398E+00
 -0.523359562360E-01
 -0.523359562360E-01
 -0.523359562460E-01
 -0.523359562460E-01
 -0.523359562446E-01
 -0.523359562446E-01
 -0.523359562421E-01
 -0.523359562421E-01
  0.121869343404E+00
  0.121869343404E+00
  0.121869343407E+00
  0.121869343407E+00
  0.121869343404E+00
  0.121869343404E+00
  0.121869343406E+00
  0.121869343406E+00
  0.523359562435E-01
  0.523359562435E-01
  0.523359562421E-01
  0.523359562421E-01
  0.523359562446E-01
  0.523359562446E-01
  0.523359562421E-01
  0.523359562421E-01
 -0.121869343404E+00
 -0.121869343404E+00
 -0.121869343407E+00
 -0.121869343407E+00
 -0.121869343408E+00
 -0.121869343408E+00
 -0.121869343398E+00
 -0.121869343398E+00
 -0.523359562360E-01
 -0.523359562360E-01
 -0.523359562460E-01
 -0.523359562460E-01
 -0.523359562446E-01
 -0.523359562446E-01
 -0.523359562421E-01
 -0.523359562421E-01
  0.121869343404E+00
  0.121869343404E+00
  0.121869343407E+00
  0.121869343407E+00
  0.121869343404E+00
  0.121869343404E+00
  0.121869343406E+00
  0.121869343406E+00
  0.523359562435E-01
  0.523359562435E-01
  0.523359562421E-01
  0.523359562421E-01
  0.523359562446E-01
  0.523359562446E-01
  0.523359562421E-01
  0.523359562421E-01
 -0.121869343404E+00
 -0.121869343404E+00
 -0.121869343407E+00
 -0.121869343407E+00
 -0.121869343408E+00
 -0.121869343408E+00
 -0.121869343398E+00
 -0.121869343398E+00
 -0.523359562360E-01
 -0.523359562360E-01
 -0.523359562460E-01
 -0.523359562460E-01
 -0.523359562446E-01
 -0.523359562446E-01
 -0.523359562421E-01
 -0.523359562421E-01
  0.121869343404E+00
  0.121869343404E+00
  0.121869343407E+00
  0.121869343407E+00
  0.121869343404E+00
  0.121869343404E+00
  0.121869343406E+00
  0.121869343406E+00
  0.523359562435E-01
  0.523359562435E-01
  0.523359562421E-01
  0.523359562421E-01
  0.523359562446E-01
  0.523359562446E-01
  0.523359562421E-01
  0.523359562421E-01
 -0.121869343404E+00
 -0.121869343404E+00
 -0.121869343407E+00
 -0.121869343407E+00
 -0.121869343408E+00
 -0.121869343408E+00
 -0.121869343398E+00
 -0.121869343398E+00
 -0.523359562360E-01
 -0.523359562360E-01
 -0.523359562460E-01
 -0.523359562460E-01
 -0.523359562446E-01
 -0.523359562446E-01
 -0.523359562421E-01
 -0.523359562421E-01
  0.121869343404E+00
  0.121869343404E+00
  0.121869343407E+00
  0.121869343407E+00
  0.121869343404E+00
  0.121869343404E+00
  0.121869343406E+00
  0.121869343406E+00
  0.523359562435E-01
  0.523359562435E-01
  0.523359562421E-01
  0.523359562421E-01
  0.523359562446E-01
  0.523359562446E-01
  0.523359562421E-01
  0.523359562421E-01
 -0.121869343404E+00
 -0.121869343404E+00
 -0.121869343407E+00
 -0.121869343407E+00
 -0.121869343408E+00
 -0.121869343408E+00
 -0.121869343398E+00
 -0.121869343398E+00
 -0.523359562360E-01
 -0.523359562360E-01
 -0.523359562460E-01
 -0.523359562460E-01
 -0.523359562446E-01
 -0.523359562446E-01
 -0.523359562421E-01
 -0.523359562421E-01
  0.121869343404E+00
  0.121869343404E+00
  0.121869343407E+00
  0.121869343407E+00
  0.121869343404E+00
  0.121869343404E+00
  0.121869343406E+00
  0.121869343406E+00
  0.523359562435E-01
  0.523359562435E-01
  0.523359562421E-01
  0.523359562421E-01
  0.523359562446E-01
  0.523359562446E-01
  0.523359562421E-01
  0.523359562421E-01
 -0.121869343404E+00
 -0.121869343404E+00
 -0.121869343407E+00
 -0.121869343407E+00
 -0.121869343408E+00
 -0.121869343408E+00
 -0.121869343398E+00
 -0.121869343398E+00
 -0.523359562360E-01
 -0.523359562360E-01
 -0.523359562460E-01
 -0.523359562460E-01
 -0.523359562446E-01
 -0.523359562446E-01
 -0.523359562421E-01
 -0.523359562421E-01
  0.121869343404E+00
  0.121869343404E+00
  0.121869343407E+00
  0.121869343407E+00
  0.121869343404E+00
  0.121869343404E+00
  0.121869343406E+00
  0.121869343406E+00
  0.523359562435E-01
  0.523359562435E-01
  0.523359562421E-01
  0.523359562421E-01
  0.523359562446E-01
  0.523359562446E-01
  0.523359562421E-01
  0.523359562421E-01
 -0.121869343404E+00
 -0.121869343404E+00
 -0.121869343407E+00
 -0.121869343407E+00
 -0.121869343408E+00
 -0.121869343408E+00
 -0.121869343398E+00
 -0.121869343398E+00
 -0.523359562360E-01
 -0.523359562360E-01
 -0.523359562460E-01
 -0.523359562460E-01
 -0.523359562446E-01
 -0.523359562446E-01
 -0.523359562421E-01
 -0.523359562421E-01
  0.121869343404E+00
  0.121869343404E+00
  0.121869343407E+00
  0.121869343407E+00
  0.121869343404E+00
  0.121869343404E+00
  0.121869343406E+00
  0.121869343406E+00
  0.523359562435E-01
  0.523359562435E-01
  0.523359562421E-01
  0.523359562421E-01
  0.523359562446E-01
  0.523359562446E-01
  0.523359562421E-01
  0.523359562421E-01
 -0.121869343404E+00
 -0.121869343404E+00
 -0.121869343407E+00
 -0.121869343407E+00
 -0.121869343408E+00
 -0.121869343408E+00
 -0.121869343398E+00
 -0.121869343398E+00
 -0.523359562360E-01
 -0.523359562360E-01
 -0.523359562460E-01
 -0.523359562460E-01
 -0.523359562446E-01
 -0.523359562446E-01
 -0.523359562421E-01
 -0.523359562421E-01
  0.121869343404E+00
  0.121869343404E+00
  0.121869343407E+00
  0.121869343407E+00
  0.121869343404E+00
  0.121869343404E+00
  0.121869343406E+00
  0.121869343406E+00
  0.523359562435E-01
  0.523359562435E-01
  0.523359562421E-01
  0.523359562421E-01
  0.523359562446E-01
  0.523359562446E-01
  0.523359562421E-01
  0.523359562421E-01
 -0.121869343404E+00
 -0.121869343404E+00
 -0.121869343407E+00
 -0.121869343407E+00
 -0.121869343408E+00
 -0.121869343408E+00
 -0.121869343398E+00
 -0.121869343398E+00
 -0.513064017016E-01
 -0.513064017062E-01
 -0.513064017104E-01
 -0.513064016845E-01
 -0.513064017051E-01
 -0.513064017251E-01
 -0.513064017055E-01
  0.119471925943E+00
  0.119471925958E+00
  0.119471925938E+00
  0.119471925923E+00
  0.119471925945E+00
  0.119471925942E+00
  0.119471925949E+00
  0.513064017090E-01
  0.513064017024E-01
  0.513064017066E-01
  0.513064016845E-01
  0.513064017051E-01
  0.513064017251E-01
  0.513064017055E-01
 -0.119471925943E+00
 -0.119471925958E+00
 -0.119471925938E+00
 -0.119471925923E+00
 -0.119471925949E+00
 -0.119471925946E+00
 -0.119471925942E+00
 -0.566692513550E-01
 -0.566692513536E-01
 -0.566692513487E-01
 -0.566692514782E-01
 -0.566692512695E-01
 -0.566692514682E-01
 -0.566692513662E-01
  0.114324543885E+00
  0.114324543939E+00
  0.114324543741E+00
  0.114324543825E+00
  0.114324543692E+00
  0.114324543694E+00
  0.114324543706E+00
  0.566692513624E-01
  0.566692513498E-01
  0.566692513450E-01
  0.566692514782E-01
  0.566692512695E-01
  0.566692514682E-01
  0.566692513662E-01
 -0.114324543885E+00
 -0.114324543939E+00
 -0.114324543741E+00
 -0.114324543825E+00
 -0.114324543696E+00
 -0.114324543698E+00
 -0.114324543699E+00
 -0.660539610992E-01
 -0.660539614645E-01
 -0.660539610000E-01
 -0.660539607264E-01
 -0.660539612825E-01
 -0.660539609727E-01
 -0.660539615102E-01
  0.104939833873E+00
  0.104939833674E+00
  0.104939833983E+00
  0.104939833856E+00
  0.104939834125E+00
  0.104939834160E+00
  0.104939833807E+00
  0.660539611065E-01
  0.660539614607E-01
  0.660539609963E-01
  0.660539607264E-01
  0.660539612825E-01
  0.660539609727E-01
  0.660539615102E-01
 -0.104939833873E+00
 -0.104939833674E+00
 -0.104939833983E+00
 -0.104939833856E+00
 -0.104939834129E+00
 -0.104939834164E+00
 -0.104939833799E+00
 -0.785008598857E-01
 -0.785008615483E-01
 -0.785008599134E-01
 -0.785008593524E-01
 -0.785008594668E-01
 -0.785008598458E-01
 -0.785008592580E-01
  0.922774680701E-01
  0.922774682533E-01
  0.922774678748E-01
  0.922774678559E-01
  0.922774684125E-01
  0.922774684246E-01
  0.922774667751E-01
  0.785008598931E-01
  0.785008615446E-01
  0.785008599096E-01
  0.785008593524E-01
  0.785008594668E-01
  0.785008598458E-01
  0.785008592580E-01
 -0.922774680701E-01
 -0.922774682533E-01
 -0.922774678748E-01
 -0.922774678559E-01
 -0.922774684162E-01
 -0.922774684284E-01
 -0.922774667677E-01
SCALARS C_p_ise float 1
LOOKUP_TABLE default
 -0.552549292897E-01
 -0.552125146364E-01
 -0.552112245692E-01
 -0.552080429356E-01
 -0.552081215190E-01
 -0.552080424410E-01
 -0.552080300899E-01
 -0.552080914838E-01
  0.170755043445E+00
  0.170755026439E+00
  0.170755045686E+00
  0.170755037797E+00
  0.170755047122E+00
  0.170755046959E+00
  0.170755047149E+00
  0.170755047146E+00
  0.660833174628E-01
  0.660833174598E-01
  0.660833176893E-01
  0.660833174894E-01
  0.660833313135E-01
  0.660833196334E-01
  0.660833526869E-01
  0.660833239525E-01
 -0.114411043011E+00
 -0.114411160580E+00
 -0.114411046430E+00
 -0.114410911622E+00
 -0.114411196654E+00
 -0.114408923623E+00
 -0.114406993913E+00
 -0.114368549112E+00
 -0.567110698525E-01
 -0.552549295828E-01
 -0.552807107264E-01
 -0.552112245792E-01
 -0.552170986922E-01
 -0.552081215190E-01
 -0.552078498846E-01
 -0.552080300899E-01
  0.170755026439E+00
  0.170754841144E+00
  0.170755037797E+00
  0.170754937239E+00
  0.170755046959E+00
  0.170755044594E+00
  0.170755047146E+00
  0.170755047092E+00
  0.660833175203E-01
  0.660833174628E-01
  0.660833205911E-01
  0.660833176893E-01
  0.660834800586E-01
  0.660833313135E-01
  0.660836392751E-01
  0.660833526868E-01
 -0.114411160580E+00
 -0.114411288125E+00
 -0.114410911622E+00
 -0.114402747865E+00
 -0.114408923633E+00
 -0.114351896875E+00
 -0.114368549331E+00
 -0.113053578553E+00
 -0.694090472650E-01
 -0.567113645677E-01
 -0.576536144486E-01
 -0.552807152074E-01
 -0.553867973717E-01
 -0.552170987502E-01
 -0.552230370647E-01
 -0.552078498854E-01
  0.170754841143E+00
  0.170753330294E+00
  0.170754937239E+00
  0.170753758897E+00
  0.170755044594E+00
  0.170755012726E+00
  0.170755047092E+00
  0.170755046119E+00
  0.660833185560E-01
  0.660833175203E-01
  0.660833596498E-01
  0.660833205911E-01
  0.660852209194E-01
  0.660834800582E-01
  0.660855303570E-01
  0.660836392730E-01
 -0.114411288126E+00
 -0.114385225985E+00
 -0.114402748060E+00
 -0.114249051019E+00
 -0.114351901731E+00
 -0.112293530889E+00
 -0.113053823169E+00
 -0.101194185431E+00
 -0.357142857143E+00
 -0.694330105076E-01
 -0.714990679591E-01
 -0.576589355912E-01
 -0.616321730436E-01
 -0.553868084199E-01
 -0.554667527520E-01
 -0.552230370517E-01
  0.170753330212E+00
  0.170743763698E+00
  0.170753758874E+00
  0.170739992535E+00
  0.170755012726E+00
  0.170754585719E+00
  0.170755046119E+00
  0.170755028570E+00
  0.660833372258E-01
  0.660833185560E-01
  0.660838820716E-01
  0.660833596498E-01
  0.661055313664E-01
  0.660852208704E-01
  0.660830922786E-01
  0.660855303228E-01
 -0.114385225804E+00
 -0.113691354323E+00
 -0.114249170660E+00
 -0.109082178717E+00
 -0.112298413513E+00
 -0.984612481405E-01
 -0.101219142882E+00
  0.105606877680E+01
 -0.357142857143E+00
 -0.357142857143E+00
 -0.357142857143E+00
 -0.716410769442E-01
 -0.802957425916E-01
 -0.616672951848E-01
 -0.685979823961E-01
 -0.554667370742E-01
  0.170743763470E+00
  0.170899564589E+00
  0.170739989487E+00
  0.170579707919E+00
  0.170754585718E+00
  0.170748908373E+00
  0.170755028570E+00
  0.170754712196E+00
  0.660836737564E-01
  0.660833372258E-01