# vtk DataFile Version 3.0
TriPan results file. Generated by TriPan, USU AeroLab (c) 2021.
ASCII
DATASET POLYDATA
POINTS                 446 float
  0.190349744366E-02  0.000000000000E+00  0.000000000000E+00
  0.180155439444E-02  0.217527970672E+00  0.000000000000E+00
  0.188619651827E-02  0.448061168194E+00  0.000000000000E+00
  0.195463115218E-02  0.689725637436E+00  0.000000000000E+00
  0.200381935583E-02  0.940178275108E+00  0.000000000000E+00
  0.203146979263E-02  0.119668114185E+01  0.000000000000E+00
  0.203625478170E-02  0.145621216297E+01  0.432309807279E-18
  0.201794494299E-02  0.171560299397E+01  0.000000000000E+00
  0.197742965724E-02  0.197169232368E+01  0.000000000000E+00
  0.191662923716E-02  0.222147774696E+01  0.000000000000E+00
  0.183830664114E-02  0.246225214005E+01  0.000000000000E+00
  0.174581819542E-02  0.269171094894E+01  0.370648277606E-18
  0.164282618113E-02  0.290802383423E+01  0.000000000000E+00
  0.153302818423E-02  0.310986590385E+01  0.000000000000E+00
  0.141992384673E-02  0.329641318321E+01  0.000000000000E+00
  0.130663581474E-02  0.346730756760E+01  0.000000000000E+00
  0.119580047662E-02  0.362259936333E+01  0.000000000000E+00
  0.108952656797E-02  0.376267743111E+01  0.000000000000E+00
  0.989381096661E-03  0.388819599152E+01  0.000000000000E+00
  0.971479789355E-04  0.399949033288E+01 -0.325828402727E-19
  0.342666600534E-01  0.000000000000E+00 -0.119376002534E-02
  0.342666600534E-01  0.000000000000E+00  0.119376002534E-02
  0.342698824337E-01  0.217527970672E+00 -0.115692804277E-02
  0.342698824337E-01  0.217527970672E+00  0.115692804277E-02
  0.342775173423E-01  0.448061168194E+00 -0.106966063919E-02
  0.342775173423E-01  0.448061168194E+00  0.106966063919E-02
  0.342838248119E-01  0.689725637436E+00 -0.997565933343E-03
  0.342838248119E-01  0.689725637436E+00  0.997565933343E-03
  0.342885274612E-01  0.940178275108E+00 -0.943814406113E-03
  0.342885274612E-01  0.940178275108E+00  0.943814406113E-03
  0.342914074361E-01  0.119668114185E+01 -0.910896143339E-03
  0.342914074361E-01  0.119668114185E+01  0.910896143339E-03
  0.342923267137E-01  0.145621216297E+01 -0.900388752406E-03
  0.342923267137E-01  0.145621216297E+01  0.900388752406E-03
  0.342912407103E-01  0.171560299397E+01 -0.912801828255E-03
  0.342912407103E-01  0.171560299397E+01  0.912801828255E-03
  0.342882027576E-01  0.197169232368E+01 -0.947525785931E-03
  0.342882027576E-01  0.197169232368E+01  0.947525785931E-03
  0.342833586936E-01  0.222147774696E+01 -0.100289368959E-02
  0.342833586936E-01  0.222147774696E+01  0.100289368959E-02
  0.342769326198E-01  0.246225214005E+01 -0.107634404818E-02
  0.342769326198E-01  0.246225214005E+01  0.107634404818E-02
  0.342692062149E-01  0.269171094894E+01 -0.116465725981E-02
  0.342692062149E-01  0.269171094894E+01  0.116465725981E-02
  0.342604944343E-01  0.290802383423E+01 -0.126423336595E-02
  0.342604944343E-01  0.290802383423E+01  0.126423336595E-02
  0.342511211565E-01  0.310986590385E+01 -0.137137042041E-02
  0.342511211565E-01  0.310986590385E+01  0.137137042041E-02
  0.342413979750E-01  0.329641318321E+01 -0.148250689126E-02
  0.342413979750E-01  0.329641318321E+01  0.148250689126E-02
  0.342316072375E-01  0.346730756760E+01 -0.159441553133E-02
  0.342316072375E-01  0.346730756760E+01  0.159441553133E-02
  0.342219908292E-01  0.362259936333E+01 -0.170433158034E-02
  0.342219908292E-01  0.362259936333E+01  0.170433158034E-02
  0.342127449763E-01  0.376267743111E+01 -0.181001216133E-02
  0.342127449763E-01  0.376267743111E+01  0.181001216133E-02
  0.342040185398E-01  0.388819599152E+01 -0.190975578472E-02
  0.342040185398E-01  0.388819599152E+01  0.190975578472E-02
  0.341703651092E-01  0.399986265213E+01 -0.229442133769E-02
  0.341703651092E-01  0.399986265213E+01  0.229442133769E-02
  0.341403165739E-01  0.400184427598E+01 -0.188507548451E-02
  0.341403165739E-01  0.400184427598E+01  0.188507548451E-02
  0.341336570292E-01  0.400271379329E+01 -0.122196032094E-19
  0.938944796530E-01  0.000000000000E+00 -0.624850703535E-02
  0.938944796530E-01  0.000000000000E+00  0.624850703535E-02
  0.938964513531E-01  0.217527970672E+00 -0.622597040666E-02
  0.938964513531E-01  0.217527970672E+00  0.622597040666E-02
  0.939039605542E-01  0.448061168194E+00 -0.614013984579E-02
  0.939039605542E-01  0.448061168194E+00  0.614013984579E-02
  0.939101736757E-01  0.689725637436E+00 -0.606912354413E-02
  0.939101736757E-01  0.689725637436E+00  0.606912354413E-02
  0.939148118631E-01  0.940178275108E+00 -0.601610882013E-02
  0.939148118631E-01  0.940178275108E+00  0.601610882013E-02
  0.939176561901E-01  0.119668114185E+01 -0.598359801449E-02
  0.939176561901E-01  0.119668114185E+01  0.598359801449E-02
  0.939185680090E-01  0.145621216297E+01 -0.597317587732E-02
  0.939185680090E-01  0.145621216297E+01  0.597317587732E-02
  0.939175025749E-01  0.171560299397E+01 -0.598535384381E-02
  0.939175025749E-01  0.171560299397E+01  0.598535384381E-02
  0.939145135250E-01  0.197169232368E+01 -0.601951884018E-02
  0.939145135250E-01  0.197169232368E+01  0.601951884018E-02
  0.939097474483E-01  0.222147774696E+01 -0.607399534563E-02
  0.939097474483E-01  0.222147774696E+01  0.607399534563E-02
  0.939034296032E-01  0.246225214005E+01 -0.614620864342E-02
  0.939034296032E-01  0.246225214005E+01  0.614620864342E-02
  0.938958431551E-01  0.269171094894E+01 -0.623292214103E-02
  0.938958431551E-01  0.269171094894E+01  0.623292214103E-02
  0.938873047692E-01  0.290802383423E+01 -0.633051633640E-02
  0.938873047692E-01  0.290802383423E+01  0.633051633640E-02
  0.938781400889E-01  0.310986590385E+01 -0.643526911029E-02
  0.938781400889E-01  0.310986590385E+01  0.643526911029E-02
  0.938686622919E-01  0.329641318321E+01 -0.654360082321E-02
  0.938686622919E-01  0.329641318321E+01  0.654360082321E-02
  0.938591548263E-01  0.346730756760E+01 -0.665227165035E-02
  0.938591548263E-01  0.346730756760E+01  0.665227165035E-02
  0.938498598112E-01  0.362259936333E+01 -0.675851415785E-02
  0.938498598112E-01  0.362259936333E+01  0.675851415785E-02
  0.938409723865E-01  0.376267743111E+01 -0.686009788503E-02
  0.938409723865E-01  0.376267743111E+01  0.686009788503E-02
  0.938326386285E-01  0.388819599152E+01 -0.695535317288E-02
  0.938326386285E-01  0.388819599152E+01  0.695535317288E-02
  0.938020228261E-01  0.399982191417E+01 -0.730529285109E-02
  0.938020228261E-01  0.399982191417E+01  0.730529285109E-02
  0.937759936759E-01  0.400537471243E+01 -0.537478190946E-02
  0.937759936759E-01  0.400537471243E+01  0.537478190946E-02
  0.937700081870E-01  0.400767115840E+01 -0.531059685571E-20
  0.190622368231E+00  0.000000000000E+00 -0.144884656727E-01
  0.190622368231E+00  0.000000000000E+00  0.144884656727E-01
  0.190622942239E+00  0.217527970672E+00 -0.144819047741E-01
  0.190622942239E+00  0.217527970672E+00  0.144819047741E-01
  0.190630235509E+00  0.448061168194E+00 -0.143985423066E-01
  0.190630235509E+00  0.448061168194E+00  0.143985423066E-01
  0.190636283885E+00  0.689725637436E+00 -0.143294090565E-01
  0.190636283885E+00  0.689725637436E+00  0.143294090565E-01
  0.190640807385E+00  0.940178275108E+00 -0.142777052053E-01
  0.190640807385E+00  0.940178275108E+00  0.142777052053E-01
  0.190643586096E+00  0.119668114185E+01 -0.142459443984E-01
  0.190643586096E+00  0.119668114185E+01  0.142459443984E-01
  0.190644480696E+00  0.145621216297E+01 -0.142357190716E-01
  0.190644480696E+00  0.145621216297E+01  0.142357190716E-01
  0.190643446174E+00  0.171560299397E+01 -0.142475437125E-01
  0.190643446174E+00  0.171560299397E+01  0.142475437125E-01
  0.190640536323E+00  0.197169232368E+01 -0.142808034669E-01
  0.190640536323E+00  0.197169232368E+01  0.142808034669E-01
  0.190635898251E+00  0.222147774696E+01 -0.143338168751E-01
  0.190635898251E+00  0.222147774696E+01  0.143338168751E-01
  0.190629757966E+00  0.246225214005E+01 -0.144040006542E-01
  0.190629757966E+00  0.246225214005E+01  0.144040006542E-01
  0.190622399387E+00  0.269171094894E+01 -0.144881095980E-01
  0.190622399387E+00  0.269171094894E+01  0.144881095980E-01
  0.190614139635E+00  0.290802383423E+01 -0.145825190040E-01
  0.190614139635E+00  0.290802383423E+01  0.145825190040E-01
  0.190605304110E+00  0.310986590385E+01 -0.146835095219E-01
  0.190605304110E+00  0.310986590385E+01  0.146835095219E-01
  0.190596204576E+00  0.329641318321E+01 -0.147875176743E-01
  0.190596204576E+00  0.329641318321E+01  0.147875176743E-01
  0.190587121410E+00  0.346730756760E+01 -0.148913387449E-01
  0.190587121410E+00  0.346730756760E+01  0.148913387449E-01
  0.190578291561E+00  0.362259936333E+01 -0.149922643858E-01
  0.190578291561E+00  0.362259936333E+01  0.149922643858E-01
  0.190569902593E+00  0.376267743111E+01 -0.150881507315E-01
  0.190569902593E+00  0.376267743111E+01  0.150881507315E-01
  0.190562090635E+00  0.388819599152E+01 -0.151774418214E-01
  0.190562090635E+00  0.388819599152E+01  0.151774418214E-01
  0.190534290081E+00  0.399976796102E+01 -0.154952050037E-01
  0.190534290081E+00  0.399976796102E+01  0.154952050037E-01
  0.190512351166E+00  0.401113143599E+01 -0.111316370339E-01
  0.190512351166E+00  0.401113143599E+01  0.111316370339E-01
  0.190505425757E+00  0.401582515114E+01 -0.268219081496E-17
  0.330039544037E+00  0.000000000000E+00 -0.264841781860E-01
  0.330039544037E+00  0.000000000000E+00  0.264841781860E-01
  0.330040409116E+00  0.217527970672E+00 -0.264742901773E-01
  0.330040409116E+00  0.217527970672E+00  0.264742901773E-01
  0.330047469038E+00  0.448061168194E+00 -0.263935949007E-01
  0.330047469038E+00  0.448061168194E+00  0.263935949007E-01
  0.330053335330E+00  0.689725637436E+00 -0.263265428815E-01
  0.330053335330E+00  0.689725637436E+00  0.263265428815E-01
  0.330057728574E+00  0.940178275108E+00 -0.262763278701E-01
  0.330057728574E+00  0.940178275108E+00  0.262763278701E-01
  0.330060428946E+00  0.119668114185E+01 -0.262454624787E-01
  0.330060428946E+00  0.119668114185E+01  0.262454624787E-01
[...]
POINT_DATA                 446
SCALARS phi float 1
LOOKUP_TABLE default
 -0.216840434497E-18
  0.325260651746E-18
  0.542101086243E-18
 -0.325260651746E-18
 -0.758941520740E-18
 -0.108420217249E-18
  0.325260651746E-18
 -0.758941520740E-18
  0.542101086243E-18
  0.650521303491E-18
  0.758941520740E-18
 -0.271050543121E-18
  0.108420217249E-17
 -0.325260651746E-18
  0.000000000000E+00
  0.000000000000E+00
 -0.542101086243E-18
  0.216840434497E-18
  0.108420217249E-18
  0.169406589451E-20
 -0.173472347598E-17
  0.000000000000E+00
 -0.346944695195E-17
 -0.173472347598E-17
  0.520417042793E-17
 -0.173472347598E-17
 -0.346944695195E-17
  0.346944695195E-17
 -0.520417042793E-17
 -0.173472347598E-17
  0.867361737988E-17
  0.346944695195E-17
  0.000000000000E+00
  0.867361737988E-17
  0.000000000000E+00
  0.173472347598E-17
  0.520417042793E-17
  0.520417042793E-17
 -0.520417042793E-17
 -0.173472347598E-17
 -0.867361737988E-17
 -0.173472347598E-17
  0.173472347598E-17
 -0.173472347598E-17
  0.000000000000E+00
  0.173472347598E-17
  0.867361737988E-18
  0.433680868994E-17
 -0.867361737988E-18
 -0.173472347598E-17
 -0.390312782095E-16
 -0.520417042793E-17
  0.338271077815E-16
  0.260208521397E-17
  0.867361737988E-18
  0.511743425413E-16
 -0.173472347598E-17
  0.294902990916E-16
  0.650521303491E-18
  0.216840434497E-18
 -0.433680868994E-18
  0.823993651089E-16
  0.832667268469E-16
  0.173472347598E-17
  0.520417042793E-17
 -0.173472347598E-17
  0.520417042793E-17
  0.000000000000E+00
  0.346944695195E-17
  0.000000000000E+00
 -0.173472347598E-17
 -0.520417042793E-17
 -0.346944695195E-17
  0.000000000000E+00
  0.173472347598E-17
  0.173472347598E-17
 -0.346944695195E-17
  0.520417042793E-17
 -0.520417042793E-17
 -0.173472347598E-17
  0.000000000000E+00
  0.173472347598E-17
  0.000000000000E+00
 -0.173472347598E-17
 -0.173472347598E-17
 -0.346944695195E-17
  0.520417042793E-17
  0.346944695195E-17
 -0.346944695195E-17
  0.000000000000E+00
  0.520417042793E-17
  0.173472347598E-17
  0.173472347598E-17
 -0.173472347598E-17
  0.173472347598E-17
 -0.867361737988E-18
 -0.346944695195E-17
 -0.867361737988E-18
 -0.867361737988E-18
 -0.260208521397E-17
  0.867361737988E-18
 -0.552943107968E-17
  0.758941520740E-18
 -0.216840434497E-17
 -0.260208521397E-17
  0.403323208165E-16
  0.000000000000E+00
  0.520417042793E-17
 -0.173472347598E-16
  0.000000000000E+00
 -0.173472347598E-17
 -0.346944695195E-17
  0.693889390391E-17
  0.104083408559E-16
  0.693889390391E-17
  0.173472347598E-17
  0.693889390391E-17
 -0.138777878078E-16
  0.693889390391E-17
  0.000000000000E+00
  0.000000000000E+00
  0.173472347598E-17
  0.000000000000E+00
  0.867361737988E-17
  0.346944695195E-17
  0.867361737988E-17
 -0.104083408559E-16
 -0.104083408559E-16
 -0.520417042793E-17
  0.260208521397E-16
 -0.173472347598E-17
  0.138777878078E-16
 -0.173472347598E-17
 -0.954097911787E-17
  0.000000000000E+00
  0.173472347598E-17
 -0.138777878078E-16
  0.000000000000E+00
 -0.103216046821E-15
  0.208166817117E-16
 -0.264545330086E-16
  0.563785129692E-17
  0.234187669257E-16
  0.199493199737E-16
  0.477048955894E-17
 -0.715573433840E-17
 -0.160461921528E-16
  0.932413868338E-17
  0.281892564846E-17
  0.693889390391E-17
 -0.173472347598E-16
 -0.173472347598E-16
  0.104083408559E-16
 -0.182145964978E-16
  0.164798730218E-16
  0.104083408559E-16
 -0.520417042793E-17
  0.294902990916E-16
  0.121430643318E-16
 -0.693889390391E-17
  0.121430643318E-16
  0.208166817117E-16
 -0.693889390391E-17
 -0.173472347598E-17
 -0.867361737988E-17
 -0.693889390391E-17
  0.104083408559E-16
 -0.520417042793E-17
  0.520417042793E-17
  0.364291929955E-16
 -0.121430643318E-16
  0.780625564190E-17
  0.607153216592E-17
 -0.260208521397E-17
  0.693889390391E-17
  0.182145964978E-16
  0.312250225676E-16
  0.000000000000E+00
  0.173472347598E-17
 -0.398986399475E-16
  0.000000000000E+00
  0.381639164715E-16
 -0.268882138776E-16
  0.268882138776E-16
 -0.728583859910E-16
 -0.190494321706E-15
  0.856519716264E-16
  0.190819582357E-16
  0.719910242530E-16
  0.832667268469E-16
 -0.854351311919E-16
 -0.433680868994E-18
  0.346944695195E-17
 -0.693889390391E-17
 -0.173472347598E-17
  0.173472347598E-16
  0.208166817117E-16
 -0.520417042793E-17
  0.000000000000E+00
 -0.173472347598E-16
 -0.225514051877E-16
  0.346944695195E-17
  0.260208521397E-16
  0.867361737988E-17
 -0.520417042793E-17
 -0.693889390391E-17
  0.867361737988E-17
 -0.156125112838E-16
 -0.173472347598E-17
 -0.121430643318E-16
 -0.693889390391E-17
  0.260208521397E-16
  0.346944695195E-17
  0.121430643318E-16
 -0.156125112838E-16
 -0.138777878078E-16
 -0.693889390391E-17
  0.190819582357E-16
  0.173472347598E-16
  0.000000000000E+00
 -0.182145964978E-16
 -0.346944695195E-17
  0.780625564190E-16
  0.346944695195E-16
 -0.303576608296E-16
  0.607153216592E-17
 -0.181061762805E-15
 -0.210335221462E-16
  0.196674274089E-15
 -0.813151629364E-17
  0.105384451166E-15
  0.850014503229E-16
  0.190385901488E-15
 -0.395733792957E-15
  0.858688120609E-16
  0.346944695195E-17
 -0.693889390391E-17
  0.000000000000E+00
 -0.346944695195E-17
  0.867361737988E-17
 -0.867361737988E-18
  0.867361737988E-18
  0.000000000000E+00
  0.607153216592E-17
 -0.173472347598E-16
 -0.346944695195E-17
 -0.954097911787E-17
 -0.260208521397E-17
 -0.693889390391E-17
  0.000000000000E+00
 -0.173472347598E-17
  0.260208521397E-17
  0.867361737988E-17
  0.520417042793E-17
  0.121430643318E-16
  0.173472347598E-17
  0.867361737988E-18
  0.173472347598E-17
 -0.693889390391E-17
  0.173472347598E-17
 -0.173472347598E-16
  0.433680868994E-16
  0.260208521397E-16
  0.251534904017E-16
  0.381639164715E-16
 -0.156125112838E-16
  0.464038529824E-16
  0.152655665886E-15
 -0.481385764584E-16
 -0.109287578987E-15
 -0.348679418671E-15
 -0.105818132035E-15
 -0.971445146547E-16
 -0.303793448730E-15
 -0.277555756156E-16
 -0.641847686111E-16
 -0.236789754471E-15
  0.113624387676E-15
  0.156125112838E-16
 -0.303576608296E-17
  0.346944695195E-17
  0.433680868994E-18
 -0.607153216592E-17
 -0.780625564190E-17
  0.173472347598E-17
  0.173472347598E-17
  0.000000000000E+00
 -0.260208521397E-17
  0.000000000000E+00
 -0.173472347598E-17
 -0.130104260698E-16
  0.954097911787E-17
 -0.173472347598E-17
 -0.260208521397E-17
 -0.520417042793E-17
 -0.346944695195E-17
  0.260208521397E-17
  0.000000000000E+00
  0.346944695195E-17
  0.563785129692E-17
  0.173472347598E-17
  0.000000000000E+00
 -0.108420217249E-17
  0.125767452008E-16
 -0.238524477947E-17
 -0.672205346941E-17
  0.563785129692E-17
  0.650521303491E-18
 -0.650521303491E-16
 -0.589805981832E-16
  0.173472347598E-16
  0.114491749414E-15
 -0.711236625150E-16
  0.867361737988E-17
 -0.112757025938E-15
 -0.104083408559E-16
 -0.262376925741E-15
 -0.584601811404E-15
 -0.205564731903E-15
 -0.589805981832E-16
  0.208166817117E-16
  0.867361737988E-17
  0.693889390391E-17
 -0.346944695195E-17
 -0.173472347598E-17
 -0.151788304148E-17
 -0.943255890062E-17
  0.130104260698E-16
 -0.260208521397E-17
 -0.780625564190E-17
 -0.433680868994E-18
 -0.130104260698E-16
 -0.169135538908E-16
 -0.104083408559E-16
 -0.121430643318E-16
 -0.867361737988E-17
  0.216840434497E-16
 -0.867361737988E-18
  0.121430643318E-16
 -0.433680868994E-17
  0.151788304148E-16
  0.607153216592E-17
 -0.585469173142E-17
  0.433680868994E-17
  0.693889390391E-17
 -0.693889390391E-17
  0.121430643318E-16
  0.190819582357E-16
 -0.190819582357E-16
 -0.277555756156E-16
  0.242861286637E-16
 -0.112757025938E-16
  0.910729824888E-16
  0.693889390391E-16
 -0.867361737988E-17
 -0.138777878078E-16
 -0.815320033709E-16
 -0.134441069388E-15
 -0.406792655117E-15
  0.763278329430E-16
 -0.104083408559E-15
  0.355618312575E-16
 -0.138777878078E-15
  0.381639164715E-16
 -0.121430643318E-16
  0.242861286637E-16
 -0.121430643318E-16
 -0.520417042793E-17
  0.346944695195E-17
  0.346944695195E-17
 -0.693889390391E-17
 -0.346944695195E-17
  0.346944695195E-17
 -0.346944695195E-17
 -0.346944695195E-17
  0.693889390391E-17
 -0.138777878078E-16
 -0.346944695195E-17
  0.520417042793E-17
 -0.346944695195E-17
 -0.346944695195E-17
  0.346944695195E-17
  0.138777878078E-16
  0.173472347598E-17
  0.867361737988E-17
 -0.173472347598E-17
  0.121430643318E-16
 -0.693889390391E-17
  0.693889390391E-17
 -0.346944695195E-17
  0.520417042793E-17
 -0.693889390391E-17
  0.693889390391E-17
 -0.607153216592E-16
 -0.111022302463E-15
  0.116226472890E-15
 -0.112757025938E-15
  0.468375338514E-16
 -0.416333634234E-16
 -0.268882138776E-15
  0.279290479632E-15
 -0.173472347598E-16
  0.555111512313E-16
  0.442354486374E-16
 -0.659194920871E-16
  0.128369537222E-15
 -0.285362011798E-15
  0.346944695195E-17
 -0.112757025938E-16
 -0.693889390391E-17
 -0.867361737988E-17
 -0.225514051877E-16
 -0.520417042793E-17
 -0.867361737988E-18
  0.104083408559E-16
  0.260208521397E-17
  0.164798730218E-16
 -0.260208521397E-17
  0.780625564190E-17
 -0.563785129692E-17
  0.693889390391E-17
 -0.143982048506E-15
  0.365701392779E-15
  0.745931094670E-16
 -0.124466409401E-15
  0.477048955894E-16
 -0.693889390391E-16
  0.000000000000E+00
 -0.346944695195E-17
  0.173472347598E-17
 -0.867361737988E-17
  0.867361737988E-18
 -0.260208521397E-17
  0.000000000000E+00
  0.520417042793E-17
  0.000000000000E+00
  0.346944695195E-17
 -0.173472347598E-17
  0.520417042793E-17
 -0.303576608296E-17
 -0.867361737988E-18
 -0.118394877235E-15
  0.184748050192E-15
  0.589805981832E-16
  0.168701858039E-15
  0.105818132035E-15
SCALARS phi_mu float 1
LOOKUP_TABLE default
 -0.333639700424E-03
 -0.226429411384E-03
 -0.381734658762E-03
 -0.513117572509E-03
 -0.611057653012E-03
 -0.668016014821E-03
 -0.679343324340E-03
 -0.643879266111E-03
 -0.564110646295E-03
 -0.445872149318E-03
 -0.297634284568E-03
 -0.129525529845E-03
  0.477674813224E-04
  0.224019768285E-03
  0.390291680283E-03
  0.539482503880E-03
  0.666581778827E-03
  0.768654495721E-03
  0.844662464058E-03
 -0.118974565702E-04
 -0.786647807562E-02
 -0.785150751517E-02
 -0.836148194682E-02
 -0.835429133003E-02
 -0.870914447100E-02
 -0.870255887147E-02
 -0.899563166297E-02
 -0.898954207680E-02
 -0.920908933288E-02
 -0.920336425404E-02
 -0.934015887957E-02
 -0.933465165488E-02
 -0.938287592449E-02
 -0.937743132310E-02
 -0.933528814001E-02
 -0.932974853310E-02
 -0.919966532763E-02
 -0.919387698206E-02
 -0.898225783524E-02
 -0.897607784239E-02
 -0.869266013600E-02
 -0.868596435455E-02
 -0.834290481710E-02
 -0.833559694180E-02
 -0.794644217123E-02
 -0.793846357715E-02
 -0.751719158323E-02
 -0.750853113851E-02
 -0.706885924729E-02
 -0.705956183623E-02
 -0.661468895588E-02
 -0.660486113855E-02
 -0.616810922097E-02
 -0.615792053860E-02
 -0.574597175645E-02
 -0.573565049993E-02
 -0.538569063012E-02
 -0.537551347060E-02
 -0.172671222801E-02
 -0.170052989305E-02
 -0.251161717634E-02
 -0.249647896500E-02
 -0.229794048962E-02
 -0.944101782077E-02
 -0.936006727859E-02
 -0.103754934632E-01
 -0.103157591159E-01
 -0.107632217427E-01
 -0.107019682656E-01
 -0.110902485768E-01
 -0.110280873526E-01
 -0.113360483816E-01
 -0.112734029647E-01
 -0.114877637454E-01
 -0.114249190705E-01
 -0.115380534853E-01
 -0.114752114182E-01
 -0.114846899661E-01
 -0.114220277372E-01
 -0.113305361861E-01
 -0.112682650027E-01
 -0.110836447127E-01
 -0.110220659111E-01
 -0.107578413690E-01
 -0.106973973571E-01
 -0.103754426205E-01
 -0.103167591383E-01
 -0.998054691206E-02
 -0.992446279625E-02
 -0.976643594944E-02
 -0.971401596769E-02
 -0.832969602115E-02
 -0.828222275567E-02
 -0.731591340297E-02
 -0.727485539535E-02
 -0.646454796948E-02
 -0.643150315163E-02
 -0.567441775996E-02
 -0.565103343079E-02
 -0.492518149789E-02
 -0.491305666064E-02
 -0.899614437820E-03
 -0.859235815912E-03
 -0.229676193711E-02
 -0.210725804128E-02
 -0.222337861860E-02
 -0.946926534149E-02
 -0.939767511762E-02
 -0.930325040959E-02
 -0.926832950070E-02
 -0.999254646265E-02
 -0.994340483313E-02
 -0.105639050014E-01
 -0.105040715324E-01
 -0.109933954578E-01
 -0.109261702696E-01
 -0.112586963182E-01
 -0.111871776020E-01
 -0.113430768662E-01
 -0.112702206280E-01
 -0.112401457748E-01
 -0.111688447499E-01
 -0.109561247109E-01
 -0.108892922879E-01
 -0.105076916025E-01
 -0.104483368099E-01
 -0.991733524240E-02
 -0.986861569830E-02
 -0.920938073841E-02
 -0.917462234222E-02
 -0.840781104693E-02
 -0.839048684105E-02
 -0.753542053504E-02
 -0.753908503200E-02
 -0.661365790448E-02
 -0.664183639470E-02
 -0.566285822058E-02
 -0.571889393579E-02
 -0.470321643544E-02
 -0.479007137039E-02
 -0.375797155229E-02
 -0.387795003459E-02
 -0.286711391295E-02
 -0.302141484280E-02
  0.103284849997E-02
  0.107635626327E-02
 -0.100528457159E-02
 -0.611443665308E-03
 -0.118588380606E-02
 -0.712388634648E-02
 -0.720725224129E-02
 -0.616159977869E-02
 -0.639344804334E-02
 -0.695272828444E-02
 -0.714674711785E-02
 -0.760043889177E-02
 -0.776487521838E-02
 -0.807821358429E-02
 -0.822137340094E-02
 -0.836654001817E-02
 -0.849667721813E-02
 -0.845333282377E-02
 -0.857861306023E-02
 -0.833456448833E-02
 -0.846307211266E-02
 -0.801450946599E-02
 -0.815427108553E-02
 -0.750541825364E-02
 -0.766442139792E-02
 -0.682677003556E-02
 -0.701295594881E-02
 -0.600463142497E-02
 -0.622584433220E-02
 -0.507223668058E-02
 -0.533610657087E-02
 -0.642648336365E-02
 -0.673732010999E-02
 -0.852920499145E-02
 -0.889664157819E-02
 -0.783573098620E-02
 -0.823575553972E-02
 -0.673583276103E-02
 -0.717552833476E-02
 -0.607484099298E-02
 -0.655536311422E-02
 -0.908952681462E-03
 -0.119844876933E-02
  0.925468190854E-03
  0.125411912142E-02
 -0.247805390178E-02
 -0.155323271142E-02
 -0.215651244727E-02
 -0.899676575845E-02
 -0.930918342712E-02
 -0.102217186771E-01
 -0.107891606787E-01
 -0.105824301902E-01
 -0.110665253363E-01
 -0.107017818949E-01
 -0.112988059509E-01
 -0.106305993670E-01
 -0.113025359723E-01
 -0.109027222876E-01
 -0.115434576154E-01
 -0.109943659153E-01
 -0.116216290056E-01
 -0.109030275182E-01
 -0.115352030129E-01
 -0.106204888975E-01
 -0.112760377290E-01
 -0.101403392323E-01
 -0.108371370175E-01
 -0.102408272944E-01
 -0.107037038565E-01
 -0.994122749749E-02
 -0.104312926224E-01
 -0.888706741360E-02
 -0.968334471171E-02
 -0.782428489956E-02
 -0.871628617344E-02
 -0.702240433743E-02
 -0.781909410117E-02
 -0.579189051512E-02
 -0.585200535955E-02
 -0.560229453321E-02
 -0.622581636162E-02
 -0.923109512782E-03
 -0.154045803140E-02
 -0.733870791126E-04
 -0.507200483854E-03
  0.160716604870E-02
  0.256469644382E-02
 -0.270036085953E-02
 -0.747734389141E-03
 -0.324633632604E-02
  0.935184262513E-02
  0.911763591338E-02
  0.812208312539E-02
  0.728034709432E-02
  0.850455447040E-02
  0.772992641448E-02
  0.744496677061E-02
  0.672041699622E-02
  0.745873304588E-02
  0.678081982231E-02
  0.745303540468E-02
  0.680657985436E-02
  0.745966355873E-02
  0.682882132966E-02
  0.749611360229E-02
  0.686376228729E-02
  0.756113038332E-02
  0.691032856238E-02
  0.763566941009E-02
  0.695097380512E-02
  0.801072827767E-02
  0.733879891489E-02
  0.881758230388E-02
  0.803355846686E-02
  0.874760421625E-02
  0.789395577874E-02
  0.502988588105E-02
  0.413855901245E-02
  0.554157977969E-02
  0.517612869193E-02
  0.281605379126E-02
  0.237768426711E-02
  0.371758633889E-02
  0.334882971176E-02
  0.810948125405E-02
  0.778789076339E-02
  0.917208045508E-02
  0.898914422786E-02
  0.325530897130E-03
  0.206098455568E-02
  0.388051668790E-02
  0.537590252344E-02
  0.506770924754E-02
 -0.600793145233E-03
 -0.123538989929E-02
  0.207153703486E-02
  0.149775262014E-02
  0.241845059847E-02
  0.197735282129E-02
  0.611814493954E-02
  0.570423125118E-02
  0.622834297976E-02
  0.583460624168E-02
  0.546068910236E-02
  0.506630435120E-02
  0.549997414927E-02
  0.510883483612E-02
  0.550518315828E-02
  0.510604538880E-02
  0.547610407425E-02
  0.505773425996E-02
  0.626183587920E-02
  0.582801546845E-02
  0.291226794546E-02
  0.233012015708E-02
  0.288838371425E-02
  0.239600065727E-02
 -0.104945763809E-02
 -0.158901987875E-02
 -0.113343716210E-02
 -0.172445622623E-02
 -0.505355685742E-03
 -0.246751172140E-04
  0.427127456002E-02
  0.425343984981E-02
  0.116549521197E-01
  0.114520249947E-01
  0.132860758972E-01
  0.131241112713E-01
  0.552607280800E-02
  0.551084075593E-02
  0.300834676660E-02
  0.439947284278E-02
  0.493514185685E-02
  0.606786765529E-02
  0.563970818659E-02
  0.110042892505E-01
  0.108783346604E-01
  0.546648333345E-02
  0.559409754796E-02
 -0.116781320587E-02
 -0.886489701811E-03
 -0.338760720943E-02
 -0.354452924247E-02
 -0.284054035452E-02
 -0.298872480790E-02
 -0.235877862905E-02
 -0.250260016385E-02
 -0.221783676577E-02
 -0.236105123839E-02
 -0.232950038566E-02
 -0.247619705768E-02
 -0.277593452465E-02
 -0.293014372426E-02
 -0.323386820155E-02
 -0.339994429773E-02
 -0.941691614216E-03
 -0.688719825489E-03
  0.609880285127E-02
  0.643383576834E-02
  0.961490522709E-02
  0.942636606842E-02
  0.786140742462E-02
  0.765520422459E-02
  0.734533693275E-02
  0.711513974664E-02
  0.773465358281E-02
  0.747145212706E-02
  0.980332239184E-02
  0.954079149674E-02
  0.127896197389E-01
  0.122594691675E-01
  0.536059863277E-02
  0.539210764061E-02
  0.393474979714E-02
  0.439025996620E-02
  0.517144229857E-02
  0.565990305624E-02
  0.575964251462E-02
  0.114837399371E-01
  0.114575015512E-01
  0.102682471734E-01
  0.102545751490E-01
  0.111317559417E-01
  0.111178482967E-01
  0.114426012667E-01
  0.114325466300E-01
  0.109553267003E-01
  0.109485263621E-01
  0.107742561730E-01
  0.107691734774E-01
  0.106682471979E-01
  0.106611368765E-01
  0.108409951138E-01
  0.108304731970E-01
  0.110442635236E-01
  0.110318977940E-01
  0.113278656300E-01
  0.113136129089E-01
  0.106173158515E-01
  0.106003360524E-01
  0.109409797095E-01
  0.109200922913E-01
  0.110783932644E-01
  0.110542526603E-01
  0.734741281798E-02
  0.731420147285E-02
  0.785443823757E-02
  0.781291531104E-02
  0.863930768778E-02
  0.859664704400E-02
  0.103851941215E-01
  0.104170659584E-01
  0.768425241828E-02
  0.766910736633E-02
  0.635251275436E-02
  0.656017269636E-02
  0.562830707622E-02
  0.574412728955E-02
  0.615489167855E-02
  0.634552293253E-02
  0.644491018635E-02
  0.664037087924E-02
  0.572184088718E-02
  0.633921826633E-02
  0.601130448701E-02
  0.677672416980E-02
  0.650634739947E-02
  0.649018166634E-02
  0.652110152054E-02
  0.583087610188E-02
  0.641106512009E-02
  0.622392067460E-02
  0.655190611690E-02
  0.369373489247E-02
  0.325962715533E-02
  0.319519942275E-02
  0.768841835182E-03
  0.654191586246E-02
  0.276599471026E-02
  0.673096889187E-02
  0.556360065630E-02
  0.663988523060E-02
  0.574751213739E-02
  0.636639607737E-02
  0.604003307638E-02
  0.680675605160E-02
  0.653715687097E-02
  0.652125389933E-02
  0.655188031260E-02
  0.586070648165E-02
  0.643966328854E-02
  0.625095104527E-02
  0.657703428393E-02
  0.371683518305E-02
  0.328073943866E-02
  0.321416547469E-02
  0.785554122030E-03
  0.655767534394E-02
  0.278088439265E-02
  0.674370859609E-02
SCALARS phi_sigma float 1
LOOKUP_TABLE default
  0.333639700424E-03
  0.226429411384E-03
  0.381734658762E-03
  0.513117572509E-03
  0.611057653012E-03
  0.668016014821E-03
  0.679343324340E-03
  0.643879266111E-03
  0.564110646295E-03
  0.445872149318E-03
  0.297634284568E-03
  0.129525529845E-03
 -0.477674813224E-04
 -0.224019768285E-03
 -0.390291680283E-03
 -0.539482503880E-03
 -0.666581778827E-03
 -0.768654495721E-03
 -0.844662464058E-03
  0.118974565702E-04
  0.786647807562E-02
  0.785150751517E-02
  0.836148194682E-02
  0.835429133003E-02
  0.870914447100E-02
  0.870255887147E-02
  0.899563166297E-02
  0.898954207680E-02
  0.920908933288E-02
  0.920336425404E-02
  0.934015887957E-02
  0.933465165488E-02
  0.938287592449E-02
  0.937743132310E-02
  0.933528814001E-02
  0.932974853310E-02
  0.919966532763E-02
  0.919387698206E-02
  0.898225783524E-02
  0.897607784239E-02
  0.869266013600E-02
  0.868596435455E-02
  0.834290481710E-02
  0.833559694180E-02
  0.794644217123E-02
  0.793846357715E-02
  0.751719158323E-02
  0.750853113851E-02
  0.706885924729E-02
  0.705956183623E-02
  0.661468895588E-02
  0.660486113855E-02