# vtk DataFile Version 3.0
MachLine results file. Generated by MachLine, USU AeroLab (c) 2022.
ASCII
DATASET POLYDATA
POINTS                 892 float
  0.173045222151E-06  0.000000000000E+00  0.000000000000E+00
  0.163777672222E-06  0.217527970672E+00  0.000000000000E+00
  0.171472410752E-06  0.448061168194E+00  0.000000000000E+00
  0.177693741107E-06  0.689725637436E+00  0.000000000000E+00
  0.182165395985E-06  0.940178275108E+00  0.000000000000E+00
  0.184679072057E-06  0.119668114185E+01  0.000000000000E+00
  0.185114071064E-06  0.145621216297E+01  0.000000000000E+00
  0.183449540272E-06  0.171560299397E+01  0.000000000000E+00
  0.179766332476E-06  0.197169232368E+01  0.000000000000E+00
  0.174239021560E-06  0.222147774696E+01  0.000000000000E+00
  0.167118785558E-06  0.246225214005E+01  0.000000000000E+00
  0.158710745038E-06  0.269171094894E+01  0.000000000000E+00
  0.149347834648E-06  0.290802383423E+01  0.000000000000E+00
  0.139366198567E-06  0.310986590385E+01  0.000000000000E+00
  0.129083986066E-06  0.329641318321E+01  0.000000000000E+00
  0.118785074068E-06  0.346730756760E+01  0.000000000000E+00
  0.108709134239E-06  0.362259936333E+01  0.000000000000E+00
  0.990478698158E-07  0.376267743111E+01  0.000000000000E+00
  0.899437360601E-07  0.388819599152E+01 -0.364699587161E-22
  0.406511339581E-07  0.399999997608E+01  0.000000000000E+00
  0.341100276361E-01  0.000000000000E+00 -0.298407671612E-02
  0.341100276361E-01  0.000000000000E+00  0.298407671612E-02
  0.341100279290E-01  0.217527970672E+00 -0.298407336776E-02
  0.341100279290E-01  0.217527970672E+00  0.298407336776E-02
  0.341100286231E-01  0.448061168194E+00 -0.298406543436E-02
  0.341100286231E-01  0.448061168194E+00  0.298406543436E-02
  0.341100291965E-01  0.689725637436E+00 -0.298405888029E-02
  0.341100291965E-01  0.689725637436E+00  0.298405888029E-02
  0.341100296241E-01  0.940178275108E+00 -0.298405399379E-02
  0.341100296241E-01  0.940178275108E+00  0.298405399379E-02
  0.341100298859E-01  0.119668114185E+01 -0.298405100122E-02
  0.341100298859E-01  0.119668114185E+01  0.298405100122E-02
  0.341100299694E-01  0.145621216297E+01 -0.298405004600E-02
  0.341100299694E-01  0.145621216297E+01  0.298405004600E-02
  0.341100298707E-01  0.171560299397E+01 -0.298405117447E-02
  0.341100298707E-01  0.171560299397E+01  0.298405117447E-02
  0.341100295945E-01  0.197169232368E+01 -0.298405433119E-02
  0.341100295945E-01  0.197169232368E+01  0.298405433119E-02
  0.341100291542E-01  0.222147774696E+01 -0.298405936463E-02
  0.341100291542E-01  0.222147774696E+01  0.298405936463E-02
  0.341100285700E-01  0.246225214005E+01 -0.298406604194E-02
  0.341100285700E-01  0.246225214005E+01  0.298406604194E-02
  0.341100278676E-01  0.269171094894E+01 -0.298407407041E-02
  0.341100278676E-01  0.269171094894E+01  0.298407407041E-02
  0.341100270756E-01  0.290802383423E+01 -0.298408312279E-02
  0.341100270756E-01  0.290802383423E+01  0.298408312279E-02
  0.341100262235E-01  0.310986590385E+01 -0.298409286252E-02
  0.341100262235E-01  0.310986590385E+01  0.298409286252E-02
  0.341100253396E-01  0.329641318321E+01 -0.298410296583E-02
  0.341100253396E-01  0.329641318321E+01  0.298410296583E-02
  0.341100244495E-01  0.346730756760E+01 -0.298411313935E-02
  0.341100244495E-01  0.346730756760E+01  0.298411313935E-02
  0.341100235753E-01  0.362259936333E+01 -0.298412313172E-02
  0.341100235753E-01  0.362259936333E+01  0.298412313172E-02
  0.341100227347E-01  0.376267743111E+01 -0.298413273904E-02
  0.341100227347E-01  0.376267743111E+01  0.298413273904E-02
  0.341100219414E-01  0.388819599152E+01 -0.298414180664E-02
  0.341100219414E-01  0.388819599152E+01  0.298414180664E-02
  0.341100188820E-01  0.399999998751E+01 -0.298417677631E-02
  0.341100188820E-01  0.399999998751E+01  0.298417677631E-02
  0.341100161597E-01  0.400210950524E+01 -0.210973993587E-02
  0.341100161597E-01  0.400210950524E+01  0.210973993587E-02
  0.341100155449E-01  0.400298402237E+01  0.000000000000E+00
  0.937237820251E-01  0.000000000000E+00 -0.819958982230E-02
  0.937237820251E-01  0.000000000000E+00  0.819958982230E-02
  0.937237822043E-01  0.217527970672E+00 -0.819958777352E-02
  0.937237822043E-01  0.217527970672E+00  0.819958777352E-02
  0.937237828870E-01  0.448061168194E+00 -0.819957997074E-02
  0.937237828870E-01  0.448061168194E+00  0.819957997074E-02
  0.937237834518E-01  0.689725637436E+00 -0.819957351471E-02
  0.937237834518E-01  0.689725637436E+00  0.819957351471E-02
  0.937237838735E-01  0.940178275108E+00 -0.819956869519E-02
  0.937237838735E-01  0.940178275108E+00  0.819956869519E-02
  0.937237841320E-01  0.119668114185E+01 -0.819956573966E-02
  0.937237841320E-01  0.119668114185E+01  0.819956573966E-02
  0.937237842149E-01  0.145621216297E+01 -0.819956479220E-02
  0.937237842149E-01  0.145621216297E+01  0.819956479220E-02
  0.937237841181E-01  0.171560299397E+01 -0.819956589928E-02
  0.937237841181E-01  0.171560299397E+01  0.819956589928E-02
  0.937237838463E-01  0.197169232368E+01 -0.819956900519E-02
  0.937237838463E-01  0.197169232368E+01  0.819956900519E-02
  0.937237834131E-01  0.222147774696E+01 -0.819957395760E-02
  0.937237834131E-01  0.222147774696E+01  0.819957395760E-02
  0.937237828387E-01  0.246225214005E+01 -0.819958052245E-02
  0.937237828387E-01  0.246225214005E+01  0.819958052245E-02
  0.937237821490E-01  0.269171094894E+01 -0.819958840549E-02
  0.937237821490E-01  0.269171094894E+01  0.819958840549E-02
  0.937237813728E-01  0.290802383423E+01 -0.819959727769E-02
  0.937237813728E-01  0.290802383423E+01  0.819959727769E-02
  0.937237805397E-01  0.310986590385E+01 -0.819960680067E-02
  0.937237805397E-01  0.310986590385E+01  0.819960680067E-02
  0.937237796780E-01  0.329641318321E+01 -0.819961664901E-02
  0.937237796780E-01  0.329641318321E+01  0.819961664901E-02
  0.937237788137E-01  0.346730756760E+01 -0.819962652818E-02
  0.937237788137E-01  0.346730756760E+01  0.819962652818E-02
  0.937237779687E-01  0.362259936333E+01 -0.819963618659E-02
  0.937237779687E-01  0.362259936333E+01  0.819963618659E-02
  0.937237771608E-01  0.376267743111E+01 -0.819964542147E-02
  0.937237771608E-01  0.376267743111E+01  0.819964542147E-02
  0.937237764032E-01  0.388819599152E+01 -0.819965408104E-02
  0.937237764032E-01  0.388819599152E+01  0.819965408104E-02
  0.937237736199E-01  0.399999998381E+01 -0.819968589373E-02
  0.937237736199E-01  0.399999998381E+01  0.819968589373E-02
  0.937237712536E-01  0.400579687095E+01 -0.579693567798E-02
  0.937237712536E-01  0.400579687095E+01  0.579693567798E-02
  0.937237707095E-01  0.400819964372E+01 -0.368817060392E-22
  0.190432342283E+00  0.000000000000E+00 -0.166604723454E-01
  0.190432342283E+00  0.000000000000E+00  0.166604723454E-01
  0.190432342335E+00  0.217527970672E+00 -0.166604717490E-01
  0.190432342335E+00  0.217527970672E+00  0.166604717490E-01
  0.190432342998E+00  0.448061168194E+00 -0.166604641705E-01
  0.190432342998E+00  0.448061168194E+00  0.166604641705E-01
  0.190432343548E+00  0.689725637436E+00 -0.166604578857E-01
  0.190432343548E+00  0.689725637436E+00  0.166604578857E-01
  0.190432343959E+00  0.940178275108E+00 -0.166604531854E-01
  0.190432343959E+00  0.940178275108E+00  0.166604531854E-01
  0.190432344212E+00  0.119668114185E+01 -0.166604502980E-01
  0.190432344212E+00  0.119668114185E+01  0.166604502980E-01
  0.190432344293E+00  0.145621216297E+01 -0.166604493684E-01
  0.190432344293E+00  0.145621216297E+01  0.166604493684E-01
  0.190432344199E+00  0.171560299397E+01 -0.166604504434E-01
  0.190432344199E+00  0.171560299397E+01  0.166604504434E-01
  0.190432343934E+00  0.197169232368E+01 -0.166604534670E-01
  0.190432343934E+00  0.197169232368E+01  0.166604534670E-01
  0.190432343513E+00  0.222147774696E+01 -0.166604582864E-01
  0.190432343513E+00  0.222147774696E+01  0.166604582864E-01
  0.190432342954E+00  0.246225214005E+01 -0.166604646668E-01
  0.190432342954E+00  0.246225214005E+01  0.166604646668E-01
  0.190432342285E+00  0.269171094894E+01 -0.166604723130E-01
  0.190432342285E+00  0.269171094894E+01  0.166604723130E-01
  0.190432341535E+00  0.290802383423E+01 -0.166604808957E-01
  0.190432341535E+00  0.290802383423E+01  0.166604808957E-01
  0.190432340731E+00  0.310986590385E+01 -0.166604900767E-01
  0.190432340731E+00  0.310986590385E+01  0.166604900767E-01
  0.190432339904E+00  0.329641318321E+01 -0.166604995319E-01
  0.190432339904E+00  0.329641318321E+01  0.166604995319E-01
  0.190432339078E+00  0.346730756760E+01 -0.166605089702E-01
  0.190432339078E+00  0.346730756760E+01  0.166605089702E-01
  0.190432338276E+00  0.362259936333E+01 -0.166605181453E-01
  0.190432338276E+00  0.362259936333E+01  0.166605181453E-01
  0.190432337513E+00  0.376267743111E+01 -0.166605268622E-01
  0.190432337513E+00  0.376267743111E+01  0.166605268622E-01
  0.190432336803E+00  0.388819599152E+01 -0.166605349796E-01
  0.190432336803E+00  0.388819599152E+01  0.166605349796E-01
  0.190432334276E+00  0.399999997891E+01 -0.166605638672E-01
  0.190432334276E+00  0.399999997891E+01  0.166605638672E-01
  0.190432332281E+00  0.401177829583E+01 -0.117785035183E-01
  0.190432332281E+00  0.401177829583E+01  0.117785035183E-01
  0.190432331652E+00  0.401666061435E+01 -0.272417630560E-17
  0.329832006488E+00  0.000000000000E+00 -0.288563430542E-01
  0.329832006488E+00  0.000000000000E+00  0.288563430542E-01
  0.329832006566E+00  0.217527970672E+00 -0.288563421553E-01
  0.329832006566E+00  0.217527970672E+00  0.288563421553E-01
  0.329832007208E+00  0.448061168194E+00 -0.288563348194E-01
  0.329832007208E+00  0.448061168194E+00  0.288563348194E-01
  0.329832007742E+00  0.689725637436E+00 -0.288563287238E-01
  0.329832007742E+00  0.689725637436E+00  0.288563287238E-01
  0.329832008141E+00  0.940178275108E+00 -0.288563241588E-01
  0.329832008141E+00  0.940178275108E+00  0.288563241588E-01
  0.329832008386E+00  0.119668114185E+01 -0.288563213528E-01
  0.329832008386E+00  0.119668114185E+01  0.288563213528E-01
[...]
POINT_DATA                 892
SCALARS phi float 1
LOOKUP_TABLE default
  0.764371820271E-08
  0.723435388021E-08
  0.757424429794E-08
  0.784905163295E-08
  0.804657265753E-08
  0.815760624337E-08
  0.817682093063E-08
  0.810329561745E-08
  0.794060171431E-08
  0.769645046518E-08
  0.738193685664E-08
  0.701053860774E-08
  0.659696204374E-08
  0.615605525298E-08
  0.570187146365E-08
  0.524695002596E-08
  0.480187767099E-08
  0.437512227312E-08
  0.397297633528E-08
  0.179563358624E-08
  0.161412027331E-02
  0.139928207184E-02
  0.161412016572E-02
  0.139928220532E-02
  0.161411991080E-02
  0.139928252156E-02
  0.161411970020E-02
  0.139928278281E-02
  0.161411954318E-02
  0.139928297760E-02
  0.161411944702E-02
  0.139928309689E-02
  0.161411941633E-02
  0.139928313497E-02
  0.161411945259E-02
  0.139928308998E-02
  0.161411955402E-02
  0.139928296415E-02
  0.161411971576E-02
  0.139928276351E-02
  0.161411993032E-02
  0.139928249734E-02
  0.161412018830E-02
  0.139928217731E-02
  0.161412047918E-02
  0.139928181646E-02
  0.161412079215E-02
  0.139928142822E-02
  0.161412111679E-02
  0.139928102548E-02
  0.161412144370E-02
  0.139928061994E-02
  0.161412176478E-02
  0.139928022162E-02
  0.161412207349E-02
  0.139927983866E-02
  0.161412236486E-02
  0.139927947721E-02
  0.102392728542E-02
  0.848484440929E-03
  0.854394763513E-03
  0.748245300066E-03
  0.751215309871E-03
  0.443511198609E-02
  0.384478362536E-02
  0.443511192025E-02
  0.384478370703E-02
  0.443511166953E-02
  0.384478401806E-02
  0.443511146208E-02
  0.384478427541E-02
  0.443511130721E-02
  0.384478446753E-02
  0.443511121224E-02
  0.384478458534E-02
  0.443511118180E-02
  0.384478462311E-02
  0.443511121737E-02
  0.384478457898E-02
  0.443511131717E-02
  0.384478445517E-02
  0.443511147631E-02
  0.384478425776E-02
  0.443511168726E-02
  0.384478399607E-02
  0.443511194056E-02
  0.384478368184E-02
  0.443511222565E-02
  0.384478332818E-02
  0.443511253165E-02
  0.384478294857E-02
  0.443511284810E-02
  0.384478255600E-02
  0.443511316555E-02
  0.384478216220E-02
  0.443511347591E-02
  0.384478177719E-02
  0.443511377265E-02
  0.384478140907E-02
  0.443511405090E-02
  0.384478106389E-02
  0.281347124810E-02
  0.233140323332E-02
  0.234762223109E-02
  0.205596187869E-02
  0.206413937140E-02
  0.901147284292E-02
  0.781200438226E-02
  0.901147282375E-02
  0.781200440603E-02
  0.901147258024E-02
  0.781200470812E-02
  0.901147237829E-02
  0.781200495865E-02
  0.901147222725E-02
  0.781200514601E-02
  0.901147213447E-02
  0.781200526111E-02
  0.901147210460E-02
  0.781200529816E-02
  0.901147213915E-02
  0.781200525531E-02
  0.901147223630E-02
  0.781200513478E-02
  0.901147239116E-02
  0.781200494267E-02
  0.901147259618E-02
  0.781200468834E-02
  0.901147284188E-02
  0.781200438355E-02
  0.901147311767E-02
  0.781200404143E-02
  0.901147341268E-02
  0.781200367545E-02
  0.901147371650E-02
  0.781200329855E-02
  0.901147401978E-02
  0.781200292232E-02
  0.901147431460E-02
  0.781200255658E-02
  0.901147459470E-02
  0.781200220911E-02
  0.901147485554E-02
  0.781200188554E-02
  0.571653701207E-02
  0.473704648766E-02
  0.477000051422E-02
  0.417738611281E-02
  0.419397925219E-02
  0.156080259707E-01
  0.135305173677E-01
  0.156080259418E-01
  0.135305174035E-01
  0.156080257060E-01
  0.135305176959E-01
  0.156080255102E-01
  0.135305179389E-01
  0.156080253635E-01
  0.135305181209E-01
  0.156080252733E-01
  0.135305182327E-01
  0.156080252443E-01
  0.135305182687E-01
  0.156080252780E-01
  0.135305182269E-01
  0.156080253726E-01
  0.135305181095E-01
  0.156080255232E-01
  0.135305179227E-01
  0.156080257223E-01
  0.135305176758E-01
  0.156080259603E-01
  0.135305173805E-01
  0.156080262268E-01
  0.135305170499E-01
  0.156080265110E-01
  0.135305166973E-01
  0.156080268027E-01
  0.135305163355E-01
  0.156080270926E-01
  0.135305159758E-01
  0.156080273733E-01
  0.135305156277E-01
  0.156080276387E-01
  0.135305152984E-01
  0.148490372661E-01
  0.126623464317E-01
  0.990114745505E-02
  0.820465323053E-02
  0.826172406146E-02
  0.723531059735E-02
  0.726405998296E-02
  0.236605746577E-01
  0.205112214249E-01
  0.236605735908E-01
  0.205112224917E-01
  0.236605733220E-01
  0.205112227606E-01
  0.236605730942E-01
  0.205112229883E-01
  0.236605729186E-01
  0.205112231640E-01
  0.236605728039E-01
  0.205112232787E-01
  0.236605727563E-01
  0.205112233263E-01
  0.236605727784E-01
  0.205112233042E-01
  0.236605728690E-01
  0.205112232136E-01
  0.236605730236E-01
  0.205112230590E-01
  0.236605732342E-01
  0.205112228483E-01
  0.236605734908E-01
  0.205112225918E-01
  0.236605737817E-01
  0.205112223009E-01
  0.236605740948E-01
  0.205112219878E-01
  0.236605744182E-01
  0.205112216644E-01
  0.236605747414E-01
  0.205112213411E-01
  0.236605750556E-01
  0.205112210270E-01
  0.236159442024E-01
  0.203824819313E-01
  0.208171399756E-01
  0.175304099950E-01
  0.150093794442E-01
  0.124376231982E-01
  0.125241214250E-01
  0.109681628861E-01
  0.110117532258E-01
  0.220193227196E-01
  0.177618104277E-01
  0.220193226581E-01
  0.177618104987E-01
  0.220193221555E-01
  0.177618110786E-01
  0.220193217381E-01
  0.177618115605E-01
  0.220193214254E-01
  0.177618119213E-01
  0.220193212332E-01
  0.177618121431E-01
  0.220193211714E-01
  0.177618122144E-01
  0.220193212432E-01
  0.177618121315E-01
  0.220193214449E-01
  0.177618118988E-01
  0.220193217659E-01
  0.177618115283E-01
  0.220193221901E-01
  0.177618110387E-01
  0.220193226976E-01
  0.177618104532E-01
  0.220193232656E-01
  0.177618097975E-01
  0.220193238715E-01
  0.177618090984E-01
  0.220193244932E-01
  0.177618083809E-01
  0.220193251112E-01
  0.177618076676E-01
  0.220193257094E-01
  0.177618069773E-01
  0.205674956988E-01
  0.162028707974E-01
  0.165266454446E-01
  0.122265247216E-01
  0.962119933357E-02
  0.631639910411E-02
  0.809478132440E-02
  0.612279053348E-02
  0.666076046066E-02
  0.127131071339E-01
  0.102549936378E-01
  0.127131070930E-01
  0.102549936849E-01
  0.127131065740E-01
  0.102549942840E-01
  0.127131061435E-01
  0.102549947808E-01
  0.127131058216E-01
  0.102549951523E-01
  0.127131056238E-01
  0.102549953806E-01
  0.127131055601E-01
  0.102549954540E-01
  0.127131056337E-01
  0.102549953691E-01
  0.127131058408E-01
  0.102549951300E-01
  0.127131061710E-01
  0.102549947491E-01
  0.127131066080E-01
  0.102549942447E-01
  0.127131071317E-01
  0.102549936403E-01
  0.127131077196E-01
  0.102549929619E-01
  0.127131083484E-01
  0.102549922362E-01
  0.127131089961E-01
  0.102549914887E-01
  0.127131096425E-01
  0.102549907427E-01
  0.124747905562E-01
  0.997776444339E-02
  0.961586512536E-02
  0.709651110929E-02
  0.459607307885E-02
  0.197239887390E-02
  0.306276887120E-02
  0.142257566426E-02
  0.297631493921E-02
  0.194865787654E-02
  0.248235135458E-02
  0.625691726105E-02
  0.504713617281E-02
  0.625691712076E-02
  0.504713633474E-02
  0.625691658633E-02
  0.504713695150E-02
  0.625691614410E-02
  0.504713746184E-02
  0.625691581399E-02
  0.504713784281E-02
  0.625691561155E-02
  0.504713807645E-02
  0.625691554664E-02
  0.504713815135E-02
  0.625691562246E-02
  0.504713806383E-02
  0.625691583520E-02
  0.504713781836E-02
  0.625691617440E-02
  0.504713742689E-02
  0.625691662407E-02
  0.504713690793E-02
  0.625691716403E-02
  0.504713628479E-02
  0.625691777171E-02
  0.504713558348E-02
  0.625691842400E-02
  0.504713483072E-02
  0.625691909857E-02
  0.504713405222E-02
  0.625691977525E-02
  0.504713327130E-02
  0.533615520091E-02
  0.410000508821E-02
  0.189843936553E-02
  0.660525547142E-03
 -0.258757796466E-02
 -0.371756890366E-02
 -0.112102165999E-03
 -0.870148825761E-03
  0.684139730018E-04
 -0.407749565412E-03
 -0.719081258586E-04
  0.227714792143E-02
  0.183687236362E-02
  0.227714769212E-02
  0.183687262831E-02
  0.227714714876E-02
  0.183687325537E-02
  0.227714669985E-02
  0.183687377342E-02
  0.227714636507E-02
  0.183687415975E-02
  0.227714616012E-02
  0.183687439629E-02
  0.227714609471E-02
  0.183687447179E-02
  0.227714617197E-02
  0.183687438260E-02
  0.227714638820E-02
  0.183687413304E-02
  0.227714673296E-02
  0.183687373519E-02
  0.227714719032E-02
  0.183687320738E-02
  0.227714774025E-02
  0.183687257273E-02
  0.227714836028E-02
  0.183687185719E-02
  0.227714902739E-02
  0.183687108729E-02
  0.227714971944E-02
  0.183687028863E-02
  0.227715041624E-02
  0.183686948450E-02
  0.830094758743E-03
  0.379414688167E-03
 -0.289113081827E-02
 -0.334107644554E-02
 -0.606488590492E-02
 -0.646864348496E-02
 -0.160773928436E-02
 -0.186757986289E-02
 -0.145915182620E-02
 -0.162175913887E-02
 -0.147162956267E-02
  0.109834343574E-07
  0.103952163575E-07
  0.108835490324E-07
  0.112784393569E-07
  0.115623515262E-07
  0.117219996615E-07
  0.117495543666E-07
  0.116435704781E-07
  0.114101420580E-07
  0.110591534263E-07
  0.106072176296E-07
  0.100735814736E-07
  0.947939784251E-08
  0.884590591471E-08
  0.819318618400E-08
  0.753931948630E-08
 -0.177430885634E-02
 -0.564952050733E-02
 -0.790426482196E-02
 -0.211929890817E-02
  0.986766871634E-08
  0.933918341093E-08
  0.977803480879E-08
  0.101327779331E-07
  0.103876821255E-07
  0.105309171358E-07
  0.105557830822E-07
  0.104611961068E-07
  0.102508156493E-07
  0.993578980094E-08
  0.952977270115E-08
  0.905028117596E-08
  0.851627882960E-08
  0.794703536385E-08
  0.736079733784E-08
  0.677369708026E-08
 -0.177430957408E-02
 -0.564952116350E-02
 -0.790426535068E-02
  0.764371820271E-08
  0.723435388182E-08
  0.757424429970E-08
  0.784905163232E-08
  0.804657265926E-08
  0.815760624514E-08
  0.817682093242E-08
  0.810329561739E-08
  0.794060171582E-08
  0.769645046751E-08
  0.738193685576E-08
  0.701053860897E-08
  0.659696204235E-08
  0.615605525292E-08
  0.570187146231E-08
  0.524695002577E-08
  0.480187766984E-08
  0.437512227230E-08
  0.397297633392E-08
  0.178285129711E-08
  0.161412027331E-02
  0.139928207184E-02
  0.161412016572E-02
  0.139928220531E-02
  0.161411991080E-02
  0.139928252155E-02
  0.161411970019E-02
  0.139928278282E-02
  0.161411954318E-02
  0.139928297760E-02
  0.161411944703E-02
  0.139928309688E-02
  0.161411941632E-02
  0.139928313497E-02
  0.161411945259E-02
  0.139928308998E-02
  0.161411955402E-02
  0.139928296415E-02
  0.161411971576E-02
  0.139928276351E-02
  0.161411993032E-02
  0.139928249734E-02
  0.161412018830E-02
  0.139928217731E-02
  0.161412047918E-02
  0.139928181646E-02
  0.161412079215E-02
  0.139928142822E-02
  0.161412111679E-02
  0.139928102547E-02
  0.161412144370E-02
  0.139928061995E-02
  0.161412176479E-02
  0.139928022162E-02
  0.161412207349E-02
  0.139927983866E-02
  0.161412236486E-02
  0.139927947721E-02
  0.104105337734E-02
  0.878688690745E-03
  0.925675047461E-03
  0.830923866716E-03
  0.856920383406E-03
  0.443511198609E-02
  0.384478362536E-02
  0.443511192026E-02
  0.384478370702E-02
  0.443511166954E-02
  0.384478401806E-02
  0.443511146207E-02
  0.384478427543E-02
  0.443511130721E-02
  0.384478446753E-02
  0.443511121225E-02
  0.384478458533E-02
  0.443511118178E-02
  0.384478462313E-02
  0.443511121738E-02
  0.384478457897E-02
  0.443511131717E-02
  0.384478445518E-02
  0.443511147631E-02
  0.384478425776E-02
  0.443511168725E-02
  0.384478399608E-02
  0.443511194056E-02
  0.384478368184E-02
  0.443511222565E-02
  0.384478332817E-02
  0.443511253165E-02
  0.384478294858E-02
  0.443511284810E-02
  0.384478255599E-02
  0.443511316556E-02
  0.384478216220E-02
  0.443511347591E-02
  0.384478177719E-02
  0.443511377265E-02
  0.384478140907E-02
  0.443511405090E-02
  0.384478106389E-02
  0.286051957557E-02
  0.241438589889E-02
  0.254347143485E-02
  0.228313102188E-02
  0.235458079405E-02
  0.901147284292E-02
  0.781200438226E-02
  0.901147282376E-02
  0.781200440602E-02
  0.901147258025E-02
  0.781200470811E-02
  0.901147237828E-02
  0.781200495866E-02
  0.901147222725E-02
  0.781200514602E-02
  0.901147213449E-02
  0.781200526109E-02
  0.901147210459E-02
  0.781200529818E-02
  0.901147213915E-02
  0.781200525530E-02
  0.901147223630E-02
  0.781200513479E-02
  0.901147239117E-02
  0.781200494268E-02
  0.901147259618E-02
  0.781200468835E-02
  0.901147284188E-02
  0.781200438355E-02
  0.901147311767E-02
  0.781200404142E-02
  0.901147341268E-02
  0.781200367546E-02
  0.901147371649E-02
  0.781200329855E-02
  0.901147401978E-02
  0.781200292232E-02
  0.901147431460E-02
  0.781200255658E-02
  0.901147459470E-02
  0.781200220911E-02
  0.897527981160E-02
  0.774502652530E-02
  0.581212926684E-02
  0.490565294953E-02
  0.516793341654E-02
  0.463895671670E-02
  0.478410650348E-02
  0.156080259707E-01
  0.135305173677E-01
  0.156080259418E-01
  0.135305174035E-01
  0.156080257061E-01
  0.135305176959E-01
  0.156080255102E-01
  0.135305179389E-01
  0.156080253635E-01
  0.135305181209E-01
  0.156080252733E-01
  0.135305182327E-01
  0.156080252443E-01
  0.135305182687E-01
  0.156080252780E-01
  0.135305182269E-01
  0.156080253726E-01
  0.135305181095E-01
  0.156080255232E-01
  0.135305179227E-01
  0.156080257223E-01
  0.135305176758E-01
  0.156080259603E-01
  0.135305173805E-01
  0.156080262268E-01
  0.135305170499E-01
  0.156080265110E-01
  0.135305166973E-01
  0.156080268027E-01
  0.135305163355E-01
  0.156080270926E-01
  0.135305159758E-01
  0.156080273733E-01
  0.135305156277E-01
  0.156080276387E-01
  0.135305152984E-01
  0.142083056109E-01
  0.120557738469E-01
  0.100667122070E-01
  0.849667969395E-02
  0.895094629147E-02
  0.803475531454E-02
  0.828616699669E-02
  0.236605746577E-01
  0.205112214249E-01
  0.236605735909E-01
  0.205112224917E-01
  0.236605733220E-01
  0.205112227606E-01
  0.236605730942E-01
  0.205112229884E-01
  0.236605729186E-01
  0.205112231640E-01
  0.236605728039E-01
  0.205112232787E-01
  0.236605727563E-01
  0.205112233263E-01
  0.236605727784E-01
  0.205112233042E-01
  0.236605728690E-01
  0.205112232136E-01
  0.236605730236E-01
  0.205112230590E-01
  0.236605732342E-01
  0.205112228484E-01
  0.236605734909E-01
  0.205112225917E-01
  0.236605737817E-01
  0.205112223009E-01
  0.236605740947E-01
  0.205112219878E-01
  0.236605744182E-01
  0.205112216644E-01
  0.236605747414E-01
  0.205112213411E-01
  0.236605750556E-01
  0.205112210270E-01
  0.228927942855E-01
  0.196181374374E-01
  0.199402336121E-01
  0.167555267462E-01
  0.152603600230E-01
  0.128803108607E-01
  0.135689255385E-01
  0.121800570815E-01
  0.125611899019E-01
  0.220193227196E-01
  0.177618104277E-01
  0.220193226581E-01
  0.177618104987E-01
  0.220193221556E-01
  0.177618110786E-01
  0.220193217381E-01
  0.177618115604E-01
  0.220193214254E-01
  0.177618119213E-01
  0.220193212332E-01
  0.177618121431E-01
  0.220193211714E-01
  0.177618122144E-01
  0.220193212432E-01
  0.177618121315E-01
  0.220193214449E-01
  0.177618118988E-01
  0.220193217659E-01
  0.177618115284E-01
  0.220193221901E-01
  0.177618110387E-01
  0.220193226975E-01
  0.177618104531E-01
  0.220193232656E-01
  0.177618097975E-01
  0.220193238715E-01
  0.177618090984E-01
  0.220193244932E-01
  0.177618083809E-01
  0.220193251113E-01
  0.177618076676E-01
  0.216865033737E-01
  0.173643210361E-01
  0.192890340848E-01
  0.149560367965E-01
  0.156481616710E-01
  0.114317498449E-01
  0.111930025764E-01
  0.815842331038E-02
  0.105665079810E-01
  0.871952512544E-02
  0.959987458669E-02
  0.127131071339E-01
  0.102549936378E-01
  0.127131070930E-01
  0.102549936849E-01
  0.127131065740E-01
  0.102549942840E-01
  0.127131061435E-01
  0.102549947808E-01
  0.127131058215E-01
  0.102549951523E-01
  0.127131056238E-01
  0.102549953805E-01
  0.127131055601E-01
  0.102549954540E-01
  0.127131056337E-01
  0.102549953690E-01
  0.127131058409E-01
  0.102549951300E-01
  0.127131061709E-01
  0.102549947491E-01
  0.127131066080E-01
  0.102549942447E-01
  0.127131071317E-01
  0.102549936403E-01
  0.127131077196E-01
  0.102549929619E-01
  0.127131083484E-01
  0.102549922362E-01
  0.127131089960E-01
  0.102549914888E-01
  0.127131096425E-01
  0.102549907427E-01
  0.111913371069E-01
  0.868546178879E-02
  0.812767720314E-02
  0.563756458121E-02
  0.420194180613E-02
  0.190234696707E-02
  0.561893665321E-02
  0.395611391130E-02
  0.589063756456E-02
  0.483445660766E-02
  0.556911825220E-02
  0.625691726105E-02
  0.504713617281E-02
  0.625691712074E-02
  0.504713633473E-02
  0.625691658628E-02
  0.504713695153E-02
  0.625691614407E-02
  0.504713746188E-02
  0.625691581397E-02
  0.504713784283E-02
  0.625691561153E-02
  0.504713807644E-02
  0.625691554664E-02
  0.504713815134E-02
  0.625691562248E-02
  0.504713806381E-02
  0.625691583522E-02
  0.504713781831E-02
  0.625691617443E-02
  0.504713742685E-02
  0.625691662408E-02
  0.504713690790E-02
  0.625691716403E-02
  0.504713628479E-02
  0.625691777172E-02
  0.504713558346E-02
  0.625691842401E-02
  0.504713483070E-02
  0.625691909855E-02
  0.504713405223E-02
  0.597492057024E-02
  0.474931372145E-02
  0.370591672773E-02
  0.247257090108E-02
  0.312048586501E-03
 -0.917412596436E-03
 -0.146177308792E-02
 -0.256479262404E-02
  0.245464669676E-02
  0.164604430454E-02
  0.278456706261E-02
  0.226741495553E-02
  0.270713633390E-02
  0.227714792143E-02
  0.183687236362E-02
  0.227714769208E-02
  0.183687262830E-02
  0.227714714871E-02
  0.183687325542E-02
  0.227714669978E-02
  0.183687377350E-02
  0.227714636508E-02
  0.183687415973E-02
  0.227714616010E-02
  0.183687439630E-02
  0.227714609468E-02
  0.183687447181E-02
  0.227714617199E-02
  0.183687438259E-02
  0.227714638819E-02
  0.183687413309E-02
  0.227714673297E-02
  0.183687373519E-02
  0.227714719032E-02
  0.183687320737E-02
  0.227714774023E-02
  0.183687257275E-02
  0.227714836027E-02
  0.183687185719E-02
  0.227714902739E-02
  0.183687108729E-02
  0.227714971944E-02
  0.183687028865E-02
  0.161219059222E-02
  0.116481848253E-02
 -0.960224487634E-03
 -0.140885223451E-02
 -0.473692503138E-02
 -0.517451776038E-02
 -0.454868404311E-02
 -0.494937418530E-02
  0.715635749053E-03
  0.423182840296E-03
  0.910200725621E-03
  0.722720599347E-03
  0.913036151034E-03
  0.843075609325E-15
  0.103952171192E-07
  0.108835500623E-07
  0.112784500872E-07
  0.115623596013E-07
  0.117219842562E-07
  0.117495060469E-07
  0.116436352768E-07
  0.114101125970E-07
  0.110591619824E-07
  0.106072234376E-07
  0.100735836715E-07
  0.947939292576E-08
  0.884590307640E-08
  0.819317673176E-08
 -0.922230058686E-03
 -0.364401538769E-02
 -0.716869161407E-02
 -0.623258423721E-02
 -0.137194940850E-03
  0.850014503229E-15
  0.933918747995E-08
  0.977803157942E-08
  0.101327712087E-07
  0.103876725226E-07
  0.105309352899E-07
  0.105558240537E-07
  0.104611299719E-07
  0.102508452724E-07
  0.993578608487E-08
  0.952977001608E-08
  0.905027881599E-08
  0.851628048380E-08
  0.794704245729E-08
  0.736080852114E-08
 -0.922230837513E-03
 -0.364401610143E-02
 -0.716869223710E-02
 -0.623258476537E-02
SCALARS phi_mu float 1
LOOKUP_TABLE default
  0.764371820271E-08
  0.723435388021E-08
  0.757424429794E-08
  0.784905163295E-08
  0.804657265753E-08
  0.815760624337E-08
  0.817682093063E-08
  0.810329561745E-08
  0.794060171431E-08
  0.769645046518E-08
  0.738193685664E-08
  0.701053860774E-08
  0.659696204374E-08
  0.615605525298E-08
  0.570187146365E-08
  0.524695002596E-08
  0.480187767099E-08
  0.437512227312E-08
  0.397297633528E-08
  0.179563358624E-08
  0.161412027331E-02
  0.139928207184E-02
  0.161412016572E-02
  0.139928220532E-02
  0.161411991080E-02
  0.139928252156E-02
  0.161411970020E-02
  0.139928278281E-02
  0.161411954318E-02
  0.139928297760E-02
  0.161411944702E-02
  0.139928309689E-02
  0.161411941633E-02
  0.139928313497E-02
  0.161411945259E-02
  0.139928308998E-02
  0.161411955402E-02
  0.139928296415E-02
  0.161411971576E-02
  0.139928276351E-02
  0.161411993032E-02
  0.139928249734E-02
  0.161412018830E-02
  0.139928217731E-02
  0.161412047918E-02
  0.139928181646E-02
  0.161412079215E-02
  0.139928142822E-02
  0.161412111679E-02
  0.139928102548E-02
  0.161412144370E-02
  0.139928061994E-02
  0.161412176478E-02
  0.139928022162E-02