# vtk DataFile Version 3.0
MachLine results file. Generated by MachLine, USU AeroLab (c) 2022.
ASCII
DATASET POLYDATA
POINTS                 446 float
  0.000000000000E+00  0.000000000000E+00  0.000000000000E+00
  0.000000000000E+00  0.217527970672E+00  0.000000000000E+00
  0.000000000000E+00  0.448061168194E+00  0.000000000000E+00
  0.000000000000E+00  0.689725637436E+00  0.000000000000E+00
  0.000000000000E+00  0.940178275108E+00  0.000000000000E+00
  0.000000000000E+00  0.119668114185E+01  0.000000000000E+00
  0.000000000000E+00  0.145621216297E+01  0.000000000000E+00
  0.000000000000E+00  0.171560299397E+01  0.000000000000E+00
  0.000000000000E+00  0.197169232368E+01  0.000000000000E+00
  0.000000000000E+00  0.222147774696E+01  0.000000000000E+00
  0.000000000000E+00  0.246225214005E+01  0.000000000000E+00
  0.000000000000E+00  0.269171094894E+01  0.000000000000E+00
  0.000000000000E+00  0.290802383423E+01  0.000000000000E+00
  0.000000000000E+00  0.310986590385E+01  0.000000000000E+00
  0.000000000000E+00  0.329641318321E+01  0.000000000000E+00
  0.000000000000E+00  0.346730756760E+01  0.000000000000E+00
  0.000000000000E+00  0.362259936333E+01  0.000000000000E+00
  0.000000000000E+00  0.376267743111E+01  0.000000000000E+00
  0.000000000000E+00  0.388819599152E+01  0.000000000000E+00
  0.000000000000E+00  0.400000000000E+01  0.000000000000E+00
  0.341100133955E-01  0.000000000000E+00 -0.298423948698E-02
  0.341100133955E-01  0.000000000000E+00  0.298423948698E-02
  0.341100133955E-01  0.217527970672E+00 -0.298423948698E-02
  0.341100133955E-01  0.217527970672E+00  0.298423948698E-02
  0.341100133955E-01  0.448061168194E+00 -0.298423948698E-02
  0.341100133955E-01  0.448061168194E+00  0.298423948698E-02
  0.341100133955E-01  0.689725637436E+00 -0.298423948698E-02
  0.341100133955E-01  0.689725637436E+00  0.298423948698E-02
  0.341100133955E-01  0.940178275108E+00 -0.298423948698E-02
  0.341100133955E-01  0.940178275108E+00  0.298423948698E-02
  0.341100133955E-01  0.119668114185E+01 -0.298423948698E-02
  0.341100133955E-01  0.119668114185E+01  0.298423948698E-02
  0.341100133955E-01  0.145621216297E+01 -0.298423948698E-02
  0.341100133955E-01  0.145621216297E+01  0.298423948698E-02
  0.341100133955E-01  0.171560299397E+01 -0.298423948698E-02
  0.341100133955E-01  0.171560299397E+01  0.298423948698E-02
  0.341100133955E-01  0.197169232368E+01 -0.298423948698E-02
  0.341100133955E-01  0.197169232368E+01  0.298423948698E-02
  0.341100133955E-01  0.222147774696E+01 -0.298423948698E-02
  0.341100133955E-01  0.222147774696E+01  0.298423948698E-02
  0.341100133955E-01  0.246225214005E+01 -0.298423948698E-02
  0.341100133955E-01  0.246225214005E+01  0.298423948698E-02
  0.341100133955E-01  0.269171094894E+01 -0.298423948698E-02
  0.341100133955E-01  0.269171094894E+01  0.298423948698E-02
  0.341100133955E-01  0.290802383423E+01 -0.298423948698E-02
  0.341100133955E-01  0.290802383423E+01  0.298423948698E-02
  0.341100133955E-01  0.310986590385E+01 -0.298423948698E-02
  0.341100133955E-01  0.310986590385E+01  0.298423948698E-02
  0.341100133955E-01  0.329641318321E+01 -0.298423948698E-02
  0.341100133955E-01  0.329641318321E+01  0.298423948698E-02
  0.341100133955E-01  0.346730756760E+01 -0.298423948698E-02
  0.341100133955E-01  0.346730756760E+01  0.298423948698E-02
  0.341100133955E-01  0.362259936333E+01 -0.298423948698E-02
  0.341100133955E-01  0.362259936333E+01  0.298423948698E-02
  0.341100133955E-01  0.376267743111E+01 -0.298423948698E-02
  0.341100133955E-01  0.376267743111E+01  0.298423948698E-02
  0.341100133955E-01  0.388819599152E+01 -0.298423948698E-02
  0.341100133955E-01  0.388819599152E+01  0.298423948698E-02
  0.341100133955E-01  0.400000000000E+01 -0.298423948698E-02
  0.341100133955E-01  0.400000000000E+01  0.298423948698E-02
  0.341100133955E-01  0.400210952759E+01 -0.210976228118E-02
  0.341100133955E-01  0.400210952759E+01  0.210976228118E-02
  0.341100133955E-01  0.400298404694E+01  0.000000000000E+00
  0.937237665057E-01  0.000000000000E+00 -0.819976720959E-02
  0.937237665057E-01  0.000000000000E+00  0.819976720959E-02
  0.937237665057E-01  0.217527970672E+00 -0.819976720959E-02
  0.937237665057E-01  0.217527970672E+00  0.819976720959E-02
  0.937237665057E-01  0.448061168194E+00 -0.819976720959E-02
  0.937237665057E-01  0.448061168194E+00  0.819976720959E-02
  0.937237665057E-01  0.689725637436E+00 -0.819976720959E-02
  0.937237665057E-01  0.689725637436E+00  0.819976720959E-02
  0.937237665057E-01  0.940178275108E+00 -0.819976720959E-02
  0.937237665057E-01  0.940178275108E+00  0.819976720959E-02
  0.937237665057E-01  0.119668114185E+01 -0.819976720959E-02
  0.937237665057E-01  0.119668114185E+01  0.819976720959E-02
  0.937237665057E-01  0.145621216297E+01 -0.819976720959E-02
  0.937237665057E-01  0.145621216297E+01  0.819976720959E-02
  0.937237665057E-01  0.171560299397E+01 -0.819976720959E-02
  0.937237665057E-01  0.171560299397E+01  0.819976720959E-02
  0.937237665057E-01  0.197169232368E+01 -0.819976720959E-02
  0.937237665057E-01  0.197169232368E+01  0.819976720959E-02
  0.937237665057E-01  0.222147774696E+01 -0.819976720959E-02
  0.937237665057E-01  0.222147774696E+01  0.819976720959E-02
  0.937237665057E-01  0.246225214005E+01 -0.819976720959E-02
  0.937237665057E-01  0.246225214005E+01  0.819976720959E-02
  0.937237665057E-01  0.269171094894E+01 -0.819976720959E-02
  0.937237665057E-01  0.269171094894E+01  0.819976720959E-02
  0.937237665057E-01  0.290802383423E+01 -0.819976720959E-02
  0.937237665057E-01  0.290802383423E+01  0.819976720959E-02
  0.937237665057E-01  0.310986590385E+01 -0.819976720959E-02
  0.937237665057E-01  0.310986590385E+01  0.819976720959E-02
  0.937237665057E-01  0.329641318321E+01 -0.819976720959E-02
  0.937237665057E-01  0.329641318321E+01  0.819976720959E-02
  0.937237665057E-01  0.346730756760E+01 -0.819976720959E-02
  0.937237665057E-01  0.346730756760E+01  0.819976720959E-02
  0.937237665057E-01  0.362259936333E+01 -0.819976720959E-02
  0.937237665057E-01  0.362259936333E+01  0.819976720959E-02
  0.937237665057E-01  0.376267743111E+01 -0.819976720959E-02
  0.937237665057E-01  0.376267743111E+01  0.819976720959E-02
  0.937237665057E-01  0.388819599152E+01 -0.819976720959E-02
  0.937237665057E-01  0.388819599152E+01  0.819976720959E-02
  0.937237665057E-01  0.400000000000E+01 -0.819976720959E-02
  0.937237665057E-01  0.400000000000E+01  0.819976720959E-02
  0.937237665057E-01  0.400579690933E+01 -0.579697405919E-02
  0.937237665057E-01  0.400579690933E+01  0.579697405919E-02
  0.937237665057E-01  0.400819969177E+01  0.000000000000E+00
  0.190432325006E+00  0.000000000000E+00 -0.166606698185E-01
  0.190432325006E+00  0.000000000000E+00  0.166606698185E-01
  0.190432325006E+00  0.217527970672E+00 -0.166606698185E-01
  0.190432325006E+00  0.217527970672E+00  0.166606698185E-01
  0.190432325006E+00  0.448061168194E+00 -0.166606698185E-01
  0.190432325006E+00  0.448061168194E+00  0.166606698185E-01
  0.190432325006E+00  0.689725637436E+00 -0.166606698185E-01
  0.190432325006E+00  0.689725637436E+00  0.166606698185E-01
  0.190432325006E+00  0.940178275108E+00 -0.166606698185E-01
  0.190432325006E+00  0.940178275108E+00  0.166606698185E-01
  0.190432325006E+00  0.119668114185E+01 -0.166606698185E-01
  0.190432325006E+00  0.119668114185E+01  0.166606698185E-01
  0.190432325006E+00  0.145621216297E+01 -0.166606698185E-01
  0.190432325006E+00  0.145621216297E+01  0.166606698185E-01
  0.190432325006E+00  0.171560299397E+01 -0.166606698185E-01
  0.190432325006E+00  0.171560299397E+01  0.166606698185E-01
  0.190432325006E+00  0.197169232368E+01 -0.166606698185E-01
  0.190432325006E+00  0.197169232368E+01  0.166606698185E-01
  0.190432325006E+00  0.222147774696E+01 -0.166606698185E-01
  0.190432325006E+00  0.222147774696E+01  0.166606698185E-01
  0.190432325006E+00  0.246225214005E+01 -0.166606698185E-01
  0.190432325006E+00  0.246225214005E+01  0.166606698185E-01
  0.190432325006E+00  0.269171094894E+01 -0.166606698185E-01
  0.190432325006E+00  0.269171094894E+01  0.166606698185E-01
  0.190432325006E+00  0.290802383423E+01 -0.166606698185E-01
  0.190432325006E+00  0.290802383423E+01  0.166606698185E-01
  0.190432325006E+00  0.310986590385E+01 -0.166606698185E-01
  0.190432325006E+00  0.310986590385E+01  0.166606698185E-01
  0.190432325006E+00  0.329641318321E+01 -0.166606698185E-01
  0.190432325006E+00  0.329641318321E+01  0.166606698185E-01
  0.190432325006E+00  0.346730756760E+01 -0.166606698185E-01
  0.190432325006E+00  0.346730756760E+01  0.166606698185E-01
  0.190432325006E+00  0.362259936333E+01 -0.166606698185E-01
  0.190432325006E+00  0.362259936333E+01  0.166606698185E-01
  0.190432325006E+00  0.376267743111E+01 -0.166606698185E-01
  0.190432325006E+00  0.376267743111E+01  0.166606698185E-01
  0.190432325006E+00  0.388819599152E+01 -0.166606698185E-01
  0.190432325006E+00  0.388819599152E+01  0.166606698185E-01
  0.190432325006E+00  0.400000000000E+01 -0.166606698185E-01
  0.190432325006E+00  0.400000000000E+01  0.166606698185E-01
  0.190432325006E+00  0.401177835464E+01 -0.117785623297E-01
  0.190432325006E+00  0.401177835464E+01  0.117785623297E-01
  0.190432325006E+00  0.401666069031E+01 -0.272416755980E-17
  0.329831987619E+00  0.000000000000E+00 -0.288565587252E-01
  0.329831987619E+00  0.000000000000E+00  0.288565587252E-01
  0.329831987619E+00  0.217527970672E+00 -0.288565587252E-01
  0.329831987619E+00  0.217527970672E+00  0.288565587252E-01
  0.329831987619E+00  0.448061168194E+00 -0.288565587252E-01
  0.329831987619E+00  0.448061168194E+00  0.288565587252E-01
  0.329831987619E+00  0.689725637436E+00 -0.288565587252E-01
  0.329831987619E+00  0.689725637436E+00  0.288565587252E-01
  0.329831987619E+00  0.940178275108E+00 -0.288565587252E-01
  0.329831987619E+00  0.940178275108E+00  0.288565587252E-01
  0.329831987619E+00  0.119668114185E+01 -0.288565587252E-01
  0.329831987619E+00  0.119668114185E+01  0.288565587252E-01
[...]
CELL_DATA                 832
SCALARS C_p_ise float 1
LOOKUP_TABLE default
 -0.866637592658E-01
 -0.866637936715E-01
 -0.866637731743E-01
 -0.866637731744E-01
 -0.866638026506E-01
 -0.866638026506E-01
 -0.866637852300E-01
 -0.866637852300E-01
 -0.866637839395E-01
 -0.866637839395E-01
  0.116357295740E+00
  0.116357295740E+00
  0.116357261158E+00
  0.116357261158E+00
  0.116357275936E+00
  0.116357275936E+00
  0.116357278180E+00
  0.116357278180E+00
  0.116357274884E+00
  0.116357274884E+00
  0.116357274884E+00
  0.116357274884E+00
  0.116357278180E+00
  0.116357278180E+00
  0.116357275936E+00
  0.116357275936E+00
  0.116357261158E+00
  0.116357261158E+00
  0.116357295740E+00
  0.116357295740E+00
 -0.866637839395E-01
 -0.866637839395E-01
 -0.866637852300E-01
 -0.866637852300E-01
 -0.866638026505E-01
 -0.866638026505E-01
 -0.866637731737E-01
 -0.866637731738E-01
 -0.866637925450E-01
 -0.866638269506E-01
 -0.866638189388E-01
 -0.866637592658E-01
 -0.866637731742E-01
 -0.866637731743E-01
 -0.866638026506E-01
 -0.866638026506E-01
 -0.866637852300E-01
 -0.866637852300E-01
 -0.866637839395E-01
 -0.866637839395E-01
  0.116357295740E+00
  0.116357295740E+00
  0.116357261158E+00
  0.116357261158E+00
  0.116357275936E+00
  0.116357275936E+00
  0.116357278180E+00
  0.116357278180E+00
  0.116357274884E+00
  0.116357274884E+00
  0.116357274884E+00
  0.116357274884E+00
  0.116357278180E+00
  0.116357278180E+00
  0.116357275936E+00
  0.116357275936E+00
  0.116357261158E+00
  0.116357261158E+00
  0.116357295740E+00
  0.116357295740E+00
 -0.866637839395E-01
 -0.866637839395E-01
 -0.866637852300E-01
 -0.866637852300E-01
 -0.866638026505E-01
 -0.866638026506E-01
 -0.866637731738E-01
 -0.866637731739E-01
 -0.866638269506E-01
 -0.866637672777E-01
 -0.866638066974E-01
 -0.866638189388E-01
 -0.866637731741E-01
 -0.866637731742E-01
 -0.866638026506E-01
 -0.866638026506E-01
 -0.866637852300E-01
 -0.866637852300E-01
 -0.866637839395E-01
 -0.866637839395E-01
  0.116357295740E+00
  0.116357295740E+00
  0.116357261158E+00
  0.116357261158E+00
  0.116357275936E+00
  0.116357275936E+00
  0.116357278180E+00
  0.116357278180E+00
  0.116357274884E+00
  0.116357274884E+00
  0.116357274884E+00
  0.116357274884E+00
  0.116357278180E+00
  0.116357278180E+00
  0.116357275936E+00
  0.116357275936E+00
  0.116357261158E+00
  0.116357261158E+00
  0.116357295740E+00
  0.116357295740E+00
 -0.866637839395E-01
 -0.866637839395E-01
 -0.866637852300E-01
 -0.866637852300E-01
 -0.866638026506E-01
 -0.866638026506E-01
 -0.866637731739E-01
 -0.866637731740E-01
 -0.866637672777E-01
 -0.866637795191E-01
 -0.866637990041E-01
 -0.866638066974E-01
 -0.866637731741E-01
 -0.866637731741E-01
 -0.866638026506E-01
 -0.866638026506E-01
 -0.866637852300E-01
 -0.866637852300E-01
 -0.866637839395E-01
 -0.866637839395E-01
  0.116357295740E+00
  0.116357295740E+00
  0.116357261158E+00
  0.116357261158E+00
  0.116357275936E+00
  0.116357275936E+00
  0.116357278180E+00
  0.116357278180E+00
  0.116357274884E+00
  0.116357274884E+00
  0.116357274884E+00
  0.116357274884E+00
  0.116357278180E+00
  0.116357278180E+00
  0.116357275936E+00
  0.116357275936E+00
  0.116357261158E+00
  0.116357261158E+00
  0.116357295740E+00
  0.116357295740E+00
 -0.866637839395E-01
 -0.866637839395E-01
 -0.866637852300E-01
 -0.866637852300E-01
 -0.866638026506E-01
 -0.866638026506E-01
 -0.866637731740E-01
 -0.866637731741E-01
 -0.866637795191E-01
 -0.866637872124E-01
 -0.866638214900E-01
 -0.866637990041E-01
 -0.866637731741E-01
 -0.866637731741E-01
 -0.866638026506E-01
 -0.866638026506E-01
 -0.866637852300E-01
 -0.866637852300E-01
 -0.866637839395E-01
 -0.866637839395E-01
  0.116357295740E+00
  0.116357295740E+00
  0.116357261158E+00
  0.116357261158E+00
  0.116357275936E+00
  0.116357275936E+00
  0.116357278180E+00
  0.116357278180E+00
  0.116357274884E+00
  0.116357274884E+00
  0.116357274884E+00
  0.116357274884E+00
  0.116357278180E+00
  0.116357278180E+00
  0.116357275936E+00
  0.116357275936E+00
  0.116357261158E+00
  0.116357261158E+00
  0.116357295740E+00
  0.116357295740E+00
 -0.866637839395E-01
 -0.866637839395E-01
 -0.866637852300E-01
 -0.866637852300E-01
 -0.866638026506E-01
 -0.866638026506E-01
 -0.866637731741E-01
 -0.866637731740E-01
 -0.866637872124E-01
 -0.866637647265E-01
 -0.866637546519E-01
 -0.866638214900E-01
 -0.866637731742E-01
 -0.866637731741E-01
 -0.866638026506E-01
 -0.866638026506E-01
 -0.866637852300E-01
 -0.866637852300E-01
 -0.866637839395E-01
 -0.866637839395E-01
  0.116357295740E+00
  0.116357295740E+00
  0.116357261158E+00
  0.116357261158E+00
  0.116357275936E+00
  0.116357275936E+00
  0.116357278180E+00
  0.116357278180E+00
  0.116357274884E+00
  0.116357274884E+00
  0.116357274884E+00
  0.116357274884E+00
  0.116357278180E+00
  0.116357278180E+00
  0.116357275936E+00
  0.116357275936E+00
  0.116357261158E+00
  0.116357261158E+00
  0.116357295740E+00
  0.116357295740E+00
 -0.866637839395E-01
 -0.866637839395E-01
 -0.866637852300E-01
 -0.866637852300E-01
 -0.866638026506E-01
 -0.866638026505E-01
 -0.866637731740E-01
 -0.866637731739E-01
 -0.866637647265E-01
 -0.866638315645E-01
 -0.866637841168E-01
 -0.866637546519E-01
 -0.866637731744E-01
 -0.866637731742E-01
 -0.866638026507E-01
 -0.866638026506E-01
 -0.866637852300E-01
 -0.866637852300E-01
 -0.866637839395E-01
 -0.866637839395E-01
  0.116357295740E+00
  0.116357295740E+00
  0.116357261158E+00
  0.116357261158E+00
  0.116357275936E+00
  0.116357275936E+00
  0.116357278180E+00
  0.116357278180E+00
  0.116357274884E+00
  0.116357274884E+00
  0.116357274884E+00
  0.116357274884E+00
  0.116357278180E+00
  0.116357278180E+00
  0.116357275936E+00
  0.116357275936E+00
  0.116357261158E+00
  0.116357261158E+00
  0.116357295740E+00
  0.116357295740E+00
 -0.866637839395E-01
 -0.866637839395E-01
 -0.866637852300E-01
 -0.866637852300E-01
 -0.866638026505E-01
 -0.866638026505E-01
 -0.866637731739E-01
 -0.866637731738E-01
 -0.866638315645E-01
 -0.866638020996E-01
 -0.866637784484E-01
 -0.866637841168E-01
 -0.866637731740E-01
 -0.866637731744E-01
 -0.866638026504E-01
 -0.866638026507E-01
 -0.866637852300E-01
 -0.866637852300E-01
 -0.866637839395E-01
 -0.866637839395E-01
  0.116357295740E+00
  0.116357295740E+00
  0.116357261158E+00
  0.116357261158E+00
  0.116357275936E+00
  0.116357275936E+00
  0.116357278180E+00
  0.116357278180E+00
  0.116357274884E+00
  0.116357274884E+00
  0.116357274884E+00
  0.116357274884E+00
  0.116357278180E+00
  0.116357278180E+00
  0.116357275936E+00
  0.116357275936E+00
  0.116357261158E+00
  0.116357261158E+00
  0.116357295740E+00
  0.116357295740E+00
 -0.866637839395E-01
 -0.866637839395E-01
 -0.866637852300E-01
 -0.866637852300E-01
 -0.866638026505E-01
 -0.866638026503E-01
 -0.866637731738E-01
 -0.866637731737E-01
 -0.866638020996E-01
 -0.866638077682E-01
 -0.866637614221E-01
 -0.866637784484E-01
 -0.866637731777E-01
 -0.866637731740E-01
 -0.866638026555E-01
 -0.866638026504E-01
 -0.866637852308E-01
 -0.866637852300E-01
 -0.866637839391E-01
 -0.866637839395E-01
  0.116357295740E+00
  0.116357295741E+00
  0.116357261158E+00
  0.116357261158E+00
  0.116357275936E+00
  0.116357275936E+00
  0.116357278180E+00
  0.116357278180E+00
  0.116357274884E+00
  0.116357274884E+00
  0.116357274884E+00
  0.116357274884E+00
  0.116357278180E+00
  0.116357278180E+00
  0.116357275936E+00
  0.116357275936E+00
  0.116357261158E+00
  0.116357261158E+00
  0.116357295741E+00
  0.116357295740E+00
 -0.866637839395E-01
 -0.866637839391E-01
 -0.866637852300E-01
 -0.866637852308E-01
 -0.866638026503E-01
 -0.866638026555E-01
 -0.866637731737E-01
 -0.866637731776E-01
 -0.866638077682E-01
 -0.866638247862E-01
 -0.866638189238E-01
 -0.866637614221E-01
 -0.866637731265E-01
 -0.866637731777E-01
 -0.866638025361E-01
 -0.866638026555E-01
 -0.866637852026E-01
 -0.866637852308E-01
 -0.866637839483E-01
 -0.866637839391E-01
  0.116357295741E+00
  0.116357295730E+00
  0.116357261158E+00
  0.116357261157E+00
  0.116357275936E+00
  0.116357275936E+00
  0.116357278180E+00
  0.116357278180E+00
  0.116357274884E+00
  0.116357274884E+00
  0.116357274884E+00
  0.116357274884E+00
  0.116357278180E+00
  0.116357278180E+00
  0.116357275936E+00
  0.116357275936E+00
  0.116357261157E+00
  0.116357261158E+00
  0.116357295730E+00
  0.116357295741E+00
 -0.866637839391E-01
 -0.866637839483E-01
 -0.866637852308E-01
 -0.866637852027E-01
 -0.866638026555E-01
 -0.866638025362E-01
 -0.866637731776E-01
 -0.866637731269E-01
 -0.866638247862E-01
 -0.866637675830E-01
 -0.866637681513E-01
 -0.866638189238E-01
 -0.866637725159E-01
 -0.866637731265E-01
 -0.866638050844E-01
 -0.866638025361E-01
 -0.866637860247E-01
 -0.866637852026E-01
 -0.866637837929E-01
 -0.866637839483E-01
  0.116357295730E+00
  0.116357295938E+00
  0.116357261157E+00
  0.116357261182E+00
  0.116357275936E+00
  0.116357275933E+00
  0.116357278180E+00
  0.116357278180E+00
  0.116357274884E+00
  0.116357274884E+00
  0.116357274884E+00
  0.116357274884E+00
  0.116357278180E+00
  0.116357278180E+00
  0.116357275933E+00
  0.116357275936E+00
  0.116357261182E+00
  0.116357261157E+00
  0.116357295938E+00
  0.116357295730E+00
 -0.866637839483E-01
 -0.866637837930E-01
 -0.866637852027E-01
 -0.866637860249E-01
 -0.866638025362E-01
 -0.866638050849E-01
 -0.866637731269E-01
 -0.866637725189E-01
 -0.866637675830E-01
 -0.866638106297E-01
 -0.866638660819E-01
 -0.866637681513E-01
 -0.866638348147E-01
 -0.866637725159E-01
 -0.866637675532E-01
 -0.866638050844E-01
 -0.866637640855E-01
 -0.866637860247E-01
 -0.866637856575E-01
 -0.866637837929E-01
  0.116357295938E+00
  0.116357292143E+00
  0.116357261182E+00
  0.116357260615E+00
  0.116357275933E+00
  0.116357276012E+00
  0.116357278180E+00
  0.116357278181E+00
  0.116357274884E+00
  0.116357274884E+00
  0.116357274884E+00
  0.116357274884E+00
  0.116357278181E+00
  0.116357278180E+00
  0.116357276012E+00
  0.116357275933E+00
  0.116357260615E+00
  0.116357261182E+00
  0.116357292143E+00
  0.116357295938E+00
 -0.866637837930E-01
 -0.866637856580E-01
 -0.866637860249E-01
 -0.866637640873E-01
 -0.866638050849E-01
 -0.866637675563E-01
 -0.866637725189E-01
 -0.866638348324E-01
 -0.866638106297E-01
 -0.866638348866E-01
 -0.866635415177E-01
 -0.866638660819E-01
 -0.866619202339E-01
 -0.866638348147E-01
 -0.866635233221E-01
 -0.866637675532E-01
 -0.866642677045E-01
 -0.866637640855E-01
 -0.866637918757E-01
 -0.866637856575E-01
  0.116357292143E+00
  0.116357354242E+00
  0.116357260615E+00
  0.116357273088E+00
  0.116357276012E+00
  0.116357273918E+00
  0.116357278181E+00
  0.116357278123E+00
  0.116357274884E+00
  0.116357274884E+00
  0.116357274884E+00
  0.116357274884E+00
  0.116357278123E+00
  0.116357278181E+00
  0.116357273918E+00
  0.116357276012E+00
  0.116357273088E+00
  0.116357260615E+00
  0.116357354241E+00
  0.116357292143E+00
 -0.866637856580E-01
 -0.866637918783E-01
 -0.866637640873E-01
 -0.866642677148E-01
 -0.866637675563E-01
 -0.866635233363E-01
 -0.866638348324E-01
 -0.866619171704E-01
 -0.866638348866E-01
 -0.866635912934E-01
 -0.865894020902E-01
 -0.866635418461E-01
 -0.867387028522E-01
 -0.866619202609E-01
 -0.866910770381E-01
 -0.866635233275E-01
 -0.866589668686E-01
 -0.866642677045E-01
 -0.866625220129E-01
 -0.866637918759E-01
  0.116357354242E+00
  0.116356529293E+00
  0.116357273088E+00
  0.116357007720E+00
  0.116357273918E+00
  0.116357325529E+00
  0.116357278123E+00
  0.116357280600E+00
  0.116357274884E+00
  0.116357274911E+00
  0.116357274911E+00
  0.116357274884E+00
  0.116357280600E+00
  0.116357278123E+00
  0.116357325528E+00
  0.116357273918E+00
  0.116357007718E+00
  0.116357273088E+00
  0.116356529287E+00
  0.116357354241E+00
 -0.866637918785E-01
 -0.866625220261E-01
 -0.866642677148E-01
 -0.866589669108E-01
 -0.866635233417E-01
 -0.866910649372E-01
 -0.866619171973E-01
 -0.867387032070E-01
 -0.866635916218E-01
 -0.865893344456E-01
 -0.941106581089E-01
 -0.865894281740E-01
 -0.890819674907E-01
 -0.867390548576E-01
 -0.846733575798E-01
 -0.866910770588E-01
 -0.866245695595E-01
 -0.866589673333E-01
 -0.867108916688E-01
 -0.866625220265E-01
  0.116356529273E+00
  0.116362153191E+00
  0.116357007717E+00
  0.116362428521E+00
  0.116357325529E+00
  0.116356164829E+00
  0.116357280600E+00
  0.116357184946E+00
  0.116357274911E+00
  0.116357272580E+00
  0.116357272580E+00
  0.116357274911E+00
  0.116357184946E+00
  0.116357280600E+00
  0.116356164825E+00
  0.116357325528E+00
  0.116362428511E+00
  0.116357007715E+00
  0.116362153165E+00
  0.116356529267E+00
 -0.866625220397E-01
 -0.867108917115E-01
 -0.866589673755E-01
 -0.866245696461E-01
 -0.866910649579E-01
 -0.846733557596E-01
 -0.867390552089E-01
 -0.890819651124E-01
 -0.865893605289E-01
 -0.941104119007E-01
 -0.106695198732E+00
 -0.942549720415E-01
 -0.103568826931E+00
 -0.891658708294E-01
 -0.101961662444E+00
 -0.846850862893E-01
 -0.962894637190E-01
 -0.866258778589E-01
 -0.847355148420E-01
 -0.867108912203E-01
  0.116362153162E+00
  0.116443734404E+00
  0.116362427111E+00
  0.116258268523E+00
  0.116356164770E+00
  0.116379514231E+00
  0.116357184946E+00
  0.116360521613E+00
  0.116357272580E+00
  0.116357452813E+00
  0.116357452813E+00
  0.116357272580E+00
  0.116360521606E+00
  0.116357184945E+00
  0.116379514209E+00
  0.116356164766E+00
  0.116258268484E+00
  0.116362427101E+00
  0.116443734343E+00
  0.116362153136E+00
 -0.867108912630E-01
 -0.847355148956E-01
 -0.866258779455E-01
 -0.962894638092E-01
 -0.846850844731E-01
 -0.101961662401E+00
 -0.891658684637E-01
 -0.103568826224E+00
 -0.942547259729E-01
 -0.106695039351E+00
 -0.101854050853E+00
 -0.107161599690E+00
 -0.111960377972E+00
 -0.103987002774E+00
 -0.113792177634E+00
 -0.102259652571E+00
 -0.105899707313E+00
 -0.964936288532E-01
 -0.106125462337E+00
 -0.847353748112E-01
  0.116441991860E+00
  0.113013593126E+00
  0.116257782070E+00
  0.118038089584E+00
  0.116379489164E+00
  0.115973088000E+00
  0.116360521102E+00
  0.116257899871E+00
  0.116357452811E+00
  0.116344828718E+00
  0.116344828718E+00
  0.116357452811E+00
  0.116257899797E+00
  0.116360521094E+00
  0.115973087928E+00
  0.116379489142E+00
  0.118038089525E+00
  0.116257782030E+00
  0.113013593096E+00
  0.116441991799E+00
 -0.847353748649E-01
 -0.106125462380E+00
 -0.964936289435E-01
 -0.105899707392E+00
 -0.102259652518E+00
 -0.113792177795E+00
 -0.103987002051E+00
 -0.111960377754E+00
 -0.107161440259E+00
 -0.101853951345E+00
 -0.581063734250E-01
 -0.101279131155E+00
 -0.676704492534E-01
 -0.111617661418E+00
 -0.763816472119E-01
 -0.114258753153E+00
 -0.109123788673E+00
 -0.106461627158E+00
 -0.114038984299E+00
 -0.106557409314E+00
  0.112009283442E+00
  0.797287596288E-01
  0.117946188094E+00
  0.951351322359E-01
  0.115965016487E+00
  0.121705878675E+00
  0.116257394474E+00
  0.118900973039E+00
  0.116344817767E+00
  0.117141407543E+00
  0.117141407545E+00
  0.116344817767E+00
  0.118900972585E+00
  0.116257394400E+00
  0.121705878715E+00
  0.115965016416E+00
  0.951351322564E-01
  0.117946188034E+00
  0.797287596132E-01
  0.112009283413E+00
 -0.106557409357E+00
 -0.114038984328E+00
 -0.106461627237E+00
 -0.109123788749E+00
 -0.114258753309E+00
 -0.763816473174E-01
 -0.111617661190E+00
 -0.676704494923E-01
 -0.101279031081E+00
 -0.581061510515E-01
 -0.258881641187E-01
 -0.596669901525E-01
 -0.314337826321E-01
 -0.684605022301E-01
 -0.355878174296E-01
 -0.761739582008E-01
 -0.409679742888E-01
 -0.109109899146E+00
 -0.855232481015E-01
 -0.116062395054E+00
  0.753548127299E-01
  0.643296010966E-01
  0.917322242168E-01
  0.644782030941E-01
  0.119994703082E+00
  0.693460424455E-01
  0.118538749226E+00
  0.719526165241E-01
  0.117097281247E+00
  0.731192408726E-01
  0.731192408863E-01
  0.117097281248E+00
  0.719526165197E-01
  0.118538748777E+00
  0.693460424534E-01
  0.119994703131E+00
  0.644782030031E-01
  0.917322242400E-01
  0.643296010691E-01
  0.753548127164E-01
 -0.116062395083E+00
 -0.855232481862E-01
 -0.109109899226E+00
 -0.409679742016E-01
 -0.761739583096E-01
 -0.355878173621E-01
 -0.684605024769E-01
 -0.314337826106E-01
 -0.596667686453E-01
 -0.258881604955E-01
 -0.534053474942E-01
 -0.490979269952E-01
 -0.446816347134E-01
 -0.383882956409E-01
 -0.408524093292E-01
 -0.304162213256E-01
 -0.414682833096E-01
 -0.598967718608E-01
 -0.861027409451E-01
  0.534647358831E-01
  0.533726218089E-01
  0.520821844426E-01
  0.524257705264E-01
  0.546344137070E-01
  0.547057931940E-01
  0.559844884831E-01
  0.559108285573E-01
  0.566204923774E-01
  0.566204923710E-01
  0.559108285455E-01
  0.559844884738E-01
  0.547057931510E-01
  0.546344136676E-01
  0.524257705468E-01
  0.520821844217E-01
  0.533726218532E-01
  0.534647359286E-01
 -0.861027410050E-01
 -0.598967720043E-01
 -0.414682832287E-01
 -0.304162212201E-01
 -0.408524093185E-01
 -0.383882956660E-01
 -0.446816347986E-01
 -0.490979271760E-01
 -0.534053475258E-01
 -0.498129063751E-01
 -0.410309712793E-01
 -0.421362873238E-01
 -0.347575634914E-01
 -0.374442205511E-01
 -0.253032153097E-01
 -0.308527303452E-01
 -0.516331273013E-01
 -0.583437418937E-01
  0.517594148464E-01
  0.515819936853E-01
  0.513335955679E-01
  0.516181680794E-01
  0.538447394293E-01
  0.539829845753E-01
  0.551378234600E-01
  0.551794121961E-01
  0.557829805088E-01
  0.557829805088E-01
  0.551794121962E-01
  0.551378234580E-01
  0.539829845753E-01
  0.538447394084E-01
  0.516181680784E-01
  0.513335956032E-01
  0.515819936857E-01
  0.517594148516E-01
 -0.583437420495E-01
 -0.516331272564E-01
 -0.308527302565E-01
 -0.253032152977E-01
 -0.374442205485E-01
 -0.347575634922E-01
 -0.421362873797E-01
 -0.410309713308E-01
 -0.498129064252E-01
SCALARS C_p_2nd float 1
LOOKUP_TABLE default
 -0.877291561066E-01
 -0.877291908776E-01
 -0.877291696257E-01
 -0.877291696258E-01
 -0.877292002092E-01
 -0.877292002092E-01
 -0.877291821342E-01
 -0.877291821342E-01
 -0.877291807953E-01
 -0.877291807953E-01
  0.119065846400E+00
  0.119065846400E+00
  0.119065809290E+00
  0.119065809290E+00
  0.119065825148E+00
  0.119065825148E+00
  0.119065827556E+00
  0.119065827556E+00
  0.119065824019E+00
  0.119065824019E+00
  0.119065824019E+00
  0.119065824019E+00
  0.119065827556E+00
  0.119065827556E+00
  0.119065825148E+00
  0.119065825148E+00
  0.119065809290E+00
  0.119065809290E+00
  0.119065846400E+00
  0.119065846400E+00
 -0.877291807953E-01
 -0.877291807953E-01
 -0.877291821342E-01
 -0.877291821342E-01
 -0.877292002091E-01
 -0.877292002091E-01
 -0.877291696251E-01
 -0.877291696252E-01
 -0.877291897391E-01
 -0.877292245101E-01
 -0.877292164131E-01
 -0.877291561066E-01
 -0.877291696256E-01
 -0.877291696257E-01
 -0.877292002091E-01
 -0.877292002092E-01
 -0.877291821342E-01
 -0.877291821342E-01
 -0.877291807953E-01
 -0.877291807953E-01
  0.119065846400E+00
  0.119065846400E+00
  0.119065809290E+00
  0.119065809290E+00
  0.119065825148E+00
  0.119065825148E+00
  0.119065827556E+00
  0.119065827556E+00
  0.119065824019E+00
  0.119065824019E+00
  0.119065824019E+00
  0.119065824019E+00
  0.119065827556E+00
  0.119065827556E+00
  0.119065825148E+00
  0.119065825148E+00
  0.119065809290E+00
  0.119065809290E+00
  0.119065846400E+00
  0.119065846400E+00
 -0.877291807953E-01
 -0.877291807953E-01
 -0.877291821342E-01
 -0.877291821342E-01
 -0.877292002091E-01
 -0.877292002091E-01
 -0.877291696252E-01
 -0.877291696254E-01
 -0.877292245101E-01
 -0.877291642036E-01
 -0.877292040418E-01
 -0.877292164131E-01
 -0.877291696255E-01
 -0.877291696256E-01
 -0.877292002091E-01
 -0.877292002091E-01
 -0.877291821342E-01
 -0.877291821342E-01
 -0.877291807953E-01
 -0.877291807953E-01
  0.119065846400E+00
  0.119065846400E+00
  0.119065809290E+00
  0.119065809290E+00
  0.119065825148E+00
  0.119065825148E+00
  0.119065827556E+00
  0.119065827556E+00
  0.119065824019E+00
  0.119065824019E+00
  0.119065824019E+00
  0.119065824019E+00
  0.119065827556E+00
  0.119065827556E+00
  0.119065825148E+00
  0.119065825148E+00
  0.119065809290E+00
  0.119065809290E+00
  0.119065846400E+00
  0.119065846400E+00
 -0.877291807953E-01
 -0.877291807953E-01
 -0.877291821342E-01
 -0.877291821342E-01