# vtk DataFile Version 3.0
TriPan results file. Generated by TriPan, USU AeroLab (c) 2021.
ASCII
DATASET POLYDATA
POINTS                 446 float
  0.190349744366E-02  0.000000000000E+00  0.000000000000E+00
  0.180155439444E-02  0.217527970672E+00  0.000000000000E+00
  0.188619651827E-02  0.448061168194E+00  0.000000000000E+00
  0.195463115218E-02  0.689725637436E+00  0.000000000000E+00
  0.200381935583E-02  0.940178275108E+00  0.000000000000E+00
  0.203146979263E-02  0.119668114185E+01  0.000000000000E+00
  0.203625478170E-02  0.145621216297E+01  0.432309807279E-18
  0.201794494299E-02  0.171560299397E+01  0.000000000000E+00
  0.197742965724E-02  0.197169232368E+01  0.000000000000E+00
  0.191662923716E-02  0.222147774696E+01  0.000000000000E+00
  0.183830664114E-02  0.246225214005E+01  0.000000000000E+00
  0.174581819542E-02  0.269171094894E+01  0.370648277606E-18
  0.164282618113E-02  0.290802383423E+01  0.000000000000E+00
  0.153302818423E-02  0.310986590385E+01  0.000000000000E+00
  0.141992384673E-02  0.329641318321E+01  0.000000000000E+00
  0.130663581474E-02  0.346730756760E+01  0.000000000000E+00
  0.119580047662E-02  0.362259936333E+01  0.000000000000E+00
  0.108952656797E-02  0.376267743111E+01  0.000000000000E+00
  0.989381096661E-03  0.388819599152E+01  0.000000000000E+00
  0.971479789355E-04  0.399949033288E+01 -0.325828402727E-19
  0.342666600534E-01  0.000000000000E+00 -0.119376002534E-02
  0.342666600534E-01  0.000000000000E+00  0.119376002534E-02
  0.342698824337E-01  0.217527970672E+00 -0.115692804277E-02
  0.342698824337E-01  0.217527970672E+00  0.115692804277E-02
  0.342775173423E-01  0.448061168194E+00 -0.106966063919E-02
  0.342775173423E-01  0.448061168194E+00  0.106966063919E-02
  0.342838248119E-01  0.689725637436E+00 -0.997565933343E-03
  0.342838248119E-01  0.689725637436E+00  0.997565933343E-03
  0.342885274612E-01  0.940178275108E+00 -0.943814406113E-03
  0.342885274612E-01  0.940178275108E+00  0.943814406113E-03
  0.342914074361E-01  0.119668114185E+01 -0.910896143339E-03
  0.342914074361E-01  0.119668114185E+01  0.910896143339E-03
  0.342923267137E-01  0.145621216297E+01 -0.900388752406E-03
  0.342923267137E-01  0.145621216297E+01  0.900388752406E-03
  0.342912407103E-01  0.171560299397E+01 -0.912801828255E-03
  0.342912407103E-01  0.171560299397E+01  0.912801828255E-03
  0.342882027576E-01  0.197169232368E+01 -0.947525785931E-03
  0.342882027576E-01  0.197169232368E+01  0.947525785931E-03
  0.342833586936E-01  0.222147774696E+01 -0.100289368959E-02
  0.342833586936E-01  0.222147774696E+01  0.100289368959E-02
  0.342769326198E-01  0.246225214005E+01 -0.107634404818E-02
  0.342769326198E-01  0.246225214005E+01  0.107634404818E-02
  0.342692062149E-01  0.269171094894E+01 -0.116465725981E-02
  0.342692062149E-01  0.269171094894E+01  0.116465725981E-02
  0.342604944343E-01  0.290802383423E+01 -0.126423336595E-02
  0.342604944343E-01  0.290802383423E+01  0.126423336595E-02
  0.342511211565E-01  0.310986590385E+01 -0.137137042041E-02
  0.342511211565E-01  0.310986590385E+01  0.137137042041E-02
  0.342413979750E-01  0.329641318321E+01 -0.148250689126E-02
  0.342413979750E-01  0.329641318321E+01  0.148250689126E-02
  0.342316072375E-01  0.346730756760E+01 -0.159441553133E-02
  0.342316072375E-01  0.346730756760E+01  0.159441553133E-02
  0.342219908292E-01  0.362259936333E+01 -0.170433158034E-02
  0.342219908292E-01  0.362259936333E+01  0.170433158034E-02
  0.342127449763E-01  0.376267743111E+01 -0.181001216133E-02
  0.342127449763E-01  0.376267743111E+01  0.181001216133E-02
  0.342040185398E-01  0.388819599152E+01 -0.190975578472E-02
  0.342040185398E-01  0.388819599152E+01  0.190975578472E-02
  0.341703651092E-01  0.399986265213E+01 -0.229442133769E-02
  0.341703651092E-01  0.399986265213E+01  0.229442133769E-02
  0.341403165739E-01  0.400184427598E+01 -0.188507548451E-02
  0.341403165739E-01  0.400184427598E+01  0.188507548451E-02
  0.341336570292E-01  0.400271379329E+01 -0.122196032094E-19
  0.938944796530E-01  0.000000000000E+00 -0.624850703535E-02
  0.938944796530E-01  0.000000000000E+00  0.624850703535E-02
  0.938964513531E-01  0.217527970672E+00 -0.622597040666E-02
  0.938964513531E-01  0.217527970672E+00  0.622597040666E-02
  0.939039605542E-01  0.448061168194E+00 -0.614013984579E-02
  0.939039605542E-01  0.448061168194E+00  0.614013984579E-02
  0.939101736757E-01  0.689725637436E+00 -0.606912354413E-02
  0.939101736757E-01  0.689725637436E+00  0.606912354413E-02
  0.939148118631E-01  0.940178275108E+00 -0.601610882013E-02
  0.939148118631E-01  0.940178275108E+00  0.601610882013E-02
  0.939176561901E-01  0.119668114185E+01 -0.598359801449E-02
  0.939176561901E-01  0.119668114185E+01  0.598359801449E-02
  0.939185680090E-01  0.145621216297E+01 -0.597317587732E-02
  0.939185680090E-01  0.145621216297E+01  0.597317587732E-02
  0.939175025749E-01  0.171560299397E+01 -0.598535384381E-02
  0.939175025749E-01  0.171560299397E+01  0.598535384381E-02
  0.939145135250E-01  0.197169232368E+01 -0.601951884018E-02
  0.939145135250E-01  0.197169232368E+01  0.601951884018E-02
  0.939097474483E-01  0.222147774696E+01 -0.607399534563E-02
  0.939097474483E-01  0.222147774696E+01  0.607399534563E-02
  0.939034296032E-01  0.246225214005E+01 -0.614620864342E-02
  0.939034296032E-01  0.246225214005E+01  0.614620864342E-02
  0.938958431551E-01  0.269171094894E+01 -0.623292214103E-02
  0.938958431551E-01  0.269171094894E+01  0.623292214103E-02
  0.938873047692E-01  0.290802383423E+01 -0.633051633640E-02
  0.938873047692E-01  0.290802383423E+01  0.633051633640E-02
  0.938781400889E-01  0.310986590385E+01 -0.643526911029E-02
  0.938781400889E-01  0.310986590385E+01  0.643526911029E-02
  0.938686622919E-01  0.329641318321E+01 -0.654360082321E-02
  0.938686622919E-01  0.329641318321E+01  0.654360082321E-02
  0.938591548263E-01  0.346730756760E+01 -0.665227165035E-02
  0.938591548263E-01  0.346730756760E+01  0.665227165035E-02
  0.938498598112E-01  0.362259936333E+01 -0.675851415785E-02
  0.938498598112E-01  0.362259936333E+01  0.675851415785E-02
  0.938409723865E-01  0.376267743111E+01 -0.686009788503E-02
  0.938409723865E-01  0.376267743111E+01  0.686009788503E-02
  0.938326386285E-01  0.388819599152E+01 -0.695535317288E-02
  0.938326386285E-01  0.388819599152E+01  0.695535317288E-02
  0.938020228261E-01  0.399982191417E+01 -0.730529285109E-02
  0.938020228261E-01  0.399982191417E+01  0.730529285109E-02
  0.937759936759E-01  0.400537471243E+01 -0.537478190946E-02
  0.937759936759E-01  0.400537471243E+01  0.537478190946E-02
  0.937700081870E-01  0.400767115840E+01 -0.531059685571E-20
  0.190622368231E+00  0.000000000000E+00 -0.144884656727E-01
  0.190622368231E+00  0.000000000000E+00  0.144884656727E-01
  0.190622942239E+00  0.217527970672E+00 -0.144819047741E-01
  0.190622942239E+00  0.217527970672E+00  0.144819047741E-01
  0.190630235509E+00  0.448061168194E+00 -0.143985423066E-01
  0.190630235509E+00  0.448061168194E+00  0.143985423066E-01
  0.190636283885E+00  0.689725637436E+00 -0.143294090565E-01
  0.190636283885E+00  0.689725637436E+00  0.143294090565E-01
  0.190640807385E+00  0.940178275108E+00 -0.142777052053E-01
  0.190640807385E+00  0.940178275108E+00  0.142777052053E-01
  0.190643586096E+00  0.119668114185E+01 -0.142459443984E-01
  0.190643586096E+00  0.119668114185E+01  0.142459443984E-01
  0.190644480696E+00  0.145621216297E+01 -0.142357190716E-01
  0.190644480696E+00  0.145621216297E+01  0.142357190716E-01
  0.190643446174E+00  0.171560299397E+01 -0.142475437125E-01
  0.190643446174E+00  0.171560299397E+01  0.142475437125E-01
  0.190640536323E+00  0.197169232368E+01 -0.142808034669E-01
  0.190640536323E+00  0.197169232368E+01  0.142808034669E-01
  0.190635898251E+00  0.222147774696E+01 -0.143338168751E-01
  0.190635898251E+00  0.222147774696E+01  0.143338168751E-01
  0.190629757966E+00  0.246225214005E+01 -0.144040006542E-01
  0.190629757966E+00  0.246225214005E+01  0.144040006542E-01
  0.190622399387E+00  0.269171094894E+01 -0.144881095980E-01
  0.190622399387E+00  0.269171094894E+01  0.144881095980E-01
  0.190614139635E+00  0.290802383423E+01 -0.145825190040E-01
  0.190614139635E+00  0.290802383423E+01  0.145825190040E-01
  0.190605304110E+00  0.310986590385E+01 -0.146835095219E-01
  0.190605304110E+00  0.310986590385E+01  0.146835095219E-01
  0.190596204576E+00  0.329641318321E+01 -0.147875176743E-01
  0.190596204576E+00  0.329641318321E+01  0.147875176743E-01
  0.190587121410E+00  0.346730756760E+01 -0.148913387449E-01
  0.190587121410E+00  0.346730756760E+01  0.148913387449E-01
  0.190578291561E+00  0.362259936333E+01 -0.149922643858E-01
  0.190578291561E+00  0.362259936333E+01  0.149922643858E-01
  0.190569902593E+00  0.376267743111E+01 -0.150881507315E-01
  0.190569902593E+00  0.376267743111E+01  0.150881507315E-01
  0.190562090635E+00  0.388819599152E+01 -0.151774418214E-01
  0.190562090635E+00  0.388819599152E+01  0.151774418214E-01
  0.190534290081E+00  0.399976796102E+01 -0.154952050037E-01
  0.190534290081E+00  0.399976796102E+01  0.154952050037E-01
  0.190512351166E+00  0.401113143599E+01 -0.111316370339E-01
  0.190512351166E+00  0.401113143599E+01  0.111316370339E-01
  0.190505425757E+00  0.401582515114E+01 -0.268219081496E-17
  0.330039544037E+00  0.000000000000E+00 -0.264841781860E-01
  0.330039544037E+00  0.000000000000E+00  0.264841781860E-01
  0.330040409116E+00  0.217527970672E+00 -0.264742901773E-01
  0.330040409116E+00  0.217527970672E+00  0.264742901773E-01
  0.330047469038E+00  0.448061168194E+00 -0.263935949007E-01
  0.330047469038E+00  0.448061168194E+00  0.263935949007E-01
  0.330053335330E+00  0.689725637436E+00 -0.263265428815E-01
  0.330053335330E+00  0.689725637436E+00  0.263265428815E-01
  0.330057728574E+00  0.940178275108E+00 -0.262763278701E-01
  0.330057728574E+00  0.940178275108E+00  0.262763278701E-01
  0.330060428946E+00  0.119668114185E+01 -0.262454624787E-01
  0.330060428946E+00  0.119668114185E+01  0.262454624787E-01
[...]
POINT_DATA                 446
SCALARS phi float 1
LOOKUP_TABLE default
 -0.281892564846E-17
 -0.704731412116E-18
 -0.124683249836E-17
  0.867361737988E-18
  0.119262238973E-17
 -0.542101086243E-18
  0.650521303491E-18
 -0.173472347598E-17
  0.249366499672E-17
 -0.168051336735E-17
  0.135525271561E-17
 -0.162630325873E-18
 -0.867361737988E-18
  0.216840434497E-18
 -0.119262238973E-17
 -0.108420217249E-18
  0.000000000000E+00
  0.216840434497E-18
 -0.758941520740E-18
  0.508219768353E-20
  0.867361737988E-18
  0.000000000000E+00
  0.000000000000E+00
  0.867361737988E-18
 -0.346944695195E-17
 -0.520417042793E-17
  0.693889390391E-17
  0.000000000000E+00
  0.346944695195E-17
 -0.346944695195E-17
 -0.173472347598E-17
 -0.346944695195E-17
  0.000000000000E+00
  0.000000000000E+00
  0.173472347598E-17
  0.000000000000E+00
  0.000000000000E+00
  0.000000000000E+00
  0.000000000000E+00
  0.346944695195E-17
  0.520417042793E-17
 -0.346944695195E-17
  0.260208521397E-17
  0.000000000000E+00
  0.867361737988E-18
 -0.867361737988E-18
  0.260208521397E-17
 -0.867361737988E-18
  0.260208521397E-17
  0.000000000000E+00
  0.867361737988E-18
 -0.173472347598E-17
  0.867361737988E-18
  0.233982451470E-11
 -0.867361737988E-18
  0.000000000000E+00
 -0.260208521397E-17
 -0.173472347598E-17
  0.650521303491E-18
  0.216840434497E-18
  0.867361737988E-18
 -0.558915786916E-10
  0.433680868994E-18
  0.000000000000E+00
 -0.346944695195E-17
  0.520417042793E-17
 -0.173472347598E-17
  0.346944695195E-17
  0.000000000000E+00
 -0.520417042793E-17
  0.000000000000E+00
  0.000000000000E+00
  0.173472347598E-17
  0.000000000000E+00
 -0.346944695195E-17
  0.173472347598E-17
  0.346944695195E-17
  0.173472347598E-17
  0.520417042793E-17
  0.000000000000E+00
  0.000000000000E+00
  0.520417042793E-17
  0.000000000000E+00
 -0.520417042793E-17
  0.173472347598E-17
  0.173472347598E-17
 -0.173472347598E-17
  0.173472347598E-17
  0.173472347598E-17
 -0.173472347598E-17
 -0.173472347598E-17
 -0.867361737988E-17
  0.173472347598E-17
 -0.346944695195E-17
 -0.173472347598E-17
  0.000000000000E+00
 -0.173472347598E-17
 -0.173472347598E-17
  0.173472347598E-17
  0.260208521397E-17
 -0.260208521397E-17
  0.130104260698E-17
  0.107078582112E-11
  0.260208521397E-17
 -0.743415294602E-10
  0.151192166425E-11
  0.114337705970E-11
 -0.242861286637E-16
 -0.173472347598E-17
 -0.320933210562E-11
 -0.346944695195E-17
  0.173472347598E-17
 -0.693889390391E-17
  0.173472347598E-17
 -0.173472347598E-17
  0.173472347598E-17
 -0.346944695195E-17
  0.693889390391E-17
  0.173472347598E-17
 -0.173472347598E-17
 -0.520417042793E-17
  0.520417042793E-17
  0.346944695195E-17
  0.693889390391E-17
 -0.173472347598E-17
  0.346944695195E-17
  0.000000000000E+00
  0.000000000000E+00
  0.346944695195E-17
  0.520417042793E-17
 -0.346944695195E-17
 -0.173472347598E-17
 -0.104083408559E-16
 -0.693889390391E-17
 -0.641847686111E-16
  0.416333634234E-16
 -0.346944695195E-17
  0.272351585728E-15
  0.364291929955E-16
 -0.145716771982E-15
  0.560315682741E-15
  0.763278329430E-16
  0.322658566532E-15
  0.576622083415E-14
  0.129236898960E-15
  0.659194920871E-16
 -0.104083408559E-16
 -0.345209971719E-15
 -0.485722573274E-16
 -0.462233723519E-11
  0.414811240912E-11
  0.732608418375E-13
 -0.704653349559E-11
  0.140859546249E-12
 -0.118710596908E-12
  0.176941794550E-14
  0.120042864538E-14
 -0.728583859910E-15
  0.999200722163E-15
 -0.351801920928E-14
  0.497171748215E-14
  0.248065457065E-14
 -0.310862446895E-14
 -0.545050116152E-14
  0.684174938925E-14
  0.222044604925E-14
 -0.377475828373E-14
 -0.386149445752E-14
 -0.115463194561E-13
 -0.783401121751E-14
  0.268118860447E-13
  0.691807722220E-14
 -0.617561557448E-15
  0.266418831441E-13
  0.114977471988E-13
 -0.347985529281E-14
 -0.244110287539E-13
 -0.332893435040E-13
  0.710403957882E-13
 -0.133330846364E-13
  0.307604521715E-09
 -0.242236786185E-13
 -0.543835362160E-09
 -0.151384241948E-09
 -0.315025783237E-14
 -0.221384232127E-09
  0.280037996264E-09
  0.284494650060E-14
  0.357960189268E-14
 -0.187697080101E-14
  0.962450865533E-10
 -0.616694195710E-15
 -0.112222453552E-10
 -0.339220457279E-10
 -0.616928036434E-11
 -0.424112134301E-12
 -0.159151372636E-10
  0.144782484612E-10
 -0.212675883848E-10
  0.292051244299E-10
  0.239260763979E-10
 -0.114525958161E-10
  0.209154915609E-10
  0.185623495741E-10
  0.118240521541E-10
 -0.416103228262E-10
  0.383027914941E-10
  0.293633242721E-10
  0.120399770015E-09
 -0.299990379760E-09
  0.217581681838E-10
  0.202547319195E-10
  0.656499292429E-09
 -0.428512451217E-09
 -0.713279279391E-09
  0.107935013705E-08
  0.251350468217E-08
 -0.191050262763E-08
  0.350367474616E-09
 -0.157992791072E-08
  0.144347866993E-09
  0.707108822884E-09
  0.348074107731E-09
 -0.164066399355E-09
  0.382672005195E-09
 -0.204323551134E-09
 -0.377835818188E-10
  0.172620884600E-09
  0.402042694275E-09
 -0.432570194941E-09
 -0.818637622101E-09
  0.691027257117E-09
 -0.202433354801E-09
  0.520823034006E-09
 -0.228493755167E-09
 -0.140682326899E-10
 -0.286846484066E-10
  0.747277240087E-11
 -0.175280172321E-10
  0.645725833914E-11
 -0.459670496111E-12
 -0.767550085989E-11
  0.350374243507E-11
  0.435346203531E-11
  0.194677468590E-10
 -0.267685439787E-10
  0.368098086734E-11
 -0.133321149259E-10
  0.248521862811E-11
 -0.154281969145E-10
  0.355456584306E-10
  0.460139287783E-10
 -0.273977542042E-11
 -0.162285261618E-09
 -0.104074734941E-10
  0.458198170378E-09
  0.331776127405E-09
 -0.936019008829E-09
  0.506529419103E-10
  0.699252501388E-09
  0.263656905336E-09
 -0.125426326963E-08
 -0.331494775380E-08
  0.109078075392E-08
  0.387439792054E-09
  0.211419770579E-09
 -0.602633547231E-09
 -0.538548077661E-09
  0.123577430407E-08
  0.556728546293E-09
  0.214574030224E-08
  0.105621875829E-09
  0.726747740980E-09
  0.131158747925E-09
 -0.244655362809E-09
 -0.421438046787E-09
 -0.121261883347E-09
 -0.136888521352E-10
 -0.233761014018E-10
 -0.182370663709E-10
 -0.981730322036E-11
 -0.118765743767E-10
 -0.315590088784E-11
 -0.156909121113E-10
  0.233016887036E-10
  0.374217982990E-10
 -0.231365360898E-10
 -0.189610480095E-10
  0.866816410316E-10
  0.675179027271E-10
 -0.885779886939E-10
 -0.751916029440E-10
 -0.467394898826E-10
  0.716292164471E-10
 -0.600324919983E-10
  0.231996867897E-09
  0.240226415149E-10
 -0.318200327198E-12
  0.442884205872E-09
  0.246613748520E-09
 -0.115767517968E-09
 -0.156149855199E-09
 -0.465335830632E-09
 -0.117835607678E-08
 -0.312139191230E-09
  0.135828698983E-09
  0.563846721049E-10
 -0.520864199861E-09
  0.108687497544E-08
 -0.753478732532E-09
  0.212429400459E-09
  0.361597331938E-10
  0.195958981680E-09
  0.538232187985E-09
 -0.563558670216E-10
 -0.732938878860E-10
  0.170507983557E-08
  0.123828284865E-10
 -0.480009115355E-09
 -0.551756500732E-09
  0.238517647473E-12
 -0.170898950373E-10
 -0.178970761822E-10
 -0.366091358617E-11
 -0.118846330346E-10
 -0.267165877095E-10
 -0.446505896493E-10
  0.875823402517E-10
  0.144212645298E-10
 -0.942407677503E-10
 -0.805030551769E-10
  0.761543382608E-10
 -0.666187556508E-10
  0.127645562956E-09
  0.123665316269E-09
 -0.131286548039E-09
  0.215667241010E-11
  0.501948452854E-09
  0.620124064078E-09
 -0.194140174423E-08
  0.494259147065E-09
  0.139415043746E-08
  0.999633431153E-09
  0.573405047402E-09
  0.345522568890E-09
 -0.343415363421E-09
 -0.963564947450E-09
  0.352924932551E-09
  0.106478788677E-08
 -0.108617071067E-08
 -0.654891688621E-09
  0.101565606446E-08
  0.134283109242E-08
 -0.750454247356E-10
  0.307007808065E-09
 -0.331952711846E-09
 -0.203526293041E-09
  0.193486847811E-08
  0.220687115284E-08
  0.499311958967E-10
 -0.545462472933E-09
  0.299611476254E-09
 -0.348600300969E-09
 -0.170421281254E-10
 -0.264257990490E-10
 -0.440141404226E-10
 -0.449581344375E-12
 -0.107283288156E-10
 -0.645207585276E-11
  0.637410436932E-11
  0.278658129557E-10
  0.895403542978E-11
 -0.760251965548E-10
 -0.414549896147E-10
  0.663947629514E-10
  0.697714316877E-10
 -0.789054845768E-10
 -0.429662997889E-10
  0.224997412195E-09
  0.308044824024E-09
 -0.664421328719E-09
 -0.757892952390E-09
  0.136717089039E-09
  0.490655921274E-09
 -0.958507788765E-09
 -0.585279849759E-09
  0.411921233234E-09
  0.789947801616E-09
 -0.136361059336E-08
 -0.615887227502E-09
  0.113950228333E-08
  0.147789087392E-09
 -0.572801678485E-09
 -0.137525655620E-08
  0.123614493641E-08
  0.186463431154E-08
  0.999096829574E-09
  0.237735539588E-09
 -0.696902334452E-09
 -0.327356794450E-09
 -0.337403643219E-09
  0.252319759704E-09
  0.209282157576E-10
  0.256369563599E-09
  0.324091507971E-09
  0.193303805254E-09
  0.346158939186E-09
 -0.951796670992E-11
 -0.325764771061E-10
  0.406090178845E-11
 -0.504085358524E-11
  0.146652859127E-10
  0.664253834229E-10
 -0.671718314652E-10
  0.368798974432E-09
 -0.877571456476E-09
  0.116370107734E-08
 -0.549456488121E-09
  0.109917467662E-08
  0.952585306208E-09
 -0.329255719911E-09
 -0.126662379500E-08
  0.625797727874E-09
  0.557006531177E-09
 -0.633795037286E-09
  0.198576499428E-09
  0.253983522581E-09
  0.227421874735E-10
 -0.223206496688E-10
 -0.273217212743E-11
  0.661945238206E-11
 -0.723104341162E-10
  0.462273088732E-10
 -0.504916503573E-10
  0.820403541109E-10
 -0.353857570849E-09
  0.664225470633E-09
 -0.100641621252E-08
 -0.459703273711E-10
  0.105183406082E-08
  0.398443020765E-09
 -0.192345633475E-08
  0.154244237521E-08
  0.713491730975E-09
 -0.860016384496E-09
  0.647465015630E-09
SCALARS phi_mu float 1
LOOKUP_TABLE default
 -0.411598696704E-03
 -0.224478199172E-03
 -0.376070693699E-03
 -0.504442849187E-03
 -0.600210215042E-03
 -0.655936493329E-03
 -0.667031956825E-03
 -0.632346958070E-03
 -0.554329063631E-03
 -0.438727619871E-03
 -0.293889903456E-03
 -0.129794148869E-03
  0.430377792181E-04
  0.214548491929E-03
  0.375958842612E-03
  0.520314191736E-03
  0.642731706896E-03
  0.740384913610E-03
  0.812326383042E-03
 -0.118974565702E-04
 -0.730211060833E-02
 -0.730176335043E-02
 -0.775231325285E-02
 -0.775214987130E-02
 -0.806370245309E-02
 -0.806355450479E-02
 -0.832228175547E-02
 -0.832214566940E-02
 -0.851599066029E-02
 -0.851586297313E-02
 -0.863530647929E-02
 -0.863518371461E-02
 -0.867415958538E-02
 -0.867403821062E-02
 -0.863056051571E-02
 -0.863043694439E-02
 -0.850681303959E-02
 -0.850668364082E-02
 -0.830927000554E-02
 -0.830913108213E-02
 -0.804768762635E-02
 -0.804753532346E-02
 -0.773430282553E-02
 -0.773413293869E-02
 -0.738278952490E-02
 -0.738259718541E-02
 -0.700727993822E-02
 -0.700705917201E-02
 -0.662164455003E-02
 -0.662138772471E-02
 -0.623920582561E-02
 -0.623890301666E-02
 -0.587335167362E-02
 -0.587298999592E-02
 -0.554074549846E-02
 -0.554030848170E-02
 -0.527846248173E-02
 -0.527792949795E-02
 -0.170745290609E-02
 -0.168127057112E-02
 -0.248163069382E-02
 -0.246649253837E-02
 -0.226525734453E-02
 -0.101432133808E-01
 -0.101258894598E-01
 -0.110497721146E-01
 -0.110378855794E-01
 -0.113051960686E-01
 -0.112935881595E-01
 -0.115284140583E-01
 -0.115170339860E-01
 -0.116997062206E-01
 -0.116884913715E-01
 -0.118067842400E-01
 -0.117956632047E-01
 -0.118426452759E-01
 -0.118315409743E-01
 -0.118051764293E-01
 -0.117940092351E-01
 -0.116971358126E-01
 -0.116858265976E-01
 -0.115262505742E-01
 -0.115147236452E-01
 -0.113057940137E-01
 -0.112939798741E-01
 -0.110572960369E-01
 -0.110451338882E-01
 -0.108238400314E-01
 -0.108112798017E-01
 -0.107974848348E-01
 -0.107844885300E-01
 -0.957341341319E-02
 -0.955995551386E-02
 -0.879566931904E-02
 -0.878173596817E-02
 -0.820205767683E-02
 -0.818764456385E-02
 -0.768961052892E-02
 -0.767471955850E-02
 -0.723603901939E-02
 -0.722067365982E-02
 -0.217728460711E-02
 -0.212769435714E-02
 -0.348529886937E-02
 -0.329457744923E-02
 -0.338215753663E-02
 -0.145536159769E-01
 -0.144666930674E-01
 -0.143601856809E-01
 -0.143040760037E-01
 -0.147720105328E-01
 -0.147158521199E-01
 -0.151248621582E-01
 -0.150687080091E-01
 -0.153972013558E-01
 -0.153410519969E-01
 -0.155684333821E-01
 -0.155122472151E-01
 -0.156228765097E-01
 -0.155665828403E-01
 -0.155544923046E-01
 -0.154980058718E-01
 -0.153691521335E-01
 -0.153123877728E-01
 -0.150824888108E-01
 -0.150253751917E-01
 -0.147152676308E-01
 -0.146577588449E-01
 -0.142894258972E-01
 -0.142315099972E-01
 -0.138259061868E-01
 -0.137676095943E-01
 -0.133437946163E-01
 -0.132851820941E-01
 -0.128600858117E-01
 -0.128012556895E-01
 -0.123897783706E-01
 -0.123308533576E-01
 -0.119465808564E-01
 -0.118876954069E-01
 -0.115455634353E-01
 -0.114868490159E-01
 -0.112159022508E-01
 -0.111574707797E-01
 -0.305365702886E-02
 -0.288729982871E-02
 -0.502541594484E-02
 -0.456194325128E-02
 -0.506909179878E-02
 -0.208516899594E-01
 -0.205771701777E-01
 -0.197777507220E-01
 -0.196248977484E-01
 -0.201165067934E-01
 -0.199601690238E-01
 -0.204036434548E-01
 -0.202446676325E-01
 -0.206202184853E-01
 -0.204592948700E-01
 -0.207518533612E-01
 -0.205895409254E-01
 -0.207894697909E-01
 -0.206262317358E-01
 -0.207300675966E-01
 -0.205663131033E-01
 -0.205770328661E-01
 -0.204131602271E-01
 -0.203398218516E-01
 -0.201762597485E-01
 -0.200331620072E-01
 -0.198704050180E-01
 -0.196762614586E-01
 -0.195148976285E-01
 -0.192930926220E-01
 -0.191338199671E-01
 -0.190201996307E-01
 -0.188618285664E-01
 -0.187927391824E-01
 -0.186343402462E-01
 -0.176864003857E-01
 -0.175258683146E-01
 -0.171223404925E-01
 -0.169605452954E-01
 -0.169211569990E-01
 -0.167517152946E-01
 -0.803818035440E-02
 -0.789620835881E-02
 -0.554704837328E-02
 -0.504251814476E-02
 -0.844334546998E-02
 -0.743804336511E-02
 -0.777637681651E-02
 -0.252616753824E-01
 -0.244733361556E-01
 -0.255413502509E-01
 -0.251612555062E-01
 -0.254635972396E-01
 -0.251800665451E-01
 -0.256794542111E-01
 -0.252905151701E-01
 -0.260077581406E-01
 -0.256065018148E-01
 -0.262053535262E-01
 -0.257972646377E-01
 -0.262645709736E-01
 -0.258534348286E-01
 -0.261920944031E-01
 -0.257793242417E-01
 -0.259918558877E-01
 -0.255799660663E-01
 -0.256689097732E-01
 -0.252627754817E-01
 -0.254621506901E-01
 -0.250640760059E-01
 -0.254047455965E-01
 -0.251180187333E-01
 -0.252797526773E-01
 -0.248835964012E-01
 -0.246853575809E-01
 -0.243083182140E-01
 -0.244187075295E-01
 -0.240793330158E-01
 -0.245215421019E-01
 -0.246595353092E-01
 -0.249644932228E-01
 -0.245098441674E-01
 -0.160231795505E-01
 -0.155752597700E-01
 -0.932784770043E-02
 -0.901812511597E-02
 -0.738040222689E-02
 -0.646864276672E-02
 -0.114439026095E-01
 -0.957643605319E-02
 -0.117454933150E-01
 -0.131197758369E-01
 -0.129019780070E-01
 -0.135084481044E-01
 -0.132291059090E-01
 -0.137422299649E-01
 -0.134414772256E-01
 -0.138564158808E-01
 -0.135280709819E-01
 -0.139293939235E-01
 -0.135835948404E-01
 -0.139623491395E-01
 -0.136080947286E-01
 -0.139689860716E-01
 -0.136121724572E-01
 -0.139637291741E-01
 -0.136068633510E-01
 -0.139436153477E-01
 -0.135896713327E-01
 -0.138929400782E-01
 -0.135482353944E-01
 -0.138031439055E-01
 -0.134761987429E-01
 -0.136789761600E-01
 -0.133790258551E-01
 -0.135326860182E-01
 -0.132691923063E-01
 -0.143356786575E-01
 -0.141100110486E-01
 -0.158921987750E-01
 -0.158345014788E-01
 -0.159096965217E-01
 -0.155623207102E-01
 -0.117031853879E-01
 -0.113747874275E-01
  0.168996112188E-02
  0.191567221191E-02
  0.451596573112E-02
  0.461536057992E-02
 -0.666970042948E-02
 -0.483801617520E-02
 -0.549283760483E-02
 -0.400262612675E-02
 -0.420550559647E-02
 -0.653351061578E-02
 -0.630336363247E-02
 -0.701921050711E-02
 -0.678392551345E-02
 -0.697801107208E-02
 -0.675013515138E-02
 -0.696701919549E-02
 -0.673742791514E-02
 -0.697737672533E-02
 -0.674850418181E-02
 -0.697094792247E-02
 -0.674670562876E-02
 -0.696732750112E-02
 -0.674770495971E-02
 -0.698683612745E-02
 -0.676744457451E-02
 -0.702444640774E-02
 -0.680179201299E-02
 -0.705647458017E-02
 -0.683181092609E-02
 -0.716167982591E-02
 -0.693519954802E-02
 -0.706985996931E-02
 -0.684962572996E-02
 -0.738511766031E-02
 -0.716891221236E-02
 -0.731491995248E-02
 -0.711460656021E-02
 -0.649996945867E-02
 -0.753319880459E-02
 -0.602980461554E-02
 -0.554325443227E-02
  0.783313615466E-02
  0.812559932820E-02
  0.164427588843E-01
  0.166114919994E-01
  0.379456191149E-02
  0.386105151847E-02
 -0.276781781577E-02
 -0.125723122619E-02
 -0.131430165493E-02
  0.157102476805E-04
 -0.954073038884E-04
  0.118822932200E-02
  0.114887165546E-02
  0.308253824187E-03
  0.772204339228E-04
 -0.903091199689E-03
 -0.640857804683E-03
 -0.870341775226E-03
 -0.775388951297E-03
 -0.860532840306E-03
 -0.764388030802E-03
 -0.705776859832E-03
 -0.610704810242E-03
 -0.706694278051E-03
 -0.611179508269E-03
 -0.702982928487E-03
 -0.607405469054E-03
 -0.824462302262E-03
 -0.727491802536E-03
 -0.839887856273E-03
 -0.743811484426E-03
 -0.444191100542E-03
 -0.834612408653E-03
  0.165790506799E-03
  0.418268420617E-03
 -0.311322015477E-03
 -0.190156104509E-03
 -0.686222134391E-03
 -0.573122175410E-03
 -0.200383376796E-02
 -0.188938621432E-02
 -0.215133652091E-02
 -0.204928324092E-02
  0.167126113520E-01
  0.167782523786E-01
  0.217511926130E-01
  0.219712796097E-01
  0.534961895028E-02
  0.537497608457E-02
  0.134977395646E-02
  0.187256990466E-02
  0.243250848507E-02
  0.296777777839E-02
  0.307539384812E-02
  0.399545240361E-02
  0.401048589265E-02
  0.350113749573E-02
  0.351495967607E-02
  0.407063454986E-02
  0.408580314979E-02
  0.443093319518E-02
  0.444327611149E-02
  0.463526413660E-02
  0.464467743222E-02
  0.501193640230E-02
  0.501850458386E-02
  0.505079309369E-02
  0.505913217057E-02
  0.502062932355E-02
  0.503290242341E-02
  0.469342363067E-02
  0.470852077706E-02
  0.446106184972E-02
  0.447770569008E-02
  0.357109581819E-02
  0.358976452844E-02
  0.320704531623E-02
  0.322712014895E-02
  0.247533258516E-02
  0.249431660632E-02
  0.162328663282E-02
  0.164676003624E-02
  0.130195746897E-02
  0.132580357604E-02
  0.100785913673E-01
  0.101080003951E-01
  0.227116857277E-01
  0.226470370544E-01
  0.247781100561E-01
  0.248007121681E-01
  0.545730526210E-02
  0.552660669200E-02
  0.404937370331E-02
  0.420808125637E-02
  0.453518750146E-02
  0.476141617401E-02
  0.481341399427E-02
  0.122724668472E-03
  0.193944408238E-03
  0.134449750476E-03
  0.668466669595E-03
  0.786507564044E-03
  0.874325080076E-03
  0.913107745873E-03
  0.876721038367E-03
  0.741735042538E-03
  0.546706491150E-03
  0.523913186044E-04
 -0.137136667036E-03
 -0.822488800623E-03
 -0.582008622587E-03
  0.674402690493E-04
  0.101643221278E-01
  0.215994033206E-01
  0.150643327943E-01
  0.345139316050E-02
  0.419091076765E-02
  0.124830006826E-03
  0.221948456783E-03
  0.164249529917E-03
  0.699660860846E-03
  0.818741893454E-03
  0.907180488866E-03
  0.946148538787E-03
  0.909490758204E-03
  0.773903069785E-03
  0.577833096031E-03
  0.821445719339E-04
 -0.109131331556E-03
 -0.796386389993E-03
 -0.557624036446E-03
  0.891202944331E-04
  0.101852644002E-01
  0.216168938787E-01
  0.150764986902E-01
  0.346539715247E-02
SCALARS phi_sigma float 1
LOOKUP_TABLE default
  0.411598696704E-03
  0.224478199172E-03
  0.376070693699E-03
  0.504442849187E-03
  0.600210215042E-03
  0.655936493329E-03
  0.667031956825E-03
  0.632346958070E-03
  0.554329063631E-03
  0.438727619871E-03
  0.293889903456E-03
  0.129794148869E-03
 -0.430377792181E-04
 -0.214548491929E-03
 -0.375958842612E-03
 -0.520314191736E-03
 -0.642731706896E-03
 -0.740384913610E-03
 -0.812326383042E-03
  0.118974565702E-04
  0.730211060833E-02
  0.730176335043E-02
  0.775231325285E-02
  0.775214987130E-02
  0.806370245309E-02
  0.806355450479E-02
  0.832228175547E-02
  0.832214566940E-02
  0.851599066029E-02
  0.851586297313E-02
  0.863530647929E-02
  0.863518371461E-02
  0.867415958538E-02
  0.867403821062E-02
  0.863056051571E-02
  0.863043694439E-02
  0.850681303959E-02
  0.850668364082E-02
  0.830927000554E-02
  0.830913108213E-02
  0.804768762635E-02
  0.804753532346E-02
  0.773430282553E-02
  0.773413293869E-02
  0.738278952490E-02
  0.738259718541E-02
  0.700727993822E-02
  0.700705917201E-02
  0.662164455003E-02
  0.662138772471E-02
  0.623920582561E-02
  0.623890301666E-02