# vtk DataFile Version 3.0
MachLine results file. Generated by MachLine, USU AeroLab (c) 2022.
ASCII
DATASET POLYDATA
POINTS                4429 float
  0.926705092196E-06  0.000000000000E+00  0.000000000000E+00
  0.569298245607E-06  0.105263157890E+00  0.000000000000E+00
  0.350477555252E-06  0.210526315790E+00  0.000000000000E+00
  0.424929194866E-06  0.315789473680E+00  0.000000000000E+00
  0.752830304462E-06  0.421052631580E+00  0.000000000000E+00
  0.119694675428E-05  0.526315789470E+00  0.000000000000E+00
  0.127401117048E-05  0.631578947370E+00  0.000000000000E+00
  0.171769527788E-05  0.736842105260E+00  0.000000000000E+00
  0.240268026923E-05  0.842105263160E+00  0.000000000000E+00
  0.170825522256E-05  0.947368421050E+00  0.000000000000E+00
  0.107161742034E-05  0.105263157890E+01  0.000000000000E+00
  0.123557662458E-05  0.115789473680E+01  0.000000000000E+00
  0.235474246253E-05  0.126315789470E+01  0.000000000000E+00
  0.190122413542E-05  0.136842105260E+01  0.000000000000E+00
  0.112963384460E-05  0.147368421050E+01  0.000000000000E+00
  0.156374937053E-05  0.157894736840E+01  0.000000000000E+00
  0.292430136466E-05  0.168421052630E+01  0.000000000000E+00
  0.260587694094E-05  0.178947368420E+01  0.000000000000E+00
  0.173789768437E-05  0.189473684210E+01  0.000000000000E+00
  0.223312588739E-06  0.199999866934E+01 -0.361084054131E-22
  0.148670899238E-05 -0.105263157890E+00  0.000000000000E+00
  0.100823748942E-05 -0.210526315790E+00  0.000000000000E+00
  0.141198101006E-05 -0.315789473680E+00  0.000000000000E+00
  0.851841807856E-06 -0.421052631580E+00  0.000000000000E+00
  0.103033786581E-05 -0.526315789470E+00  0.000000000000E+00
  0.101677951108E-05 -0.631578947370E+00  0.000000000000E+00
  0.192206670183E-05 -0.736842105260E+00  0.000000000000E+00
  0.133692145202E-05 -0.842105263160E+00  0.000000000000E+00
  0.112324848855E-05 -0.947368421050E+00  0.000000000000E+00
  0.110439676750E-05 -0.105263157890E+01  0.000000000000E+00
  0.181746512778E-05 -0.115789473680E+01  0.000000000000E+00
  0.264645501451E-05 -0.126315789470E+01  0.000000000000E+00
  0.335357542601E-05 -0.136842105260E+01  0.000000000000E+00
  0.240851847913E-05 -0.147368421050E+01  0.000000000000E+00
  0.137896268986E-05 -0.157894736840E+01  0.000000000000E+00
  0.528853669283E-06 -0.168421052630E+01  0.000000000000E+00
  0.325702662424E-06 -0.178947368420E+01  0.000000000000E+00
  0.170301537406E-05 -0.189473684210E+01  0.000000000000E+00
  0.351795504216E-06 -0.199999790375E+01  0.000000000000E+00
  0.694736842101E-06  0.526315789450E-01  0.000000000000E+00
  0.665789473682E-06  0.157894736840E+00  0.000000000000E+00
  0.347845007937E-06  0.263157894735E+00  0.000000000000E+00
  0.347727054831E-06  0.368421052630E+00  0.000000000000E+00
  0.694949454418E-06  0.473684210525E+00  0.000000000000E+00
  0.124508448288E-05  0.578947368420E+00  0.000000000000E+00
  0.138980595239E-05  0.684210526315E+00  0.000000000000E+00
  0.179480099212E-05  0.789473684210E+00  0.000000000000E+00
  0.257635947194E-05  0.894736842105E+00  0.000000000000E+00
  0.188189172919E-05  0.999999999975E+00  0.000000000000E+00
  0.695417022749E-06  0.110526315785E+01  0.000000000000E+00
  0.115855691804E-05  0.121052631575E+01  0.000000000000E+00
  0.272122689485E-05  0.131578947365E+01  0.000000000000E+00
  0.222924934021E-05  0.142105263155E+01  0.000000000000E+00
  0.695586383868E-06  0.152631578945E+01  0.000000000000E+00
  0.139051386383E-05  0.163157894735E+01  0.000000000000E+00
  0.335803265057E-05  0.173684210525E+01  0.000000000000E+00
  0.289523446057E-05  0.184210526315E+01  0.000000000000E+00
  0.136167283502E-05  0.194736842105E+01  0.000000000000E+00
  0.926856784036E-06 -0.526315789450E-01  0.000000000000E+00
  0.156412750018E-05 -0.157894736840E+00  0.000000000000E+00
  0.116117000112E-05 -0.263157894735E+00  0.000000000000E+00
  0.133467728300E-05 -0.368421052630E+00  0.000000000000E+00
  0.116687214114E-05 -0.473684210525E+00  0.000000000000E+00
  0.701215067412E-06 -0.578947368420E+00  0.000000000000E+00
  0.113165585460E-05 -0.684210526315E+00  0.000000000000E+00
  0.208583500961E-05 -0.789473684210E+00  0.000000000000E+00
  0.162585438681E-05 -0.894736842105E+00  0.000000000000E+00
  0.699587795166E-06 -0.999999999975E+00  0.000000000000E+00
  0.116191628366E-05 -0.110526315785E+01  0.000000000000E+00
  0.197184519774E-05 -0.121052631575E+01  0.000000000000E+00
  0.278133582324E-05 -0.131578947365E+01  0.000000000000E+00
  0.350802531444E-05 -0.142105263155E+01  0.000000000000E+00
  0.255441098682E-05 -0.152631578945E+01  0.000000000000E+00
  0.991751887959E-06 -0.163157894735E+01  0.000000000000E+00
  0.444713850733E-06 -0.173684210525E+01  0.000000000000E+00
  0.211707519148E-06 -0.184210526315E+01  0.000000000000E+00
  0.171784975202E-05 -0.194736842105E+01  0.000000000000E+00
  0.134828184069E-01  0.526315789450E-01 -0.117901241007E-02
  0.134828284961E-01  0.105263157890E+00 -0.117889709036E-02
  0.134828335408E-01  0.526315789450E-01  0.117883942914E-02
  0.134828436306E-01  0.105263157890E+00  0.117872410282E-02
  0.134828083206E-01  0.000000000000E+00 -0.117912769734E-02
  0.134828335412E-01  0.000000000000E+00  0.117883942444E-02
  0.134828209325E-01  0.157894736840E+00 -0.117898354304E-02
  0.134828310186E-01  0.157894736840E+00  0.117886825769E-02
  0.134828083195E-01  0.210526315790E+00 -0.117912770943E-02
  0.134828184069E-01  0.210526315790E+00  0.117901241007E-02
  0.134827982150E-01  0.263157894735E+00 -0.117924320504E-02
  0.134827956946E-01  0.263157894735E+00  0.117927201330E-02
  0.134827830699E-01  0.315789473680E+00 -0.117941631400E-02
  0.134827805474E-01  0.315789473680E+00  0.117944514639E-02
  0.134827982076E-01  0.368421052630E+00 -0.117924328951E-02
  0.134828007299E-01  0.368421052630E+00  0.117921445994E-02
  0.134828032529E-01  0.421052631580E+00 -0.117918562180E-02
  0.134828057761E-01  0.421052631580E+00  0.117915678097E-02
  0.134828284818E-01  0.473684210525E+00 -0.117889725379E-02
  0.134828310052E-01  0.473684210525E+00  0.117886841175E-02
  0.134828537112E-01  0.526315789470E+00 -0.117860887994E-02
  0.134828562340E-01  0.526315789470E+00  0.117858004443E-02
  0.134828764575E-01  0.578947368420E+00  0.117834888901E-02
  0.134828991859E-01  0.631578947370E+00  0.117808910257E-02
  0.134828764396E-01  0.578947368420E+00 -0.117834909342E-02
  0.134828991679E-01  0.631578947370E+00 -0.117808930780E-02
  0.134828865313E-01  0.684210526315E+00 -0.117823374531E-02
  0.134828890542E-01  0.684210526315E+00  0.117820490790E-02
  0.134828865093E-01  0.736842105260E+00 -0.117823399664E-02
  0.134828890322E-01  0.736842105260E+00  0.117820515943E-02
  0.134829243532E-01  0.789473684210E+00  0.117780143884E-02
  0.134829218304E-01  0.789473684210E+00 -0.117783027487E-02
  0.134829571513E-01  0.842105263160E+00 -0.117742655428E-02
  0.134829596742E-01  0.842105263160E+00  0.117739771785E-02
  0.134829924723E-01  0.894736842105E+00 -0.117702283408E-02
  0.134829949951E-01  0.894736842105E+00  0.117699399761E-02
  0.134830252703E-01  0.947368421050E+00 -0.117664795046E-02
  0.134830277932E-01  0.947368421050E+00  0.117661911381E-02
  0.134829268841E-01  0.999999999975E+00  0.117777251048E-02
  0.134829319284E-01  0.999999999975E+00 -0.117771485409E-02
  0.134828385858E-01  0.105263157890E+01 -0.117878176460E-02
  0.134828335410E-01  0.105263157890E+01  0.117883942699E-02
  0.134828284970E-01  0.110526315785E+01 -0.117889708045E-02
  0.134828335413E-01  0.110526315785E+01  0.117883942387E-02
  0.134828133635E-01  0.115789473680E+01  0.117907005681E-02
  0.134828083199E-01  0.115789473680E+01 -0.117912770597E-02
  0.134828638183E-01  0.121052631575E+01 -0.117849335572E-02
  0.134828688631E-01  0.121052631575E+01  0.117843569330E-02
  0.134829394958E-01  0.126315789470E+01  0.117762835854E-02
  0.134829344501E-01  0.126315789470E+01 -0.117768603112E-02
  0.134830000449E-01  0.131578947365E+01 -0.117693627819E-02
  0.134830050908E-01  0.131578947365E+01  0.117687860369E-02
  0.134830656401E-01  0.136842105260E+01 -0.117618652226E-02
  0.134830706859E-01  0.136842105260E+01  0.117612884841E-02
  0.134829622036E-01  0.142105263155E+01 -0.117736880618E-02
  0.134829571590E-01  0.142105263155E+01  0.117742646701E-02
  0.134828486760E-01  0.147368421050E+01  0.117866643257E-02
  0.134828537212E-01  0.147368421050E+01 -0.117860876607E-02
  0.134828335434E-01  0.152631578945E+01  0.117883940000E-02
  0.134828285006E-01  0.152631578945E+01 -0.117889703877E-02
  0.134827931952E-01  0.157894736840E+01 -0.117930058210E-02
  0.134827982360E-01  0.157894736840E+01  0.117924296537E-02
  0.134828941007E-01  0.163157894735E+01  0.117814722610E-02
  0.134828890561E-01  0.163157894735E+01 -0.117820488639E-02
  0.134830000447E-01  0.168421052630E+01  0.117693628047E-02
  0.134829949990E-01  0.168421052630E+01 -0.117699395394E-02
  0.134830605944E-01  0.173684210525E+01 -0.117624419441E-02
  0.134831261899E-01  0.178947368420E+01 -0.117549443475E-02
  0.134830631393E-01  0.173684210525E+01  0.117621510641E-02
  0.134831287348E-01  0.178947368420E+01  0.117546534632E-02
  0.134830202459E-01  0.184210526315E+01 -0.117670538012E-02
  0.134830177237E-01  0.184210526315E+01  0.117673420958E-02
  0.134829143008E-01  0.189473684210E+01 -0.117791633825E-02
  0.134829117782E-01  0.189473684210E+01  0.117794517110E-02
  0.134828890828E-01  0.194736842105E+01 -0.117820458157E-02
  0.134828890825E-01  0.194736842105E+01  0.117820458505E-02
  0.134828608812E-01  0.199999989371E+01  0.117852692755E-02
  0.134828608806E-01  0.199999989371E+01 -0.117852693332E-02
  0.134828336843E-01  0.200045867527E+01 -0.108613685821E-02
  0.134828311717E-01  0.200045868636E+01  0.108616334697E-02
  0.134828151046E-01  0.200083355076E+01 -0.833550739148E-03
  0.134828151046E-01  0.200083355076E+01  0.833550739081E-03
  0.134829270473E-01  0.200108515262E+01 -0.458263325067E-03
  0.134829295706E-01  0.200108512601E+01  0.458252191138E-03
[...]
POINT_DATA                4429
SCALARS phi float 1
LOOKUP_TABLE default
  0.132348898008E-22
 -0.330872245021E-23
  0.248154183766E-23
  0.248154183766E-23
 -0.661744490042E-23
 -0.330872245021E-23
  0.000000000000E+00
 -0.661744490042E-23
  0.000000000000E+00
  0.000000000000E+00
 -0.992616735064E-23
  0.992616735064E-23
 -0.661744490042E-23
  0.132348898008E-22
  0.992616735064E-23
 -0.330872245021E-23
 -0.661744490042E-23
  0.000000000000E+00
  0.132348898008E-22
 -0.165436122511E-23
  0.132348898008E-22
  0.992616735064E-23
  0.198523347013E-22
  0.000000000000E+00
 -0.165436122511E-22
  0.661744490042E-23
  0.132348898008E-22
 -0.992616735064E-23
  0.132348898008E-22
  0.992616735064E-23
 -0.264697796017E-22
 -0.198523347013E-22
  0.198523347013E-22
 -0.661744490042E-23
 -0.992616735064E-23
  0.330872245021E-23
  0.000000000000E+00
  0.000000000000E+00
  0.165436122511E-23
  0.165436122511E-23
  0.330872245021E-23
  0.165436122511E-23
 -0.827180612553E-24
 -0.330872245021E-23
  0.000000000000E+00
  0.661744490042E-23
  0.661744490042E-23
 -0.661744490042E-23
  0.000000000000E+00
 -0.330872245021E-23
  0.330872245021E-23
  0.661744490042E-23
  0.661744490042E-23
 -0.330872245021E-23
  0.330872245021E-23
  0.132348898008E-22
 -0.661744490042E-23
 -0.661744490042E-23
 -0.661744490042E-23
  0.330872245021E-23
  0.661744490042E-23
  0.000000000000E+00
 -0.132348898008E-22
  0.165436122511E-23
 -0.992616735064E-23
  0.000000000000E+00
  0.330872245021E-23
  0.000000000000E+00
  0.000000000000E+00
  0.132348898008E-22
 -0.198523347013E-22
 -0.132348898008E-22
  0.132348898008E-22
 -0.661744490042E-23
  0.000000000000E+00
 -0.124077091883E-23
 -0.330872245021E-23
  0.271050543121E-19
 -0.271050543121E-19
 -0.325260651746E-18
 -0.189735380185E-18
  0.000000000000E+00
  0.542101086243E-18
  0.271050543121E-19
 -0.149077798717E-17
 -0.108420217249E-18
  0.325260651746E-18
 -0.271050543121E-19
 -0.105709711817E-17
  0.000000000000E+00
 -0.379470760370E-18
  0.542101086243E-19
 -0.758941520740E-18
  0.813151629364E-19
  0.731836466428E-18
 -0.542101086243E-19
  0.113841228111E-17
 -0.813151629364E-19
 -0.243945488809E-18
 -0.813151629364E-19
  0.000000000000E+00
  0.704731412116E-18
 -0.813151629364E-19
  0.000000000000E+00
  0.596311194867E-18
  0.000000000000E+00
  0.623416249179E-18
  0.271050543121E-19
 -0.975781955237E-18
  0.108420217249E-18
 -0.406575814682E-18
 -0.271050543121E-19
  0.623416249179E-18
 -0.813151629364E-19
  0.271050543121E-18
  0.271050543121E-19
 -0.271050543121E-19
 -0.135525271561E-18
 -0.867361737988E-18
  0.271050543121E-19
 -0.894466792301E-18
 -0.108420217249E-18
  0.542101086243E-19
 -0.271050543121E-19
 -0.271050543121E-18
 -0.542101086243E-19
  0.379470760370E-18
 -0.813151629364E-19
 -0.650521303491E-18
 -0.271050543121E-19
 -0.298155597434E-18
 -0.542101086243E-19
  0.623416249179E-18
 -0.271050543121E-19
  0.352365706058E-18
 -0.542101086243E-19
 -0.135525271561E-18
 -0.271050543121E-19
 -0.135525271561E-18
 -0.542101086243E-19
  0.271050543121E-19
 -0.542101086243E-19
  0.813151629364E-19
  0.271050543121E-19
 -0.813151629364E-19
  0.786046575052E-18
  0.271050543121E-18
  0.000000000000E+00
  0.894466792301E-18
  0.542101086243E-19
  0.162630325873E-18
  0.108420217249E-18
 -0.867361737988E-18
  0.108420217249E-18
  0.542101086243E-19
  0.000000000000E+00
 -0.271050543121E-19
 -0.271050543121E-19
  0.271050543121E-19
  0.271050543121E-19
  0.542101086243E-19
  0.542101086243E-19
 -0.271050543121E-19
  0.189735380185E-18
  0.271050543121E-19
 -0.162630325873E-18
  0.813151629364E-19
  0.542101086243E-19
  0.813151629364E-19
 -0.514996031931E-18
  0.000000000000E+00
  0.135525271561E-18
  0.271050543121E-19
  0.433680868994E-18
 -0.108420217249E-18
  0.108420217249E-18
 -0.108420217249E-18
 -0.325260651746E-18
 -0.542101086243E-19
 -0.514996031931E-18
 -0.271050543121E-19
  0.298155597434E-18
  0.813151629364E-19
 -0.162630325873E-18
 -0.542101086243E-19
 -0.352365706058E-18
 -0.135525271561E-18
 -0.216840434497E-18
  0.271050543121E-19
  0.813151629364E-18
 -0.813151629364E-19
  0.000000000000E+00
 -0.542101086243E-18
  0.216840434497E-18
 -0.813151629364E-19
  0.623416249179E-18
  0.271050543121E-19
 -0.243945488809E-18
  0.000000000000E+00
  0.352365706058E-18
  0.542101086243E-19
  0.216840434497E-18
 -0.271050543121E-19
 -0.127393755267E-17
  0.271050543121E-19
  0.542101086243E-19
  0.542101086243E-19
  0.108420217249E-18
 -0.271050543121E-18
  0.542101086243E-18
  0.271050543121E-19
  0.216840434497E-18
  0.542101086243E-19
  0.379470760370E-18
  0.000000000000E+00
  0.135525271561E-18
  0.135525271561E-18
  0.189735380185E-18
 -0.271050543121E-19
 -0.111130722680E-17
 -0.108420217249E-18
  0.124683249836E-17
  0.271050543121E-19
 -0.325260651746E-18
 -0.542101086243E-19
 -0.596311194867E-18
 -0.271050543121E-19
 -0.542101086243E-19
  0.975781955237E-18
  0.813151629364E-19
  0.271050543121E-19
  0.379470760370E-18
 -0.108420217249E-18
 -0.162630325873E-18
  0.108420217249E-18
 -0.623416249179E-18
  0.271050543121E-19
 -0.542101086243E-19
  0.000000000000E+00
  0.000000000000E+00
  0.271050543121E-19
 -0.542101086243E-19
  0.000000000000E+00
  0.000000000000E+00
 -0.542101086243E-19
  0.542101086243E-19
 -0.162630325873E-18
  0.162630325873E-18
 -0.379470760370E-18
  0.216840434497E-18
 -0.216840434497E-18
 -0.108420217249E-18
 -0.271050543121E-18
  0.542101086243E-19
 -0.271050543121E-18
  0.216840434497E-18
  0.216840434497E-18
  0.379470760370E-18
  0.542101086243E-19
  0.542101086243E-19
  0.108420217249E-18
  0.542101086243E-19
  0.108420217249E-18
  0.108420217249E-18
  0.108420217249E-18
 -0.542101086243E-19
 -0.487890977618E-18
 -0.108420217249E-18
 -0.162630325873E-18
  0.216840434497E-18
  0.542101086243E-19
  0.108420217249E-18
 -0.271050543121E-18
  0.108420217249E-18
  0.542101086243E-19
 -0.542101086243E-19
  0.108420217249E-18
 -0.325260651746E-18
 -0.542101086243E-19
  0.542101086243E-19
 -0.542101086243E-19
  0.000000000000E+00
 -0.216840434497E-18
  0.162630325873E-18
 -0.108420217249E-18
  0.108420217249E-18
 -0.542101086243E-19
 -0.542101086243E-19
 -0.108420217249E-18
  0.000000000000E+00
  0.000000000000E+00
 -0.542101086243E-19
  0.162630325873E-18
 -0.216840434497E-18
 -0.162630325873E-18
  0.000000000000E+00
 -0.487890977618E-18
  0.000000000000E+00
  0.108420217249E-18
  0.000000000000E+00
 -0.271050543121E-18
  0.108420217249E-18
  0.162630325873E-18
 -0.271050543121E-18
 -0.162630325873E-18
  0.542101086243E-19
  0.379470760370E-18
  0.542101086243E-19
  0.542101086243E-19
 -0.325260651746E-18
 -0.162630325873E-18
  0.000000000000E+00
 -0.108420217249E-18
 -0.162630325873E-18
  0.108420217249E-18
  0.542101086243E-19
 -0.271050543121E-18
  0.000000000000E+00
  0.162630325873E-18
  0.487890977618E-18
  0.162630325873E-18
  0.162630325873E-18
  0.542101086243E-19
  0.487890977618E-18
 -0.542101086243E-19
  0.325260651746E-18
 -0.433680868994E-18
  0.000000000000E+00
  0.162630325873E-18
  0.108420217249E-18
 -0.216840434497E-18
  0.000000000000E+00
  0.542101086243E-19
  0.000000000000E+00
  0.162630325873E-18
  0.108420217249E-18
 -0.162630325873E-18
 -0.108420217249E-18
 -0.325260651746E-18
 -0.108420217249E-18
  0.542101086243E-19
  0.216840434497E-18
 -0.216840434497E-18
 -0.108420217249E-18
  0.000000000000E+00
  0.108420217249E-18
 -0.325260651746E-18
 -0.216840434497E-18
  0.216840434497E-18
  0.000000000000E+00
  0.433680868994E-18
  0.000000000000E+00
  0.000000000000E+00
  0.108420217249E-18
 -0.162630325873E-18
  0.379470760370E-18
  0.000000000000E+00
  0.108420217249E-18
 -0.162630325873E-18
  0.542101086243E-19
  0.433680868994E-18
  0.000000000000E+00
 -0.162630325873E-18
  0.162630325873E-18
 -0.162630325873E-18
 -0.433680868994E-18
  0.000000000000E+00
 -0.542101086243E-19
 -0.162630325873E-18
  0.000000000000E+00
  0.108420217249E-18
 -0.108420217249E-18
 -0.542101086243E-19
  0.542101086243E-19
 -0.542101086243E-19
  0.000000000000E+00
  0.000000000000E+00
  0.542101086243E-19
  0.000000000000E+00
  0.542101086243E-19
  0.000000000000E+00
  0.000000000000E+00
  0.216840434497E-18
  0.000000000000E+00
 -0.216840434497E-18
  0.162630325873E-18
  0.108420217249E-18
  0.271050543121E-18
 -0.108420217249E-18
  0.108420217249E-18
  0.216840434497E-18
 -0.162630325873E-18
 -0.433680868994E-18
  0.433680868994E-18
 -0.542101086243E-19
  0.542101086243E-19
  0.108420217249E-18
 -0.108420217249E-18
 -0.108420217249E-18
  0.108420217249E-18
 -0.325260651746E-18
  0.325260651746E-18
  0.542101086243E-19
  0.542101086243E-19
  0.108420217249E-18
  0.000000000000E+00
  0.000000000000E+00
  0.542101086243E-19
 -0.271050543121E-18
  0.542101086243E-19
  0.108420217249E-18
  0.542101086243E-19
 -0.325260651746E-18
 -0.542101086243E-19
  0.108420217249E-18
  0.108420217249E-18
 -0.108420217249E-18
 -0.108420217249E-18
 -0.542101086243E-19
  0.000000000000E+00
 -0.325260651746E-18
  0.000000000000E+00
  0.542101086243E-19
  0.108420217249E-18
 -0.542101086243E-19
  0.162630325873E-18
  0.108420217249E-18
  0.108420217249E-18
 -0.108420217249E-18
  0.000000000000E+00
 -0.975781955237E-18
 -0.650521303491E-18
 -0.325260651746E-18
 -0.108420217249E-18
 -0.433680868994E-18
  0.867361737988E-18
 -0.650521303491E-18
  0.000000000000E+00
  0.216840434497E-18
 -0.325260651746E-18
  0.108420217249E-18
  0.433680868994E-18
 -0.325260651746E-18
  0.000000000000E+00
  0.000000000000E+00
 -0.108420217249E-18
  0.325260651746E-18
  0.216840434497E-18
 -0.216840434497E-18
  0.867361737988E-18
  0.108420217249E-18
 -0.108420217249E-18
  0.433680868994E-18
  0.108420217249E-17
 -0.433680868994E-18
 -0.216840434497E-18
 -0.216840434497E-18
 -0.433680868994E-18
  0.216840434497E-18
  0.433680868994E-18
  0.216840434497E-18
 -0.325260651746E-18
  0.000000000000E+00
 -0.216840434497E-18
 -0.650521303491E-18
  0.108420217249E-18
  0.000000000000E+00
  0.542101086243E-18
  0.216840434497E-18
  0.108420217249E-18
  0.000000000000E+00
  0.000000000000E+00
 -0.216840434497E-18
 -0.325260651746E-18
  0.867361737988E-18
  0.108420217249E-18
  0.650521303491E-18
  0.325260651746E-18
  0.650521303491E-18
  0.216840434497E-18
  0.650521303491E-18
  0.542101086243E-18
  0.000000000000E+00
  0.108420217249E-18
 -0.650521303491E-18
 -0.325260651746E-18
  0.216840434497E-18
  0.108420217249E-18
  0.000000000000E+00
 -0.758941520740E-18
  0.108420217249E-18
  0.108420217249E-18
 -0.433680868994E-18
  0.108420217249E-18
 -0.433680868994E-18
 -0.325260651746E-18
  0.216840434497E-18
  0.325260651746E-18
 -0.216840434497E-18
 -0.108420217249E-18
  0.325260651746E-18
  0.975781955237E-18
 -0.216840434497E-18
 -0.216840434497E-18
  0.108420217249E-18
  0.216840434497E-18
  0.216840434497E-18
 -0.433680868994E-18
  0.108420217249E-18
  0.000000000000E+00
  0.108420217249E-18
 -0.108420217249E-18
  0.000000000000E+00
  0.000000000000E+00
 -0.216840434497E-18
  0.000000000000E+00
  0.000000000000E+00
 -0.162630325873E-18
  0.108420217249E-18
  0.542101086243E-19
  0.000000000000E+00
  0.271050543121E-18
 -0.867361737988E-18
 -0.216840434497E-18
  0.216840434497E-18
  0.433680868994E-18
  0.216840434497E-18
 -0.325260651746E-18
  0.108420217249E-18
  0.216840434497E-18
  0.000000000000E+00
 -0.325260651746E-18
  0.650521303491E-18
  0.216840434497E-18
 -0.325260651746E-18
  0.000000000000E+00
  0.542101086243E-18
 -0.216840434497E-18
  0.108420217249E-18
  0.108420217249E-18
 -0.108420217249E-18
 -0.433680868994E-18
  0.140946282423E-17
  0.108420217249E-18
  0.108420217249E-18
 -0.650521303491E-18
  0.000000000000E+00
  0.000000000000E+00
 -0.108420217249E-18
  0.108420217249E-18
  0.650521303491E-18
 -0.433680868994E-18
  0.000000000000E+00
  0.000000000000E+00
 -0.325260651746E-18
  0.216840434497E-18
 -0.650521303491E-18
 -0.108420217249E-18
  0.867361737988E-18
 -0.325260651746E-18
  0.108420217249E-18
 -0.216840434497E-18
  0.000000000000E+00
  0.758941520740E-18
  0.000000000000E+00
  0.650521303491E-18
 -0.325260651746E-18
 -0.758941520740E-18
  0.000000000000E+00
  0.108420217249E-18
 -0.325260651746E-18
  0.216840434497E-18
 -0.433680868994E-18
  0.325260651746E-18
  0.975781955237E-18
 -0.325260651746E-18
  0.000000000000E+00
 -0.108420217249E-18
  0.325260651746E-18
 -0.650521303491E-18
  0.216840434497E-18
  0.650521303491E-18
  0.758941520740E-18
 -0.108420217249E-18
 -0.216840434497E-18
  0.216840434497E-18
 -0.216840434497E-18
 -0.433680868994E-18
 -0.542101086243E-18
  0.000000000000E+00
 -0.542101086243E-18
  0.216840434497E-18
  0.216840434497E-18
 -0.433680868994E-18
 -0.325260651746E-18
  0.433680868994E-18
 -0.325260651746E-18
  0.216840434497E-18
  0.000000000000E+00
 -0.108420217249E-18
  0.000000000000E+00
  0.108420217249E-18
  0.216840434497E-18
 -0.108420217249E-18
 -0.108420217249E-18
  0.108420217249E-18
 -0.216840434497E-18
 -0.216840434497E-18
  0.108420217249E-18
 -0.108420217249E-18
 -0.325260651746E-18
 -0.271050543121E-18
  0.000000000000E+00
 -0.433680868994E-18
  0.216840434497E-18
  0.000000000000E+00
 -0.216840434497E-18
 -0.216840434497E-18
 -0.433680868994E-18
  0.433680868994E-18
  0.216840434497E-18
  0.173472347598E-17
 -0.108420217249E-17
  0.000000000000E+00
  0.650521303491E-18
 -0.151788304148E-17
  0.108420217249E-17
 -0.650521303491E-18
  0.216840434497E-18
  0.000000000000E+00
 -0.108420217249E-17
 -0.216840434497E-18
 -0.433680868994E-18
  0.151788304148E-17
 -0.433680868994E-18
 -0.173472347598E-17
  0.216840434497E-18
 -0.130104260698E-17
  0.108420217249E-17
 -0.650521303491E-18
  0.650521303491E-18
 -0.130104260698E-17
 -0.130104260698E-17
  0.000000000000E+00
 -0.130104260698E-17
 -0.433680868994E-18
  0.433680868994E-18
  0.433680868994E-18
  0.433680868994E-18
 -0.867361737988E-18
  0.650521303491E-18
  0.325260651746E-18
 -0.975781955237E-18
  0.433680868994E-18
 -0.325260651746E-18
 -0.433680868994E-18
  0.325260651746E-18
  0.433680868994E-18
 -0.108420217249E-18
  0.000000000000E+00
  0.130104260698E-17
 -0.650521303491E-18
  0.216840434497E-18
 -0.433680868994E-18
  0.216840434497E-18
 -0.650521303491E-18
  0.108420217249E-17
  0.216840434497E-18
  0.000000000000E+00
  0.216840434497E-18
  0.650521303491E-18
 -0.216840434497E-18
  0.650521303491E-18
 -0.216840434497E-18
 -0.867361737988E-18
 -0.216840434497E-18
  0.650521303491E-18
 -0.216840434497E-18
  0.216840434497E-18
  0.650521303491E-18
  0.433680868994E-18
 -0.650521303491E-18
  0.130104260698E-17
  0.650521303491E-18
 -0.867361737988E-18
 -0.867361737988E-18
 -0.433680868994E-18
  0.216840434497E-18
 -0.173472347598E-17
  0.867361737988E-18
  0.433680868994E-18
  0.000000000000E+00
  0.000000000000E+00
  0.000000000000E+00
 -0.433680868994E-18
 -0.216840434497E-18
 -0.758941520740E-18
 -0.325260651746E-18
 -0.542101086243E-18
  0.108420217249E-18
  0.867361737988E-18
  0.325260651746E-18
  0.216840434497E-18
  0.216840434497E-18
  0.216840434497E-18
 -0.216840434497E-18
 -0.867361737988E-18
  0.000000000000E+00
  0.433680868994E-18
  0.108420217249E-17
 -0.433680868994E-18
  0.151788304148E-17
 -0.108420217249E-17
 -0.433680868994E-18
 -0.433680868994E-18
 -0.195156391047E-17
  0.108420217249E-17
  0.650521303491E-18
  0.867361737988E-18
  0.216840434497E-18
  0.433680868994E-18
 -0.867361737988E-18
 -0.650521303491E-18
  0.000000000000E+00
 -0.867361737988E-18
  0.000000000000E+00
  0.216840434497E-18
 -0.216840434497E-18
  0.216840434497E-18
  0.173472347598E-17
  0.650521303491E-18
 -0.151788304148E-17
 -0.216840434497E-18
  0.000000000000E+00
 -0.650521303491E-18
 -0.151788304148E-17
 -0.216840434497E-18
 -0.867361737988E-18
  0.650521303491E-18
 -0.216840434497E-18
  0.000000000000E+00
 -0.433680868994E-18
  0.650521303491E-18
  0.867361737988E-18
  0.000000000000E+00
  0.108420217249E-18
  0.216840434497E-18
  0.000000000000E+00
  0.433680868994E-18
  0.216840434497E-18
  0.000000000000E+00
 -0.650521303491E-18
 -0.216840434497E-18
  0.433680868994E-18
 -0.433680868994E-18
  0.108420217249E-17
  0.130104260698E-17
 -0.130104260698E-17
  0.000000000000E+00
  0.130104260698E-17
 -0.433680868994E-18
  0.867361737988E-18
 -0.433680868994E-18
  0.867361737988E-18
  0.000000000000E+00
  0.108420217249E-17
 -0.216840434497E-18
 -0.433680868994E-18
 -0.433680868994E-18
 -0.650521303491E-18
  0.216840434497E-18
  0.867361737988E-18
 -0.216840434497E-18
  0.433680868994E-18
  0.000000000000E+00
  0.433680868994E-18
 -0.867361737988E-18
  0.433680868994E-18
 -0.867361737988E-18
  0.867361737988E-18
  0.151788304148E-17
 -0.108420217249E-17
  0.650521303491E-18
  0.867361737988E-18
 -0.650521303491E-18
  0.867361737988E-18
  0.216840434497E-18
  0.433680868994E-18
 -0.867361737988E-18
 -0.325260651746E-18
  0.108420217249E-18
  0.216840434497E-18
  0.325260651746E-18
 -0.433680868994E-18
 -0.216840434497E-18
  0.433680868994E-18
  0.433680868994E-18
 -0.195156391047E-17
  0.000000000000E+00
 -0.650521303491E-18
 -0.650521303491E-18
  0.151788304148E-17
  0.130104260698E-17
  0.216840434497E-18
  0.650521303491E-18
  0.216840434497E-18
 -0.867361737988E-18
 -0.216840434497E-18
 -0.216840434497E-18
  0.433680868994E-18
 -0.433680868994E-18
  0.151788304148E-17
  0.130104260698E-17
  0.000000000000E+00
  0.216840434497E-18
  0.173472347598E-17
  0.216840434497E-18
 -0.130104260698E-17
  0.867361737988E-18
  0.130104260698E-17
 -0.867361737988E-18
 -0.433680868994E-18
  0.000000000000E+00
 -0.151788304148E-17
  0.650521303491E-18
  0.173472347598E-17
  0.216840434497E-18
  0.433680868994E-18
 -0.173472347598E-17
  0.433680868994E-18
  0.130104260698E-17
  0.867361737988E-18
  0.108420217249E-17
  0.433680868994E-18
 -0.151788304148E-17
 -0.650521303491E-18
  0.108420217249E-17
 -0.216840434497E-18
 -0.867361737988E-18
 -0.108420217249E-17
  0.867361737988E-18
  0.173472347598E-17
  0.108420217249E-17
  0.216840434497E-18
 -0.650521303491E-18
 -0.216840434497E-18
  0.216840434497E-18
 -0.433680868994E-18
 -0.130104260698E-17
  0.195156391047E-17
 -0.433680868994E-18
 -0.238524477947E-17
 -0.650521303491E-18
  0.130104260698E-17
  0.000000000000E+00
  0.108420217249E-17
  0.867361737988E-18
  0.650521303491E-18
  0.650521303491E-18
  0.433680868994E-18
  0.216840434497E-18
  0.216840434497E-18
  0.650521303491E-18
  0.433680868994E-18
  0.000000000000E+00
  0.433680868994E-18
  0.650521303491E-18
 -0.216840434497E-18
  0.000000000000E+00
  0.433680868994E-18
 -0.216840434497E-18
  0.130104260698E-17
 -0.433680868994E-18
  0.216840434497E-18
  0.216840434497E-18
 -0.433680868994E-18
 -0.108420217249E-17
 -0.650521303491E-18
  0.000000000000E+00
  0.433680868994E-18
 -0.433680868994E-18
  0.650521303491E-18
 -0.433680868994E-18
 -0.433680868994E-18
  0.650521303491E-18
 -0.867361737988E-18
  0.108420217249E-17
 -0.650521303491E-18
 -0.216840434497E-18
  0.000000000000E+00
  0.433680868994E-18
  0.195156391047E-17
  0.130104260698E-17
 -0.195156391047E-17
 -0.216840434497E-18
  0.867361737988E-18
  0.346944695195E-17
 -0.216840434497E-17
  0.433680868994E-18
  0.650521303491E-18
  0.000000000000E+00
 -0.216840434497E-18
  0.195156391047E-17
  0.173472347598E-17
  0.867361737988E-18
  0.216840434497E-18
  0.867361737988E-18
  0.000000000000E+00
  0.216840434497E-18
 -0.195156391047E-17
 -0.650521303491E-18
  0.216840434497E-18
  0.216840434497E-18
 -0.216840434497E-18
  0.433680868994E-18
  0.000000000000E+00
  0.000000000000E+00
  0.108420217249E-17
  0.130104260698E-17
 -0.867361737988E-18
  0.108420217249E-17
 -0.216840434497E-18
 -0.216840434497E-18
  0.173472347598E-17
 -0.433680868994E-18
  0.000000000000E+00
  0.867361737988E-18
 -0.216840434497E-18
 -0.650521303491E-18
 -0.130104260698E-17
 -0.650521303491E-18
  0.433680868994E-18
 -0.433680868994E-18
  0.650521303491E-18
  0.000000000000E+00
  0.216840434497E-18
  0.216840434497E-18
 -0.867361737988E-18
 -0.650521303491E-18
  0.216840434497E-18
 -0.650521303491E-18
 -0.650521303491E-18
 -0.108420217249E-17
 -0.216840434497E-18
  0.650521303491E-18
 -0.433680868994E-18
  0.130104260698E-17
  0.650521303491E-18