# vtk DataFile Version 3.0
MachLine results file. Generated by MachLine, USU AeroLab (c) 2022.
ASCII
DATASET POLYDATA
POINTS                1127 float
  0.999999912905E+00  0.000000000000E+00 -0.379537722409E-08
  0.999999912905E+00  0.000000000000E+00  0.379537722409E-08
  0.973034456824E+00  0.105263157890E+00 -0.235909507078E-02
  0.999999919965E+00  0.105263157890E+00 -0.348771640610E-08
  0.999999919965E+00  0.105263157890E+00  0.348771640610E-08
  0.973034456748E+00  0.000000000000E+00 -0.235909420698E-02
  0.929717756915E+00  0.105263157890E+00 -0.614880593612E-02
  0.929717756758E+00  0.000000000000E+00 -0.614880414753E-02
  0.863184792141E+00  0.105263157890E+00 -0.119696725837E-01
  0.863184791884E+00  0.000000000000E+00 -0.119696696464E-01
  0.767714232475E+00  0.105263157890E+00 -0.203222480615E-01
  0.767714232170E+00  0.000000000000E+00 -0.203222445771E-01
  0.643290532976E+00  0.105263157890E+00 -0.312078972072E-01
  0.643290532760E+00  0.000000000000E+00 -0.312078947333E-01
  0.500000000000E+00  0.105263157890E+00 -0.437441893158E-01
  0.500000000000E+00  0.000000000000E+00 -0.437442072125E-01
  0.356709467240E+00  0.000000000000E+00 -0.312078947333E-01
  0.356709467024E+00  0.105263157890E+00 -0.312078972072E-01
  0.232285767830E+00  0.000000000000E+00 -0.203222445771E-01
  0.232285767525E+00  0.105263157890E+00 -0.203222480615E-01
  0.136815208116E+00  0.000000000000E+00 -0.119696696464E-01
  0.136815207859E+00  0.105263157890E+00 -0.119696725837E-01
  0.702822432406E-01  0.000000000000E+00 -0.614880414753E-02
  0.702822430841E-01  0.105263157890E+00 -0.614880593612E-02
  0.269655432546E-01  0.000000000000E+00 -0.235909420698E-02
  0.269655431791E-01  0.105263157890E+00 -0.235909507078E-02
  0.874268253237E-07  0.000000000000E+00  0.000000000000E+00
  0.803398331739E-07  0.105263157890E+00  0.000000000000E+00
  0.269655431791E-01  0.105263157890E+00  0.235909507078E-02
  0.269655432546E-01  0.000000000000E+00  0.235909420698E-02
  0.702822430841E-01  0.105263157890E+00  0.614880593612E-02
  0.702822432406E-01  0.000000000000E+00  0.614880414753E-02
  0.136815207859E+00  0.105263157890E+00  0.119696725837E-01
  0.136815208116E+00  0.000000000000E+00  0.119696696464E-01
  0.232285767525E+00  0.105263157890E+00  0.203222480615E-01
  0.232285767830E+00  0.000000000000E+00  0.203222445771E-01
  0.356709467024E+00  0.105263157890E+00  0.312078972072E-01
  0.356709467240E+00  0.000000000000E+00  0.312078947333E-01
  0.500000000000E+00  0.105263157890E+00  0.437441893158E-01
  0.500000000000E+00  0.000000000000E+00  0.437442072125E-01
  0.643290532760E+00  0.000000000000E+00  0.312078947333E-01
  0.643290532976E+00  0.105263157890E+00  0.312078972072E-01
  0.767714232170E+00  0.000000000000E+00  0.203222445771E-01
  0.767714232475E+00  0.105263157890E+00  0.203222480615E-01
  0.863184791884E+00  0.000000000000E+00  0.119696696464E-01
  0.863184792141E+00  0.105263157890E+00  0.119696725837E-01
  0.929717756758E+00  0.000000000000E+00  0.614880414753E-02
  0.929717756915E+00  0.105263157890E+00  0.614880593612E-02
  0.973034456748E+00  0.000000000000E+00  0.235909420698E-02
  0.973034456824E+00  0.105263157890E+00  0.235909507078E-02
  0.973034456824E+00  0.210526315790E+00 -0.235909507078E-02
  0.999999919965E+00  0.210526315790E+00 -0.348771640596E-08
  0.999999919965E+00  0.210526315790E+00  0.348771640596E-08
  0.929717756915E+00  0.210526315790E+00 -0.614880593612E-02
  0.863184792141E+00  0.210526315790E+00 -0.119696725837E-01
  0.767714232475E+00  0.210526315790E+00 -0.203222480615E-01
  0.643290532976E+00  0.210526315790E+00 -0.312078972072E-01
  0.500000000000E+00  0.210526315790E+00 -0.437441893158E-01
  0.356709467024E+00  0.210526315790E+00 -0.312078972072E-01
  0.232285767525E+00  0.210526315790E+00 -0.203222480615E-01
  0.136815207859E+00  0.210526315790E+00 -0.119696725837E-01
  0.702822430841E-01  0.210526315790E+00 -0.614880593612E-02
  0.269655431791E-01  0.210526315790E+00 -0.235909507078E-02
  0.803398331707E-07  0.210526315790E+00  0.000000000000E+00
  0.269655431791E-01  0.210526315790E+00  0.235909507078E-02
  0.702822430841E-01  0.210526315790E+00  0.614880593612E-02
  0.136815207859E+00  0.210526315790E+00  0.119696725837E-01
  0.232285767525E+00  0.210526315790E+00  0.203222480615E-01
  0.356709467024E+00  0.210526315790E+00  0.312078972072E-01
  0.500000000000E+00  0.210526315790E+00  0.437441893158E-01
  0.643290532976E+00  0.210526315790E+00  0.312078972072E-01
  0.767714232475E+00  0.210526315790E+00  0.203222480615E-01
  0.863184792141E+00  0.210526315790E+00  0.119696725837E-01
  0.929717756915E+00  0.210526315790E+00  0.614880593612E-02
  0.973034456824E+00  0.210526315790E+00  0.235909507078E-02
  0.973034456824E+00  0.315789473680E+00 -0.235909507078E-02
  0.999999919965E+00  0.315789473680E+00 -0.348771640610E-08
  0.999999919965E+00  0.315789473680E+00  0.348771640610E-08
  0.929717756915E+00  0.315789473680E+00 -0.614880593612E-02
  0.863184792141E+00  0.315789473680E+00 -0.119696725837E-01
  0.767714232475E+00  0.315789473680E+00 -0.203222480615E-01
  0.643290532976E+00  0.315789473680E+00 -0.312078972072E-01
  0.500000000000E+00  0.315789473680E+00 -0.437441893158E-01
  0.356709467024E+00  0.315789473680E+00 -0.312078972072E-01
  0.232285767525E+00  0.315789473680E+00 -0.203222480615E-01
  0.136815207859E+00  0.315789473680E+00 -0.119696725837E-01
  0.702822430841E-01  0.315789473680E+00 -0.614880593612E-02
  0.269655431791E-01  0.315789473680E+00 -0.235909507078E-02
  0.803398331739E-07  0.315789473680E+00  0.000000000000E+00
  0.269655431791E-01  0.315789473680E+00  0.235909507078E-02
  0.702822430841E-01  0.315789473680E+00  0.614880593612E-02
  0.136815207859E+00  0.315789473680E+00  0.119696725837E-01
  0.232285767525E+00  0.315789473680E+00  0.203222480615E-01
  0.356709467024E+00  0.315789473680E+00  0.312078972072E-01
  0.500000000000E+00  0.315789473680E+00  0.437441893158E-01
  0.643290532976E+00  0.315789473680E+00  0.312078972072E-01
  0.767714232475E+00  0.315789473680E+00  0.203222480615E-01
  0.863184792141E+00  0.315789473680E+00  0.119696725837E-01
  0.929717756915E+00  0.315789473680E+00  0.614880593612E-02
  0.973034456824E+00  0.315789473680E+00  0.235909507078E-02
  0.973034456824E+00  0.421052631580E+00 -0.235909507078E-02
  0.999999919965E+00  0.421052631580E+00 -0.348771640596E-08
  0.999999919965E+00  0.421052631580E+00  0.348771640596E-08
  0.929717756915E+00  0.421052631580E+00 -0.614880593612E-02
  0.863184792141E+00  0.421052631580E+00 -0.119696725837E-01
  0.767714232475E+00  0.421052631580E+00 -0.203222480615E-01
  0.643290532976E+00  0.421052631580E+00 -0.312078972072E-01
  0.500000000000E+00  0.421052631580E+00 -0.437441893158E-01
  0.356709467024E+00  0.421052631580E+00 -0.312078972072E-01
  0.232285767525E+00  0.421052631580E+00 -0.203222480615E-01
  0.136815207859E+00  0.421052631580E+00 -0.119696725837E-01
  0.702822430841E-01  0.421052631580E+00 -0.614880593612E-02
  0.269655431791E-01  0.421052631580E+00 -0.235909507078E-02
  0.803398331707E-07  0.421052631580E+00  0.000000000000E+00
  0.269655431791E-01  0.421052631580E+00  0.235909507078E-02
  0.702822430841E-01  0.421052631580E+00  0.614880593612E-02
  0.136815207859E+00  0.421052631580E+00  0.119696725837E-01
  0.232285767525E+00  0.421052631580E+00  0.203222480615E-01
  0.356709467024E+00  0.421052631580E+00  0.312078972072E-01
  0.500000000000E+00  0.421052631580E+00  0.437441893158E-01
  0.643290532976E+00  0.421052631580E+00  0.312078972072E-01
  0.767714232475E+00  0.421052631580E+00  0.203222480615E-01
  0.863184792141E+00  0.421052631580E+00  0.119696725837E-01
  0.929717756915E+00  0.421052631580E+00  0.614880593612E-02
  0.973034456824E+00  0.421052631580E+00  0.235909507078E-02
  0.973034456824E+00  0.526315789470E+00 -0.235909507078E-02
  0.999999919965E+00  0.526315789470E+00 -0.348771640610E-08
  0.999999919965E+00  0.526315789470E+00  0.348771640610E-08
  0.929717756915E+00  0.526315789470E+00 -0.614880593612E-02
  0.863184792141E+00  0.526315789470E+00 -0.119696725837E-01
  0.767714232475E+00  0.526315789470E+00 -0.203222480615E-01
  0.643290532976E+00  0.526315789470E+00 -0.312078972072E-01
  0.500000000000E+00  0.526315789470E+00 -0.437441893158E-01
  0.356709467024E+00  0.526315789470E+00 -0.312078972072E-01
  0.232285767525E+00  0.526315789470E+00 -0.203222480615E-01
  0.136815207859E+00  0.526315789470E+00 -0.119696725837E-01
  0.702822430841E-01  0.526315789470E+00 -0.614880593612E-02
  0.269655431791E-01  0.526315789470E+00 -0.235909507078E-02
  0.803398331739E-07  0.526315789470E+00  0.000000000000E+00
  0.269655431791E-01  0.526315789470E+00  0.235909507078E-02
  0.702822430841E-01  0.526315789470E+00  0.614880593612E-02
  0.136815207859E+00  0.526315789470E+00  0.119696725837E-01
  0.232285767525E+00  0.526315789470E+00  0.203222480615E-01
  0.356709467024E+00  0.526315789470E+00  0.312078972072E-01
  0.500000000000E+00  0.526315789470E+00  0.437441893158E-01
  0.643290532976E+00  0.526315789470E+00  0.312078972072E-01
  0.767714232475E+00  0.526315789470E+00  0.203222480615E-01
  0.863184792141E+00  0.526315789470E+00  0.119696725837E-01
  0.929717756915E+00  0.526315789470E+00  0.614880593612E-02
  0.973034456824E+00  0.526315789470E+00  0.235909507078E-02
  0.973034456824E+00  0.631578947370E+00 -0.235909507078E-02
  0.999999919965E+00  0.631578947370E+00 -0.348771640596E-08
  0.999999919965E+00  0.631578947370E+00  0.348771640596E-08
  0.929717756915E+00  0.631578947370E+00 -0.614880593612E-02
  0.863184792141E+00  0.631578947370E+00 -0.119696725837E-01
  0.767714232475E+00  0.631578947370E+00 -0.203222480615E-01
  0.643290532976E+00  0.631578947370E+00 -0.312078972072E-01
  0.500000000000E+00  0.631578947370E+00 -0.437441893158E-01
  0.356709467024E+00  0.631578947370E+00 -0.312078972072E-01
  0.232285767525E+00  0.631578947370E+00 -0.203222480615E-01
  0.136815207859E+00  0.631578947370E+00 -0.119696725837E-01
[...]
POINT_DATA                1127
SCALARS phi float 1
LOOKUP_TABLE default
 -0.126267956134E-13
  0.369339017296E-13
  0.384458090363E-14
  0.156901604029E-13
 -0.823332635097E-14
  0.328773466785E-14
  0.950281520140E-14
 -0.569769925685E-14
 -0.343475248243E-15
  0.147451495458E-14
  0.352287643501E-13
 -0.375983966183E-13
  0.516253706451E-14
  0.272420974667E-13
  0.703950786551E-14
  0.131145094784E-14
  0.188460358430E-13
  0.142386102908E-13
  0.108194703197E-13
  0.198781963112E-13
 -0.473232564246E-14
  0.278665979181E-13
 -0.115710392656E-13
  0.266483883571E-13
 -0.850057871316E-14
  0.150773490915E-13
  0.391892970034E-16
  0.345569333719E-16
 -0.120901552658E-13
  0.112490312204E-13
 -0.198912067373E-13
  0.188724903760E-13
 -0.153757215293E-13
  0.196257940455E-13
 -0.154390389362E-14
  0.156125112838E-14
 -0.830932544993E-15
 -0.341185413255E-13
 -0.149671941507E-13
 -0.487179740993E-13
 -0.360336760430E-13
  0.660235754957E-14
 -0.772298891505E-14
 -0.730839000429E-14
 -0.130225691342E-13
 -0.781492925928E-15
  0.187350135405E-15
 -0.214758766326E-14
  0.363810544191E-13
 -0.200471150097E-13
  0.235668689424E-13
  0.153983324047E-13
 -0.221316163282E-13
  0.204732064635E-13
  0.353848894630E-13
  0.258022769817E-13
 -0.441660596984E-14
  0.221593576821E-13
  0.168406955048E-13
  0.199423810798E-13
  0.269975014566E-13
  0.250129778001E-13
  0.136305897125E-13
  0.357947764850E-16
 -0.169601745842E-13
 -0.309708855784E-13
 -0.322892754201E-13
 -0.367587904559E-14
  0.246469511467E-13
  0.757033324916E-14
  0.178849990373E-13
 -0.249193027324E-13
 -0.166021710268E-13
 -0.898846969077E-14
 -0.856649820524E-14
  0.951235618052E-14
  0.337819104054E-13
 -0.346184158233E-13
  0.160826213458E-13
  0.139280947886E-13
 -0.165908953242E-13
  0.137008460133E-13
  0.201921812604E-13
  0.150608692184E-13
  0.858688120609E-15
 -0.233589189658E-13
 -0.324501710225E-13
 -0.213728774262E-13
  0.349951066588E-16
  0.182234869556E-13
  0.259119982415E-13
  0.144875431096E-13
 -0.874300631892E-14
 -0.872739380764E-14
 -0.102279296144E-13
 -0.450924020345E-13
 -0.411302936154E-14
 -0.418588774753E-14
 -0.708634539937E-14
  0.175089977239E-13
 -0.396638017569E-13
  0.650832667046E-13
 -0.696092262028E-13
 -0.294902990916E-13
 -0.400946637003E-13
  0.137043154602E-15
  0.544009282066E-14
  0.812197531452E-14
  0.129410371308E-14
 -0.528396770783E-14
 -0.228810026481E-14
  0.312683906545E-14
  0.529199080390E-14
  0.352722080281E-16
  0.374440062290E-14
  0.122419435700E-13
  0.176265252394E-13
 -0.670991040508E-14
 -0.376122744061E-13
 -0.222946661133E-13
 -0.162994617803E-13
  0.286680401640E-13
  0.244708767139E-13
  0.205781572338E-13
 -0.139439241403E-13
  0.363489620347E-14
  0.127548927875E-12
 -0.129437639433E-12
 -0.350865170251E-13
 -0.160739477284E-13
 -0.526211019203E-13
  0.119418364086E-13
  0.487804241445E-14
  0.273045475119E-14
  0.188390969491E-14
  0.676715627979E-14
  0.931676610860E-14
  0.629769673910E-14
  0.354261004316E-16
 -0.896353304081E-14
 -0.118746158739E-13
 -0.905438918286E-14
 -0.830932544993E-15
 -0.263556537705E-13
 -0.453387327681E-13
  0.295700963715E-13
  0.201037103631E-13
  0.727889970520E-14
  0.783487857925E-14
  0.120342104337E-13
  0.982720849141E-14
  0.210737530831E-12
 -0.200051937762E-12
  0.289187077063E-13
 -0.467507976776E-14
 -0.416246898061E-13
  0.882627304577E-14
 -0.171113123670E-13
 -0.669950206422E-14
  0.288311041707E-14
 -0.653990750443E-14
 -0.177115266897E-13
 -0.178258015987E-13
  0.353935210960E-16
  0.887658002657E-14
  0.228332977525E-14
 -0.126513383103E-13
 -0.110154940725E-13
  0.123356186377E-13
 -0.130659372211E-13
 -0.194046168023E-13
  0.271362793347E-13
  0.338791494858E-14
 -0.196604885150E-13
 -0.226489833832E-14
 -0.227201070457E-13
  0.159597458118E-12
 -0.158423997321E-12
 -0.545657269369E-14
 -0.214585293978E-14
 -0.119314280678E-13
 -0.296360158636E-13
 -0.521110932183E-14
 -0.738645256071E-14
  0.830932544993E-15
  0.306490943736E-13
  0.442063920192E-13
  0.311502126177E-13
  0.351960565401E-16
 -0.180304989689E-13
 -0.256444171454E-13
 -0.965633822902E-14
  0.936056787637E-14
  0.270998501417E-13
  0.461609916957E-13
 -0.464212002171E-14
  0.159525170851E-13
 -0.594316262870E-14
  0.118785190018E-13
 -0.113886764602E-13
  0.147004804163E-13
 -0.188415460215E-12
  0.186098534921E-12
 -0.286177331832E-13
 -0.205044314860E-14
  0.423446000486E-14
  0.660235754957E-14
  0.196162530663E-13
  0.134718625144E-13
  0.721471493659E-14
 -0.110510559037E-13
 -0.135893900299E-13
 -0.346380910066E-14
  0.353539061757E-16
 -0.913331910102E-15
  0.816230763534E-14
  0.172388145425E-13
  0.261735078055E-13
  0.223796675636E-13
  0.237102004697E-13
  0.298649993624E-13
 -0.890433560219E-14
 -0.588678411573E-14
  0.304877650903E-14
  0.180504482888E-13
  0.536680075380E-15
 -0.643030882944E-13
  0.555826795836E-13
  0.339329259136E-13
  0.186881760067E-13
  0.446483128247E-13
  0.192658389242E-13
 -0.263608579409E-13
 -0.932587340685E-14
 -0.106581410364E-13
 -0.262073349133E-13
 -0.350492204704E-13
 -0.264621224239E-13
  0.354021560344E-16
  0.141718234370E-13
  0.161554797318E-13
 -0.284494650060E-14
 -0.145283091113E-13
  0.568468883078E-14
  0.650174358796E-14
 -0.362904151174E-14
 -0.147659662275E-13
  0.201227923213E-15
 -0.183429660350E-13
 -0.130399163689E-13
 -0.127263651006E-13
 -0.574055665873E-13
  0.624033626969E-13
  0.147538231632E-13
  0.348280432272E-13
  0.166637537102E-13
 -0.320646287300E-13
 -0.314748227481E-13
 -0.367032793047E-13
 -0.390954629781E-13
 -0.162248686708E-13
 -0.289091667272E-14
 -0.164863782348E-14
  0.351887033181E-16
  0.143726176793E-13
  0.187328451362E-13
  0.119678572608E-13
 -0.188165455439E-13
 -0.413592771142E-13
 -0.142559575256E-13
  0.335495520254E-14
 -0.753563877964E-14
 -0.257259491487E-14
  0.136756925229E-13
 -0.114968798370E-14
  0.145014208974E-13
 -0.606137151164E-13
  0.589319673383E-13
 -0.259696777971E-13
 -0.258543186860E-13
  0.216666962150E-14
 -0.281302758864E-13
  0.596397931041E-14
 -0.232487640250E-13
 -0.259653409884E-13
 -0.143045297829E-13
  0.446908135499E-14
  0.118507634261E-13
  0.352904088967E-16
 -0.128469283822E-13
 -0.708027386720E-14
  0.202572333907E-13
  0.300419411570E-13
 -0.108541647892E-13
 -0.322276927367E-13
  0.277868006382E-13
 -0.106754882712E-13
  0.120545934346E-13
  0.104803318801E-13
  0.143743524028E-13
 -0.880328795971E-14
 -0.625791586965E-13
  0.559389800993E-13
 -0.531259064518E-14
 -0.331418920085E-13
  0.139315642356E-13
 -0.387537224533E-14
 -0.277278200400E-13
 -0.378516662458E-14
  0.205738204251E-13
  0.140287087502E-13
  0.100050176477E-14
 -0.387862485185E-14
  0.352595716035E-16
 -0.524493642962E-14
 -0.144259604262E-13
 -0.198703900556E-13
  0.262290189568E-14
  0.304877650903E-13
  0.151822998617E-13
  0.131908373113E-13
 -0.843075609325E-15
  0.837524494202E-14
 -0.821565038223E-14
 -0.175285133630E-13
  0.340179273639E-14
 -0.574017098709E-13
  0.580800781816E-13
  0.118568349583E-13
  0.250997139739E-13
 -0.653296861053E-14
  0.211393402783E-13
 -0.291398849495E-13
 -0.738992200766E-14
 -0.122644949752E-14
  0.111161080341E-13
  0.893772902910E-14
  0.256890862749E-14
  0.349333237117E-16
 -0.510442382806E-15
 -0.688728588050E-14
 -0.180471956823E-13
 -0.114023374076E-13
  0.225340579529E-14
 -0.226901830658E-14
  0.433333924299E-14
  0.123772520011E-13
 -0.115194312422E-13
  0.137476835471E-14
  0.114157815145E-13
 -0.193421667571E-14
 -0.552903534588E-13
  0.533943549097E-13
  0.117440779324E-14
  0.770737640376E-14
  0.105557923513E-13
  0.198105420957E-14
 -0.650174358796E-14
 -0.101030295241E-13
 -0.420496970577E-14
 -0.190819582357E-15
  0.755732282309E-14
  0.851640806487E-14
  0.346116373074E-16
 -0.422622006835E-14
 -0.132359401217E-14
  0.470457006685E-14
 -0.169135538908E-14
  0.121656157370E-13
  0.349026363367E-14
  0.140235045798E-13
 -0.979598346884E-14
  0.353623380578E-14
 -0.131934393965E-13
 -0.324913707050E-14
  0.236160917211E-14
 -0.474104262793E-13
  0.493021422299E-13
 -0.843856234889E-14
 -0.205217787208E-13
  0.265412691824E-14
 -0.111993747609E-13
  0.737951366681E-14
  0.262533050854E-13
  0.277555756156E-13
  0.624066770483E-14
 -0.977082997844E-14
 -0.106197602795E-13
  0.350661449298E-16
  0.675219428981E-14
  0.723379689482E-14
  0.271397487817E-14
 -0.477395900589E-14
  0.210595429984E-14
  0.474065231515E-13
 -0.526315102611E-14
 -0.660235754957E-14
 -0.435155383949E-14
  0.169976879794E-13
 -0.950130409462E-15
 -0.185832252364E-14
 -0.383955020555E-13
  0.369088440366E-13
  0.119038893326E-13
  0.210465325723E-13
 -0.674807432155E-15
  0.194670668474E-13
  0.200152394658E-13
  0.128334842753E-13
 -0.737430949638E-14
 -0.585902854011E-14
 -0.115662687761E-14
  0.120563281580E-14
  0.367682791440E-16
  0.792269895522E-14
  0.169686313611E-13
  0.215634801681E-13
  0.247319525970E-13
  0.361342900046E-14
  0.719563297835E-14
 -0.328348459533E-13
 -0.801268773554E-14
 -0.719736770183E-14
 -0.135193505696E-13
  0.140209024946E-14
  0.800574884163E-15
 -0.176690259646E-13
  0.160505289615E-13
 -0.746017830844E-14
 -0.127450133780E-13
 -0.238871422642E-14
 -0.162994617803E-13
  0.749053596927E-14
  0.316760506713E-14
 -0.771951946810E-14
 -0.994950649646E-14
 -0.326561694353E-14
 -0.390095941660E-15
  0.342302069561E-16
  0.584601811404E-14
  0.172804479059E-13
  0.325225957276E-13
  0.271137279295E-13
  0.877423134149E-14
 -0.282725232115E-13
 -0.263677968348E-15
  0.768482499858E-15
  0.855522250265E-14
  0.740466715721E-14
 -0.732053306862E-15
 -0.119262238973E-14
  0.234846864178E-13
 -0.254900267560E-13
 -0.180324505328E-14
 -0.627143194147E-15
 -0.676542155631E-14
 -0.345903861110E-14
  0.125385812844E-13
  0.237830588556E-14
  0.115601972439E-13
  0.495783969434E-14
 -0.694626647868E-14
 -0.647203644843E-14
  0.384538647829E-16
  0.408288854115E-14
  0.726632296000E-14
  0.710542735760E-14
  0.942301792151E-14
 -0.285362011798E-14
 -0.162717062047E-13
  0.107778369562E-13
  0.937531302592E-14
  0.294458468025E-14
  0.112670289765E-14
  0.112496817417E-14
  0.390052573573E-14
 -0.134441069388E-16
  0.178198384868E-13
 -0.904745028896E-14
 -0.265239219477E-14
  0.433333924299E-14
  0.191964499852E-13
  0.180237769154E-14
 -0.131917046731E-13
 -0.991047521826E-14
 -0.317020715235E-14
 -0.475639493069E-15
 -0.289710548668E-18
 -0.106978228359E-14
  0.162023172656E-14
  0.953577494744E-14
  0.100084870946E-13
  0.504804531509E-15
  0.176074432812E-13
  0.925995391476E-14
  0.177722420114E-14
 -0.124368831206E-13
 -0.419468841985E-14
 -0.853765842745E-14
  0.432921927473E-14
  0.753618088073E-14
  0.186482773668E-15
 -0.370883879164E-14
  0.276688394418E-14
  0.133556360415E-13
 -0.427435864481E-14
 -0.100162933503E-13
 -0.600604635470E-14
 -0.208730602247E-14
 -0.519116000186E-15
 -0.923848671175E-15
  0.967758859161E-15
  0.658284191046E-14
  0.702476271597E-14
 -0.525621213221E-15
  0.466640615038E-14
  0.137580918880E-13
 -0.711063152803E-14
 -0.568360462860E-14
 -0.201393264045E-14
 -0.647051856539E-14
  0.459940245612E-14
  0.911705606843E-15
 -0.329077043393E-14
  0.166915092858E-13
 -0.148544371248E-13
  0.633347541079E-14
 -0.865973959208E-14
 -0.672552291636E-14
 -0.270703598426E-14
 -0.107596223597E-14
 -0.478349998501E-15
 -0.708959800588E-15
  0.700611443860E-15
  0.466683983125E-14
  0.463084431912E-14
 -0.278943534937E-14
 -0.332546490345E-14
  0.122124532709E-14
 -0.386669862795E-14
 -0.270833702687E-14
  0.794774402540E-15
 -0.394259278003E-14
  0.452426724556E-14
 -0.778858314648E-14
  0.877986919279E-14
  0.881152789622E-14
 -0.128768523622E-13
  0.182145964978E-15
 -0.950975409530E-14
 -0.358827551006E-14
 -0.144415729375E-15
 -0.235055030995E-15
 -0.399528500561E-15
 -0.494179350219E-15
  0.598262758778E-15
  0.329163779567E-14
  0.221957868751E-14
 -0.529090660173E-14
 -0.569509717163E-14
 -0.268882138776E-14
 -0.501508556905E-14
  0.765706942296E-14
 -0.360789956938E-14
 -0.695949374518E-15
  0.255871712707E-14
 -0.865041545339E-14
  0.137190606098E-13
 -0.962771529167E-15
 -0.802136135292E-14
 -0.410782519111E-14
 -0.784095011142E-14
 -0.549039980147E-15
  0.179370407416E-14
  0.329597460436E-15
 -0.384241249929E-15
  0.156854543607E-13
 -0.823799851191E-14
  0.383395572234E-14
  0.951062145704E-14
 -0.345209971719E-15
  0.352304990736E-13
  0.514172038280E-14
  0.703256897161E-14
  0.142386102908E-13
  0.198868699286E-13
  0.278631284711E-13
  0.266440515484E-13
  0.150784332936E-13
  0.345584380134E-16
 -0.120892879041E-13
 -0.198929414608E-13
 -0.153809256997E-13
 -0.154043444667E-14
 -0.825728374565E-15
 -0.149671941507E-13
  0.660235754957E-14
 -0.731706362167E-14
 -0.778890840714E-15
 -0.214758766326E-14
 -0.200549212653E-13
  0.153895626251E-13
 -0.221398224074E-13
  0.235688205064E-13
  0.204601960374E-13
  0.354109103151E-13
  0.257918686408E-13
 -0.442354486374E-14
  0.221593576821E-13
  0.168302871639E-13
  0.199441158033E-13
  0.269992361801E-13
  0.250134114810E-13
  0.136303728721E-13
  0.357945279172E-16
 -0.169599577438E-13
 -0.309708855784E-13
 -0.322892754201E-13
 -0.367240959864E-14
  0.246400122528E-13
  0.755992490831E-14
  0.178780601434E-13
 -0.249262416263E-13
 -0.165926300477E-13
 -0.898500024382E-14
 -0.855955931134E-14
  0.337871625283E-13
 -0.346131175371E-13
  0.950563412705E-14
  0.161008359423E-13
  0.139298295121E-13
 -0.166186508999E-13
  0.137181932480E-13
  0.202199368360E-13
  0.150643386654E-13
  0.856953397133E-15
 -0.233641231362E-13
 -0.324501710225E-13
 -0.213728774262E-13
  0.349966071644E-16
  0.182230532747E-13
  0.259137329650E-13
  0.144797368540E-13
 -0.874647576588E-14
 -0.872045491374E-14
 -0.102036434857E-13
 -0.450646464589E-13
 -0.410609046764E-14
 -0.419889817360E-14
 -0.708200859068E-14
  0.175048777556E-13
  0.650805297161E-13
 -0.696094466564E-13
 -0.396529597352E-13
 -0.294755539421E-13
 -0.400755817420E-13
  0.142247325030E-15
  0.542968447981E-14
  0.812197531452E-14
  0.129410371308E-14
 -0.529090660173E-14
 -0.228810026481E-14
  0.312727274632E-14
  0.529220764434E-14
  0.352738991989E-16
  0.374440062290E-14
  0.122423772508E-13
  0.176273926011E-13
 -0.672552291636E-14
 -0.376278869174E-13
 -0.222981355602E-13
 -0.162717062047E-13
  0.286576318231E-13
  0.244778156078E-13
  0.205738204251E-13
 -0.139374189273E-13
  0.127537797355E-12
 -0.129450690176E-12
  0.364443718259E-14
 -0.350683024286E-13
 -0.160409879824E-13
 -0.526020199620E-13
  0.119279586208E-13
  0.487457296749E-14
  0.273739364509E-14
  0.188390969491E-14
  0.676975836500E-14
  0.931546506600E-14
  0.629813041997E-14
  0.354265413188E-16
 -0.896266567907E-14
 -0.118754832357E-13
 -0.904831765070E-14
 -0.827463098041E-15
 -0.263435107062E-13
 -0.453491411090E-13
  0.295735658185E-13
  0.201037103631E-13
  0.729191013127E-14
  0.784788900532E-14
  0.120452692959E-13
  0.210734868055E-12
 -0.200055890569E-12
  0.983089477880E-14
  0.289317181323E-13
 -0.468895755557E-14
 -0.416142814652E-13
  0.881933415187E-14
 -0.171147818140E-13
 -0.670644095813E-14
  0.288657986403E-14
 -0.652516235489E-14
 -0.177119603706E-13
 -0.178258015987E-13
  0.353938068869E-16
  0.887636318614E-14
  0.228289609439E-14
 -0.126435320547E-13
 -0.110068204551E-13
  0.123373533611E-13
 -0.130694066680E-13
 -0.194219640370E-13
  0.271518918460E-13
  0.338271077815E-14
 -0.196466107272E-13
 -0.225297211442E-14
  0.159600938594E-12
 -0.158418531824E-12
 -0.227318164292E-13
 -0.545830741716E-14
 -0.213891404588E-14
 -0.119539794730E-13
 -0.296464242044E-13
 -0.520417042793E-14
 -0.737604421985E-14
  0.839606162373E-15
  0.306534311822E-13
  0.442063920192E-13
  0.311502126177E-13
  0.351939976876E-16
 -0.180307158093E-13
 -0.256461518688E-13
 -0.965633822902E-14
  0.937271094070E-14
  0.271137279295E-13
  0.461644611427E-13
 -0.463865057476E-14
  0.159525170851E-13
 -0.592408067046E-14
  0.118845905339E-13
 -0.113958321946E-13
 -0.188411486313E-12
  0.186103582438E-12
  0.146978783311E-13
 -0.286203352684E-13
 -0.202962646689E-14
  0.425007251614E-14
  0.656766308005E-14
  0.196301308542E-13
  0.134822708553E-13
  0.720951076616E-14
 -0.110571274359E-13
 -0.135885226682E-13
 -0.346229121762E-14
  0.353551800338E-16
 -0.911163505757E-15
  0.816447603968E-14
  0.172344777338E-13
  0.261752425290E-13
  0.223831370105E-13
  0.236928532349E-13
  0.298719382563E-13
 -0.891474394304E-14
 -0.587377368966E-14
  0.304877650903E-14
  0.180448104375E-13
 -0.643095558558E-13
  0.555751947356E-13
  0.524970691917E-15
  0.339259870197E-13
  0.186881760067E-13
  0.446743336768E-13
  0.192519611364E-13
 -0.263747357288E-13
 -0.933628174771E-14
 -0.106616104834E-13
 -0.261986612959E-13
 -0.350448836617E-13
 -0.264623392643E-13
  0.354040709575E-16
  0.141713897561E-13
  0.161572144552E-13
 -0.284147705365E-14
 -0.145248396644E-13
  0.567428048992E-14
  0.650521303491E-14
 -0.361863317089E-14
 -0.147624967806E-13
  0.202962646689E-15
 -0.183386292263E-13
 -0.130505415502E-13
 -0.573827202095E-13
  0.624261129364E-13
 -0.127205104089E-13
  0.147538231632E-13
  0.348349821211E-13
  0.166568148163E-13
 -0.320542203891E-13
 -0.314887005359E-13
 -0.367032793047E-13
 -0.390954629781E-13
 -0.162222665856E-13
 -0.289568716227E-14
 -0.164863782348E-14
  0.351927312741E-16
  0.143721839985E-13
  0.187311104127E-13
  0.119704593460E-13
 -0.188148108204E-13
 -0.413627465612E-13
 -0.142524880786E-13
  0.335148575559E-14
 -0.754604712050E-14
 -0.257259491487E-14
  0.136887029489E-13
 -0.114166488763E-14
 -0.606271832761E-13
  0.589216319300E-13
  0.144951325248E-13
 -0.259662083502E-13
 -0.258699311972E-13
  0.217013906845E-14
 -0.281580314621E-13
  0.597438765126E-14
 -0.232591723659E-13
 -0.259531979241E-13
 -0.142984582507E-13
  0.446908135499E-14
  0.118522813092E-13
  0.352873326120E-16
 -0.128456273396E-13
 -0.707940650546E-14
  0.202615701994E-13
  0.300506147743E-13
 -0.108524300657E-13
 -0.322554483123E-13
  0.277833311912E-13
 -0.106754882712E-13
  0.120476545407E-13
  0.104811992419E-13
  0.143654619450E-13
 -0.625815376829E-13
  0.559372406229E-13
 -0.880545636406E-14
 -0.531085592170E-14
 -0.331627086902E-13
  0.139332989590E-13
 -0.389618892704E-14
 -0.277174116992E-13
 -0.378516662458E-14
  0.205824940425E-13
  0.140347802824E-13
  0.100353753085E-14
 -0.387927537315E-14
  0.352605443679E-16
 -0.524515327005E-14
 -0.144224909793E-13
 -0.198686553321E-13
  0.262984078958E-14
  0.304912345372E-13
  0.151753609678E-13
  0.132047150991E-13
 -0.844810332801E-15
  0.836396923942E-14
 -0.822692608482E-14
 -0.175317659695E-13
 -0.574036866217E-13
  0.580769491476E-13
  0.339420332118E-14
  0.118559675966E-13
  0.250945098035E-13
 -0.654858112181E-14
  0.211705653008E-13
 -0.291260071617E-13
 -0.738645256071E-14
 -0.122818422099E-14
  0.111152406723E-13
  0.893903007171E-14
  0.256869178705E-14
  0.349353523721E-16
 -0.510876063675E-15
 -0.688902060397E-14
 -0.180463283206E-13
 -0.114110110250E-13
  0.226034468920E-14
 -0.225167107182E-14
  0.430905311433E-14
  0.123599047663E-13
 -0.115211659657E-13
  0.138257461035E-14
  0.114066742163E-13
 -0.553010870603E-13
  0.533826455262E-13
 -0.192879566485E-14
  0.118134668714E-14
  0.769696806291E-14
  0.105644659687E-13
  0.199493199737E-14
 -0.649827414101E-14
 -0.100995600771E-13
 -0.420670442924E-14
 -0.189952220619E-15
  0.755515441875E-14
  0.851597438400E-14
  0.346119264070E-16
 -0.422622006835E-14
 -0.132576241652E-14
  0.470717215206E-14
 -0.168788594213E-14
  0.121725546309E-13
  0.350761086843E-14
  0.139853406633E-13
 -0.980118763927E-14
  0.351715184754E-14
 -0.131865005026E-13
 -0.324848654920E-14
 -0.474217019819E-13
  0.492947696551E-13
  0.234754164892E-14
 -0.844376651932E-14
 -0.205287176147E-13
  0.260381993744E-14
 -0.111785580792E-13
  0.737257477290E-14
  0.262567745324E-13
  0.277521061687E-13
  0.624153506656E-14
 -0.976996261670E-14
 -0.106193265986E-13
  0.350617426746E-16
  0.675219428981E-14
  0.723509793743E-14
  0.271397487817E-14
 -0.478263262327E-14
  0.210595429984E-14
  0.474204009393E-13
 -0.524927323831E-14
 -0.660756172000E-14