# vtk DataFile Version 3.0
MachLine results file. Generated by MachLine, USU AeroLab (c) 2022.
ASCII
DATASET POLYDATA
POINTS                 158 float
  0.100000000000E+01  0.000000000000E+00  0.000000000000E+00
  0.199964010397E+02  0.000000000000E+00  0.379928020793E+00
  0.100000000000E+01  0.512820512820E-01  0.000000000000E+00
  0.199964010397E+02  0.512820512820E-01  0.379928020793E+00
  0.100000000000E+01  0.102564102560E+00  0.000000000000E+00
  0.199964010397E+02  0.102564102560E+00  0.379928020793E+00
  0.100000000000E+01  0.153846153850E+00  0.000000000000E+00
  0.199964010397E+02  0.153846153850E+00  0.379928020793E+00
  0.100000000000E+01  0.205128205130E+00  0.000000000000E+00
  0.199964010397E+02  0.205128205130E+00  0.379928020793E+00
  0.100000000000E+01  0.256410256410E+00  0.000000000000E+00
  0.199964010397E+02  0.256410256410E+00  0.379928020793E+00
  0.100000000000E+01  0.307692307690E+00  0.000000000000E+00
  0.199964010397E+02  0.307692307690E+00  0.379928020793E+00
  0.100000000000E+01  0.358974358970E+00  0.000000000000E+00
  0.199964010397E+02  0.358974358970E+00  0.379928020793E+00
  0.100000000000E+01  0.410256410260E+00  0.000000000000E+00
  0.199964010397E+02  0.410256410260E+00  0.379928020793E+00
  0.100000000000E+01  0.461538461540E+00  0.000000000000E+00
  0.199964010397E+02  0.461538461540E+00  0.379928020793E+00
  0.100000000000E+01  0.512820512820E+00  0.000000000000E+00
  0.199964010397E+02  0.512820512820E+00  0.379928020793E+00
  0.100000000000E+01  0.564102564100E+00  0.000000000000E+00
  0.199964010397E+02  0.564102564100E+00  0.379928020793E+00
  0.100000000000E+01  0.615384615380E+00  0.000000000000E+00
  0.199964010397E+02  0.615384615380E+00  0.379928020793E+00
  0.100000000000E+01  0.666666666670E+00  0.000000000000E+00
  0.199964010397E+02  0.666666666670E+00  0.379928020793E+00
  0.100000000000E+01  0.717948717950E+00  0.000000000000E+00
  0.199964010397E+02  0.717948717950E+00  0.379928020793E+00
  0.100000000000E+01  0.769230769230E+00  0.000000000000E+00
  0.199964010397E+02  0.769230769230E+00  0.379928020793E+00
  0.100000000000E+01  0.820512820510E+00  0.000000000000E+00
  0.199964010397E+02  0.820512820510E+00  0.379928020793E+00
  0.100000000000E+01  0.871794871790E+00  0.000000000000E+00
  0.199964010397E+02  0.871794871790E+00  0.379928020793E+00
  0.100000000000E+01  0.923076923080E+00  0.000000000000E+00
  0.199964010397E+02  0.923076923080E+00  0.379928020793E+00
  0.100000000000E+01  0.974358974360E+00  0.000000000000E+00
  0.199964010397E+02  0.974358974360E+00  0.379928020793E+00
  0.100000000000E+01  0.102564102560E+01  0.000000000000E+00
  0.199964010397E+02  0.102564102560E+01  0.379928020793E+00
  0.100000000000E+01  0.107692307690E+01  0.000000000000E+00
  0.199964010397E+02  0.107692307690E+01  0.379928020793E+00
  0.100000000000E+01  0.112820512820E+01  0.000000000000E+00
  0.199964010397E+02  0.112820512820E+01  0.379928020793E+00
  0.100000000000E+01  0.117948717950E+01  0.000000000000E+00
  0.199964010397E+02  0.117948717950E+01  0.379928020793E+00
  0.100000000000E+01  0.123076923080E+01  0.000000000000E+00
  0.199964010397E+02  0.123076923080E+01  0.379928020793E+00
  0.100000000000E+01  0.128205128210E+01  0.000000000000E+00
  0.199964010397E+02  0.128205128210E+01  0.379928020793E+00
  0.100000000000E+01  0.133333333330E+01  0.000000000000E+00
  0.199964010397E+02  0.133333333330E+01  0.379928020793E+00
  0.100000000000E+01  0.138461538460E+01  0.000000000000E+00
  0.199964010397E+02  0.138461538460E+01  0.379928020793E+00
  0.100000000000E+01  0.143589743590E+01  0.000000000000E+00
  0.199964010397E+02  0.143589743590E+01  0.379928020793E+00
  0.100000000000E+01  0.148717948720E+01  0.000000000000E+00
  0.199964010397E+02  0.148717948720E+01  0.379928020793E+00
  0.100000000000E+01  0.153846153850E+01  0.000000000000E+00
  0.199964010397E+02  0.153846153850E+01  0.379928020793E+00
  0.100000000000E+01  0.158974358970E+01  0.000000000000E+00
  0.199964010397E+02  0.158974358970E+01  0.379928020793E+00
  0.100000000000E+01  0.164102564100E+01  0.000000000000E+00
  0.199964010397E+02  0.164102564100E+01  0.379928020793E+00
  0.100000000000E+01  0.169230769230E+01  0.000000000000E+00
  0.199964010397E+02  0.169230769230E+01  0.379928020793E+00
  0.100000000000E+01  0.174358974360E+01  0.000000000000E+00
  0.199964010397E+02  0.174358974360E+01  0.379928020793E+00
  0.100000000000E+01  0.179487179490E+01  0.000000000000E+00
  0.199964010397E+02  0.179487179490E+01  0.379928020793E+00
  0.100000000000E+01  0.184615384620E+01  0.000000000000E+00
  0.199964010397E+02  0.184615384620E+01  0.379928020793E+00
  0.100000000000E+01  0.189743589740E+01  0.000000000000E+00
  0.199964010397E+02  0.189743589740E+01  0.379928020793E+00
  0.100000000000E+01  0.194871794870E+01  0.000000000000E+00
  0.199964010397E+02  0.194871794870E+01  0.379928020793E+00
  0.100000000000E+01  0.200000000000E+01  0.000000000000E+00
  0.199964010397E+02  0.200000000000E+01  0.379928020793E+00
  0.100000000000E+01 -0.512820512820E-01  0.000000000000E+00
  0.199964010397E+02 -0.512820512820E-01  0.379928020793E+00
  0.100000000000E+01 -0.102564102560E+00  0.000000000000E+00
  0.199964010397E+02 -0.102564102560E+00  0.379928020793E+00
  0.100000000000E+01 -0.153846153850E+00  0.000000000000E+00
  0.199964010397E+02 -0.153846153850E+00  0.379928020793E+00
  0.100000000000E+01 -0.205128205130E+00  0.000000000000E+00
  0.199964010397E+02 -0.205128205130E+00  0.379928020793E+00
  0.100000000000E+01 -0.256410256410E+00  0.000000000000E+00
  0.199964010397E+02 -0.256410256410E+00  0.379928020793E+00
  0.100000000000E+01 -0.307692307690E+00  0.000000000000E+00
  0.199964010397E+02 -0.307692307690E+00  0.379928020793E+00
  0.100000000000E+01 -0.358974358970E+00  0.000000000000E+00
  0.199964010397E+02 -0.358974358970E+00  0.379928020793E+00
  0.100000000000E+01 -0.410256410260E+00  0.000000000000E+00
  0.199964010397E+02 -0.410256410260E+00  0.379928020793E+00
  0.100000000000E+01 -0.461538461540E+00  0.000000000000E+00
  0.199964010397E+02 -0.461538461540E+00  0.379928020793E+00
  0.100000000000E+01 -0.512820512820E+00  0.000000000000E+00
  0.199964010397E+02 -0.512820512820E+00  0.379928020793E+00
  0.100000000000E+01 -0.564102564100E+00  0.000000000000E+00
  0.199964010397E+02 -0.564102564100E+00  0.379928020793E+00
  0.100000000000E+01 -0.615384615380E+00  0.000000000000E+00
  0.199964010397E+02 -0.615384615380E+00  0.379928020793E+00
  0.100000000000E+01 -0.666666666670E+00  0.000000000000E+00
  0.199964010397E+02 -0.666666666670E+00  0.379928020793E+00
  0.100000000000E+01 -0.717948717950E+00  0.000000000000E+00
  0.199964010397E+02 -0.717948717950E+00  0.379928020793E+00
  0.100000000000E+01 -0.769230769230E+00  0.000000000000E+00
  0.199964010397E+02 -0.769230769230E+00  0.379928020793E+00
  0.100000000000E+01 -0.820512820510E+00  0.000000000000E+00
  0.199964010397E+02 -0.820512820510E+00  0.379928020793E+00
  0.100000000000E+01 -0.871794871790E+00  0.000000000000E+00
  0.199964010397E+02 -0.871794871790E+00  0.379928020793E+00
  0.100000000000E+01 -0.923076923080E+00  0.000000000000E+00
  0.199964010397E+02 -0.923076923080E+00  0.379928020793E+00
  0.100000000000E+01 -0.974358974360E+00  0.000000000000E+00
  0.199964010397E+02 -0.974358974360E+00  0.379928020793E+00
  0.100000000000E+01 -0.102564102560E+01  0.000000000000E+00
  0.199964010397E+02 -0.102564102560E+01  0.379928020793E+00
  0.100000000000E+01 -0.107692307690E+01  0.000000000000E+00
  0.199964010397E+02 -0.107692307690E+01  0.379928020793E+00
  0.100000000000E+01 -0.112820512820E+01  0.000000000000E+00
  0.199964010397E+02 -0.112820512820E+01  0.379928020793E+00
  0.100000000000E+01 -0.117948717950E+01  0.000000000000E+00
  0.199964010397E+02 -0.117948717950E+01  0.379928020793E+00
  0.100000000000E+01 -0.123076923080E+01  0.000000000000E+00
  0.199964010397E+02 -0.123076923080E+01  0.379928020793E+00
  0.100000000000E+01 -0.128205128210E+01  0.000000000000E+00
  0.199964010397E+02 -0.128205128210E+01  0.379928020793E+00
  0.100000000000E+01 -0.133333333330E+01  0.000000000000E+00
  0.199964010397E+02 -0.133333333330E+01  0.379928020793E+00
  0.100000000000E+01 -0.138461538460E+01  0.000000000000E+00
  0.199964010397E+02 -0.138461538460E+01  0.379928020793E+00
  0.100000000000E+01 -0.143589743590E+01  0.000000000000E+00
  0.199964010397E+02 -0.143589743590E+01  0.379928020793E+00
  0.100000000000E+01 -0.148717948720E+01  0.000000000000E+00
  0.199964010397E+02 -0.148717948720E+01  0.379928020793E+00
  0.100000000000E+01 -0.153846153850E+01  0.000000000000E+00
  0.199964010397E+02 -0.153846153850E+01  0.379928020793E+00
  0.100000000000E+01 -0.158974358970E+01  0.000000000000E+00
  0.199964010397E+02 -0.158974358970E+01  0.379928020793E+00
  0.100000000000E+01 -0.164102564100E+01  0.000000000000E+00
  0.199964010397E+02 -0.164102564100E+01  0.379928020793E+00
  0.100000000000E+01 -0.169230769230E+01  0.000000000000E+00
  0.199964010397E+02 -0.169230769230E+01  0.379928020793E+00
  0.100000000000E+01 -0.174358974360E+01  0.000000000000E+00
  0.199964010397E+02 -0.174358974360E+01  0.379928020793E+00
  0.100000000000E+01 -0.179487179490E+01  0.000000000000E+00
  0.199964010397E+02 -0.179487179490E+01  0.379928020793E+00
  0.100000000000E+01 -0.184615384620E+01  0.000000000000E+00
  0.199964010397E+02 -0.184615384620E+01  0.379928020793E+00
  0.100000000000E+01 -0.189743589740E+01  0.000000000000E+00
  0.199964010397E+02 -0.189743589740E+01  0.379928020793E+00
  0.100000000000E+01 -0.194871794870E+01  0.000000000000E+00
  0.199964010397E+02 -0.194871794870E+01  0.379928020793E+00
  0.100000000000E+01 -0.200000000000E+01  0.000000000000E+00
  0.199964010397E+02 -0.200000000000E+01  0.379928020793E+00
POLYGONS                 156                 624
3                   2                   3                   1
3                   2                   1                   0
3                   4                   5                   3
3                   4                   3                   2
3                   6                   7                   5
3                   6                   5                   4
3                   8                   9                   7
3                   8                   7                   6
3                  10                  11                   9
3                  10                   9                   8
3                  12                  13                  11
3                  12                  11                  10
3                  14                  15                  13
3                  14                  13                  12
3                  16                  17                  15
3                  16                  15                  14
3                  18                  19                  17
3                  18                  17                  16
3                  20                  21                  19
3                  20                  19                  18
3                  22                  23                  21
3                  22                  21                  20
3                  24                  25                  23
3                  24                  23                  22
3                  26                  27                  25
3                  26                  25                  24
3                  28                  29                  27
3                  28                  27                  26
3                  30                  31                  29
3                  30                  29                  28
3                  32                  33                  31
3                  32                  31                  30
3                  34                  35                  33
3                  34                  33                  32
3                  36                  37                  35
3                  36                  35                  34
3                  38                  39                  37
3                  38                  37                  36
3                  40                  41                  39
3                  40                  39                  38
3                  42                  43                  41
3                  42                  41                  40
3                  44                  45                  43
3                  44                  43                  42
3                  46                  47                  45
3                  46                  45                  44
3                  48                  49                  47
3                  48                  47                  46
3                  50                  51                  49
3                  50                  49                  48
3                  52                  53                  51
3                  52                  51                  50
3                  54                  55                  53
3                  54                  53                  52
3                  56                  57                  55
3                  56                  55                  54
3                  58                  59                  57
3                  58                  57                  56
3                  60                  61                  59
3                  60                  59                  58
3                  62                  63                  61
3                  62                  61                  60
3                  64                  65                  63
3                  64                  63                  62
3                  66                  67                  65
3                  66                  65                  64
3                  68                  69                  67
3                  68                  67                  66
3                  70                  71                  69
3                  70                  69                  68
3                  72                  73                  71
3                  72                  71                  70
3                  74                  75                  73
3                  74                  73                  72
3                  76                  77                  75
3                  76                  75                  74
3                  78                  79                  77
3                  78                  77                  76
3                   0                   1                  81
3                   0                  81                  80
3                  80                  81                  83
3                  80                  83                  82
3                  82                  83                  85
3                  82                  85                  84
3                  84                  85                  87
3                  84                  87                  86
3                  86                  87                  89
3                  86                  89                  88
3                  88                  89                  91
3                  88                  91                  90
3                  90                  91                  93
3                  90                  93                  92
3                  92                  93                  95
3                  92                  95                  94
3                  94                  95                  97
3                  94                  97                  96
3                  96                  97                  99
3                  96                  99                  98
3                  98                  99                 101
3                  98                 101                 100
3                 100                 101                 103
3                 100                 103                 102
3                 102                 103                 105
3                 102                 105                 104
3                 104                 105                 107
3                 104                 107                 106
3                 106                 107                 109
3                 106                 109                 108
3                 108                 109                 111
3                 108                 111                 110
3                 110                 111                 113
3                 110                 113                 112
3                 112                 113                 115
3                 112                 115                 114
3                 114                 115                 117
3                 114                 117                 116
3                 116                 117                 119
3                 116                 119                 118
3                 118                 119                 121
3                 118                 121                 120
3                 120                 121                 123
3                 120                 123                 122
3                 124                 125                 127
3                 124                 127                 126
3                 126                 127                 129
3                 126                 129                 128
3                 128                 129                 131
3                 128                 131                 130
3                 130                 131                 133
3                 130                 133                 132
3                 132                 133                 135
3                 132                 135                 134
3                 134                 135                 137
3                 134                 137                 136
3                 136                 137                 139
3                 136                 139                 138
3                 138                 139                 141
3                 138                 141                 140
3                 140                 141                 143
3                 140                 143                 142
3                 142                 143                 145
3                 142                 145                 144
3                 144                 145                 147
3                 144                 147                 146
3                 146                 147                 149
3                 146                 149                 148
3                 148                 149                 151
3                 148                 151                 150
3                 150                 151                 153
3                 150                 153                 152
3                 152                 153                 155
3                 152                 155                 154
3                 122                 123                 125
3                 122                 125                 124
3                 154                 155                 157
3                 154                 157                 156
CELL_DATA                 156
NORMALS normals float
  0.199960011996E-01  0.000000000000E+00 -0.999800059980E+00
  0.199960011996E-01  0.000000000000E+00 -0.999800059980E+00
  0.199960011996E-01  0.000000000000E+00 -0.999800059980E+00
  0.199960011996E-01  0.000000000000E+00 -0.999800059980E+00
  0.199960011996E-01  0.000000000000E+00 -0.999800059980E+00
  0.199960011996E-01  0.000000000000E+00 -0.999800059980E+00
  0.199960011996E-01  0.000000000000E+00 -0.999800059980E+00
  0.199960011996E-01  0.000000000000E+00 -0.999800059980E+00
  0.199960011996E-01  0.000000000000E+00 -0.999800059980E+00
  0.199960011996E-01  0.000000000000E+00 -0.999800059980E+00
  0.199960011996E-01  0.000000000000E+00 -0.999800059980E+00
  0.199960011996E-01  0.000000000000E+00 -0.999800059980E+00
  0.199960011996E-01  0.000000000000E+00 -0.999800059980E+00
  0.199960011996E-01  0.000000000000E+00 -0.999800059980E+00
  0.199960011996E-01  0.000000000000E+00 -0.999800059980E+00
  0.199960011996E-01  0.000000000000E+00 -0.999800059980E+00
  0.199960011996E-01  0.000000000000E+00 -0.999800059980E+00
  0.199960011996E-01  0.000000000000E+00 -0.999800059980E+00
  0.199960011996E-01  0.000000000000E+00 -0.999800059980E+00
  0.199960011996E-01  0.000000000000E+00 -0.999800059980E+00
  0.199960011996E-01  0.000000000000E+00 -0.999800059980E+00
  0.199960011996E-01  0.000000000000E+00 -0.999800059980E+00
  0.199960011996E-01  0.000000000000E+00 -0.999800059980E+00
  0.199960011996E-01  0.000000000000E+00 -0.999800059980E+00
  0.199960011996E-01  0.000000000000E+00 -0.999800059980E+00
  0.199960011996E-01  0.000000000000E+00 -0.999800059980E+00
  0.199960011996E-01  0.000000000000E+00 -0.999800059980E+00
  0.199960011996E-01  0.000000000000E+00 -0.999800059980E+00
  0.199960011996E-01  0.000000000000E+00 -0.999800059980E+00
  0.199960011996E-01  0.000000000000E+00 -0.999800059980E+00
  0.199960011996E-01  0.000000000000E+00 -0.999800059980E+00
  0.199960011996E-01  0.000000000000E+00 -0.999800059980E+00
  0.199960011996E-01  0.000000000000E+00 -0.999800059980E+00
  0.199960011996E-01  0.000000000000E+00 -0.999800059980E+00
  0.199960011996E-01  0.000000000000E+00 -0.999800059980E+00
  0.199960011996E-01  0.000000000000E+00 -0.999800059980E+00
  0.199960011996E-01  0.000000000000E+00 -0.999800059980E+00
  0.199960011996E-01  0.000000000000E+00 -0.999800059980E+00
  0.199960011996E-01  0.000000000000E+00 -0.999800059980E+00
  0.199960011996E-01  0.000000000000E+00 -0.999800059980E+00
  0.199960011996E-01  0.000000000000E+00 -0.999800059980E+00
  0.199960011996E-01  0.000000000000E+00 -0.999800059980E+00
  0.199960011996E-01  0.000000000000E+00 -0.999800059980E+00
  0.199960011996E-01  0.000000000000E+00 -0.999800059980E+00
  0.199960011996E-01  0.000000000000E+00 -0.999800059980E+00
  0.199960011996E-01  0.000000000000E+00 -0.999800059980E+00
  0.199960011996E-01  0.000000000000E+00 -0.999800059980E+00
  0.199960011996E-01  0.000000000000E+00 -0.999800059980E+00
  0.199960011996E-01  0.000000000000E+00 -0.999800059980E+00
  0.199960011996E-01  0.000000000000E+00 -0.999800059980E+00
  0.199960011996E-01  0.000000000000E+00 -0.999800059980E+00
  0.199960011996E-01  0.000000000000E+00 -0.999800059980E+00
  0.199960011996E-01  0.000000000000E+00 -0.999800059980E+00
  0.199960011996E-01  0.000000000000E+00 -0.999800059980E+00
  0.199960011996E-01  0.000000000000E+00 -0.999800059980E+00
  0.199960011996E-01  0.000000000000E+00 -0.999800059980E+00
  0.199960011996E-01  0.000000000000E+00 -0.999800059980E+00
  0.199960011996E-01  0.000000000000E+00 -0.999800059980E+00
  0.199960011996E-01  0.000000000000E+00 -0.999800059980E+00
  0.199960011996E-01  0.000000000000E+00 -0.999800059980E+00
  0.199960011996E-01  0.000000000000E+00 -0.999800059980E+00
  0.199960011996E-01  0.000000000000E+00 -0.999800059980E+00
  0.199960011996E-01  0.000000000000E+00 -0.999800059980E+00
  0.199960011996E-01  0.000000000000E+00 -0.999800059980E+00
  0.199960011996E-01  0.000000000000E+00 -0.999800059980E+00
  0.199960011996E-01  0.000000000000E+00 -0.999800059980E+00
  0.199960011996E-01  0.000000000000E+00 -0.999800059980E+00
  0.199960011996E-01  0.000000000000E+00 -0.999800059980E+00
  0.199960011996E-01  0.000000000000E+00 -0.999800059980E+00
  0.199960011996E-01  0.000000000000E+00 -0.999800059980E+00
  0.199960011996E-01  0.000000000000E+00 -0.999800059980E+00
  0.199960011996E-01  0.000000000000E+00 -0.999800059980E+00
  0.199960011996E-01  0.000000000000E+00 -0.999800059980E+00
  0.199960011996E-01  0.000000000000E+00 -0.999800059980E+00
  0.199960011996E-01  0.000000000000E+00 -0.999800059980E+00
  0.199960011996E-01  0.000000000000E+00 -0.999800059980E+00
  0.199960011996E-01  0.000000000000E+00 -0.999800059980E+00
  0.199960011996E-01  0.000000000000E+00 -0.999800059980E+00
  0.199960011996E-01  0.000000000000E+00 -0.999800059980E+00
  0.199960011996E-01  0.000000000000E+00 -0.999800059980E+00
  0.199960011996E-01  0.000000000000E+00 -0.999800059980E+00
  0.199960011996E-01  0.000000000000E+00 -0.999800059980E+00
  0.199960011996E-01  0.000000000000E+00 -0.999800059980E+00
  0.199960011996E-01  0.000000000000E+00 -0.999800059980E+00
  0.199960011996E-01  0.000000000000E+00 -0.999800059980E+00
  0.199960011996E-01  0.000000000000E+00 -0.999800059980E+00
  0.199960011996E-01  0.000000000000E+00 -0.999800059980E+00
  0.199960011996E-01  0.000000000000E+00 -0.999800059980E+00
  0.199960011996E-01  0.000000000000E+00 -0.999800059980E+00
  0.199960011996E-01  0.000000000000E+00 -0.999800059980E+00
  0.199960011996E-01  0.000000000000E+00 -0.999800059980E+00
  0.199960011996E-01  0.000000000000E+00 -0.999800059980E+00
  0.199960011996E-01  0.000000000000E+00 -0.999800059980E+00
  0.199960011996E-01  0.000000000000E+00 -0.999800059980E+00
  0.199960011996E-01  0.000000000000E+00 -0.999800059980E+00
  0.199960011996E-01  0.000000000000E+00 -0.999800059980E+00
  0.199960011996E-01  0.000000000000E+00 -0.999800059980E+00
  0.199960011996E-01  0.000000000000E+00 -0.999800059980E+00
  0.199960011996E-01  0.000000000000E+00 -0.999800059980E+00
  0.199960011996E-01  0.000000000000E+00 -0.999800059980E+00
  0.199960011996E-01  0.000000000000E+00 -0.999800059980E+00
  0.199960011996E-01  0.000000000000E+00 -0.999800059980E+00
  0.199960011996E-01  0.000000000000E+00 -0.999800059980E+00
  0.199960011996E-01  0.000000000000E+00 -0.999800059980E+00
  0.199960011996E-01  0.000000000000E+00 -0.999800059980E+00
  0.199960011996E-01  0.000000000000E+00 -0.999800059980E+00
  0.199960011996E-01  0.000000000000E+00 -0.999800059980E+00
  0.199960011996E-01  0.000000000000E+00 -0.999800059980E+00
  0.199960011996E-01  0.000000000000E+00 -0.999800059980E+00
  0.199960011996E-01  0.000000000000E+00 -0.999800059980E+00
  0.199960011996E-01  0.000000000000E+00 -0.999800059980E+00
  0.199960011996E-01  0.000000000000E+00 -0.999800059980E+00
  0.199960011996E-01  0.000000000000E+00 -0.999800059980E+00
  0.199960011996E-01  0.000000000000E+00 -0.999800059980E+00
  0.199960011996E-01  0.000000000000E+00 -0.999800059980E+00
  0.199960011996E-01  0.000000000000E+00 -0.999800059980E+00
  0.199960011996E-01  0.000000000000E+00 -0.999800059980E+00
  0.199960011996E-01  0.000000000000E+00 -0.999800059980E+00
  0.199960011996E-01  0.000000000000E+00 -0.999800059980E+00
  0.199960011996E-01  0.000000000000E+00 -0.999800059980E+00
  0.199960011996E-01  0.000000000000E+00 -0.999800059980E+00
  0.199960011996E-01  0.000000000000E+00 -0.999800059980E+00
  0.199960011996E-01  0.000000000000E+00 -0.999800059980E+00
  0.199960011996E-01  0.000000000000E+00 -0.999800059980E+00
  0.199960011996E-01  0.000000000000E+00 -0.999800059980E+00
  0.199960011996E-01  0.000000000000E+00 -0.999800059980E+00
  0.199960011996E-01  0.000000000000E+00 -0.999800059980E+00
  0.199960011996E-01  0.000000000000E+00 -0.999800059980E+00
  0.199960011996E-01  0.000000000000E+00 -0.999800059980E+00
  0.199960011996E-01  0.000000000000E+00 -0.999800059980E+00
  0.199960011996E-01  0.000000000000E+00 -0.999800059980E+00
  0.199960011996E-01  0.000000000000E+00 -0.999800059980E+00
  0.199960011996E-01  0.000000000000E+00 -0.999800059980E+00
  0.199960011996E-01  0.000000000000E+00 -0.999800059980E+00
  0.199960011996E-01  0.000000000000E+00 -0.999800059980E+00
  0.199960011996E-01  0.000000000000E+00 -0.999800059980E+00
  0.199960011996E-01  0.000000000000E+00 -0.999800059980E+00
  0.199960011996E-01  0.000000000000E+00 -0.999800059980E+00
  0.199960011996E-01  0.000000000000E+00 -0.999800059980E+00
  0.199960011996E-01  0.000000000000E+00 -0.999800059980E+00
  0.199960011996E-01  0.000000000000E+00 -0.999800059980E+00
  0.199960011996E-01  0.000000000000E+00 -0.999800059980E+00
  0.199960011996E-01  0.000000000000E+00 -0.999800059980E+00
  0.199960011996E-01  0.000000000000E+00 -0.999800059980E+00
  0.199960011996E-01  0.000000000000E+00 -0.999800059980E+00
  0.199960011996E-01  0.000000000000E+00 -0.999800059980E+00
  0.199960011996E-01  0.000000000000E+00 -0.999800059980E+00
  0.199960011996E-01  0.000000000000E+00 -0.999800059980E+00
  0.199960011996E-01  0.000000000000E+00 -0.999800059980E+00
  0.199960011996E-01  0.000000000000E+00 -0.999800059980E+00
  0.199960011996E-01  0.000000000000E+00 -0.999800059980E+00
  0.199960011996E-01  0.000000000000E+00 -0.999800059980E+00
  0.199960011996E-01  0.000000000000E+00 -0.999800059980E+00
  0.199960011996E-01  0.000000000000E+00 -0.999800059980E+00
  0.199960011996E-01  0.000000000000E+00 -0.999800059980E+00
  0.199960011996E-01  0.000000000000E+00 -0.999800059980E+00
POINT_DATA                 158
SCALARS mu float 1
LOOKUP_TABLE default
 -0.230893934601E-01
 -0.230893934601E-01
 -0.230893934637E-01
 -0.230893934637E-01
 -0.230893933953E-01
 -0.230893933953E-01
 -0.230893932674E-01
 -0.230893932674E-01
 -0.230893933919E-01
 -0.230893933919E-01
 -0.230893934690E-01
 -0.230893934690E-01
 -0.230893934818E-01
 -0.230893934818E-01
 -0.230893934551E-01
 -0.230893934551E-01
 -0.230893934216E-01
 -0.230893934216E-01
 -0.230893933551E-01
 -0.230893933551E-01
 -0.230893934003E-01
 -0.230893934003E-01
 -0.230893933187E-01
 -0.230893933187E-01
 -0.230893933467E-01
 -0.230893933467E-01
 -0.230893933074E-01
 -0.230893933074E-01
 -0.230893932029E-01
 -0.230893932029E-01
 -0.230893931394E-01
 -0.230893931394E-01
 -0.230893932636E-01
 -0.230893932636E-01
 -0.230893932489E-01
 -0.230893932489E-01
 -0.230893932598E-01
 -0.230893932598E-01
 -0.230893931260E-01
 -0.230893931260E-01