# vtk DataFile Version 3.0
MachLine results file. Generated by MachLine, USU AeroLab (c) 2022.
ASCII
DATASET POLYDATA
POINTS                1696 float
  0.905931499022E-09  0.000000000000E+00  0.000000000000E+00
  0.839810924757E-09  0.104252345860E+00  0.000000000000E+00
  0.862789702725E-09  0.211780935526E+00  0.000000000000E+00
  0.884360792927E-09  0.322413772345E+00  0.000000000000E+00
  0.904316388270E-09  0.435950160027E+00  0.000000000000E+00
  0.922457449923E-09  0.552161276340E+00  0.000000000000E+00
  0.938595427314E-09  0.670791566372E+00  0.000000000000E+00
  0.952557720842E-09  0.791560173035E+00  0.000000000000E+00
  0.964192270663E-09  0.914163351059E+00  0.000000000000E+00
  0.973367516934E-09  0.103827738762E+01  0.206652096611E-24
  0.979980238874E-09  0.116356134415E+01  0.000000000000E+00
  0.983952093554E-09  0.128966128826E+01  0.000000000000E+00
  0.985238640739E-09  0.141621339321E+01  0.000000000000E+00
  0.983824575753E-09  0.154284906387E+01  0.000000000000E+00
  0.979725457925E-09  0.166919851303E+01  0.000000000000E+00
  0.972990544157E-09  0.179489517212E+01  0.000000000000E+00
  0.963696041919E-09  0.191958034039E+01  0.000000000000E+00
  0.951949225995E-09  0.204290652275E+01  0.000000000000E+00
  0.937881478154E-09  0.216454195976E+01  0.000000000000E+00
  0.921645870834E-09  0.228417348862E+01  0.000000000000E+00
  0.903417373379E-09  0.240150952339E+01  0.000000000000E+00
  0.883383054067E-09  0.251628303528E+01  0.000000000000E+00
  0.861744006556E-09  0.262825274467E+01  0.000000000000E+00
  0.838709256811E-09  0.273720526695E+01  0.000000000000E+00
  0.814486612462E-09  0.284295582771E+01  0.000000000000E+00
  0.789290885829E-09  0.294534778595E+01  0.000000000000E+00
  0.763329137445E-09  0.304425406456E+01  0.000000000000E+00
  0.736803663106E-09  0.313957524300E+01  0.000000000000E+00
  0.709908530805E-09  0.323123931885E+01  0.000000000000E+00
  0.682826086384E-09  0.331920027733E+01  0.000000000000E+00
  0.655727805612E-09  0.340343642235E+01 -0.139215171534E-24
  0.628768234502E-09  0.348394894600E+01  0.133491483619E-24
  0.602089290102E-09  0.356075930595E+01  0.000000000000E+00
  0.575819839183E-09  0.363390779495E+01  0.122250203512E-24
  0.550069653110E-09  0.370345163345E+01  0.000000000000E+00
  0.524936713185E-09  0.376946210861E+01  0.000000000000E+00
  0.500503805820E-09  0.383202338219E+01  0.000000000000E+00
  0.476838929625E-09  0.389123010635E+01  0.000000000000E+00
  0.453998738652E-09  0.394718551636E+01 -0.963868113215E-25
  0.432402153180E-10  0.399999999977E+01 -0.145026102323E-25
  0.145739718136E-01  0.000000000000E+00 -0.127505649153E-02
  0.145739718136E-01  0.000000000000E+00  0.127505649153E-02
  0.145739718145E-01  0.104252345860E+00 -0.127505648113E-02
  0.145739718145E-01  0.104252345860E+00  0.127505648113E-02
  0.145739718165E-01  0.211780935526E+00 -0.127505645797E-02
  0.145739718165E-01  0.211780935526E+00  0.127505645797E-02
  0.145739718184E-01  0.322413772345E+00 -0.127505643616E-02
  0.145739718184E-01  0.322413772345E+00  0.127505643616E-02
  0.145739718202E-01  0.435950160027E+00 -0.127505641590E-02
  0.145739718202E-01  0.435950160027E+00  0.127505641590E-02
  0.145739718218E-01  0.552161276340E+00 -0.127505639739E-02
  0.145739718218E-01  0.552161276340E+00  0.127505639739E-02
  0.145739718233E-01  0.670791566372E+00 -0.127505638083E-02
  0.145739718233E-01  0.670791566372E+00  0.127505638083E-02
  0.145739718245E-01  0.791560173035E+00 -0.127505636639E-02
  0.145739718245E-01  0.791560173035E+00  0.127505636639E-02
  0.145739718256E-01  0.914163351059E+00 -0.127505635423E-02
  0.145739718256E-01  0.914163351059E+00  0.127505635423E-02
  0.145739718265E-01  0.103827738762E+01 -0.127505634448E-02
  0.145739718265E-01  0.103827738762E+01  0.127505634448E-02
  0.145739718271E-01  0.116356134415E+01 -0.127505633726E-02
  0.145739718271E-01  0.116356134415E+01  0.127505633726E-02
  0.145739718275E-01  0.128966128826E+01 -0.127505633265E-02
  0.145739718275E-01  0.128966128826E+01  0.127505633265E-02
  0.145739718277E-01  0.141621339321E+01 -0.127505633070E-02
  0.145739718277E-01  0.141621339321E+01  0.127505633070E-02
  0.145739718276E-01  0.154284906387E+01 -0.127505633143E-02
  0.145739718276E-01  0.154284906387E+01  0.127505633143E-02
  0.145739718273E-01  0.166919851303E+01 -0.127505633484E-02
  0.145739718273E-01  0.166919851303E+01  0.127505633484E-02
  0.145739718268E-01  0.179489517212E+01 -0.127505634089E-02
  0.145739718268E-01  0.179489517212E+01  0.127505634089E-02
  0.145739718260E-01  0.191958034039E+01 -0.127505634951E-02
  0.145739718260E-01  0.191958034039E+01  0.127505634951E-02
  0.145739718250E-01  0.204290652275E+01 -0.127505636059E-02
  0.145739718250E-01  0.204290652275E+01  0.127505636059E-02
  0.145739718239E-01  0.216454195976E+01 -0.127505637402E-02
  0.145739718239E-01  0.216454195976E+01  0.127505637402E-02
  0.145739718225E-01  0.228417348862E+01 -0.127505638964E-02
  0.145739718225E-01  0.228417348862E+01  0.127505638964E-02
  0.145739718210E-01  0.240150952339E+01 -0.127505640729E-02
  0.145739718210E-01  0.240150952339E+01  0.127505640729E-02
  0.145739718193E-01  0.251628303528E+01 -0.127505642678E-02
  0.145739718193E-01  0.251628303528E+01  0.127505642678E-02
  0.145739718174E-01  0.262825274467E+01 -0.127505644791E-02
  0.145739718174E-01  0.262825274467E+01  0.127505644791E-02
  0.145739718154E-01  0.273720526695E+01 -0.127505647049E-02
  0.145739718154E-01  0.273720526695E+01  0.127505647049E-02
  0.145739718133E-01  0.284295582771E+01 -0.127505649429E-02
  0.145739718133E-01  0.284295582771E+01  0.127505649429E-02
  0.145739718112E-01  0.294534778595E+01 -0.127505651911E-02
  0.145739718112E-01  0.294534778595E+01  0.127505651911E-02
  0.145739718089E-01  0.304425406456E+01 -0.127505654475E-02
  0.145739718089E-01  0.304425406456E+01  0.127505654475E-02
  0.145739718066E-01  0.313957524300E+01 -0.127505657098E-02
  0.145739718066E-01  0.313957524300E+01  0.127505657098E-02
  0.145739718043E-01  0.323123931885E+01 -0.127505659763E-02
  0.145739718043E-01  0.323123931885E+01  0.127505659763E-02
  0.145739718020E-01  0.331920027733E+01 -0.127505662451E-02
  0.145739718020E-01  0.331920027733E+01  0.127505662451E-02
  0.145739717996E-01  0.340343642235E+01 -0.127505665143E-02
  0.145739717996E-01  0.340343642235E+01  0.127505665143E-02
  0.145739717973E-01  0.348394894600E+01 -0.127505667825E-02
  0.145739717973E-01  0.348394894600E+01  0.127505667825E-02
  0.145739717949E-01  0.356075930595E+01 -0.127505670482E-02
  0.145739717949E-01  0.356075930595E+01  0.127505670482E-02
  0.145739717926E-01  0.363390779495E+01 -0.127505673100E-02
  0.145739717926E-01  0.363390779495E+01  0.127505673100E-02
  0.145739717904E-01  0.370345163345E+01 -0.127505675669E-02
  0.145739717904E-01  0.370345163345E+01  0.127505675669E-02
  0.145739717882E-01  0.376946210861E+01 -0.127505678177E-02
  0.145739717882E-01  0.376946210861E+01  0.127505678177E-02
  0.145739717861E-01  0.383202338219E+01 -0.127505680617E-02
  0.145739717861E-01  0.383202338219E+01  0.127505680617E-02
  0.145739717840E-01  0.389123010635E+01 -0.127505682981E-02
  0.145739717840E-01  0.389123010635E+01  0.127505682981E-02
  0.145739717820E-01  0.394718551636E+01 -0.127505685264E-02
  0.145739717820E-01  0.394718551636E+01  0.127505685264E-02
  0.145739717664E-01  0.399999999994E+01 -0.127505703124E-02
  0.145739717664E-01  0.399999999994E+01  0.127505703124E-02
  0.145739717516E-01  0.400090122214E+01 -0.901424828943E-03
  0.145739717516E-01  0.400090122214E+01  0.901424828943E-03
  0.145739717496E-01  0.400127506246E+01  0.000000000000E+00
  0.341100134704E-01  0.000000000000E+00 -0.298423863047E-02
  0.341100134704E-01  0.000000000000E+00  0.298423863047E-02
  0.341100134712E-01  0.104252345860E+00 -0.298423862116E-02
  0.341100134712E-01  0.104252345860E+00  0.298423862116E-02
  0.341100134733E-01  0.211780935526E+00 -0.298423859811E-02
  0.341100134733E-01  0.211780935526E+00  0.298423859811E-02
  0.341100134752E-01  0.322413772345E+00 -0.298423857639E-02
  0.341100134752E-01  0.322413772345E+00  0.298423857639E-02
  0.341100134769E-01  0.435950160027E+00 -0.298423855621E-02
  0.341100134769E-01  0.435950160027E+00  0.298423855621E-02
  0.341100134785E-01  0.552161276340E+00 -0.298423853778E-02
  0.341100134785E-01  0.552161276340E+00  0.298423853778E-02
  0.341100134800E-01  0.670791566372E+00 -0.298423852128E-02
  0.341100134800E-01  0.670791566372E+00  0.298423852128E-02
  0.341100134812E-01  0.791560173035E+00 -0.298423850690E-02
  0.341100134812E-01  0.791560173035E+00  0.298423850690E-02
  0.341100134823E-01  0.914163351059E+00 -0.298423849478E-02
  0.341100134823E-01  0.914163351059E+00  0.298423849478E-02
  0.341100134832E-01  0.103827738762E+01 -0.298423848507E-02
  0.341100134832E-01  0.103827738762E+01  0.298423848507E-02
  0.341100134838E-01  0.116356134415E+01 -0.298423847787E-02
  0.341100134838E-01  0.116356134415E+01  0.298423847787E-02
  0.341100134842E-01  0.128966128826E+01 -0.298423847327E-02
  0.341100134842E-01  0.128966128826E+01  0.298423847327E-02
  0.341100134844E-01  0.141621339321E+01 -0.298423847133E-02
  0.341100134844E-01  0.141621339321E+01  0.298423847133E-02
  0.341100134843E-01  0.154284906387E+01 -0.298423847206E-02
  0.341100134843E-01  0.154284906387E+01  0.298423847206E-02
  0.341100134840E-01  0.166919851303E+01 -0.298423847546E-02
  0.341100134840E-01  0.166919851303E+01  0.298423847546E-02
  0.341100134835E-01  0.179489517212E+01 -0.298423848148E-02
  0.341100134835E-01  0.179489517212E+01  0.298423848148E-02
  0.341100134827E-01  0.191958034039E+01 -0.298423849007E-02
  0.341100134827E-01  0.191958034039E+01  0.298423849007E-02
  0.341100134818E-01  0.204290652275E+01 -0.298423850111E-02
  0.341100134818E-01  0.204290652275E+01  0.298423850111E-02
  0.341100134806E-01  0.216454195976E+01 -0.298423851448E-02
  0.341100134806E-01  0.216454195976E+01  0.298423851448E-02
[...]
POINT_DATA                1696
SCALARS phi float 1
LOOKUP_TABLE default
  0.000000000000E+00
 -0.646234853557E-26
 -0.646234853557E-26
  0.000000000000E+00
  0.000000000000E+00
 -0.646234853557E-26
 -0.646234853557E-26
  0.646234853557E-26
  0.000000000000E+00
 -0.646234853557E-26
  0.000000000000E+00
  0.646234853557E-26
 -0.646234853557E-26
  0.646234853557E-26
  0.646234853557E-26
 -0.646234853557E-26
  0.000000000000E+00
  0.646234853557E-26
 -0.646234853557E-26
 -0.646234853557E-26
 -0.646234853557E-26
 -0.646234853557E-26
  0.646234853557E-26
  0.000000000000E+00
  0.646234853557E-26
  0.000000000000E+00
 -0.646234853557E-26
 -0.646234853557E-26
  0.000000000000E+00
  0.000000000000E+00
  0.323117426779E-26
  0.000000000000E+00
  0.000000000000E+00
 -0.323117426779E-26
  0.000000000000E+00
  0.323117426779E-26
  0.000000000000E+00
 -0.323117426779E-26
  0.323117426779E-26
  0.302922587605E-27
 -0.108420217249E-18
  0.108420217249E-18
 -0.108420217249E-18
 -0.108420217249E-18
  0.000000000000E+00
  0.000000000000E+00
 -0.108420217249E-18
  0.000000000000E+00
  0.000000000000E+00
  0.000000000000E+00
  0.000000000000E+00
  0.000000000000E+00
 -0.108420217249E-18
 -0.216840434497E-18
  0.000000000000E+00
  0.000000000000E+00
 -0.108420217249E-18
 -0.108420217249E-18
  0.000000000000E+00
 -0.108420217249E-18
  0.000000000000E+00
  0.000000000000E+00
  0.108420217249E-18
  0.216840434497E-18
  0.000000000000E+00
  0.000000000000E+00
  0.108420217249E-18
  0.108420217249E-18
  0.000000000000E+00
  0.000000000000E+00
 -0.108420217249E-18
  0.000000000000E+00
 -0.108420217249E-18
  0.108420217249E-18
 -0.108420217249E-18
  0.000000000000E+00
  0.000000000000E+00
  0.000000000000E+00
  0.000000000000E+00
 -0.108420217249E-18
 -0.108420217249E-18
 -0.108420217249E-18
  0.000000000000E+00
  0.000000000000E+00
  0.000000000000E+00
  0.000000000000E+00
 -0.108420217249E-18
 -0.108420217249E-18
  0.108420217249E-18
  0.000000000000E+00
  0.000000000000E+00
 -0.108420217249E-18
  0.108420217249E-18
  0.108420217249E-18
 -0.108420217249E-18
  0.000000000000E+00
  0.108420217249E-18
  0.108420217249E-18
  0.000000000000E+00
  0.000000000000E+00
  0.000000000000E+00
  0.000000000000E+00
  0.000000000000E+00
 -0.108420217249E-18
 -0.108420217249E-18
 -0.108420217249E-18
  0.000000000000E+00
  0.000000000000E+00
  0.000000000000E+00
  0.108420217249E-18
 -0.108420217249E-18
 -0.108420217249E-18
 -0.108420217249E-18
 -0.108420217249E-18
  0.000000000000E+00
  0.000000000000E+00
 -0.108420217249E-18
 -0.216840434497E-18
  0.000000000000E+00
 -0.542101086243E-19
 -0.542101086243E-19
  0.000000000000E+00
  0.542101086243E-19
  0.000000000000E+00
 -0.433680868994E-18
 -0.433680868994E-18
  0.000000000000E+00
  0.000000000000E+00
  0.216840434497E-18
  0.433680868994E-18
 -0.216840434497E-18
  0.216840434497E-18
  0.000000000000E+00
 -0.216840434497E-18
 -0.650521303491E-18
  0.216840434497E-18
  0.000000000000E+00
 -0.216840434497E-18
 -0.433680868994E-18
  0.000000000000E+00
  0.000000000000E+00
  0.000000000000E+00
  0.000000000000E+00
 -0.650521303491E-18
 -0.650521303491E-18
  0.000000000000E+00
  0.000000000000E+00
  0.433680868994E-18
  0.433680868994E-18
  0.433680868994E-18
  0.000000000000E+00
  0.433680868994E-18
 -0.216840434497E-18
  0.433680868994E-18
 -0.216840434497E-18
  0.216840434497E-18
  0.216840434497E-18
  0.000000000000E+00
 -0.216840434497E-18
  0.000000000000E+00
 -0.650521303491E-18
 -0.216840434497E-18
  0.000000000000E+00
  0.216840434497E-18
  0.216840434497E-18
 -0.216840434497E-18
 -0.433680868994E-18
  0.216840434497E-18
 -0.433680868994E-18
  0.000000000000E+00
  0.000000000000E+00
  0.216840434497E-18
 -0.216840434497E-18
  0.000000000000E+00
  0.216840434497E-18
  0.000000000000E+00
  0.000000000000E+00
  0.000000000000E+00
 -0.650521303491E-18
 -0.216840434497E-18
 -0.433680868994E-18
  0.000000000000E+00
 -0.216840434497E-18
 -0.216840434497E-18
 -0.216840434497E-18
  0.000000000000E+00
  0.000000000000E+00
  0.433680868994E-18
 -0.216840434497E-18
 -0.216840434497E-18
 -0.216840434497E-18
  0.000000000000E+00
  0.000000000000E+00
  0.216840434497E-18
  0.433680868994E-18
  0.216840434497E-18
 -0.216840434497E-18
  0.433680868994E-18
  0.433680868994E-18
  0.216840434497E-18
 -0.216840434497E-18
 -0.216840434497E-18
  0.216840434497E-18
  0.108420217249E-18
  0.108420217249E-18
  0.000000000000E+00
 -0.867361737988E-18
 -0.130104260698E-17
 -0.433680868994E-18
  0.433680868994E-18
 -0.433680868994E-18
  0.433680868994E-18
  0.867361737988E-18
 -0.173472347598E-17
  0.000000000000E+00
  0.000000000000E+00
  0.000000000000E+00
  0.867361737988E-18
  0.130104260698E-17
  0.000000000000E+00
 -0.130104260698E-17
  0.000000000000E+00
  0.433680868994E-18
 -0.867361737988E-18
  0.000000000000E+00
 -0.433680868994E-18
  0.000000000000E+00
  0.867361737988E-18
 -0.433680868994E-18
 -0.433680868994E-18
  0.130104260698E-17
  0.433680868994E-18
  0.000000000000E+00
 -0.433680868994E-18
  0.000000000000E+00
  0.867361737988E-18
  0.433680868994E-18
  0.000000000000E+00
 -0.867361737988E-18
 -0.867361737988E-18
  0.433680868994E-18
  0.867361737988E-18
  0.433680868994E-18
 -0.173472347598E-17
  0.000000000000E+00
 -0.130104260698E-17
  0.433680868994E-18
  0.433680868994E-18
  0.000000000000E+00
 -0.867361737988E-18
  0.000000000000E+00
 -0.867361737988E-18
  0.130104260698E-17
  0.173472347598E-17
  0.000000000000E+00
 -0.867361737988E-18
 -0.433680868994E-18
  0.000000000000E+00
 -0.433680868994E-18
  0.867361737988E-18
  0.000000000000E+00
 -0.867361737988E-18
  0.867361737988E-18
  0.867361737988E-18
 -0.130104260698E-17
  0.000000000000E+00
  0.000000000000E+00
  0.000000000000E+00
  0.130104260698E-17
  0.867361737988E-18
 -0.433680868994E-18
 -0.433680868994E-18
  0.000000000000E+00
  0.433680868994E-18
 -0.867361737988E-18
  0.433680868994E-18
 -0.433680868994E-18
 -0.433680868994E-18
 -0.867361737988E-18
 -0.433680868994E-18
 -0.867361737988E-18
 -0.433680868994E-18
  0.433680868994E-18
 -0.433680868994E-18
  0.000000000000E+00
 -0.216840434497E-18
  0.000000000000E+00
 -0.216840434497E-18
  0.173472347598E-17
  0.000000000000E+00
 -0.260208521397E-17
 -0.346944695195E-17
  0.260208521397E-17
 -0.867361737988E-18
 -0.173472347598E-17
  0.867361737988E-18
 -0.867361737988E-18
  0.260208521397E-17
 -0.173472347598E-17
 -0.867361737988E-18
  0.173472347598E-17
  0.867361737988E-18
  0.260208521397E-17
 -0.260208521397E-17
  0.000000000000E+00
 -0.173472347598E-17
  0.173472347598E-17
  0.867361737988E-18
  0.173472347598E-17
 -0.867361737988E-18
 -0.260208521397E-17
 -0.173472347598E-17
 -0.173472347598E-17
 -0.867361737988E-18
 -0.867361737988E-18
 -0.173472347598E-17
  0.867361737988E-18
  0.000000000000E+00
 -0.867361737988E-18
 -0.173472347598E-17
 -0.867361737988E-18
 -0.260208521397E-17
  0.260208521397E-17
  0.173472347598E-17
 -0.867361737988E-18
 -0.346944695195E-17
  0.867361737988E-18
 -0.867361737988E-18
  0.867361737988E-18
  0.000000000000E+00
  0.173472347598E-17
  0.000000000000E+00
  0.260208521397E-17
 -0.520417042793E-17
  0.000000000000E+00
  0.000000000000E+00
  0.000000000000E+00
  0.173472347598E-17
 -0.173472347598E-17
  0.867361737988E-18
  0.000000000000E+00
  0.000000000000E+00
  0.000000000000E+00
 -0.867361737988E-18
  0.346944695195E-17
 -0.260208521397E-17
 -0.867361737988E-18
 -0.173472347598E-17
 -0.173472347598E-17
 -0.173472347598E-17
 -0.433680868994E-17
 -0.867361737988E-18
  0.520417042793E-17
 -0.867361737988E-18
  0.173472347598E-17
  0.433680868994E-17
  0.520417042793E-17
  0.000000000000E+00
  0.173472347598E-17
  0.000000000000E+00
 -0.607153216592E-17
  0.173472347598E-17
 -0.260208521397E-17
  0.000000000000E+00
  0.260208521397E-17
  0.520417042793E-17
 -0.173472347598E-17
  0.173472347598E-17
 -0.867361737988E-18
  0.000000000000E+00
 -0.433680868994E-18
 -0.867361737988E-18
  0.260208521397E-17
  0.433680868994E-17
  0.000000000000E+00
  0.000000000000E+00
 -0.260208521397E-17
 -0.867361737988E-18
 -0.867361737988E-18
 -0.260208521397E-17
 -0.867361737988E-18
  0.260208521397E-17
  0.173472347598E-17
 -0.173472347598E-17
 -0.173472347598E-17
  0.867361737988E-17
  0.000000000000E+00
  0.520417042793E-17
  0.520417042793E-17
  0.867361737988E-18
  0.000000000000E+00
 -0.867361737988E-18
 -0.173472347598E-17
 -0.867361737988E-18
 -0.173472347598E-17
  0.173472347598E-17
 -0.867361737988E-18
 -0.433680868994E-17
  0.173472347598E-17
 -0.260208521397E-17
 -0.173472347598E-17
 -0.173472347598E-17
 -0.433680868994E-17
 -0.520417042793E-17
  0.000000000000E+00
  0.000000000000E+00
  0.867361737988E-18
  0.000000000000E+00
  0.173472347598E-17
  0.000000000000E+00
  0.260208521397E-17
  0.433680868994E-17
  0.867361737988E-18
  0.173472347598E-17
  0.260208521397E-17
  0.000000000000E+00
  0.173472347598E-17
  0.867361737988E-18
 -0.260208521397E-17
  0.173472347598E-17
  0.000000000000E+00
 -0.520417042793E-17
  0.433680868994E-17
  0.173472347598E-17
  0.346944695195E-17
 -0.346944695195E-17
  0.000000000000E+00
 -0.520417042793E-17
 -0.433680868994E-17
  0.173472347598E-17
  0.607153216592E-17
  0.780625564190E-17
 -0.867361737988E-17
 -0.260208521397E-17
  0.260208521397E-17
 -0.260208521397E-17
 -0.260208521397E-17
 -0.433680868994E-17
  0.260208521397E-17
  0.173472347598E-17
  0.000000000000E+00
 -0.260208521397E-17
 -0.954097911787E-17
  0.433680868994E-17
  0.000000000000E+00
 -0.607153216592E-17
  0.260208521397E-17
  0.173472347598E-17
  0.346944695195E-17
  0.433680868994E-17
 -0.390312782095E-17
 -0.173472347598E-17
 -0.130104260698E-17
 -0.130104260698E-17
  0.433680868994E-18
  0.000000000000E+00
  0.173472347598E-17
 -0.520417042793E-17
 -0.173472347598E-17
  0.000000000000E+00
 -0.173472347598E-17
 -0.173472347598E-17
 -0.346944695195E-17
  0.693889390391E-17
  0.520417042793E-17
  0.520417042793E-17
  0.867361737988E-17
 -0.346944695195E-17
  0.346944695195E-17
  0.346944695195E-17
 -0.867361737988E-17
 -0.173472347598E-17
 -0.346944695195E-17
 -0.520417042793E-17
 -0.173472347598E-17
  0.173472347598E-17
 -0.693889390391E-17
 -0.104083408559E-16
  0.520417042793E-17
  0.346944695195E-17
 -0.520417042793E-17
  0.693889390391E-17
 -0.173472347598E-17
  0.000000000000E+00
  0.693889390391E-17
 -0.173472347598E-16
  0.173472347598E-17
 -0.867361737988E-17
  0.000000000000E+00
  0.173472347598E-17
 -0.346944695195E-17
 -0.346944695195E-17
 -0.693889390391E-17
  0.000000000000E+00
 -0.693889390391E-17
  0.346944695195E-17
  0.867361737988E-17
 -0.693889390391E-17
  0.173472347598E-17
 -0.156125112838E-16
 -0.346944695195E-17
 -0.173472347598E-17
 -0.104083408559E-16
  0.346944695195E-17
  0.000000000000E+00
  0.000000000000E+00
 -0.173472347598E-17
  0.000000000000E+00
  0.173472347598E-17
 -0.173472347598E-17
  0.000000000000E+00
  0.000000000000E+00
  0.346944695195E-17
  0.867361737988E-17
  0.121430643318E-16
  0.520417042793E-17
 -0.173472347598E-17
 -0.121430643318E-16
 -0.867361737988E-17
  0.520417042793E-17
  0.346944695195E-17
  0.867361737988E-17
  0.346944695195E-17
 -0.693889390391E-17
 -0.693889390391E-17
 -0.693889390391E-17
 -0.520417042793E-17
  0.173472347598E-17
  0.000000000000E+00
 -0.173472347598E-17
  0.520417042793E-17
  0.346944695195E-17
 -0.520417042793E-17
  0.433680868994E-17
  0.173472347598E-17
 -0.433680868994E-17
 -0.867361737988E-18
 -0.260208521397E-17
  0.173472347598E-17
 -0.867361737988E-17
  0.173472347598E-17
  0.173472347598E-17
  0.173472347598E-17
  0.000000000000E+00
  0.000000000000E+00
 -0.138777878078E-16
  0.104083408559E-16
  0.346944695195E-17
  0.867361737988E-17
 -0.138777878078E-16
  0.867361737988E-17
 -0.173472347598E-17
  0.693889390391E-17
 -0.867361737988E-17
  0.520417042793E-17
  0.000000000000E+00
  0.000000000000E+00
  0.121430643318E-16
 -0.173472347598E-17
  0.000000000000E+00
 -0.346944695195E-17
 -0.346944695195E-17
 -0.693889390391E-17
 -0.104083408559E-16
  0.000000000000E+00
 -0.520417042793E-17
  0.346944695195E-17
  0.138777878078E-16
  0.173472347598E-17
 -0.520417042793E-17
 -0.173472347598E-17
  0.346944695195E-17
 -0.173472347598E-17
  0.346944695195E-17
 -0.346944695195E-17
  0.104083408559E-16
 -0.520417042793E-17
  0.173472347598E-17
 -0.346944695195E-17
 -0.173472347598E-17
  0.173472347598E-17
 -0.693889390391E-17
 -0.346944695195E-17
  0.867361737988E-17
 -0.346944695195E-17
  0.104083408559E-16
 -0.693889390391E-17
  0.693889390391E-17
  0.867361737988E-17
 -0.346944695195E-17
  0.693889390391E-17
  0.000000000000E+00
 -0.520417042793E-17
 -0.173472347598E-17
 -0.520417042793E-17
  0.520417042793E-17
  0.520417042793E-17
  0.346944695195E-17
 -0.104083408559E-16
 -0.138777878078E-16
 -0.173472347598E-17
  0.693889390391E-17
 -0.520417042793E-17
  0.173472347598E-16
  0.520417042793E-17
 -0.693889390391E-17
 -0.346944695195E-17
  0.520417042793E-17
 -0.693889390391E-17
 -0.693889390391E-17
  0.867361737988E-17
  0.000000000000E+00
  0.867361737988E-17
  0.121430643318E-16
  0.520417042793E-17
  0.693889390391E-17
 -0.520417042793E-17
 -0.260208521397E-17
  0.346944695195E-17
  0.000000000000E+00
  0.173472347598E-17
  0.693889390391E-17
 -0.173472347598E-17
  0.000000000000E+00
 -0.346944695195E-17
 -0.346944695195E-17
 -0.346944695195E-17
  0.173472347598E-17
 -0.173472347598E-17
 -0.693889390391E-17
  0.173472347598E-17
  0.104083408559E-16
  0.000000000000E+00
  0.000000000000E+00
 -0.520417042793E-17
 -0.693889390391E-17
  0.520417042793E-17
  0.173472347598E-17
  0.346944695195E-17
  0.520417042793E-17
  0.520417042793E-17
  0.121430643318E-16
  0.000000000000E+00
 -0.346944695195E-17
 -0.346944695195E-17
 -0.346944695195E-17
 -0.867361737988E-17
 -0.121430643318E-16
 -0.173472347598E-17
 -0.104083408559E-16
 -0.346944695195E-17
  0.693889390391E-17
 -0.346944695195E-17
 -0.173472347598E-16
  0.173472347598E-17
  0.173472347598E-17
 -0.867361737988E-17
  0.173472347598E-17
  0.346944695195E-17
 -0.173472347598E-17
  0.520417042793E-17
 -0.173472347598E-17
  0.346944695195E-17
  0.104083408559E-16
 -0.693889390391E-17
  0.346944695195E-17
 -0.173472347598E-17
  0.520417042793E-17
  0.520417042793E-17
 -0.121430643318E-16
 -0.104083408559E-16
 -0.173472347598E-17
 -0.520417042793E-17
 -0.520417042793E-17
 -0.346944695195E-17
  0.346944695195E-17
  0.693889390391E-17
  0.173472347598E-16
  0.346944695195E-17
 -0.173472347598E-16
 -0.208166817117E-16
  0.104083408559E-16
  0.000000000000E+00
  0.190819582357E-16
 -0.173472347598E-17
 -0.693889390391E-17
 -0.693889390391E-17
  0.121430643318E-16
 -0.693889390391E-17
  0.104083408559E-16
 -0.346944695195E-17
  0.138777878078E-16
 -0.693889390391E-17
  0.693889390391E-17
  0.173472347598E-17
  0.173472347598E-17
  0.121430643318E-16
  0.867361737988E-17
 -0.693889390391E-17
 -0.173472347598E-17
  0.000000000000E+00
 -0.520417042793E-17
 -0.693889390391E-17
 -0.520417042793E-17
 -0.693889390391E-17
 -0.138777878078E-16
  0.000000000000E+00
  0.346944695195E-17
 -0.138777878078E-16
  0.693889390391E-17
  0.000000000000E+00
  0.346944695195E-17
  0.104083408559E-16
  0.208166817117E-16
 -0.138777878078E-16
  0.208166817117E-16
 -0.104083408559E-16
 -0.138777878078E-16
 -0.138777878078E-16
 -0.346944695195E-17
 -0.451028103754E-16
 -0.346944695195E-17
 -0.346944695195E-17
  0.000000000000E+00
 -0.104083408559E-16
 -0.693889390391E-17
 -0.138777878078E-16
 -0.346944695195E-17
 -0.693889390391E-17
 -0.173472347598E-16
  0.104083408559E-16
  0.693889390391E-17
  0.346944695195E-17
  0.693889390391E-17
  0.693889390391E-17
 -0.138777878078E-16
  0.000000000000E+00
 -0.346944695195E-17
  0.208166817117E-16
 -0.346944695195E-17
  0.138777878078E-16
 -0.693889390391E-17
  0.693889390391E-17
 -0.208166817117E-16
 -0.173472347598E-16
  0.104083408559E-16
  0.000000000000E+00
 -0.693889390391E-17
 -0.138777878078E-16
 -0.346944695195E-17
 -0.693889390391E-17
  0.104083408559E-16
 -0.138777878078E-16
 -0.138777878078E-16
  0.693889390391E-17
 -0.104083408559E-16
 -0.346944695195E-17
 -0.138777878078E-16
  0.173472347598E-16
  0.173472347598E-16
  0.312250225676E-16
  0.138777878078E-16
 -0.346944695195E-17
 -0.173472347598E-16
  0.000000000000E+00
  0.138777878078E-16
  0.138777878078E-16
  0.173472347598E-16
 -0.173472347598E-16
  0.000000000000E+00
  0.000000000000E+00
  0.693889390391E-17
 -0.173472347598E-16
  0.000000000000E+00
  0.693889390391E-17
  0.138777878078E-16
  0.693889390391E-17
  0.693889390391E-17
 -0.208166817117E-16
 -0.173472347598E-16
 -0.173472347598E-17
 -0.693889390391E-17
  0.693889390391E-17
 -0.138777878078E-16
 -0.173472347598E-17
 -0.173472347598E-17
  0.173472347598E-17
 -0.173472347598E-16
 -0.277555756156E-16
 -0.104083408559E-16
  0.346944695195E-17
 -0.346944695195E-17
 -0.693889390391E-17
 -0.381639164715E-16
  0.138777878078E-16
 -0.138777878078E-16
  0.346944695195E-17
 -0.138777878078E-16
 -0.693889390391E-17
 -0.173472347598E-16
 -0.104083408559E-16
 -0.693889390391E-17
  0.000000000000E+00
 -0.208166817117E-16
 -0.138777878078E-16
 -0.693889390391E-17
 -0.138777878078E-16
  0.173472347598E-16
 -0.693889390391E-17
  0.346944695195E-17
 -0.208166817117E-16
  0.693889390391E-17
  0.693889390391E-17
 -0.346944695195E-17
 -0.173472347598E-16
  0.346944695195E-17
  0.173472347598E-16
  0.000000000000E+00
  0.312250225676E-16
 -0.104083408559E-16
 -0.242861286637E-16
  0.208166817117E-16
  0.208166817117E-16
  0.242861286637E-16
  0.138777878078E-16
  0.000000000000E+00
  0.346944695195E-17
 -0.208166817117E-16
 -0.242861286637E-16
 -0.693889390391E-17
 -0.346944695195E-17
 -0.346944695195E-17
 -0.138777878078E-16
 -0.346944695195E-17
  0.000000000000E+00
 -0.346944695195E-17
  0.208166817117E-16
 -0.346944695195E-17
  0.138777878078E-16
  0.346944695195E-17
 -0.346944695195E-17
 -0.693889390391E-17
  0.138777878078E-16
  0.277555756156E-16
 -0.312250225676E-16
  0.346944695195E-17
  0.693889390391E-17
  0.173472347598E-16
  0.000000000000E+00
  0.000000000000E+00
 -0.242861286637E-16
  0.693889390391E-17
 -0.242861286637E-16
 -0.208166817117E-16
 -0.138777878078E-16
  0.693889390391E-17
  0.000000000000E+00
  0.000000000000E+00
  0.416333634234E-16
  0.346944695195E-16
  0.346944695195E-16
  0.693889390391E-17
  0.346944695195E-17
  0.138777878078E-16
  0.346944695195E-17
  0.173472347598E-17
 -0.867361737988E-17
 -0.173472347598E-17
 -0.693889390391E-17
 -0.173472347598E-17
 -0.277555756156E-16
 -0.346944695195E-17
  0.693889390391E-17
 -0.104083408559E-16
 -0.104083408559E-16
  0.346944695195E-17
 -0.346944695195E-17
 -0.173472347598E-16
  0.693889390391E-17
 -0.208166817117E-16
 -0.138777878078E-16
  0.104083408559E-16
 -0.693889390391E-17
  0.346944695195E-17
  0.104083408559E-16
 -0.104083408559E-16
  0.346944695195E-17
 -0.346944695195E-16
 -0.104083408559E-16
  0.693889390391E-17
  0.173472347598E-16
  0.346944695195E-17
  0.693889390391E-17
  0.346944695195E-17
 -0.242861286637E-16
 -0.693889390391E-17
 -0.451028103754E-16
  0.346944695195E-17
 -0.173472347598E-16
  0.000000000000E+00
  0.346944695195E-17
  0.208166817117E-16
  0.693889390391E-17
  0.104083408559E-16
  0.173472347598E-16
 -0.208166817117E-16
  0.693889390391E-17
 -0.208166817117E-16
  0.173472347598E-16
  0.138777878078E-16
  0.346944695195E-17
 -0.346944695195E-17
 -0.104083408559E-16
 -0.346944695195E-17
  0.104083408559E-16
 -0.104083408559E-16
 -0.693889390391E-17
 -0.242861286637E-16
  0.381639164715E-16
 -0.173472347598E-16
 -0.277555756156E-16
  0.138777878078E-16
  0.693889390391E-17
 -0.346944695195E-17
 -0.693889390391E-17
 -0.346944695195E-17
 -0.104083408559E-16
 -0.693889390391E-17
  0.346944695195E-17
  0.173472347598E-16
 -0.693889390391E-17
  0.104083408559E-16
  0.000000000000E+00
  0.000000000000E+00
  0.104083408559E-16
 -0.173472347598E-16
 -0.693889390391E-17
 -0.693889390391E-17
  0.312250225676E-16
  0.242861286637E-16
 -0.242861286637E-16
  0.173472347598E-16
  0.138777878078E-16
  0.104083408559E-16
  0.693889390391E-17
  0.693889390391E-17
 -0.173472347598E-17
 -0.693889390391E-17