# vtk DataFile Version 3.0
MachLine results file. Generated by MachLine, USU AeroLab (c) 2022.
ASCII
DATASET POLYDATA
POINTS                 446 float
  0.173045222151E-06  0.000000000000E+00  0.000000000000E+00
  0.163777672222E-06  0.217527970672E+00  0.000000000000E+00
  0.171472410752E-06  0.448061168194E+00  0.000000000000E+00
  0.177693741107E-06  0.689725637436E+00  0.000000000000E+00
  0.182165395985E-06  0.940178275108E+00  0.000000000000E+00
  0.184679072057E-06  0.119668114185E+01  0.000000000000E+00
  0.185114071064E-06  0.145621216297E+01  0.000000000000E+00
  0.183449540272E-06  0.171560299397E+01  0.000000000000E+00
  0.179766332476E-06  0.197169232368E+01  0.000000000000E+00
  0.174239021560E-06  0.222147774696E+01  0.000000000000E+00
  0.167118785558E-06  0.246225214005E+01  0.000000000000E+00
  0.158710745038E-06  0.269171094894E+01  0.000000000000E+00
  0.149347834648E-06  0.290802383423E+01  0.000000000000E+00
  0.139366198567E-06  0.310986590385E+01  0.000000000000E+00
  0.129083986066E-06  0.329641318321E+01  0.000000000000E+00
  0.118785074068E-06  0.346730756760E+01  0.000000000000E+00
  0.108709134239E-06  0.362259936333E+01  0.000000000000E+00
  0.990478698158E-07  0.376267743111E+01  0.000000000000E+00
  0.899437360601E-07  0.388819599152E+01 -0.364699587161E-22
  0.406511339581E-07  0.399999997608E+01  0.000000000000E+00
  0.341100276361E-01  0.000000000000E+00 -0.298407671612E-02
  0.341100276361E-01  0.000000000000E+00  0.298407671612E-02
  0.341100279290E-01  0.217527970672E+00 -0.298407336776E-02
  0.341100279290E-01  0.217527970672E+00  0.298407336776E-02
  0.341100286231E-01  0.448061168194E+00 -0.298406543436E-02
  0.341100286231E-01  0.448061168194E+00  0.298406543436E-02
  0.341100291965E-01  0.689725637436E+00 -0.298405888029E-02
  0.341100291965E-01  0.689725637436E+00  0.298405888029E-02
  0.341100296241E-01  0.940178275108E+00 -0.298405399379E-02
  0.341100296241E-01  0.940178275108E+00  0.298405399379E-02
  0.341100298859E-01  0.119668114185E+01 -0.298405100122E-02
  0.341100298859E-01  0.119668114185E+01  0.298405100122E-02
  0.341100299694E-01  0.145621216297E+01 -0.298405004600E-02
  0.341100299694E-01  0.145621216297E+01  0.298405004600E-02
  0.341100298707E-01  0.171560299397E+01 -0.298405117447E-02
  0.341100298707E-01  0.171560299397E+01  0.298405117447E-02
  0.341100295945E-01  0.197169232368E+01 -0.298405433119E-02
  0.341100295945E-01  0.197169232368E+01  0.298405433119E-02
  0.341100291542E-01  0.222147774696E+01 -0.298405936463E-02
  0.341100291542E-01  0.222147774696E+01  0.298405936463E-02
  0.341100285700E-01  0.246225214005E+01 -0.298406604194E-02
  0.341100285700E-01  0.246225214005E+01  0.298406604194E-02
  0.341100278676E-01  0.269171094894E+01 -0.298407407041E-02
  0.341100278676E-01  0.269171094894E+01  0.298407407041E-02
  0.341100270756E-01  0.290802383423E+01 -0.298408312279E-02
  0.341100270756E-01  0.290802383423E+01  0.298408312279E-02
  0.341100262235E-01  0.310986590385E+01 -0.298409286252E-02
  0.341100262235E-01  0.310986590385E+01  0.298409286252E-02
  0.341100253396E-01  0.329641318321E+01 -0.298410296583E-02
  0.341100253396E-01  0.329641318321E+01  0.298410296583E-02
  0.341100244495E-01  0.346730756760E+01 -0.298411313935E-02
  0.341100244495E-01  0.346730756760E+01  0.298411313935E-02
  0.341100235753E-01  0.362259936333E+01 -0.298412313172E-02
  0.341100235753E-01  0.362259936333E+01  0.298412313172E-02
  0.341100227347E-01  0.376267743111E+01 -0.298413273904E-02
  0.341100227347E-01  0.376267743111E+01  0.298413273904E-02
  0.341100219414E-01  0.388819599152E+01 -0.298414180664E-02
  0.341100219414E-01  0.388819599152E+01  0.298414180664E-02
  0.341100188820E-01  0.399999998751E+01 -0.298417677631E-02
  0.341100188820E-01  0.399999998751E+01  0.298417677631E-02
  0.341100161597E-01  0.400210950524E+01 -0.210973993587E-02
  0.341100161597E-01  0.400210950524E+01  0.210973993587E-02
  0.341100155449E-01  0.400298402237E+01  0.000000000000E+00
  0.937237820251E-01  0.000000000000E+00 -0.819958982230E-02
  0.937237820251E-01  0.000000000000E+00  0.819958982230E-02
  0.937237822043E-01  0.217527970672E+00 -0.819958777352E-02
  0.937237822043E-01  0.217527970672E+00  0.819958777352E-02
  0.937237828870E-01  0.448061168194E+00 -0.819957997074E-02
  0.937237828870E-01  0.448061168194E+00  0.819957997074E-02
  0.937237834518E-01  0.689725637436E+00 -0.819957351471E-02
  0.937237834518E-01  0.689725637436E+00  0.819957351471E-02
  0.937237838735E-01  0.940178275108E+00 -0.819956869519E-02
  0.937237838735E-01  0.940178275108E+00  0.819956869519E-02
  0.937237841320E-01  0.119668114185E+01 -0.819956573966E-02
  0.937237841320E-01  0.119668114185E+01  0.819956573966E-02
  0.937237842149E-01  0.145621216297E+01 -0.819956479220E-02
  0.937237842149E-01  0.145621216297E+01  0.819956479220E-02
  0.937237841181E-01  0.171560299397E+01 -0.819956589928E-02
  0.937237841181E-01  0.171560299397E+01  0.819956589928E-02
  0.937237838463E-01  0.197169232368E+01 -0.819956900519E-02
  0.937237838463E-01  0.197169232368E+01  0.819956900519E-02
  0.937237834131E-01  0.222147774696E+01 -0.819957395760E-02
  0.937237834131E-01  0.222147774696E+01  0.819957395760E-02
  0.937237828387E-01  0.246225214005E+01 -0.819958052245E-02
  0.937237828387E-01  0.246225214005E+01  0.819958052245E-02
  0.937237821490E-01  0.269171094894E+01 -0.819958840549E-02
  0.937237821490E-01  0.269171094894E+01  0.819958840549E-02
  0.937237813728E-01  0.290802383423E+01 -0.819959727769E-02
  0.937237813728E-01  0.290802383423E+01  0.819959727769E-02
  0.937237805397E-01  0.310986590385E+01 -0.819960680067E-02
  0.937237805397E-01  0.310986590385E+01  0.819960680067E-02
  0.937237796780E-01  0.329641318321E+01 -0.819961664901E-02
  0.937237796780E-01  0.329641318321E+01  0.819961664901E-02
  0.937237788137E-01  0.346730756760E+01 -0.819962652818E-02
  0.937237788137E-01  0.346730756760E+01  0.819962652818E-02
  0.937237779687E-01  0.362259936333E+01 -0.819963618659E-02
  0.937237779687E-01  0.362259936333E+01  0.819963618659E-02
  0.937237771608E-01  0.376267743111E+01 -0.819964542147E-02
  0.937237771608E-01  0.376267743111E+01  0.819964542147E-02
  0.937237764032E-01  0.388819599152E+01 -0.819965408104E-02
  0.937237764032E-01  0.388819599152E+01  0.819965408104E-02
  0.937237736199E-01  0.399999998381E+01 -0.819968589373E-02
  0.937237736199E-01  0.399999998381E+01  0.819968589373E-02
  0.937237712536E-01  0.400579687095E+01 -0.579693567798E-02
  0.937237712536E-01  0.400579687095E+01  0.579693567798E-02
  0.937237707095E-01  0.400819964372E+01 -0.368817060392E-22
  0.190432342283E+00  0.000000000000E+00 -0.166604723454E-01
  0.190432342283E+00  0.000000000000E+00  0.166604723454E-01
  0.190432342335E+00  0.217527970672E+00 -0.166604717490E-01
  0.190432342335E+00  0.217527970672E+00  0.166604717490E-01
  0.190432342998E+00  0.448061168194E+00 -0.166604641705E-01
  0.190432342998E+00  0.448061168194E+00  0.166604641705E-01
  0.190432343548E+00  0.689725637436E+00 -0.166604578857E-01
  0.190432343548E+00  0.689725637436E+00  0.166604578857E-01
  0.190432343959E+00  0.940178275108E+00 -0.166604531854E-01
  0.190432343959E+00  0.940178275108E+00  0.166604531854E-01
  0.190432344212E+00  0.119668114185E+01 -0.166604502980E-01
  0.190432344212E+00  0.119668114185E+01  0.166604502980E-01
  0.190432344293E+00  0.145621216297E+01 -0.166604493684E-01
  0.190432344293E+00  0.145621216297E+01  0.166604493684E-01
  0.190432344199E+00  0.171560299397E+01 -0.166604504434E-01
  0.190432344199E+00  0.171560299397E+01  0.166604504434E-01
  0.190432343934E+00  0.197169232368E+01 -0.166604534670E-01
  0.190432343934E+00  0.197169232368E+01  0.166604534670E-01
  0.190432343513E+00  0.222147774696E+01 -0.166604582864E-01
  0.190432343513E+00  0.222147774696E+01  0.166604582864E-01
  0.190432342954E+00  0.246225214005E+01 -0.166604646668E-01
  0.190432342954E+00  0.246225214005E+01  0.166604646668E-01
  0.190432342285E+00  0.269171094894E+01 -0.166604723130E-01
  0.190432342285E+00  0.269171094894E+01  0.166604723130E-01
  0.190432341535E+00  0.290802383423E+01 -0.166604808957E-01
  0.190432341535E+00  0.290802383423E+01  0.166604808957E-01
  0.190432340731E+00  0.310986590385E+01 -0.166604900767E-01
  0.190432340731E+00  0.310986590385E+01  0.166604900767E-01
  0.190432339904E+00  0.329641318321E+01 -0.166604995319E-01
  0.190432339904E+00  0.329641318321E+01  0.166604995319E-01
  0.190432339078E+00  0.346730756760E+01 -0.166605089702E-01
  0.190432339078E+00  0.346730756760E+01  0.166605089702E-01
  0.190432338276E+00  0.362259936333E+01 -0.166605181453E-01
  0.190432338276E+00  0.362259936333E+01  0.166605181453E-01
  0.190432337513E+00  0.376267743111E+01 -0.166605268622E-01
  0.190432337513E+00  0.376267743111E+01  0.166605268622E-01
  0.190432336803E+00  0.388819599152E+01 -0.166605349796E-01
  0.190432336803E+00  0.388819599152E+01  0.166605349796E-01
  0.190432334276E+00  0.399999997891E+01 -0.166605638672E-01
  0.190432334276E+00  0.399999997891E+01  0.166605638672E-01
  0.190432332281E+00  0.401177829583E+01 -0.117785035183E-01
  0.190432332281E+00  0.401177829583E+01  0.117785035183E-01
  0.190432331652E+00  0.401666061435E+01 -0.272417630560E-17
  0.329832006488E+00  0.000000000000E+00 -0.288563430542E-01
  0.329832006488E+00  0.000000000000E+00  0.288563430542E-01
  0.329832006566E+00  0.217527970672E+00 -0.288563421553E-01
  0.329832006566E+00  0.217527970672E+00  0.288563421553E-01
  0.329832007208E+00  0.448061168194E+00 -0.288563348194E-01
  0.329832007208E+00  0.448061168194E+00  0.288563348194E-01
  0.329832007742E+00  0.689725637436E+00 -0.288563287238E-01
  0.329832007742E+00  0.689725637436E+00  0.288563287238E-01
  0.329832008141E+00  0.940178275108E+00 -0.288563241588E-01
  0.329832008141E+00  0.940178275108E+00  0.288563241588E-01
  0.329832008386E+00  0.119668114185E+01 -0.288563213528E-01
  0.329832008386E+00  0.119668114185E+01  0.288563213528E-01
[...]
POINT_DATA                 446
SCALARS phi float 1
LOOKUP_TABLE default
  0.324202356870E-17
  0.332653992061E-17
  0.339670303452E-17
  0.360978972340E-17
  0.359193089398E-17
  0.414949860331E-17
  0.424022542726E-17
  0.424043056805E-17
  0.398707507259E-17
  0.436173825924E-17
  0.368023325155E-17
  0.344349829614E-17
  0.366204603142E-17
  0.318323832411E-17
  0.318445676115E-17
  0.289994302638E-17
  0.124047396099E-17
 -0.162251477152E-19
  0.117438223005E-17
  0.148582255491E-17
  0.740076402939E-14
 -0.950997093574E-14
  0.476983903763E-14
 -0.103957641107E-13
 -0.874387368066E-14
  0.679079188715E-14
 -0.479000519804E-14
  0.157909709614E-13
  0.190136534989E-13
 -0.160112808428E-13
 -0.118978178004E-13
  0.618775863881E-14
 -0.368260109906E-14
  0.659823758131E-14
  0.235235008555E-13
 -0.233404875288E-13
 -0.194213135157E-13
  0.333988479234E-13
  0.182145964978E-14
 -0.248596716129E-13
 -0.166641873911E-14
  0.126775760029E-13
  0.399875445256E-14
  0.120571955198E-13
  0.234491245865E-14
 -0.189770074654E-13
  0.237149709592E-13
 -0.128159202001E-13
  0.368910631210E-14
 -0.457533316789E-16
 -0.235074546634E-13
  0.121157424371E-13
 -0.325694332615E-15
 -0.105427819252E-13
 -0.321530996272E-14
  0.214995122400E-13
  0.481472500757E-14
  0.937032569592E-14
 -0.417439520450E-14
 -0.289156719402E-14
 -0.777047697020E-15
  0.124271253010E-14
  0.245766948459E-14
  0.118967335982E-13
 -0.194631637196E-13
  0.994343496430E-14
 -0.247041970214E-13
 -0.120103579859E-13
  0.593795845827E-14
 -0.941260958065E-14
  0.362813078192E-13
  0.334220498499E-13
 -0.167144943719E-13
 -0.165024244270E-13
  0.129540475569E-14
 -0.116478007794E-13
  0.437714101076E-14
  0.394666938019E-13
 -0.252619106189E-13
 -0.186916454537E-13
  0.524437264449E-13
 -0.112332018687E-13
 -0.429187935191E-13
 -0.173472347598E-16
  0.215682506577E-13
  0.174131542519E-13
  0.128495304674E-13
 -0.328469890176E-14
 -0.149251271064E-13
  0.406966127464E-13
 -0.394896788880E-13
  0.119392343234E-13
  0.588721779660E-14
 -0.237735178765E-13
  0.944036515627E-14
 -0.175397890656E-13
 -0.951495826573E-14
 -0.926689280867E-14
  0.329341588723E-13
  0.125507243487E-14
  0.225102055051E-13
 -0.249886916714E-14
 -0.541537301113E-14
  0.923740250958E-16
  0.259948312875E-14
  0.442831535330E-14
 -0.157686363966E-14
 -0.166351307729E-13
  0.163480340376E-13
 -0.309500688966E-13
  0.975608482889E-14
 -0.125958271591E-13
 -0.243988856896E-13
  0.376339584496E-13
  0.164035451888E-13
  0.114656548145E-13
  0.213561807128E-13
  0.462737487217E-14
 -0.173298875250E-13
 -0.832060115252E-14
  0.156472057533E-14
 -0.132246644191E-13
  0.224785468017E-13
  0.436048766539E-13
 -0.163480340376E-13
 -0.263651947496E-13
 -0.677409517369E-14
  0.132793082086E-13
  0.351402934529E-13
 -0.154000076580E-13
 -0.428476698566E-15
  0.130034871759E-13
  0.196336003011E-13
 -0.496625310320E-13
  0.131075705845E-13
  0.168450323135E-13
  0.189032817177E-13
 -0.165110980443E-13
 -0.427938934289E-13
  0.349546780409E-14
 -0.518161902274E-14
  0.315476811341E-13
 -0.859902427042E-14
  0.101819594422E-13
  0.150409198985E-13
  0.956960205523E-14
 -0.177548947766E-14
  0.903790930984E-15
 -0.781232717406E-14
 -0.577073111518E-13
 -0.189778748272E-14
 -0.242930675576E-13
 -0.184696008487E-13
  0.245463371851E-13
 -0.266626998258E-13
 -0.862157567560E-14
  0.834922408988E-14
 -0.267390276587E-13
  0.380181996995E-13
  0.498073804422E-13
  0.361169427698E-13
  0.215695517003E-13
 -0.293168267440E-14
 -0.613693124096E-13
 -0.214238349283E-14
  0.360440843838E-13
  0.275994505028E-14
  0.157426155445E-13
  0.104048714089E-13
 -0.800227939468E-14
  0.526488574959E-14
  0.337681271834E-13
 -0.441868763801E-13
  0.149151524464E-13
  0.623980034309E-14
  0.676542155631E-15
 -0.201505478969E-13
 -0.334142435943E-13
  0.156333279655E-13
  0.546247075350E-13
 -0.799707522425E-15
 -0.269003569420E-13
 -0.216198586811E-13
 -0.940220123979E-14
  0.266973942953E-13
 -0.226554885963E-14
 -0.293463170431E-13
  0.742704509005E-13
  0.264701455199E-13
 -0.232661112598E-13
 -0.285509463294E-13
 -0.676004391353E-13
 -0.729485916118E-13
 -0.220309881449E-13
 -0.840300051763E-14
 -0.480518402846E-14
 -0.440272818203E-13
  0.929464838428E-14
 -0.451409742919E-13
  0.232487640250E-13
  0.565034130595E-13
  0.227699803457E-13
 -0.842728664630E-14
  0.289976376244E-13
 -0.161329283266E-13
  0.146861689476E-13
  0.339901717883E-13
  0.436144176330E-13
  0.146896383946E-13
 -0.116226472890E-14
  0.154043444667E-13
  0.235922392733E-14
 -0.156472057533E-14
 -0.308329750620E-13
  0.232661112598E-13
 -0.196370697481E-14
 -0.618949336229E-14
 -0.946812073188E-14
  0.961036805691E-15
 -0.270616862252E-14
  0.643235464892E-14
 -0.190611415540E-13
 -0.115532583500E-13
  0.126045007764E-13
 -0.115532583500E-14
 -0.314089032560E-13
 -0.470144756459E-13
  0.109599829212E-13
  0.733926808216E-13
  0.285188539451E-14
 -0.225063023773E-13
 -0.175345848952E-13
 -0.403930361381E-13
  0.226572233197E-13
 -0.282412981889E-14
 -0.162543589699E-13
 -0.399368038639E-13
  0.116469334177E-13
 -0.194601279535E-13
 -0.310515502200E-13
 -0.294556046221E-14
  0.296984659087E-14
 -0.581826253843E-14
  0.281719092499E-14
  0.141588130109E-13
  0.202685090933E-13
 -0.120320420294E-13
  0.376365605348E-13
  0.168615121865E-13
  0.171009040262E-13
 -0.938832345199E-14
  0.229573304811E-13
 -0.941954847455E-14
 -0.143739187219E-13
  0.128022592527E-14
 -0.342087469463E-14
  0.127328703137E-14
 -0.784095011142E-14
  0.119765308781E-13
 -0.296984659087E-14
  0.232106001086E-14
 -0.248065457065E-13
  0.222252771742E-13
 -0.282135426133E-13
 -0.346944695195E-15
  0.449675019443E-13
  0.271206668234E-13
 -0.516184317512E-13
 -0.212330153460E-13
  0.375637021488E-13
  0.194479848892E-13
  0.185164383826E-13
 -0.751308737446E-14
  0.301356162247E-13
  0.420080636943E-13
  0.164573216166E-13
 -0.480891368393E-13
 -0.329250515740E-13
 -0.290375362644E-13
 -0.889913143176E-14
  0.431512464649E-13
 -0.672326777584E-13
 -0.124431714932E-13
  0.551989010056E-13
 -0.213041390085E-13
 -0.277833311912E-13
  0.196197225133E-13
  0.113624387676E-14
 -0.146202494555E-13
  0.234378488839E-13
  0.218956797138E-13
 -0.151163803697E-13
 -0.120962267980E-13
  0.453161813629E-13
  0.737777894333E-14
 -0.452294451891E-13
 -0.539845945724E-14
  0.440914665889E-13
 -0.423966417529E-14
 -0.144068784680E-13
  0.745757622322E-14
  0.665786870080E-14
  0.100908864598E-13
 -0.971445146547E-14
 -0.424209278815E-13
  0.254744142447E-13
  0.353606033343E-13
 -0.695450641519E-14
 -0.157686363966E-14
 -0.125836840947E-13
  0.215279183369E-14
  0.720951076616E-14
 -0.234881558647E-14
 -0.211723000243E-14
 -0.244942954808E-14
  0.137129890776E-14
  0.426316967839E-13
 -0.665700133906E-14
 -0.476875483546E-13
  0.327849726534E-13
 -0.184548556992E-13
  0.571591385334E-15
 -0.236130559550E-13
  0.235089725464E-13
 -0.958955137520E-14
 -0.361863317089E-13
  0.275205205846E-13
  0.221576229587E-13
 -0.275474087985E-14
 -0.203006014776E-13
 -0.225670176990E-13
  0.519202736360E-14
  0.433091063012E-13
  0.159143531686E-13
 -0.426811364029E-13
 -0.190021609558E-13
  0.643877312578E-13
  0.116590764820E-13
 -0.728375693093E-13
 -0.164538521696E-14
  0.592624907481E-13
 -0.125949597973E-13
 -0.211384729165E-13
  0.253547183249E-13
 -0.954705065004E-14
 -0.251274695495E-13
  0.107518161041E-13
  0.670730831986E-14
  0.763625274125E-14
  0.105297714992E-14
 -0.509141340199E-14
  0.147971912501E-13
 -0.150825532619E-13
 -0.199111560573E-13
  0.193360952250E-13
  0.101357724297E-13
 -0.975752139677E-14
 -0.556542659180E-14
  0.692718452044E-14
 -0.260499087579E-13
 -0.317782367261E-13
  0.365087734350E-13
 -0.143563546467E-13
  0.343577163248E-13
  0.416311950191E-13
 -0.315630768050E-13
 -0.365406489788E-13
  0.219594308015E-13
 -0.361321216003E-13
  0.315531021450E-13
  0.525460751299E-13
 -0.480821979454E-13
 -0.361928369219E-13
  0.369960138913E-13
  0.669516525553E-14
 -0.168593437821E-13
  0.255264559490E-13
 -0.336970035208E-14
 -0.345097214693E-13
  0.340558744399E-13
  0.269333166880E-13
 -0.537879202983E-13
 -0.871308233896E-14
  0.461629432597E-13
 -0.172769784590E-13
 -0.113405378838E-13
  0.465413298179E-13
 -0.330081014605E-13
 -0.680419262600E-13
  0.639236927280E-13
  0.703942112934E-13
 -0.686263112309E-13
 -0.532061374126E-13
  0.514915800970E-13
  0.289308507706E-13
 -0.277334578913E-13
 -0.106690779258E-13
  0.102993785375E-13
  0.262160085307E-14
 -0.244942954808E-14
 -0.246157261241E-14
  0.233233571345E-14
  0.185870741541E-13
 -0.233049256976E-13
  0.728296546335E-14
 -0.506208573323E-14
  0.318893674488E-14
 -0.143641342506E-13
 -0.488243753606E-16
 -0.532692616082E-13
 -0.183582503028E-13
  0.697913600116E-13
  0.131013060889E-12
  0.184120982916E-13
 -0.192120478684E-12
  0.840479402635E-13
 -0.533931005962E-13
 -0.722657216866E-13
 -0.941954342379E-14
  0.893962853440E-13
  0.124446684931E-12
  0.901693591049E-14
 -0.164080934170E-12
 -0.100396687491E-12
  0.238805503150E-12
 -0.990266896261E-13
  0.119262238973E-16
 -0.250667672311E-14
 -0.197368514866E-14
  0.636202678263E-13
  0.335106626434E-13
 -0.655689042370E-13
 -0.137704022876E-12
 -0.257504335145E-13
  0.184153537838E-12
 -0.705448285629E-13
  0.634659767333E-13
  0.411979863809E-13
  0.151183191966E-13
 -0.755974589633E-13
 -0.125885830835E-12
 -0.122063441260E-13
  0.164713457717E-12
  0.102365164956E-12
 -0.240121290906E-12
  0.994256760256E-13
SCALARS phi_mu float 1
LOOKUP_TABLE default
  0.763899151708E-08
  0.722988033608E-08
  0.756956057454E-08
  0.784419797405E-08
  0.804159685773E-08
  0.815256178362E-08
  0.817176458915E-08
  0.809828474129E-08
  0.793569144470E-08
  0.769169117350E-08
  0.737737205026E-08
  0.700620346547E-08
  0.659288264621E-08
  0.615224850193E-08
  0.569834556812E-08
  0.524370544300E-08
  0.479890830734E-08
  0.437241680290E-08
  0.397051954486E-08
  0.179452321038E-08
  0.161328663888E-02
  0.139825229197E-02
  0.161328653117E-02
  0.139825242554E-02
  0.161328627595E-02
  0.139825274204E-02
  0.161328606512E-02
  0.139825300351E-02
  0.161328590795E-02
  0.139825319841E-02
  0.161328581166E-02
  0.139825331782E-02
  0.161328578094E-02
  0.139825335592E-02
  0.161328581727E-02
  0.139825331087E-02
  0.161328591877E-02
  0.139825318500E-02
  0.161328608071E-02
  0.139825298415E-02
  0.161328629550E-02
  0.139825271781E-02
  0.161328655377E-02
  0.139825239753E-02
  0.161328684496E-02
  0.139825203638E-02
  0.161328715829E-02
  0.139825164785E-02
  0.161328748328E-02
  0.139825124481E-02
  0.161328781052E-02
  0.139825083898E-02
  0.161328813198E-02
  0.139825044034E-02
  0.161328844102E-02
  0.139825005711E-02
  0.161328873272E-02
  0.139824969537E-02
  0.103415263289E-02
  0.864482954061E-03
  0.893983794504E-03
  0.792102250007E-03
  0.808314056563E-03
  0.443282142596E-02
  0.384195410051E-02
  0.443282136005E-02
  0.384195418224E-02
  0.443282110902E-02
  0.384195449354E-02
  0.443282090135E-02
  0.384195475112E-02
  0.443282074636E-02
  0.384195494333E-02
  0.443282065123E-02
  0.384195506125E-02
  0.443282062076E-02
  0.384195509905E-02
  0.443282065642E-02
  0.384195505485E-02
  0.443282075628E-02
  0.384195493103E-02
  0.443282091559E-02
  0.384195473337E-02
  0.443282112678E-02
  0.384195447155E-02
  0.443282138038E-02
  0.384195415706E-02
  0.443282166577E-02
  0.384195380310E-02
  0.443282197215E-02
  0.384195342318E-02
  0.443282228892E-02
  0.384195303035E-02
  0.443282260668E-02
  0.384195263625E-02
  0.443282291738E-02
  0.384195225094E-02
  0.443282321446E-02
  0.384195188258E-02
  0.443282349303E-02
  0.384195153712E-02
  0.284156337996E-02
  0.237535819170E-02
  0.245639852877E-02
  0.217646545269E-02
  0.222102893825E-02
  0.900681878165E-02
  0.780625521664E-02
  0.900681876248E-02
  0.780625524042E-02
  0.900681851869E-02
  0.780625554276E-02
  0.900681831649E-02
  0.780625579352E-02
  0.900681816533E-02
  0.780625598101E-02
  0.900681807245E-02
  0.780625609618E-02
  0.900681804251E-02
  0.780625613325E-02
  0.900681807711E-02
  0.780625609036E-02
  0.900681817439E-02
  0.780625596980E-02
  0.900681832938E-02
  0.780625577747E-02
  0.900681853464E-02
  0.780625552299E-02
  0.900681878065E-02
  0.780625521793E-02
  0.900681905670E-02
  0.780625487557E-02
  0.900681935205E-02
  0.780625450926E-02
  0.900681965621E-02
  0.780625413213E-02
  0.900681995982E-02
  0.780625375558E-02
  0.900682025491E-02
  0.780625338959E-02
  0.900682053535E-02
  0.780625304188E-02
  0.900682079647E-02
  0.780625271803E-02
  0.577361399513E-02
  0.482635489760E-02
  0.499101515123E-02
  0.442222897466E-02
  0.451275139503E-02
  0.155999650634E-01
  0.135205597130E-01
  0.155999650345E-01
  0.135205597488E-01
  0.155999647986E-01
  0.135205600415E-01
  0.155999646024E-01
  0.135205602847E-01
  0.155999644556E-01
  0.135205604668E-01
  0.155999643654E-01
  0.135205605787E-01
  0.155999643363E-01
  0.135205606147E-01
  0.155999643700E-01
  0.135205605728E-01
  0.155999644648E-01
  0.135205604554E-01
  0.155999646155E-01
  0.135205602685E-01
  0.155999648148E-01
  0.135205600214E-01
  0.155999650531E-01
  0.135205597258E-01
  0.155999653199E-01
  0.135205593950E-01
  0.155999656044E-01
  0.135205590421E-01
  0.155999658963E-01
  0.135205586800E-01
  0.155999661867E-01
  0.135205583201E-01
  0.155999664676E-01
  0.135205579716E-01
  0.155999667333E-01
  0.135205576422E-01
  0.145168648245E-01
  0.123435805827E-01
  0.100000045399E-01
  0.835933571429E-02
  0.864452362366E-02
  0.765938138444E-02
  0.781617784826E-02
  0.236483549438E-01
  0.204961263789E-01
  0.236483538761E-01
  0.204961274468E-01
  0.236483536069E-01
  0.204961277159E-01
  0.236483533790E-01
  0.204961279439E-01
  0.236483532033E-01
  0.204961281197E-01
  0.236483530884E-01
  0.204961282345E-01
  0.236483530408E-01
  0.204961282821E-01
  0.236483530629E-01
  0.204961282601E-01
  0.236483531536E-01
  0.204961281693E-01
  0.236483533083E-01
  0.204961280146E-01
  0.236483535192E-01
  0.204961278037E-01
  0.236483537760E-01
  0.204961275469E-01
  0.236483540671E-01
  0.204961272557E-01
  0.236483543804E-01
  0.204961269424E-01
  0.236483547042E-01
  0.204961266187E-01
  0.236483550277E-01
  0.204961262951E-01
  0.236483553422E-01
  0.204961259807E-01
  0.232875179381E-01
  0.200142463361E-01
  0.203547538148E-01
  0.171170181121E-01
  0.151592373853E-01
  0.126721087007E-01
  0.131044139826E-01
  0.116110201462E-01
  0.118487215903E-01
  0.220216536145E-01
  0.177564633906E-01
  0.220216535529E-01
  0.177564634618E-01
  0.220216530494E-01
  0.177564640427E-01
  0.220216526311E-01
  0.177564645253E-01
  0.220216523178E-01
  0.177564648868E-01
  0.220216521252E-01
  0.177564651090E-01
  0.220216520633E-01
  0.177564651804E-01
  0.220216521353E-01
  0.177564650973E-01
  0.220216523373E-01
  0.177564648642E-01
  0.220216526589E-01
  0.177564644932E-01
  0.220216530840E-01
  0.177564640027E-01
  0.220216535924E-01
  0.177564634162E-01
  0.220216541616E-01
  0.177564627595E-01
  0.220216547686E-01
  0.177564620592E-01
  0.220216553915E-01
  0.177564613405E-01
  0.220216560109E-01
  0.177564606260E-01
  0.220153928274E-01
  0.177223975613E-01
  0.199226341999E-01
  0.155641620171E-01
  0.160792103850E-01
  0.118147589841E-01
  0.104289796517E-01
  0.728456847133E-02
  0.938749343858E-02
  0.749246238154E-02
  0.820230190959E-02
  0.127144528935E-01
  0.102519064735E-01
  0.127144528527E-01
  0.102519065206E-01
  0.127144523325E-01
  0.102519071208E-01
  0.127144519012E-01
  0.102519076184E-01
  0.127144515787E-01
  0.102519079906E-01
  0.127144513805E-01
  0.102519082192E-01
  0.127144513167E-01
  0.102519082928E-01
  0.127144513905E-01
  0.102519082077E-01
  0.127144515980E-01
  0.102519079682E-01
  0.127144519287E-01
  0.102519075867E-01
  0.127144523666E-01
  0.102519070814E-01
  0.127144528914E-01
  0.102519064760E-01
  0.127144534804E-01
  0.102519057965E-01
  0.127144541104E-01
  0.102519050695E-01
  0.127144547594E-01
  0.102519043208E-01
  0.127144554071E-01
  0.102519035735E-01
  0.118795695070E-01
  0.936890941519E-02
  0.885283633937E-02
  0.634343437916E-02
  0.414180414075E-02
  0.176420944386E-02
  0.439924933632E-02
  0.275422786233E-02
  0.449483041230E-02
  0.345879690725E-02
  0.409019112762E-02
  0.625757958432E-02
  0.504561679529E-02
  0.625757944374E-02
  0.504561695753E-02
  0.625757890819E-02
  0.504561757538E-02
  0.625757846518E-02
  0.504561808654E-02
  0.625757813439E-02
  0.504561846813E-02
  0.625757793158E-02
  0.504561870221E-02
  0.625757786657E-02
  0.504561877714E-02
  0.625757794251E-02
  0.504561868959E-02
  0.625757815569E-02
  0.504561844353E-02
  0.625757849556E-02
  0.504561805153E-02
  0.625757894608E-02
  0.504561753165E-02
  0.625757948712E-02
  0.504561690749E-02
  0.625758009595E-02
  0.504561620501E-02
  0.625758074953E-02
  0.504561545098E-02
  0.625758142539E-02
  0.504561467119E-02
  0.625758210340E-02
  0.504561388895E-02
  0.453305426380E-02
  0.329489990811E-02
  0.108618430626E-02
 -0.145386225597E-03
 -0.204112764067E-02
 -0.315448347376E-02
  0.122893367450E-02
  0.447829886973E-03
  0.148205631154E-02
  0.987748821492E-03
  0.137311222348E-02
  0.227738895520E-02
  0.183631941119E-02
  0.227738872533E-02
  0.183631967636E-02
  0.227738818088E-02
  0.183632030453E-02
  0.227738773117E-02
  0.183632082340E-02
  0.227738739573E-02
  0.183632121040E-02
  0.227738719040E-02
  0.183632144729E-02
  0.227738712486E-02
  0.183632152294E-02
  0.227738720225E-02
  0.183632143363E-02
  0.227738741895E-02
  0.183632118359E-02
  0.227738776435E-02
  0.183632078515E-02
  0.227738822259E-02
  0.183632025638E-02
  0.227738877364E-02
  0.183631962067E-02
  0.227738939477E-02
  0.183631890401E-02
  0.227739006333E-02
  0.183631813269E-02
  0.227739075658E-02
  0.183631733283E-02
  0.218222816649E-02
  0.173673742955E-02
 -0.659766816396E-04
 -0.516750330421E-03
 -0.375176038690E-02
 -0.420228032784E-02
 -0.528818342402E-02
 -0.568995754356E-02
 -0.395994344421E-03
 -0.671618700901E-03
 -0.226434629483E-03
 -0.400808492853E-03
 -0.231865903075E-03
  0.109836389260E-07
  0.103954164930E-07
  0.108837693729E-07
  0.112786890995E-07
  0.115626054477E-07
  0.117222165227E-07
  0.117497145243E-07
  0.116438516821E-07
  0.114103445743E-07
  0.110593735892E-07
  0.106074138902E-07
  0.100737954126E-07
  0.947960468967E-08
  0.884607801402E-08
  0.819332245133E-08
 -0.249201851375E-03
 -0.271597073410E-02
 -0.680913135311E-02
 -0.703626285528E-02
 -0.108786732630E-02
  0.986586056018E-08
  0.933748831296E-08
  0.977625564855E-08
  0.101309235234E-07
  0.103857678147E-07
  0.105290084288E-07
  0.105539210878E-07
  0.104592307420E-07
  0.102489845401E-07
  0.993398883241E-08
  0.952801906174E-08
  0.904862365140E-08
  0.851472337544E-08
  0.794558800600E-08
  0.735947976223E-08
 -0.249202628501E-03
 -0.271597145156E-02
 -0.680913200727E-02
 -0.703626338342E-02
SCALARS phi_sigma float 1
LOOKUP_TABLE default
 -0.763899151384E-08
 -0.722988033276E-08
 -0.756956057114E-08
 -0.784419797044E-08
 -0.804159685414E-08
 -0.815256177947E-08
 -0.817176458491E-08
 -0.809828473705E-08
 -0.793569144072E-08
 -0.769169116914E-08
 -0.737737204657E-08
 -0.700620346203E-08
 -0.659288264255E-08
 -0.615224849874E-08
 -0.569834556494E-08
 -0.524370544010E-08
 -0.479890830610E-08
 -0.437241680292E-08
 -0.397051954369E-08
 -0.179452320890E-08
 -0.161328663887E-02
 -0.139825229198E-02
 -0.161328653116E-02
 -0.139825242555E-02
 -0.161328627596E-02
 -0.139825274204E-02
 -0.161328606513E-02
 -0.139825300349E-02
 -0.161328590794E-02
 -0.139825319843E-02
 -0.161328581167E-02
 -0.139825331781E-02
 -0.161328578094E-02
 -0.139825335591E-02
 -0.161328581724E-02
 -0.139825331090E-02
 -0.161328591879E-02
 -0.139825318497E-02
 -0.161328608071E-02
 -0.139825298417E-02
 -0.161328629550E-02
 -0.139825271780E-02
 -0.161328655376E-02
 -0.139825239752E-02
 -0.161328684496E-02
 -0.139825203640E-02
 -0.161328715827E-02
 -0.139825164786E-02
 -0.161328748328E-02
 -0.139825124481E-02
 -0.161328781054E-02
 -0.139825083897E-02