# vtk DataFile Version 3.0
TriPan results file. Generated by TriPan, USU AeroLab (c) 2021.
ASCII
DATASET POLYDATA
POINTS                 446 float
  0.000000000000E+00  0.000000000000E+00  0.000000000000E+00
  0.000000000000E+00  0.217527970672E+00  0.000000000000E+00
  0.000000000000E+00  0.448061168194E+00  0.000000000000E+00
  0.000000000000E+00  0.689725637436E+00  0.000000000000E+00
  0.000000000000E+00  0.940178275108E+00  0.000000000000E+00
  0.000000000000E+00  0.119668114185E+01  0.000000000000E+00
  0.000000000000E+00  0.145621216297E+01  0.000000000000E+00
  0.000000000000E+00  0.171560299397E+01  0.000000000000E+00
  0.000000000000E+00  0.197169232368E+01  0.000000000000E+00
  0.000000000000E+00  0.222147774696E+01  0.000000000000E+00
  0.000000000000E+00  0.246225214005E+01  0.000000000000E+00
  0.000000000000E+00  0.269171094894E+01  0.000000000000E+00
  0.000000000000E+00  0.290802383423E+01  0.000000000000E+00
  0.000000000000E+00  0.310986590385E+01  0.000000000000E+00
  0.000000000000E+00  0.329641318321E+01  0.000000000000E+00
  0.000000000000E+00  0.346730756760E+01  0.000000000000E+00
  0.000000000000E+00  0.362259936333E+01  0.000000000000E+00
  0.000000000000E+00  0.376267743111E+01  0.000000000000E+00
  0.000000000000E+00  0.388819599152E+01  0.000000000000E+00
  0.000000000000E+00  0.400000000000E+01  0.000000000000E+00
  0.341100133955E-01  0.000000000000E+00 -0.298423948698E-02
  0.341100133955E-01  0.000000000000E+00  0.298423948698E-02
  0.341100133955E-01  0.217527970672E+00 -0.298423948698E-02
  0.341100133955E-01  0.217527970672E+00  0.298423948698E-02
  0.341100133955E-01  0.448061168194E+00 -0.298423948698E-02
  0.341100133955E-01  0.448061168194E+00  0.298423948698E-02
  0.341100133955E-01  0.689725637436E+00 -0.298423948698E-02
  0.341100133955E-01  0.689725637436E+00  0.298423948698E-02
  0.341100133955E-01  0.940178275108E+00 -0.298423948698E-02
  0.341100133955E-01  0.940178275108E+00  0.298423948698E-02
  0.341100133955E-01  0.119668114185E+01 -0.298423948698E-02
  0.341100133955E-01  0.119668114185E+01  0.298423948698E-02
  0.341100133955E-01  0.145621216297E+01 -0.298423948698E-02
  0.341100133955E-01  0.145621216297E+01  0.298423948698E-02
  0.341100133955E-01  0.171560299397E+01 -0.298423948698E-02
  0.341100133955E-01  0.171560299397E+01  0.298423948698E-02
  0.341100133955E-01  0.197169232368E+01 -0.298423948698E-02
  0.341100133955E-01  0.197169232368E+01  0.298423948698E-02
  0.341100133955E-01  0.222147774696E+01 -0.298423948698E-02
  0.341100133955E-01  0.222147774696E+01  0.298423948698E-02
  0.341100133955E-01  0.246225214005E+01 -0.298423948698E-02
  0.341100133955E-01  0.246225214005E+01  0.298423948698E-02
  0.341100133955E-01  0.269171094894E+01 -0.298423948698E-02
  0.341100133955E-01  0.269171094894E+01  0.298423948698E-02
  0.341100133955E-01  0.290802383423E+01 -0.298423948698E-02
  0.341100133955E-01  0.290802383423E+01  0.298423948698E-02
  0.341100133955E-01  0.310986590385E+01 -0.298423948698E-02
  0.341100133955E-01  0.310986590385E+01  0.298423948698E-02
  0.341100133955E-01  0.329641318321E+01 -0.298423948698E-02
  0.341100133955E-01  0.329641318321E+01  0.298423948698E-02
  0.341100133955E-01  0.346730756760E+01 -0.298423948698E-02
  0.341100133955E-01  0.346730756760E+01  0.298423948698E-02
  0.341100133955E-01  0.362259936333E+01 -0.298423948698E-02
  0.341100133955E-01  0.362259936333E+01  0.298423948698E-02
  0.341100133955E-01  0.376267743111E+01 -0.298423948698E-02
  0.341100133955E-01  0.376267743111E+01  0.298423948698E-02
  0.341100133955E-01  0.388819599152E+01 -0.298423948698E-02
  0.341100133955E-01  0.388819599152E+01  0.298423948698E-02
  0.341100133955E-01  0.400000000000E+01 -0.298423948698E-02
  0.341100133955E-01  0.400000000000E+01  0.298423948698E-02
  0.341100133955E-01  0.400210952759E+01 -0.210976228118E-02
  0.341100133955E-01  0.400210952759E+01  0.210976228118E-02
  0.341100133955E-01  0.400298404694E+01  0.000000000000E+00
  0.937237665057E-01  0.000000000000E+00 -0.819976720959E-02
  0.937237665057E-01  0.000000000000E+00  0.819976720959E-02
  0.937237665057E-01  0.217527970672E+00 -0.819976720959E-02
  0.937237665057E-01  0.217527970672E+00  0.819976720959E-02
  0.937237665057E-01  0.448061168194E+00 -0.819976720959E-02
  0.937237665057E-01  0.448061168194E+00  0.819976720959E-02
  0.937237665057E-01  0.689725637436E+00 -0.819976720959E-02
  0.937237665057E-01  0.689725637436E+00  0.819976720959E-02
  0.937237665057E-01  0.940178275108E+00 -0.819976720959E-02
  0.937237665057E-01  0.940178275108E+00  0.819976720959E-02
  0.937237665057E-01  0.119668114185E+01 -0.819976720959E-02
  0.937237665057E-01  0.119668114185E+01  0.819976720959E-02
  0.937237665057E-01  0.145621216297E+01 -0.819976720959E-02
  0.937237665057E-01  0.145621216297E+01  0.819976720959E-02
  0.937237665057E-01  0.171560299397E+01 -0.819976720959E-02
  0.937237665057E-01  0.171560299397E+01  0.819976720959E-02
  0.937237665057E-01  0.197169232368E+01 -0.819976720959E-02
  0.937237665057E-01  0.197169232368E+01  0.819976720959E-02
  0.937237665057E-01  0.222147774696E+01 -0.819976720959E-02
  0.937237665057E-01  0.222147774696E+01  0.819976720959E-02
  0.937237665057E-01  0.246225214005E+01 -0.819976720959E-02
  0.937237665057E-01  0.246225214005E+01  0.819976720959E-02
  0.937237665057E-01  0.269171094894E+01 -0.819976720959E-02
  0.937237665057E-01  0.269171094894E+01  0.819976720959E-02
  0.937237665057E-01  0.290802383423E+01 -0.819976720959E-02
  0.937237665057E-01  0.290802383423E+01  0.819976720959E-02
  0.937237665057E-01  0.310986590385E+01 -0.819976720959E-02
  0.937237665057E-01  0.310986590385E+01  0.819976720959E-02
  0.937237665057E-01  0.329641318321E+01 -0.819976720959E-02
  0.937237665057E-01  0.329641318321E+01  0.819976720959E-02
  0.937237665057E-01  0.346730756760E+01 -0.819976720959E-02
  0.937237665057E-01  0.346730756760E+01  0.819976720959E-02
  0.937237665057E-01  0.362259936333E+01 -0.819976720959E-02
  0.937237665057E-01  0.362259936333E+01  0.819976720959E-02
  0.937237665057E-01  0.376267743111E+01 -0.819976720959E-02
  0.937237665057E-01  0.376267743111E+01  0.819976720959E-02
  0.937237665057E-01  0.388819599152E+01 -0.819976720959E-02
  0.937237665057E-01  0.388819599152E+01  0.819976720959E-02
  0.937237665057E-01  0.400000000000E+01 -0.819976720959E-02
  0.937237665057E-01  0.400000000000E+01  0.819976720959E-02
  0.937237665057E-01  0.400579690933E+01 -0.579697405919E-02
  0.937237665057E-01  0.400579690933E+01  0.579697405919E-02
  0.937237665057E-01  0.400819969177E+01  0.000000000000E+00
  0.190432325006E+00  0.000000000000E+00 -0.166606698185E-01
  0.190432325006E+00  0.000000000000E+00  0.166606698185E-01
  0.190432325006E+00  0.217527970672E+00 -0.166606698185E-01
  0.190432325006E+00  0.217527970672E+00  0.166606698185E-01
  0.190432325006E+00  0.448061168194E+00 -0.166606698185E-01
  0.190432325006E+00  0.448061168194E+00  0.166606698185E-01
  0.190432325006E+00  0.689725637436E+00 -0.166606698185E-01
  0.190432325006E+00  0.689725637436E+00  0.166606698185E-01
  0.190432325006E+00  0.940178275108E+00 -0.166606698185E-01
  0.190432325006E+00  0.940178275108E+00  0.166606698185E-01
  0.190432325006E+00  0.119668114185E+01 -0.166606698185E-01
  0.190432325006E+00  0.119668114185E+01  0.166606698185E-01
  0.190432325006E+00  0.145621216297E+01 -0.166606698185E-01
  0.190432325006E+00  0.145621216297E+01  0.166606698185E-01
  0.190432325006E+00  0.171560299397E+01 -0.166606698185E-01
  0.190432325006E+00  0.171560299397E+01  0.166606698185E-01
  0.190432325006E+00  0.197169232368E+01 -0.166606698185E-01
  0.190432325006E+00  0.197169232368E+01  0.166606698185E-01
  0.190432325006E+00  0.222147774696E+01 -0.166606698185E-01
  0.190432325006E+00  0.222147774696E+01  0.166606698185E-01
  0.190432325006E+00  0.246225214005E+01 -0.166606698185E-01
  0.190432325006E+00  0.246225214005E+01  0.166606698185E-01
  0.190432325006E+00  0.269171094894E+01 -0.166606698185E-01
  0.190432325006E+00  0.269171094894E+01  0.166606698185E-01
  0.190432325006E+00  0.290802383423E+01 -0.166606698185E-01
  0.190432325006E+00  0.290802383423E+01  0.166606698185E-01
  0.190432325006E+00  0.310986590385E+01 -0.166606698185E-01
  0.190432325006E+00  0.310986590385E+01  0.166606698185E-01
  0.190432325006E+00  0.329641318321E+01 -0.166606698185E-01
  0.190432325006E+00  0.329641318321E+01  0.166606698185E-01
  0.190432325006E+00  0.346730756760E+01 -0.166606698185E-01
  0.190432325006E+00  0.346730756760E+01  0.166606698185E-01
  0.190432325006E+00  0.362259936333E+01 -0.166606698185E-01
  0.190432325006E+00  0.362259936333E+01  0.166606698185E-01
  0.190432325006E+00  0.376267743111E+01 -0.166606698185E-01
  0.190432325006E+00  0.376267743111E+01  0.166606698185E-01
  0.190432325006E+00  0.388819599152E+01 -0.166606698185E-01
  0.190432325006E+00  0.388819599152E+01  0.166606698185E-01
  0.190432325006E+00  0.400000000000E+01 -0.166606698185E-01
  0.190432325006E+00  0.400000000000E+01  0.166606698185E-01
  0.190432325006E+00  0.401177835464E+01 -0.117785623297E-01
  0.190432325006E+00  0.401177835464E+01  0.117785623297E-01
  0.190432325006E+00  0.401666069031E+01 -0.272416755980E-17
  0.329831987619E+00  0.000000000000E+00 -0.288565587252E-01
  0.329831987619E+00  0.000000000000E+00  0.288565587252E-01
  0.329831987619E+00  0.217527970672E+00 -0.288565587252E-01
  0.329831987619E+00  0.217527970672E+00  0.288565587252E-01
  0.329831987619E+00  0.448061168194E+00 -0.288565587252E-01
  0.329831987619E+00  0.448061168194E+00  0.288565587252E-01
  0.329831987619E+00  0.689725637436E+00 -0.288565587252E-01
  0.329831987619E+00  0.689725637436E+00  0.288565587252E-01
  0.329831987619E+00  0.940178275108E+00 -0.288565587252E-01
  0.329831987619E+00  0.940178275108E+00  0.288565587252E-01
  0.329831987619E+00  0.119668114185E+01 -0.288565587252E-01
  0.329831987619E+00  0.119668114185E+01  0.288565587252E-01
[...]
CELL_DATA                 832
SCALARS sigma float 1
LOOKUP_TABLE default
 -0.871557522570E-01
 -0.871557522570E-01
 -0.871557287754E-01
 -0.871557287754E-01
 -0.871557634975E-01
 -0.871557634975E-01
 -0.871557429768E-01
 -0.871557429768E-01
 -0.871557414567E-01
 -0.871557414567E-01
  0.871557566045E-01
  0.871557566045E-01
  0.871557337317E-01
  0.871557337317E-01
  0.871557435062E-01
  0.871557435062E-01
  0.871557449904E-01
  0.871557449904E-01
  0.871557428102E-01
  0.871557428102E-01
  0.871557428102E-01
  0.871557428102E-01
  0.871557449904E-01
  0.871557449904E-01
  0.871557435062E-01
  0.871557435062E-01
  0.871557337317E-01
  0.871557337317E-01
  0.871557566045E-01
  0.871557566045E-01
 -0.871557414567E-01
 -0.871557414567E-01
 -0.871557429768E-01
 -0.871557429768E-01
 -0.871557634975E-01
 -0.871557634975E-01
 -0.871557287754E-01
 -0.871557287754E-01
 -0.871557522570E-01
 -0.871557522570E-01
 -0.871557522570E-01
 -0.871557522570E-01
 -0.871557287754E-01
 -0.871557287754E-01
 -0.871557634975E-01
 -0.871557634975E-01
 -0.871557429768E-01
 -0.871557429768E-01
 -0.871557414567E-01
 -0.871557414567E-01
  0.871557566045E-01
  0.871557566045E-01
  0.871557337317E-01
  0.871557337317E-01
  0.871557435062E-01
  0.871557435062E-01
  0.871557449904E-01
  0.871557449904E-01
  0.871557428102E-01
  0.871557428102E-01
  0.871557428102E-01
  0.871557428102E-01
  0.871557449904E-01
  0.871557449904E-01
  0.871557435062E-01
  0.871557435062E-01
  0.871557337317E-01
  0.871557337317E-01
  0.871557566045E-01
  0.871557566045E-01
 -0.871557414567E-01
 -0.871557414567E-01
 -0.871557429768E-01
 -0.871557429768E-01
 -0.871557634975E-01
 -0.871557634975E-01
 -0.871557287754E-01
 -0.871557287754E-01
 -0.871557522570E-01
 -0.871557522570E-01
 -0.871557522570E-01
 -0.871557522570E-01
 -0.871557287754E-01
 -0.871557287754E-01
 -0.871557634975E-01
 -0.871557634975E-01
 -0.871557429768E-01
 -0.871557429768E-01
 -0.871557414567E-01
 -0.871557414567E-01
  0.871557566045E-01
  0.871557566045E-01
  0.871557337317E-01
  0.871557337317E-01
  0.871557435062E-01
  0.871557435062E-01
  0.871557449904E-01
  0.871557449904E-01
  0.871557428102E-01
  0.871557428102E-01
  0.871557428102E-01
  0.871557428102E-01
  0.871557449904E-01
  0.871557449904E-01
  0.871557435062E-01
  0.871557435062E-01
  0.871557337317E-01
  0.871557337317E-01
  0.871557566045E-01
  0.871557566045E-01
 -0.871557414567E-01
 -0.871557414567E-01
 -0.871557429768E-01
 -0.871557429768E-01
 -0.871557634975E-01
 -0.871557634975E-01
 -0.871557287754E-01
 -0.871557287754E-01
 -0.871557522570E-01
 -0.871557522570E-01
 -0.871557522570E-01
 -0.871557522570E-01
 -0.871557287754E-01
 -0.871557287754E-01
 -0.871557634975E-01
 -0.871557634975E-01
 -0.871557429768E-01
 -0.871557429768E-01
 -0.871557414567E-01
 -0.871557414567E-01
  0.871557566045E-01
  0.871557566045E-01
  0.871557337317E-01
  0.871557337317E-01
  0.871557435062E-01
  0.871557435062E-01
  0.871557449904E-01
  0.871557449904E-01
  0.871557428102E-01
  0.871557428102E-01
  0.871557428102E-01
  0.871557428102E-01
  0.871557449904E-01
  0.871557449904E-01
  0.871557435062E-01
  0.871557435062E-01
  0.871557337317E-01
  0.871557337317E-01
  0.871557566045E-01
  0.871557566045E-01
 -0.871557414567E-01
 -0.871557414567E-01
 -0.871557429768E-01
 -0.871557429768E-01
 -0.871557634975E-01
 -0.871557634975E-01
 -0.871557287754E-01
 -0.871557287754E-01
 -0.871557522570E-01
 -0.871557522570E-01
 -0.871557522570E-01
 -0.871557522570E-01
 -0.871557287754E-01
 -0.871557287754E-01
 -0.871557634975E-01
 -0.871557634975E-01
 -0.871557429768E-01
 -0.871557429768E-01
 -0.871557414567E-01
 -0.871557414567E-01
  0.871557566045E-01
  0.871557566045E-01
  0.871557337317E-01
  0.871557337317E-01
  0.871557435062E-01
  0.871557435062E-01
  0.871557449904E-01
  0.871557449904E-01
  0.871557428102E-01
  0.871557428102E-01
  0.871557428102E-01
  0.871557428102E-01
  0.871557449904E-01
  0.871557449904E-01
  0.871557435062E-01
  0.871557435062E-01
  0.871557337317E-01
  0.871557337317E-01
  0.871557566045E-01
  0.871557566045E-01
 -0.871557414567E-01
 -0.871557414567E-01
 -0.871557429768E-01
 -0.871557429768E-01
 -0.871557634975E-01
 -0.871557634975E-01
 -0.871557287754E-01
 -0.871557287754E-01
 -0.871557522570E-01
 -0.871557522570E-01
 -0.871557522570E-01
 -0.871557522570E-01
 -0.871557287754E-01
 -0.871557287754E-01
 -0.871557634975E-01
 -0.871557634975E-01
 -0.871557429768E-01
 -0.871557429768E-01
 -0.871557414567E-01
 -0.871557414567E-01
  0.871557566045E-01
  0.871557566045E-01
  0.871557337317E-01
  0.871557337317E-01
  0.871557435062E-01
  0.871557435062E-01
  0.871557449904E-01
  0.871557449904E-01
  0.871557428102E-01
  0.871557428102E-01
  0.871557428102E-01
  0.871557428102E-01
  0.871557449904E-01
  0.871557449904E-01
  0.871557435062E-01
  0.871557435062E-01
  0.871557337317E-01
  0.871557337317E-01
  0.871557566045E-01
  0.871557566045E-01
 -0.871557414567E-01
 -0.871557414567E-01
 -0.871557429768E-01
 -0.871557429768E-01
 -0.871557634975E-01
 -0.871557634975E-01
 -0.871557287754E-01
 -0.871557287754E-01
 -0.871557522570E-01
 -0.871557522570E-01
 -0.871557522570E-01
 -0.871557522570E-01
 -0.871557287754E-01
 -0.871557287754E-01
 -0.871557634975E-01
 -0.871557634975E-01
 -0.871557429768E-01
 -0.871557429768E-01
 -0.871557414567E-01
 -0.871557414567E-01
  0.871557566045E-01
  0.871557566045E-01
  0.871557337317E-01
  0.871557337317E-01
  0.871557435062E-01
  0.871557435062E-01
  0.871557449904E-01
  0.871557449904E-01
  0.871557428102E-01
  0.871557428102E-01
  0.871557428102E-01
  0.871557428102E-01
  0.871557449904E-01
  0.871557449904E-01
  0.871557435062E-01
  0.871557435062E-01
  0.871557337317E-01
  0.871557337317E-01
  0.871557566045E-01
  0.871557566045E-01
 -0.871557414567E-01
 -0.871557414567E-01
 -0.871557429768E-01
 -0.871557429768E-01
 -0.871557634975E-01
 -0.871557634975E-01
 -0.871557287754E-01
 -0.871557287754E-01
 -0.871557522570E-01
 -0.871557522570E-01
 -0.871557522570E-01
 -0.871557522570E-01
 -0.871557287754E-01
 -0.871557287754E-01
 -0.871557634975E-01
 -0.871557634975E-01
 -0.871557429768E-01
 -0.871557429768E-01
 -0.871557414567E-01
 -0.871557414567E-01
  0.871557566045E-01
  0.871557566045E-01
  0.871557337317E-01
  0.871557337317E-01
  0.871557435062E-01
  0.871557435062E-01
  0.871557449904E-01
  0.871557449904E-01
  0.871557428102E-01
  0.871557428102E-01
  0.871557428102E-01
  0.871557428102E-01
  0.871557449904E-01
  0.871557449904E-01
  0.871557435062E-01
  0.871557435062E-01
  0.871557337317E-01
  0.871557337317E-01
  0.871557566045E-01
  0.871557566045E-01
 -0.871557414567E-01
 -0.871557414567E-01
 -0.871557429768E-01
 -0.871557429768E-01
 -0.871557634975E-01
 -0.871557634975E-01
 -0.871557287754E-01
 -0.871557287754E-01
 -0.871557522570E-01
 -0.871557522570E-01
 -0.871557522570E-01
 -0.871557522570E-01
 -0.871557287754E-01
 -0.871557287754E-01
 -0.871557634975E-01
 -0.871557634975E-01
 -0.871557429768E-01
 -0.871557429768E-01
 -0.871557414567E-01
 -0.871557414567E-01
  0.871557566045E-01
  0.871557566045E-01
  0.871557337317E-01
  0.871557337317E-01
  0.871557435062E-01
  0.871557435062E-01
  0.871557449904E-01
  0.871557449904E-01
  0.871557428102E-01
  0.871557428102E-01
  0.871557428102E-01
  0.871557428102E-01
  0.871557449904E-01
  0.871557449904E-01
  0.871557435062E-01
  0.871557435062E-01
  0.871557337317E-01
  0.871557337317E-01
  0.871557566045E-01
  0.871557566045E-01
 -0.871557414567E-01
 -0.871557414567E-01
 -0.871557429768E-01
 -0.871557429768E-01
 -0.871557634975E-01
 -0.871557634975E-01
 -0.871557287754E-01
 -0.871557287754E-01
 -0.871557522570E-01
 -0.871557522570E-01
 -0.871557522570E-01
 -0.871557522570E-01
 -0.871557287754E-01
 -0.871557287754E-01
 -0.871557634975E-01
 -0.871557634975E-01
 -0.871557429768E-01
 -0.871557429768E-01
 -0.871557414567E-01
 -0.871557414567E-01
  0.871557566045E-01
  0.871557566045E-01
  0.871557337317E-01
  0.871557337317E-01
  0.871557435062E-01
  0.871557435062E-01
  0.871557449904E-01
  0.871557449904E-01
  0.871557428102E-01
  0.871557428102E-01
  0.871557428102E-01
  0.871557428102E-01
  0.871557449904E-01
  0.871557449904E-01
  0.871557435062E-01
  0.871557435062E-01
  0.871557337317E-01
  0.871557337317E-01
  0.871557566045E-01
  0.871557566045E-01
 -0.871557414567E-01
 -0.871557414567E-01
 -0.871557429768E-01
 -0.871557429768E-01
 -0.871557634975E-01
 -0.871557634975E-01
 -0.871557287754E-01
 -0.871557287754E-01
 -0.871557522570E-01
 -0.871557522570E-01
 -0.871557522570E-01
 -0.871557522570E-01
 -0.871557287754E-01
 -0.871557287754E-01
 -0.871557634975E-01
 -0.871557634975E-01
 -0.871557429768E-01
 -0.871557429768E-01
 -0.871557414567E-01
 -0.871557414567E-01
  0.871557566045E-01
  0.871557566045E-01
  0.871557337317E-01
  0.871557337317E-01
  0.871557435062E-01
  0.871557435062E-01
  0.871557449904E-01
  0.871557449904E-01
  0.871557428102E-01
  0.871557428102E-01
  0.871557428102E-01
  0.871557428102E-01
  0.871557449904E-01
  0.871557449904E-01
  0.871557435062E-01
  0.871557435062E-01
  0.871557337317E-01
  0.871557337317E-01
  0.871557566045E-01
  0.871557566045E-01
 -0.871557414567E-01
 -0.871557414567E-01
 -0.871557429768E-01
 -0.871557429768E-01
 -0.871557634975E-01
 -0.871557634975E-01
 -0.871557287754E-01
 -0.871557287754E-01
 -0.871557522570E-01
 -0.871557522570E-01
 -0.871557522570E-01
 -0.871557522570E-01
 -0.871557287754E-01
 -0.871557287754E-01
 -0.871557634975E-01
 -0.871557634975E-01
 -0.871557429768E-01
 -0.871557429768E-01
 -0.871557414567E-01
 -0.871557414567E-01
  0.871557566045E-01
  0.871557566045E-01
  0.871557337317E-01
  0.871557337317E-01
  0.871557435062E-01
  0.871557435062E-01
  0.871557449904E-01
  0.871557449904E-01
  0.871557428102E-01
  0.871557428102E-01
  0.871557428102E-01
  0.871557428102E-01
  0.871557449904E-01
  0.871557449904E-01
  0.871557435062E-01
  0.871557435062E-01
  0.871557337317E-01
  0.871557337317E-01
  0.871557566045E-01
  0.871557566045E-01
 -0.871557414567E-01
 -0.871557414567E-01
 -0.871557429768E-01
 -0.871557429768E-01
 -0.871557634975E-01
 -0.871557634975E-01
 -0.871557287754E-01
 -0.871557287754E-01
 -0.871557522570E-01
 -0.871557522570E-01
 -0.871557522570E-01
 -0.871557522570E-01
 -0.871557287754E-01
 -0.871557287754E-01
 -0.871557634975E-01
 -0.871557634975E-01
 -0.871557429768E-01
 -0.871557429768E-01
 -0.871557414567E-01
 -0.871557414567E-01
  0.871557566045E-01
  0.871557566045E-01
  0.871557337317E-01
  0.871557337317E-01
  0.871557435062E-01
  0.871557435062E-01
  0.871557449904E-01
  0.871557449904E-01
  0.871557428102E-01
  0.871557428102E-01
  0.871557428102E-01
  0.871557428102E-01
  0.871557449904E-01
  0.871557449904E-01
  0.871557435062E-01
  0.871557435062E-01
  0.871557337317E-01
  0.871557337317E-01
  0.871557566045E-01
  0.871557566045E-01
 -0.871557414567E-01
 -0.871557414567E-01
 -0.871557429768E-01
 -0.871557429768E-01
 -0.871557634975E-01
 -0.871557634975E-01
 -0.871557287754E-01
 -0.871557287754E-01
 -0.871557522570E-01
 -0.871557522570E-01
 -0.871557522570E-01
 -0.871557522570E-01
 -0.871557287754E-01
 -0.871557287754E-01
 -0.871557634975E-01
 -0.871557634975E-01
 -0.871557429768E-01
 -0.871557429768E-01
 -0.871557414567E-01
 -0.871557414567E-01
  0.871557566045E-01
  0.871557566045E-01
  0.871557337317E-01
  0.871557337317E-01
  0.871557435062E-01
  0.871557435062E-01
  0.871557449904E-01
  0.871557449904E-01
  0.871557428102E-01
  0.871557428102E-01
  0.871557428102E-01
  0.871557428102E-01
  0.871557449904E-01
  0.871557449904E-01
  0.871557435062E-01
  0.871557435062E-01
  0.871557337317E-01
  0.871557337317E-01
  0.871557566045E-01
  0.871557566045E-01
 -0.871557414567E-01
 -0.871557414567E-01
 -0.871557429768E-01
 -0.871557429768E-01
 -0.871557634975E-01
 -0.871557634975E-01
 -0.871557287754E-01
 -0.871557287754E-01
 -0.871557522570E-01
 -0.871557522570E-01
 -0.871557522570E-01
 -0.871557522570E-01
 -0.871557287754E-01
 -0.871557287754E-01
 -0.871557634975E-01
 -0.871557634975E-01
 -0.871557429768E-01
 -0.871557429768E-01
 -0.871557414567E-01
 -0.871557414567E-01
  0.871557566045E-01
  0.871557566045E-01
  0.871557337317E-01
  0.871557337317E-01
  0.871557435062E-01
  0.871557435062E-01
  0.871557449904E-01
  0.871557449904E-01
  0.871557428102E-01
  0.871557428102E-01
  0.871557428102E-01
  0.871557428102E-01
  0.871557449904E-01
  0.871557449904E-01
  0.871557435062E-01
  0.871557435062E-01
  0.871557337317E-01
  0.871557337317E-01
  0.871557566045E-01
  0.871557566045E-01
 -0.871557414567E-01
 -0.871557414567E-01
 -0.871557429768E-01
 -0.871557429768E-01
 -0.871557634975E-01
 -0.871557634975E-01
 -0.871557287754E-01
 -0.871557287754E-01
 -0.871557522570E-01
 -0.871557522570E-01
 -0.871557522570E-01
 -0.871557522570E-01
 -0.871557287754E-01
 -0.871557287754E-01
 -0.871557634975E-01
 -0.871557634975E-01
 -0.871557429768E-01
 -0.871557429768E-01
 -0.871557414567E-01
 -0.871557414567E-01
  0.871557566045E-01
  0.871557566045E-01
  0.871557337317E-01
  0.871557337317E-01
  0.871557435062E-01
  0.871557435062E-01
  0.871557449904E-01
  0.871557449904E-01
  0.871557428102E-01
  0.871557428102E-01
  0.871557428102E-01
  0.871557428102E-01
  0.871557449904E-01
  0.871557449904E-01
  0.871557435062E-01
  0.871557435062E-01
  0.871557337317E-01
  0.871557337317E-01
  0.871557566045E-01
  0.871557566045E-01
 -0.871557414567E-01
 -0.871557414567E-01
 -0.871557429768E-01
 -0.871557429768E-01
 -0.871557634975E-01
 -0.871557634975E-01
 -0.871557287754E-01
 -0.871557287754E-01
 -0.871557522570E-01
 -0.871557522570E-01
 -0.871557522570E-01
 -0.871557522570E-01
 -0.871557287754E-01
 -0.871557287754E-01
 -0.871557634975E-01
 -0.871557634975E-01
 -0.871557429768E-01
 -0.871557429768E-01
 -0.871557414567E-01
 -0.871557414567E-01
  0.871557566045E-01
  0.871557566045E-01
  0.871557337317E-01
  0.871557337317E-01
  0.871557435062E-01
  0.871557435062E-01
  0.871557449904E-01
  0.871557449904E-01
  0.871557428102E-01
  0.871557428102E-01
  0.871557428102E-01
  0.871557428102E-01
  0.871557449904E-01
  0.871557449904E-01
  0.871557435062E-01
  0.871557435062E-01
  0.871557337317E-01
  0.871557337317E-01
  0.871557566045E-01
  0.871557566045E-01
 -0.871557414567E-01
 -0.871557414567E-01
 -0.871557429768E-01
 -0.871557429768E-01
 -0.871557634975E-01
 -0.871557634975E-01
 -0.871557287754E-01
 -0.871557287754E-01
 -0.871557522570E-01
 -0.871557522570E-01
 -0.871557522570E-01
 -0.871557522570E-01
 -0.871557287754E-01
 -0.871557287754E-01
 -0.871557634975E-01
 -0.871557634975E-01
 -0.871557429768E-01
 -0.871557429768E-01
 -0.871557414567E-01
 -0.871557414567E-01
  0.871557566045E-01
  0.871557566045E-01
  0.871557337317E-01
  0.871557337317E-01
  0.871557435062E-01
  0.871557435062E-01
  0.871557449904E-01
  0.871557449904E-01
  0.871557428102E-01
  0.871557428102E-01
  0.871557428102E-01
  0.871557428102E-01
  0.871557449904E-01
  0.871557449904E-01
  0.871557435062E-01
  0.871557435062E-01
  0.871557337317E-01
  0.871557337317E-01
  0.871557566045E-01
  0.871557566045E-01
 -0.871557414567E-01
 -0.871557414567E-01
 -0.871557429768E-01
 -0.871557429768E-01
 -0.871557634975E-01
 -0.871557634975E-01
 -0.871557287754E-01
 -0.871557287754E-01
 -0.871557522570E-01
 -0.871557522570E-01
 -0.871557522570E-01
 -0.871557522570E-01
 -0.871557287754E-01
 -0.871557287754E-01
 -0.871557634975E-01
 -0.871557634975E-01
 -0.871557429768E-01
 -0.871557429768E-01
 -0.871557414567E-01
 -0.871557414567E-01
  0.871557566045E-01
  0.871557566045E-01
  0.871557337317E-01
  0.871557337317E-01
  0.871557435062E-01
  0.871557435062E-01
  0.871557449904E-01
  0.871557449904E-01
  0.871557428102E-01
  0.871557428102E-01
  0.871557428102E-01
  0.871557428102E-01
  0.871557449904E-01
  0.871557449904E-01
  0.871557435062E-01
  0.871557435062E-01
  0.871557337317E-01
  0.871557337317E-01
  0.871557566045E-01
  0.871557566045E-01
 -0.871557414567E-01
 -0.871557414567E-01
 -0.871557429768E-01
 -0.871557429768E-01
 -0.871557634975E-01
 -0.871557634975E-01
 -0.871557287754E-01
 -0.871557287754E-01
 -0.871557522570E-01
 -0.871557522570E-01
 -0.805570854206E-01
 -0.805607490770E-01
 -0.805582366092E-01
 -0.805579675070E-01
 -0.805581921972E-01
 -0.805587675784E-01
 -0.805582988966E-01
 -0.805585603312E-01
 -0.805583422474E-01
  0.805583562642E-01
  0.805585743480E-01
  0.805582903418E-01
  0.805587590236E-01
  0.805581736985E-01
  0.805579490084E-01
  0.805582516135E-01
  0.805607640817E-01
  0.805570766793E-01
  0.805570766793E-01
  0.805607640817E-01
  0.805582516135E-01
  0.805579490084E-01
  0.805581736985E-01
  0.805587590236E-01
  0.805582903418E-01
  0.805585743480E-01
  0.805583562642E-01
 -0.805583422474E-01
 -0.805585603312E-01
 -0.805582988966E-01
 -0.805587675784E-01
 -0.805581921972E-01
 -0.805579675070E-01
 -0.805582366092E-01
 -0.805607490770E-01
 -0.805570854206E-01
 -0.805526614465E-01
 -0.805596007597E-01
 -0.805609217743E-01
 -0.805593595294E-01
 -0.805575932169E-01
 -0.805589806506E-01
 -0.805592763996E-01
 -0.805580998396E-01
 -0.805589203269E-01
  0.805589343439E-01
  0.805581138564E-01
  0.805592678448E-01
  0.805589720958E-01
  0.805575747185E-01
  0.805593410305E-01
  0.805609367791E-01
  0.805596157642E-01
  0.805526527056E-01
  0.805526527056E-01
  0.805596157642E-01
  0.805609367791E-01
  0.805593410305E-01
  0.805575747185E-01
  0.805589720958E-01
  0.805592678448E-01
  0.805581138564E-01
  0.805589343439E-01
 -0.805589203269E-01
 -0.805580998396E-01
 -0.805592763996E-01
 -0.805589806506E-01
 -0.805575932169E-01
 -0.805593595294E-01
 -0.805609217743E-01
 -0.805596007597E-01
 -0.805526614465E-01
SCALARS C_p_ise float 1
LOOKUP_TABLE default
 -0.550166290418E+01
 -0.424631369816E+01
  0.147867827787E-01
  0.854394807007E-01
  0.777236859665E-01
  0.824471784216E-01
  0.373037347029E-01
  0.357680290508E-01
  0.386697749765E-01
  0.130867339502E-01
  0.202152492773E-01
 -0.126879707048E-01
 -0.426165283739E-01
 -0.473590645778E-01
 -0.179575002621E-01
 -0.196040609390E-01
 -0.472496913877E-01
 -0.360155237387E-01
 -0.125055605882E+00
 -0.114106669799E+00
  0.308417803157E+00
  0.317217048317E+00
  0.635899996598E-01
  0.702051320334E-01
  0.362324810724E-01
  0.369781771689E-01
  0.183493863796E-01
  0.159427260475E-01
 -0.458484014304E-01
 -0.736001580757E-01
 -0.114492749232E+00
 -0.151567492004E+00
  0.451081133088E-01
  0.213337340272E-01
  0.956060546874E-01
  0.700993768942E-01
  0.150527277363E+00
  0.393513065376E+00
  0.910608047791E+00
 -0.523602295120E+01
 -0.448449644995E+01
 -0.571428571429E+01
 -0.117708032865E-01
  0.148673988425E-01
  0.660198720434E-01
  0.777199313276E-01
  0.358892431755E-01
  0.372985176673E-01
  0.333787935921E-01
  0.386531810629E-01
 -0.126977928781E-01
 -0.234303770408E-01
 -0.473996316442E-01
 -0.447691661706E-01
 -0.196325673211E-01
 -0.172570274022E-01
 -0.360476348688E-01
 -0.304408056110E-01
 -0.114134596898E+00
 -0.989485502198E-01
  0.279155761608E+00
  0.308415373135E+00
  0.630093779074E-01
  0.635854457338E-01
  0.372213429052E-01
  0.362252152645E-01
  0.190084841496E-01
  0.183409519617E-01
 -0.439770955645E-01
 -0.458594491645E-01
 -0.151577005137E+00
 -0.148843162106E+00
  0.213849161656E-01
  0.100124410119E-01
  0.702801084606E-01
  0.398527896088E-01
  0.393889054367E+00
  0.371442504465E+00
 -0.520520530399E+01
 -0.394050114437E+01
 -0.453523757577E+01
 -0.571428571429E+01
 -0.284298341676E-01
 -0.117706923343E-01
  0.562402205991E-01
  0.659952035171E-01
  0.351714368232E-01
  0.358667079134E-01
  0.264244168669E-01
  0.333311273414E-01
 -0.234274482270E-01
 -0.335456376302E-01
 -0.448292926771E-01
 -0.404509191473E-01
 -0.173019693241E-01
 -0.138927219534E-01
 -0.304826836308E-01
 -0.172584444666E-01
 -0.989777869500E-01
 -0.817405494274E-01
  0.237199825197E+00
  0.279168079825E+00
  0.615611313475E-01
  0.630062343131E-01
  0.372405531724E-01
  0.372178342880E-01
  0.190541113626E-01
  0.190058943910E-01
 -0.414038265657E-01
 -0.439842077055E-01
 -0.148839909588E+00
 -0.143193720246E+00
  0.998257549028E-02
  0.270151109550E-02