# vtk DataFile Version 3.0
MachLine results file. Generated by MachLine, USU AeroLab (c) 2022.
ASCII
DATASET POLYDATA
POINTS                1127 float
  0.999999041957E+00  0.000000000000E+00 -0.417491494650E-07
  0.973034383663E+00  0.105263157890E+00 -0.235825883963E-02
  0.999999119618E+00  0.105263157890E+00 -0.383648804671E-07
  0.973034382832E+00  0.000000000000E+00 -0.235824933777E-02
  0.929717675664E+00  0.105263157890E+00 -0.614787723533E-02
  0.929717673943E+00  0.000000000000E+00 -0.614785756087E-02
  0.863184699151E+00  0.105263157890E+00 -0.119686097007E-01
  0.863184696324E+00  0.000000000000E+00 -0.119685773901E-01
  0.767714125425E+00  0.105263157890E+00 -0.203210244768E-01
  0.767714122072E+00  0.000000000000E+00 -0.203209861486E-01
  0.643290413741E+00  0.105263157890E+00 -0.312065343397E-01
  0.643290411360E+00  0.000000000000E+00 -0.312065071268E-01
  0.500000000000E+00  0.105263157890E+00 -0.437427648440E-01
  0.500000000000E+00  0.000000000000E+00 -0.437429617072E-01
  0.356709588640E+00  0.000000000000E+00 -0.312065071268E-01
  0.356709586259E+00  0.105263157890E+00 -0.312065343397E-01
  0.232285877928E+00  0.000000000000E+00 -0.203209861486E-01
  0.232285874575E+00  0.105263157890E+00 -0.203210244768E-01
  0.136815303676E+00  0.000000000000E+00 -0.119685773901E-01
  0.136815300849E+00  0.105263157890E+00 -0.119686097007E-01
  0.702823260562E-01  0.000000000000E+00 -0.614785756087E-02
  0.702823243349E-01  0.105263157890E+00 -0.614787723533E-02
  0.269656171711E-01  0.000000000000E+00 -0.235824933777E-02
  0.269656163398E-01  0.105263157890E+00 -0.235825883963E-02
  0.961695078561E-06  0.000000000000E+00  0.000000000000E+00
  0.883738164913E-06  0.105263157890E+00  0.000000000000E+00
  0.269656163398E-01  0.105263157890E+00  0.235825883963E-02
  0.269656171711E-01  0.000000000000E+00  0.235824933777E-02
  0.702823243349E-01  0.105263157890E+00  0.614787723533E-02
  0.702823260562E-01  0.000000000000E+00  0.614785756087E-02
  0.136815300849E+00  0.105263157890E+00  0.119686097007E-01
  0.136815303676E+00  0.000000000000E+00  0.119685773901E-01
  0.232285874575E+00  0.105263157890E+00  0.203210244768E-01
  0.232285877928E+00  0.000000000000E+00  0.203209861486E-01
  0.356709586259E+00  0.105263157890E+00  0.312065343397E-01
  0.356709588640E+00  0.000000000000E+00  0.312065071268E-01
  0.500000000000E+00  0.105263157890E+00  0.437427648440E-01
  0.500000000000E+00  0.000000000000E+00  0.437429617072E-01
  0.643290411360E+00  0.000000000000E+00  0.312065071268E-01
  0.643290413741E+00  0.105263157890E+00  0.312065343397E-01
  0.767714122072E+00  0.000000000000E+00  0.203209861486E-01
  0.767714125425E+00  0.105263157890E+00  0.203210244768E-01
  0.863184696324E+00  0.000000000000E+00  0.119685773901E-01
  0.863184699151E+00  0.105263157890E+00  0.119686097007E-01
  0.929717673943E+00  0.000000000000E+00  0.614785756087E-02
  0.929717675664E+00  0.105263157890E+00  0.614787723533E-02
  0.973034382832E+00  0.000000000000E+00  0.235824933777E-02
  0.973034383663E+00  0.105263157890E+00  0.235825883963E-02
  0.973034383663E+00  0.210526315790E+00 -0.235825883963E-02
  0.999999119618E+00  0.210526315790E+00 -0.383648804656E-07
  0.929717675664E+00  0.210526315790E+00 -0.614787723533E-02
  0.863184699151E+00  0.210526315790E+00 -0.119686097007E-01
  0.767714125425E+00  0.210526315790E+00 -0.203210244768E-01
  0.643290413741E+00  0.210526315790E+00 -0.312065343397E-01
  0.500000000000E+00  0.210526315790E+00 -0.437427648440E-01
  0.356709586259E+00  0.210526315790E+00 -0.312065343397E-01
  0.232285874575E+00  0.210526315790E+00 -0.203210244768E-01
  0.136815300849E+00  0.210526315790E+00 -0.119686097007E-01
  0.702823243349E-01  0.210526315790E+00 -0.614787723533E-02
  0.269656163398E-01  0.210526315790E+00 -0.235825883963E-02
  0.883738164878E-06  0.210526315790E+00  0.000000000000E+00
  0.269656163398E-01  0.210526315790E+00  0.235825883963E-02
  0.702823243349E-01  0.210526315790E+00  0.614787723533E-02
  0.136815300849E+00  0.210526315790E+00  0.119686097007E-01
  0.232285874575E+00  0.210526315790E+00  0.203210244768E-01
  0.356709586259E+00  0.210526315790E+00  0.312065343397E-01
  0.500000000000E+00  0.210526315790E+00  0.437427648440E-01
  0.643290413741E+00  0.210526315790E+00  0.312065343397E-01
  0.767714125425E+00  0.210526315790E+00  0.203210244768E-01
  0.863184699151E+00  0.210526315790E+00  0.119686097007E-01
  0.929717675664E+00  0.210526315790E+00  0.614787723533E-02
  0.973034383663E+00  0.210526315790E+00  0.235825883963E-02
  0.973034383663E+00  0.315789473680E+00 -0.235825883963E-02
  0.999999119618E+00  0.315789473680E+00 -0.383648804671E-07
  0.929717675664E+00  0.315789473680E+00 -0.614787723533E-02
  0.863184699151E+00  0.315789473680E+00 -0.119686097007E-01
  0.767714125425E+00  0.315789473680E+00 -0.203210244768E-01
  0.643290413741E+00  0.315789473680E+00 -0.312065343397E-01
  0.500000000000E+00  0.315789473680E+00 -0.437427648440E-01
  0.356709586259E+00  0.315789473680E+00 -0.312065343397E-01
  0.232285874575E+00  0.315789473680E+00 -0.203210244768E-01
  0.136815300849E+00  0.315789473680E+00 -0.119686097007E-01
  0.702823243349E-01  0.315789473680E+00 -0.614787723533E-02
  0.269656163398E-01  0.315789473680E+00 -0.235825883963E-02
  0.883738164913E-06  0.315789473680E+00  0.000000000000E+00
  0.269656163398E-01  0.315789473680E+00  0.235825883963E-02
  0.702823243349E-01  0.315789473680E+00  0.614787723533E-02
  0.136815300849E+00  0.315789473680E+00  0.119686097007E-01
  0.232285874575E+00  0.315789473680E+00  0.203210244768E-01
  0.356709586259E+00  0.315789473680E+00  0.312065343397E-01
  0.500000000000E+00  0.315789473680E+00  0.437427648440E-01
  0.643290413741E+00  0.315789473680E+00  0.312065343397E-01
  0.767714125425E+00  0.315789473680E+00  0.203210244768E-01
  0.863184699151E+00  0.315789473680E+00  0.119686097007E-01
  0.929717675664E+00  0.315789473680E+00  0.614787723533E-02
  0.973034383663E+00  0.315789473680E+00  0.235825883963E-02
  0.973034383663E+00  0.421052631580E+00 -0.235825883963E-02
  0.999999119618E+00  0.421052631580E+00 -0.383648804656E-07
  0.929717675664E+00  0.421052631580E+00 -0.614787723533E-02
  0.863184699151E+00  0.421052631580E+00 -0.119686097007E-01
  0.767714125425E+00  0.421052631580E+00 -0.203210244768E-01
  0.643290413741E+00  0.421052631580E+00 -0.312065343397E-01
  0.500000000000E+00  0.421052631580E+00 -0.437427648440E-01
  0.356709586259E+00  0.421052631580E+00 -0.312065343397E-01
  0.232285874575E+00  0.421052631580E+00 -0.203210244768E-01
  0.136815300849E+00  0.421052631580E+00 -0.119686097007E-01
  0.702823243349E-01  0.421052631580E+00 -0.614787723533E-02
  0.269656163398E-01  0.421052631580E+00 -0.235825883963E-02
  0.883738164878E-06  0.421052631580E+00  0.187623218593E-21
  0.269656163398E-01  0.421052631580E+00  0.235825883963E-02
  0.702823243349E-01  0.421052631580E+00  0.614787723533E-02
  0.136815300849E+00  0.421052631580E+00  0.119686097007E-01
  0.232285874575E+00  0.421052631580E+00  0.203210244768E-01
  0.356709586259E+00  0.421052631580E+00  0.312065343397E-01
  0.500000000000E+00  0.421052631580E+00  0.437427648440E-01
  0.643290413741E+00  0.421052631580E+00  0.312065343397E-01
  0.767714125425E+00  0.421052631580E+00  0.203210244768E-01
  0.863184699151E+00  0.421052631580E+00  0.119686097007E-01
  0.929717675664E+00  0.421052631580E+00  0.614787723533E-02
  0.973034383663E+00  0.421052631580E+00  0.235825883963E-02
  0.973034383663E+00  0.526315789470E+00 -0.235825883963E-02
  0.999999119618E+00  0.526315789470E+00 -0.383648804671E-07
  0.929717675664E+00  0.526315789470E+00 -0.614787723533E-02
  0.863184699151E+00  0.526315789470E+00 -0.119686097007E-01
  0.767714125425E+00  0.526315789470E+00 -0.203210244768E-01
  0.643290413741E+00  0.526315789470E+00 -0.312065343397E-01
  0.500000000000E+00  0.526315789470E+00 -0.437427648440E-01
  0.356709586259E+00  0.526315789470E+00 -0.312065343397E-01
  0.232285874575E+00  0.526315789470E+00 -0.203210244768E-01
  0.136815300849E+00  0.526315789470E+00 -0.119686097007E-01
  0.702823243349E-01  0.526315789470E+00 -0.614787723533E-02
  0.269656163398E-01  0.526315789470E+00 -0.235825883963E-02
  0.883738164913E-06  0.526315789470E+00  0.187623218601E-21
  0.269656163398E-01  0.526315789470E+00  0.235825883963E-02
  0.702823243349E-01  0.526315789470E+00  0.614787723533E-02
  0.136815300849E+00  0.526315789470E+00  0.119686097007E-01
  0.232285874575E+00  0.526315789470E+00  0.203210244768E-01
  0.356709586259E+00  0.526315789470E+00  0.312065343397E-01
  0.500000000000E+00  0.526315789470E+00  0.437427648440E-01
  0.643290413741E+00  0.526315789470E+00  0.312065343397E-01
  0.767714125425E+00  0.526315789470E+00  0.203210244768E-01
  0.863184699151E+00  0.526315789470E+00  0.119686097007E-01
  0.929717675664E+00  0.526315789470E+00  0.614787723533E-02
  0.973034383663E+00  0.526315789470E+00  0.235825883963E-02
  0.973034383663E+00  0.631578947370E+00 -0.235825883963E-02
  0.999999119618E+00  0.631578947370E+00 -0.383648804656E-07
  0.929717675664E+00  0.631578947370E+00 -0.614787723533E-02
  0.863184699151E+00  0.631578947370E+00 -0.119686097007E-01
  0.767714125425E+00  0.631578947370E+00 -0.203210244768E-01
  0.643290413741E+00  0.631578947370E+00 -0.312065343397E-01
  0.500000000000E+00  0.631578947370E+00 -0.437427648440E-01
  0.356709586259E+00  0.631578947370E+00 -0.312065343397E-01
  0.232285874575E+00  0.631578947370E+00 -0.203210244768E-01
  0.136815300849E+00  0.631578947370E+00 -0.119686097007E-01
  0.702823243349E-01  0.631578947370E+00 -0.614787723533E-02
  0.269656163398E-01  0.631578947370E+00 -0.235825883963E-02
  0.883738164878E-06  0.631578947370E+00  0.000000000000E+00
  0.269656163398E-01  0.631578947370E+00  0.235825883963E-02
  0.702823243349E-01  0.631578947370E+00  0.614787723533E-02
  0.136815300849E+00  0.631578947370E+00  0.119686097007E-01
  0.232285874575E+00  0.631578947370E+00  0.203210244768E-01
[...]
POINT_DATA                1127
SCALARS phi float 1
LOOKUP_TABLE default
  0.138853846346E-18
 -0.281892564846E-17
 -0.426514176167E-17
 -0.346944695195E-17
  0.867361737988E-17
  0.563785129692E-17
  0.954097911787E-17
  0.693889390391E-17
  0.346944695195E-17
  0.520417042793E-17
 -0.138777878078E-16
 -0.346944695195E-17
  0.104083408559E-16
  0.346944695195E-17
 -0.693889390391E-17
  0.000000000000E+00
  0.173472347598E-17
 -0.346944695195E-17
  0.173472347598E-17
 -0.173472347598E-17
  0.000000000000E+00
  0.000000000000E+00
  0.148752538065E-15
  0.303576608296E-17
 -0.661744490042E-23
  0.000000000000E+00
  0.216840434497E-18
  0.000000000000E+00
  0.000000000000E+00
  0.000000000000E+00
 -0.346944695195E-17
  0.346944695195E-17
 -0.520417042793E-17
  0.000000000000E+00
  0.104083408559E-16
 -0.346944695195E-17
  0.000000000000E+00
  0.000000000000E+00
  0.000000000000E+00
 -0.242861286637E-16
  0.000000000000E+00
 -0.173472347598E-17
  0.607153216592E-17
  0.780625564190E-17
 -0.867361737988E-18
  0.390312782095E-17
 -0.650521303491E-18
 -0.368628738645E-17
  0.130104260698E-17
  0.147616534534E-16
 -0.997465998687E-17
 -0.607153216592E-17
 -0.121430643318E-16
 -0.693889390391E-17
  0.242861286637E-16
  0.104083408559E-16
 -0.121430643318E-16
 -0.346944695195E-17
 -0.867361737988E-18
 -0.780625564190E-17
  0.264697796017E-22
  0.216840434497E-18
 -0.260208521397E-17
  0.173472347598E-17
 -0.693889390391E-17
  0.693889390391E-17
  0.277555756156E-16
 -0.138777878078E-16
  0.173472347598E-17
  0.867361737988E-18
 -0.477048955894E-17
 -0.368628738645E-17
 -0.108420217249E-17
 -0.220980308027E-17
 -0.433680868994E-18
 -0.173472347598E-17
 -0.225514051877E-16
  0.000000000000E+00
  0.104083408559E-16
 -0.346944695195E-17
  0.693889390391E-17
  0.346944695195E-17
  0.173472347598E-17
 -0.219008838842E-16
  0.132348898008E-22
  0.650521303491E-18
 -0.867361737988E-18
  0.346944695195E-17
  0.104083408559E-16
  0.000000000000E+00
  0.208166817117E-16
  0.242861286637E-16
 -0.104083408559E-16
 -0.693889390391E-17
  0.607153216592E-17
 -0.867361737988E-18
 -0.132272665043E-16
 -0.483219061519E-17
  0.607153216592E-17
  0.000000000000E+00
  0.225514051877E-16
  0.104083408559E-16
  0.693889390391E-17
  0.693889390391E-17
 -0.520417042793E-17
 -0.346944695195E-17
 -0.260208521397E-17
 -0.151788304148E-17
  0.000000000000E+00
 -0.216840434497E-18
  0.000000000000E+00
 -0.173472347598E-17
  0.346944695195E-17
 -0.346944695195E-17
  0.104083408559E-16
  0.346944695195E-17
  0.867361737988E-17
 -0.607153216592E-17
  0.867361737988E-18
 -0.325260651746E-17
  0.433680868994E-17
 -0.666085533897E-18
  0.867361737988E-17
  0.104083408559E-16
 -0.867361737988E-17
 -0.277555756156E-16
  0.104083408559E-16
 -0.138777878078E-16
  0.173472347598E-17
  0.346944695195E-17
  0.173472347598E-17
  0.368628738645E-17
 -0.132348898008E-22
  0.000000000000E+00
  0.260208521397E-17
  0.000000000000E+00
 -0.173472347598E-17
 -0.138777878078E-16
  0.000000000000E+00
  0.346944695195E-17
 -0.346944695195E-17
  0.000000000000E+00
  0.346944695195E-17
  0.303576608296E-17
  0.433680868994E-18
  0.541169350001E-17
  0.520417042793E-17
  0.954097911787E-17
  0.173472347598E-17
 -0.346944695195E-17
 -0.104083408559E-16
 -0.138777878078E-16
 -0.173472347598E-17
  0.173472347598E-17
 -0.173472347598E-17
  0.112757025938E-16
 -0.661744490042E-23
  0.000000000000E+00
  0.000000000000E+00
  0.000000000000E+00
 -0.173472347598E-17
 -0.693889390391E-17
 -0.173472347598E-16
 -0.208166817117E-16
  0.225514051877E-16
  0.260208521397E-17
  0.477048955894E-17
  0.325260651746E-17
  0.216840434497E-18
  0.303153091822E-17
  0.607153216592E-17
 -0.260208521397E-17
 -0.104083408559E-16
  0.104083408559E-16
  0.000000000000E+00
  0.693889390391E-17
  0.173472347598E-17
  0.346944695195E-17
  0.173472347598E-17
 -0.607153216592E-17
  0.661744490042E-23
  0.650521303491E-18
  0.000000000000E+00
  0.520417042793E-17
  0.346944695195E-17
  0.346944695195E-17
 -0.346944695195E-17
 -0.693889390391E-17
  0.121430643318E-16
 -0.433680868994E-17
  0.477048955894E-17
  0.411996825544E-17
 -0.325260651746E-17
  0.187702501112E-17
 -0.563785129692E-17
 -0.954097911787E-17
  0.173472347598E-17
 -0.693889390391E-17
 -0.104083408559E-16
  0.693889390391E-17
  0.346944695195E-17
 -0.173472347598E-17
  0.260208521397E-17
  0.130104260698E-17
  0.132348898008E-22
  0.216840434497E-18
  0.260208521397E-17
  0.346944695195E-17
 -0.173472347598E-17
  0.693889390391E-17
  0.242861286637E-16
 -0.693889390391E-17
  0.173472347598E-17
 -0.173472347598E-17
 -0.867361737988E-18
 -0.650521303491E-18
 -0.650521303491E-17
  0.140946282423E-17
 -0.477048955894E-17
 -0.780625564190E-17
  0.867361737988E-17
  0.104083408559E-16
  0.693889390391E-17
 -0.346944695195E-17
  0.173472347598E-17
  0.173472347598E-17
  0.000000000000E+00
 -0.303576608296E-17
 -0.198523347013E-22
 -0.650521303491E-18
  0.173472347598E-17
  0.173472347598E-17
  0.000000000000E+00
  0.346944695195E-17
  0.000000000000E+00
 -0.277555756156E-16
 -0.121430643318E-16
 -0.867361737988E-18
 -0.477048955894E-17
 -0.867361737988E-18
 -0.867361737988E-18
  0.131459513414E-17
 -0.433680868994E-18
 -0.867361737988E-18
  0.138777878078E-16
 -0.104083408559E-16
 -0.208166817117E-16
  0.346944695195E-17
  0.520417042793E-17
 -0.173472347598E-17
  0.173472347598E-17
  0.520417042793E-17
 -0.132348898008E-22
 -0.433680868994E-18
  0.867361737988E-18
 -0.346944695195E-17
  0.173472347598E-17
  0.346944695195E-17
  0.104083408559E-16
  0.277555756156E-16
  0.693889390391E-17
 -0.173472347598E-17
 -0.607153216592E-17
 -0.585469173142E-17
  0.585469173142E-17
  0.829414661951E-17
  0.823993651089E-17
 -0.147451495458E-16
 -0.520417042793E-17
  0.000000000000E+00
 -0.346944695195E-17
  0.346944695195E-17
  0.000000000000E+00
  0.520417042793E-17
 -0.867361737988E-18
  0.584384970970E-15
 -0.661744490042E-23
  0.000000000000E+00
 -0.867361737988E-18
  0.173472347598E-17
 -0.121430643318E-16
  0.000000000000E+00
  0.000000000000E+00
  0.104083408559E-16
 -0.693889390391E-17
  0.867361737988E-18
  0.390312782095E-17
  0.433680868994E-17
 -0.136609473733E-16
 -0.775204553327E-17
  0.607153216592E-17
 -0.121430643318E-16
  0.346944695195E-17
  0.104083408559E-16
  0.104083408559E-16
  0.346944695195E-17
 -0.138777878078E-16
  0.000000000000E+00
  0.867361737988E-18
  0.650521303491E-17
  0.132348898008E-22
  0.216840434497E-18
 -0.173472347598E-17
 -0.520417042793E-17
 -0.104083408559E-16
  0.693889390391E-17
  0.208166817117E-16
 -0.208166817117E-16
  0.520417042793E-17
  0.000000000000E+00
 -0.693889390391E-17
  0.455364912444E-17
  0.130104260698E-16
 -0.110046520507E-16
  0.143114686768E-16
  0.954097911787E-17
  0.398986399475E-16
 -0.659194920871E-16
  0.208166817117E-16
  0.346944695195E-17
 -0.138777878078E-16
 -0.520417042793E-17
  0.867361737988E-18
 -0.141163122858E-15
  0.198523347013E-22
 -0.216840434497E-18
  0.260208521397E-17
 -0.346944695195E-17
 -0.346944695195E-17
  0.242861286637E-16
  0.138777878078E-16
  0.242861286637E-16
 -0.190819582357E-16
 -0.277555756156E-16
  0.177809156288E-16
 -0.130104260698E-17
 -0.364291929955E-16
  0.411996825544E-17
 -0.333934269126E-16
  0.260208521397E-17
  0.745931094670E-16
 -0.416333634234E-16
 -0.381639164715E-16
  0.693889390391E-17
 -0.173472347598E-17
  0.000000000000E+00
 -0.260208521397E-17
 -0.867361737988E-18
 -0.264697796017E-22
 -0.216840434497E-18
  0.867361737988E-18
  0.173472347598E-17
  0.173472347598E-17
  0.104083408559E-16
  0.208166817117E-16
 -0.659194920871E-16
 -0.322658566532E-15
  0.192554305833E-15
 -0.615826833972E-16
  0.346944695195E-17
  0.283627288322E-15
 -0.680878964321E-16
  0.105384451166E-15
 -0.115359111152E-15
 -0.589805981832E-16
  0.346944695195E-16
  0.346944695195E-17
 -0.346944695195E-17
 -0.867361737988E-17
  0.520417042793E-17
 -0.260208521397E-17
 -0.246135577198E-14
 -0.661744490042E-23
  0.867361737988E-18
 -0.260208521397E-17
 -0.346944695195E-17
  0.520417042793E-17
  0.000000000000E+00
 -0.346944695195E-16
  0.128369537222E-15
  0.114491749414E-14
 -0.358220397789E-15
 -0.281892564846E-16
 -0.279724160501E-16
  0.220065935960E-15
  0.707767178199E-15
 -0.406792655117E-15
  0.563785129692E-15
 -0.357353036051E-15
  0.402455846427E-15
  0.104083408559E-15
  0.485722573274E-16
  0.693889390391E-17
  0.121430643318E-16
  0.780625564190E-17
 -0.157816468227E-14
 -0.132348898008E-22
 -0.216840434497E-18
 -0.260208521397E-17
 -0.693889390391E-17
  0.000000000000E+00
 -0.381639164715E-16
 -0.902056207508E-16
 -0.130104260698E-14
  0.294382573873E-14
 -0.318321757842E-15
  0.147885176327E-15
  0.706086664831E-17
  0.242167397246E-14
 -0.398986399475E-16
 -0.115185638805E-14
  0.360779114916E-14
 -0.183707216106E-14
  0.537764277553E-14
 -0.326128013484E-15
 -0.211636264069E-15
 -0.468375338514E-16
 -0.277555756156E-16
 -0.771951946810E-16
  0.298047177216E-14
  0.000000000000E+00
  0.000000000000E+00
  0.667868538251E-16
  0.780625564190E-16
  0.659194920871E-16
  0.138777878078E-15
  0.457966997658E-15
 -0.166186508999E-14
 -0.223258911358E-14
  0.111022302463E-14
 -0.123859256185E-14
  0.264718802434E-14
 -0.130971622436E-14
 -0.714706072102E-15
  0.477222428241E-14
 -0.487457296749E-14
  0.163064006742E-15
 -0.143531020402E-13
 -0.232452945781E-15
 -0.170002900646E-15
  0.190819582357E-16
  0.138777878078E-16
 -0.320923843056E-16
  0.254440565839E-14
 -0.661744490042E-23
 -0.216840434497E-18
  0.693889390391E-17
  0.503069808033E-16
 -0.381639164715E-16
 -0.693889390391E-16
  0.114491749414E-15
 -0.298025493173E-14
 -0.240432673770E-13
  0.207559663901E-14
  0.413124395804E-14
  0.190819582357E-16
 -0.222911966663E-15
  0.140946282423E-16
  0.715898694492E-15
 -0.181180347418E-15
 -0.323525928270E-15
 -0.152269689913E-13
  0.843075609325E-15
  0.433680868994E-15
  0.954097911787E-16
  0.789299181569E-16
  0.119262238973E-15
  0.650521303491E-18
  0.827180612553E-24
  0.433680868994E-18
 -0.123165366794E-15
 -0.138777878078E-15
 -0.178676518026E-15
 -0.390312782095E-15
 -0.683481049535E-15
 -0.202832542429E-14
 -0.377519196459E-15
  0.295668708700E-15
  0.142138904813E-15
 -0.199059518868E-15
 -0.100830802041E-15
  0.475856333504E-15
 -0.795153873301E-15
  0.334801630864E-15
 -0.532299898603E-14
  0.721644966006E-15
  0.185615411930E-15
 -0.242861286637E-16
  0.268882138776E-16
  0.993129189997E-16
 -0.216840434497E-18
 -0.216840434497E-18
 -0.737257477290E-16
 -0.893382590128E-16
 -0.433680868994E-16
 -0.189084858881E-15
 -0.350414142147E-15
  0.163150742916E-14
 -0.523886489745E-15
  0.673831650200E-15
 -0.873324849937E-16
 -0.194505869744E-15
 -0.200143721041E-15
 -0.139591029708E-16
 -0.463604848955E-15
  0.351715184754E-15
 -0.693889390391E-14
  0.340005801291E-15
  0.346944695195E-16
 -0.537764277553E-16
 -0.104083408559E-16
  0.459701721134E-16
 -0.325260651746E-18
 -0.325260651746E-18
 -0.524753851483E-16
 -0.598479599212E-16
 -0.164798730218E-16
 -0.107552855511E-15
 -0.267147415300E-15
  0.378169717763E-15
 -0.359087759527E-15
  0.468592178948E-15
  0.426633554873E-15
  0.544269490588E-16
 -0.134766330040E-15
  0.342289402117E-15
  0.134874750257E-15
  0.580698683583E-15
 -0.316760506713E-14
  0.124900090270E-15
  0.520417042793E-17
 -0.294902990916E-16
 -0.225514051877E-16
  0.138777878078E-16
  0.216840434497E-18
 -0.433680868994E-18
 -0.438017677684E-16
 -0.320923843056E-16
 -0.607153216592E-17
 -0.260208521397E-16
 -0.128369537222E-15
 -0.607153216592E-15
  0.784962372880E-16
  0.574627151417E-15
 -0.405627137781E-15
  0.938919081372E-16
 -0.458617518961E-16
  0.154905385394E-16
  0.322658566532E-15
  0.103129310647E-14
 -0.108073272553E-14
 -0.693889390391E-17
 -0.121430643318E-16
 -0.251534904017E-16
 -0.199493199737E-16
 -0.151788304148E-16
  0.108420217249E-18
  0.880776622291E-17
  0.758941520740E-17
 -0.138777878078E-16
 -0.164798730218E-16
 -0.693889390391E-17
  0.000000000000E+00
 -0.277555756156E-16
  0.346944695195E-17
  0.277555756156E-16
 -0.520417042793E-17
 -0.346944695195E-17
  0.867361737988E-18
 -0.132348898008E-22
  0.650521303491E-18
 -0.954097911787E-17
  0.000000000000E+00
 -0.416333634234E-16
 -0.867361737988E-16
 -0.183880688454E-15
  0.693889390391E-17
  0.225514051877E-16
  0.190819582357E-16
  0.112757025938E-16
  0.182145964978E-16
 -0.143161802976E-17
  0.173472347598E-17
 -0.173472347598E-17
 -0.303576608296E-16
 -0.104083408559E-16
  0.693889390391E-17
  0.208166817117E-16
 -0.346944695195E-17
 -0.520417042793E-17
 -0.173472347598E-17
  0.346944695195E-17
  0.390312782095E-17
  0.000000000000E+00
  0.216840434497E-18
  0.173472347598E-17
  0.000000000000E+00
 -0.225514051877E-16
  0.138777878078E-16
  0.693889390391E-17
 -0.346944695195E-16
  0.433680868994E-16
  0.312250225676E-16
  0.433680868994E-17
 -0.216840434497E-18
  0.266092224006E-16
  0.119262238973E-16
 -0.216840434497E-17
  0.433680868994E-17
 -0.156125112838E-16
 -0.346944695195E-17
  0.693889390391E-17
  0.000000000000E+00
  0.000000000000E+00
 -0.520417042793E-17
  0.867361737988E-18
  0.195156391047E-17
  0.132348898008E-22
  0.216840434497E-18
  0.000000000000E+00
 -0.693889390391E-17
  0.520417042793E-17
 -0.346944695195E-17
 -0.173472347598E-16
  0.346944695195E-16
 -0.867361737988E-17
  0.320923843056E-16
  0.693889390391E-17
 -0.455364912444E-17
 -0.163104531974E-16
 -0.303576608296E-17
  0.910729824888E-17
 -0.234187669257E-16
 -0.121430643318E-16
  0.173472347598E-16
  0.138777878078E-16
  0.208166817117E-16
  0.000000000000E+00
  0.173472347598E-17
  0.000000000000E+00
  0.346944695195E-17
  0.132348898008E-22
  0.000000000000E+00
 -0.173472347598E-17
 -0.173472347598E-17
  0.520417042793E-17
  0.208166817117E-16
  0.693889390391E-17
 -0.693889390391E-17
  0.381639164715E-16
 -0.954097911787E-17
  0.108420217249E-16
  0.216840434497E-17
  0.378046686227E-17
  0.368628738645E-17
 -0.954097911787E-17
  0.147451495458E-16
  0.346944695195E-17
  0.000000000000E+00
  0.173472347598E-16
 -0.173472347598E-16
 -0.173472347598E-17
 -0.173472347598E-17
  0.867361737988E-18
 -0.498732999343E-17
  0.132348898008E-22
  0.000000000000E+00
  0.173472347598E-17
  0.000000000000E+00
 -0.104083408559E-16
 -0.693889390391E-17
 -0.693889390391E-17
  0.104083408559E-16
  0.346944695195E-17
 -0.867361737988E-17
  0.867361737988E-18
 -0.303576608296E-17
  0.248455939253E-17
  0.715573433840E-17
  0.130104260698E-17
  0.121430643318E-16
  0.000000000000E+00
 -0.346944695195E-17
  0.138777878078E-16
 -0.104083408559E-16
  0.346944695195E-17
 -0.346944695195E-17
  0.000000000000E+00
  0.433680868994E-17
  0.198523347013E-22
 -0.216840434497E-18
  0.867361737988E-18
 -0.173472347598E-17
 -0.173472347598E-17
 -0.138777878078E-16
  0.208166817117E-16
  0.000000000000E+00
 -0.138777878078E-16
  0.954097911787E-17
  0.130104260698E-17
  0.932413868338E-17
  0.553366624441E-17
 -0.650521303491E-18
 -0.390312782095E-17
 -0.867361737988E-18
 -0.346944695195E-17
 -0.693889390391E-17
  0.104083408559E-16
 -0.104083408559E-16
  0.173472347598E-17
  0.173472347598E-17
  0.867361737988E-18
  0.000000000000E+00
  0.000000000000E+00
 -0.433680868994E-18
 -0.867361737988E-18
  0.346944695195E-17
 -0.867361737988E-17
  0.693889390391E-17
  0.346944695195E-17
 -0.173472347598E-16
  0.000000000000E+00
  0.520417042793E-17
 -0.260208521397E-17
 -0.411996825544E-17
 -0.902937121773E-17
 -0.932413868338E-17
  0.173472347598E-17
 -0.780625564190E-17
 -0.173472347598E-17
 -0.242861286637E-16
 -0.173472347598E-16
  0.000000000000E+00
 -0.173472347598E-17
 -0.520417042793E-17
  0.867361737988E-18
 -0.631005664387E-16
  0.132348898008E-22
 -0.433680868994E-18
  0.867361737988E-18
 -0.520417042793E-17
 -0.346944695195E-17
  0.000000000000E+00
  0.693889390391E-17
 -0.346944695195E-17
  0.000000000000E+00
  0.173472347598E-17
 -0.433680868994E-18
 -0.411996825544E-17
 -0.609186095665E-17
  0.498732999343E-17
 -0.520417042793E-17
 -0.346944695195E-17
  0.867361737988E-17
  0.000000000000E+00
  0.346944695195E-17
 -0.242861286637E-16
 -0.346944695195E-17
  0.173472347598E-17
  0.867361737988E-18
  0.346944695195E-17
 -0.132348898008E-22
 -0.650521303491E-18
  0.867361737988E-18
 -0.346944695195E-17
 -0.346944695195E-17
 -0.346944695195E-17
  0.693889390391E-17
  0.000000000000E+00
 -0.693889390391E-17
 -0.693889390391E-17
 -0.433680868994E-18
 -0.108420217249E-17
 -0.414707330976E-17
  0.325260651746E-17
  0.173472347598E-17
  0.520417042793E-17
 -0.173472347598E-17
 -0.277555756156E-16
  0.346944695195E-17
  0.000000000000E+00
  0.000000000000E+00
  0.173472347598E-17
  0.867361737988E-18
  0.346944695195E-17
  0.000000000000E+00
  0.000000000000E+00
  0.867361737988E-18
  0.173472347598E-17
 -0.693889390391E-17
 -0.693889390391E-17
 -0.173472347598E-16
  0.693889390391E-17
  0.121430643318E-16
 -0.954097911787E-17
  0.346944695195E-17
  0.867361737988E-18
  0.121295118047E-16
 -0.303576608296E-17
 -0.216840434497E-17
  0.867361737988E-17
  0.346944695195E-17
  0.000000000000E+00
  0.242861286637E-16
  0.346944695195E-17
 -0.173472347598E-17
 -0.346944695195E-17
  0.173472347598E-17
  0.281892564846E-17
 -0.132348898008E-22
  0.000000000000E+00
  0.173472347598E-17
  0.173472347598E-17
 -0.520417042793E-17
  0.000000000000E+00
  0.312250225676E-16
 -0.104083408559E-16
 -0.173472347598E-17
  0.000000000000E+00
 -0.867361737988E-18
 -0.130104260698E-17
 -0.646455545344E-17
  0.106251812904E-16
  0.433680868994E-18
 -0.121430643318E-16
  0.121430643318E-16
 -0.242861286637E-16
  0.104083408559E-16
  0.173472347598E-16
  0.173472347598E-17
 -0.520417042793E-17
  0.867361737988E-18
 -0.368628738645E-17
 -0.198523347013E-22
 -0.650521303491E-18
  0.000000000000E+00
 -0.346944695195E-17
  0.520417042793E-17
  0.104083408559E-16
 -0.312250225676E-16
  0.000000000000E+00
  0.173472347598E-16
 -0.693889390391E-17
 -0.433680868994E-18
  0.260208521397E-17
 -0.689823632244E-17
  0.175640751943E-16
  0.737257477290E-17
  0.485722573274E-16
  0.346944695195E-17
 -0.693889390391E-17
  0.173472347598E-16
  0.346944695195E-17
  0.173472347598E-17
  0.173472347598E-17
  0.173472347598E-17
  0.281892564846E-16
  0.661744490042E-23
 -0.433680868994E-18
  0.867361737988E-18
 -0.346944695195E-17
 -0.173472347598E-17
  0.000000000000E+00
 -0.693889390391E-17
 -0.312250225676E-16
 -0.190819582357E-16
  0.251534904017E-16
  0.954097911787E-17
 -0.520417042793E-17
  0.242861286637E-16
 -0.867361737988E-18
  0.420670442924E-16
  0.242861286637E-16
 -0.468375338514E-16
 -0.693889390391E-17
  0.208166817117E-16
  0.693889390391E-17
  0.000000000000E+00
  0.346944695195E-17
  0.173472347598E-17
  0.164885466392E-14
  0.000000000000E+00
 -0.216840434497E-18
 -0.173472347598E-17
 -0.346944695195E-17
 -0.867361737988E-17
  0.104083408559E-16
 -0.277555756156E-16
 -0.138777878078E-16
  0.164798730218E-15
 -0.520417042793E-17
  0.455364912444E-16
  0.650521303491E-17
  0.375133951680E-16
 -0.255871712707E-16
 -0.118828558104E-15
 -0.936750677027E-16
  0.364291929955E-16
  0.936750677027E-16
  0.000000000000E+00
  0.000000000000E+00
 -0.346944695195E-17
  0.000000000000E+00
  0.000000000000E+00
 -0.109287578987E-15
 -0.661744490042E-23
 -0.216840434497E-18
  0.000000000000E+00
 -0.520417042793E-17
 -0.104083408559E-16
 -0.346944695195E-17
  0.000000000000E+00
  0.416333634234E-16
 -0.161329283266E-15
 -0.156125112838E-15
 -0.615826833972E-16
  0.411996825544E-17
 -0.312683906545E-15
  0.309756560679E-15
 -0.215105711021E-15
 -0.133226762955E-14
  0.327862736960E-15
  0.260208521397E-15
 -0.381639164715E-16
 -0.693889390391E-17
  0.346944695195E-17
 -0.520417042793E-17
 -0.112757025938E-16
 -0.118416561279E-14
  0.661744490042E-23
  0.433680868994E-18
  0.693889390391E-17
  0.867361737988E-17
  0.190819582357E-16
  0.138777878078E-16
  0.277555756156E-16
  0.301841884820E-15
 -0.442354486374E-15
 -0.107119174642E-14
  0.902056207508E-16
  0.356295938933E-16
 -0.522151766269E-15
 -0.333066907388E-15
  0.593275428784E-15
  0.163801264219E-14
  0.792768628521E-15
  0.189084858881E-15
 -0.163064006742E-15