# vtk DataFile Version 3.0
MachLine results file. Generated by MachLine, USU AeroLab (c) 2022.
ASCII
DATASET POLYDATA
POINTS                 446 float
  0.190349744366E-05  0.000000000000E+00  0.000000000000E+00
  0.180155439444E-05  0.217527970672E+00  0.000000000000E+00
  0.188619651827E-05  0.448061168194E+00  0.000000000000E+00
  0.195463115218E-05  0.689725637436E+00  0.000000000000E+00
  0.200381935583E-05  0.940178275108E+00  0.000000000000E+00
  0.203146979263E-05  0.119668114185E+01  0.000000000000E+00
  0.203625478170E-05  0.145621216297E+01  0.432309807279E-21
  0.201794494299E-05  0.171560299397E+01  0.000000000000E+00
  0.197742965724E-05  0.197169232368E+01  0.000000000000E+00
  0.191662923716E-05  0.222147774696E+01  0.000000000000E+00
  0.183830664114E-05  0.246225214005E+01  0.000000000000E+00
  0.174581819542E-05  0.269171094894E+01  0.370648277606E-21
  0.164282618113E-05  0.290802383423E+01  0.000000000000E+00
  0.153302818423E-05  0.310986590385E+01  0.000000000000E+00
  0.141992384673E-05  0.329641318321E+01  0.000000000000E+00
  0.130663581474E-05  0.346730756760E+01  0.000000000000E+00
  0.119580047662E-05  0.362259936333E+01  0.000000000000E+00
  0.108952656797E-05  0.376267743111E+01  0.000000000000E+00
  0.989381096661E-06  0.388819599152E+01  0.000000000000E+00
  0.971479789355E-07  0.399999949033E+01 -0.325828402727E-22
  0.341101700422E-01  0.000000000000E+00 -0.298244900752E-02
  0.341101700422E-01  0.000000000000E+00  0.298244900752E-02
  0.341101732645E-01  0.217527970672E+00 -0.298241217554E-02
  0.341101732645E-01  0.217527970672E+00  0.298241217554E-02
  0.341101808994E-01  0.448061168194E+00 -0.298232490813E-02
  0.341101808994E-01  0.448061168194E+00  0.298232490813E-02
  0.341101872069E-01  0.689725637436E+00 -0.298225281343E-02
  0.341101872069E-01  0.689725637436E+00  0.298225281343E-02
  0.341101919096E-01  0.940178275108E+00 -0.298219906190E-02
  0.341101919096E-01  0.940178275108E+00  0.298219906190E-02
  0.341101947895E-01  0.119668114185E+01 -0.298216614364E-02
  0.341101947895E-01  0.119668114185E+01  0.298216614364E-02
  0.341101957088E-01  0.145621216297E+01 -0.298215563625E-02
  0.341101957088E-01  0.145621216297E+01  0.298215563625E-02
  0.341101946228E-01  0.171560299397E+01 -0.298216804932E-02
  0.341101946228E-01  0.171560299397E+01  0.298216804932E-02
  0.341101915849E-01  0.197169232368E+01 -0.298220277328E-02
  0.341101915849E-01  0.197169232368E+01  0.298220277328E-02
  0.341101867408E-01  0.222147774696E+01 -0.298225814118E-02
  0.341101867408E-01  0.222147774696E+01  0.298225814118E-02
  0.341101803147E-01  0.246225214005E+01 -0.298233159154E-02
  0.341101803147E-01  0.246225214005E+01  0.298233159154E-02
  0.341101725883E-01  0.269171094894E+01 -0.298241990475E-02
  0.341101725883E-01  0.269171094894E+01  0.298241990475E-02
  0.341101638765E-01  0.290802383423E+01 -0.298251948086E-02
  0.341101638765E-01  0.290802383423E+01  0.298251948086E-02
  0.341101545033E-01  0.310986590385E+01 -0.298262661791E-02
  0.341101545033E-01  0.310986590385E+01  0.298262661791E-02
  0.341101447801E-01  0.329641318321E+01 -0.298273775438E-02
  0.341101447801E-01  0.329641318321E+01  0.298273775438E-02
  0.341101349893E-01  0.346730756760E+01 -0.298284966302E-02
  0.341101349893E-01  0.346730756760E+01  0.298284966302E-02
  0.341101253729E-01  0.362259936333E+01 -0.298295957907E-02
  0.341101253729E-01  0.362259936333E+01  0.298295957907E-02
  0.341101161271E-01  0.376267743111E+01 -0.298306525965E-02
  0.341101161271E-01  0.376267743111E+01  0.298306525965E-02
  0.341101074006E-01  0.388819599152E+01 -0.298316500328E-02
  0.341101074006E-01  0.388819599152E+01  0.298316500328E-02
  0.341100737472E-01  0.399999986265E+01 -0.298354966883E-02
  0.341100737472E-01  0.399999986265E+01  0.298354966883E-02
  0.341100436987E-01  0.400210926234E+01 -0.210953759438E-02
  0.341100436987E-01  0.400210926234E+01  0.210953759438E-02
  0.341100370391E-01  0.400298377669E+01 -0.122196032094E-22
  0.937239372188E-01  0.000000000000E+00 -0.819781594942E-02
  0.937239372188E-01  0.000000000000E+00  0.819781594942E-02
  0.937239391905E-01  0.217527970672E+00 -0.819779341279E-02
  0.937239391905E-01  0.217527970672E+00  0.819779341279E-02
  0.937239466997E-01  0.448061168194E+00 -0.819770758223E-02
  0.937239466997E-01  0.448061168194E+00  0.819770758223E-02
  0.937239529129E-01  0.689725637436E+00 -0.819763656592E-02
  0.937239529129E-01  0.689725637436E+00  0.819763656592E-02
  0.937239575511E-01  0.940178275108E+00 -0.819758355120E-02
  0.937239575511E-01  0.940178275108E+00  0.819758355120E-02
  0.937239603954E-01  0.119668114185E+01 -0.819755104039E-02
  0.937239603954E-01  0.119668114185E+01  0.819755104039E-02
  0.937239613072E-01  0.145621216297E+01 -0.819754061826E-02
  0.937239613072E-01  0.145621216297E+01  0.819754061826E-02
  0.937239602418E-01  0.171560299397E+01 -0.819755279622E-02
  0.937239602418E-01  0.171560299397E+01  0.819755279622E-02
  0.937239572527E-01  0.197169232368E+01 -0.819758696122E-02
  0.937239572527E-01  0.197169232368E+01  0.819758696122E-02
  0.937239524866E-01  0.222147774696E+01 -0.819764143773E-02
  0.937239524866E-01  0.222147774696E+01  0.819764143773E-02
  0.937239461688E-01  0.246225214005E+01 -0.819771365102E-02
  0.937239461688E-01  0.246225214005E+01  0.819771365102E-02
  0.937239385823E-01  0.269171094894E+01 -0.819780036452E-02
  0.937239385823E-01  0.269171094894E+01  0.819780036452E-02
  0.937239300440E-01  0.290802383423E+01 -0.819789795872E-02
  0.937239300440E-01  0.290802383423E+01  0.819789795872E-02
  0.937239208793E-01  0.310986590385E+01 -0.819800271149E-02
  0.937239208793E-01  0.310986590385E+01  0.819800271149E-02
  0.937239114015E-01  0.329641318321E+01 -0.819811104320E-02
  0.937239114015E-01  0.329641318321E+01  0.819811104320E-02
  0.937239018940E-01  0.346730756760E+01 -0.819821971403E-02
  0.937239018940E-01  0.346730756760E+01  0.819821971403E-02
  0.937238925990E-01  0.362259936333E+01 -0.819832595654E-02
  0.937238925990E-01  0.362259936333E+01  0.819832595654E-02
  0.937238837116E-01  0.376267743111E+01 -0.819842754027E-02
  0.937238837116E-01  0.376267743111E+01  0.819842754027E-02
  0.937238753778E-01  0.388819599152E+01 -0.819852279555E-02
  0.937238753778E-01  0.388819599152E+01  0.819852279555E-02
  0.937238447620E-01  0.399999982191E+01 -0.819887273523E-02
  0.937238447620E-01  0.399999982191E+01  0.819887273523E-02
  0.937238187329E-01  0.400579648713E+01 -0.579655186704E-02
  0.937238187329E-01  0.400579648713E+01  0.579655186704E-02
  0.937238127474E-01  0.400819916324E+01 -0.531059685571E-23
  0.190432515049E+00  0.000000000000E+00 -0.166584976144E-01
  0.190432515049E+00  0.000000000000E+00  0.166584976144E-01
  0.190432515623E+00  0.217527970672E+00 -0.166584910535E-01
  0.190432515623E+00  0.217527970672E+00  0.166584910535E-01
  0.190432522917E+00  0.448061168194E+00 -0.166584076910E-01
  0.190432522917E+00  0.448061168194E+00  0.166584076910E-01
  0.190432528965E+00  0.689725637436E+00 -0.166583385577E-01
  0.190432528965E+00  0.689725637436E+00  0.166583385577E-01
  0.190432533488E+00  0.940178275108E+00 -0.166582868539E-01
  0.190432533488E+00  0.940178275108E+00  0.166582868539E-01
  0.190432536267E+00  0.119668114185E+01 -0.166582550931E-01
  0.190432536267E+00  0.119668114185E+01  0.166582550931E-01
  0.190432537162E+00  0.145621216297E+01 -0.166582448678E-01
  0.190432537162E+00  0.145621216297E+01  0.166582448678E-01
  0.190432536127E+00  0.171560299397E+01 -0.166582566924E-01
  0.190432536127E+00  0.171560299397E+01  0.166582566924E-01
  0.190432533217E+00  0.197169232368E+01 -0.166582899521E-01
  0.190432533217E+00  0.197169232368E+01  0.166582899521E-01
  0.190432528579E+00  0.222147774696E+01 -0.166583429656E-01
  0.190432528579E+00  0.222147774696E+01  0.166583429656E-01
  0.190432522439E+00  0.246225214005E+01 -0.166584131493E-01
  0.190432522439E+00  0.246225214005E+01  0.166584131493E-01
  0.190432515080E+00  0.269171094894E+01 -0.166584972583E-01
  0.190432515080E+00  0.269171094894E+01  0.166584972583E-01
  0.190432506821E+00  0.290802383423E+01 -0.166585916677E-01
  0.190432506821E+00  0.290802383423E+01  0.166585916677E-01
  0.190432497985E+00  0.310986590385E+01 -0.166586926582E-01
  0.190432497985E+00  0.310986590385E+01  0.166586926582E-01
  0.190432488886E+00  0.329641318321E+01 -0.166587966664E-01
  0.190432488886E+00  0.329641318321E+01  0.166587966664E-01
  0.190432479802E+00  0.346730756760E+01 -0.166589004874E-01
  0.190432479802E+00  0.346730756760E+01  0.166589004874E-01
  0.190432470973E+00  0.362259936333E+01 -0.166590014131E-01
  0.190432470973E+00  0.362259936333E+01  0.166590014131E-01
  0.190432462584E+00  0.376267743111E+01 -0.166590972994E-01
  0.190432462584E+00  0.376267743111E+01  0.166590972994E-01
  0.190432454772E+00  0.388819599152E+01 -0.166591865905E-01
  0.190432454772E+00  0.388819599152E+01  0.166591865905E-01
  0.190432426971E+00  0.399999976796E+01 -0.166595043537E-01
  0.190432426971E+00  0.399999976796E+01  0.166595043537E-01
  0.190432405032E+00  0.401177770772E+01 -0.117779154044E-01
  0.190432405032E+00  0.401177770772E+01  0.117779154044E-01
  0.190432398107E+00  0.401665985477E+01 -0.272412558306E-17
  0.329832195175E+00  0.000000000000E+00 -0.288541863447E-01
  0.329832195175E+00  0.000000000000E+00  0.288541863447E-01
  0.329832196040E+00  0.217527970672E+00 -0.288541764567E-01
  0.329832196040E+00  0.217527970672E+00  0.288541764567E-01
  0.329832203100E+00  0.448061168194E+00 -0.288540957614E-01
  0.329832203100E+00  0.448061168194E+00  0.288540957614E-01
  0.329832208967E+00  0.689725637436E+00 -0.288540287094E-01
  0.329832208967E+00  0.689725637436E+00  0.288540287094E-01
  0.329832213360E+00  0.940178275108E+00 -0.288539784943E-01
  0.329832213360E+00  0.940178275108E+00  0.288539784943E-01
  0.329832216060E+00  0.119668114185E+01 -0.288539476290E-01
  0.329832216060E+00  0.119668114185E+01  0.288539476290E-01
[...]
POINT_DATA                 446
SCALARS phi float 1
LOOKUP_TABLE default
  0.000000000000E+00
 -0.661744490042E-23
  0.000000000000E+00
 -0.661744490042E-23
  0.661744490042E-23
 -0.132348898008E-22
  0.000000000000E+00
 -0.661744490042E-23
  0.661744490042E-23
  0.000000000000E+00
  0.661744490042E-23
  0.330872245021E-23
 -0.330872245021E-23
 -0.330872245021E-23
  0.751986586150E-17
  0.000000000000E+00
 -0.330872245021E-23
  0.661744490042E-23
 -0.330872245021E-23
 -0.258493941423E-25
 -0.216840434497E-18
 -0.216840434497E-18
 -0.108420217249E-18
 -0.108420217249E-18
  0.000000000000E+00
  0.000000000000E+00
 -0.108420217249E-18
  0.000000000000E+00
  0.108420217249E-18
  0.000000000000E+00
  0.000000000000E+00
  0.000000000000E+00
 -0.108420217249E-18
 -0.108420217249E-18
 -0.108420217249E-18
  0.000000000000E+00
 -0.108420217249E-18
  0.108420217249E-18
  0.108420217249E-18
  0.108420217249E-18
 -0.108420217249E-18
 -0.108420217249E-18
  0.108420217249E-18
  0.108420217249E-18
 -0.108420217249E-18
  0.108420217249E-18
  0.325260651746E-18
  0.216840434497E-18
  0.130104260698E-17
  0.140946282423E-17
  0.000000000000E+00
  0.216840434497E-18
 -0.108420217249E-18
  0.108420217249E-18
 -0.108420217249E-18
  0.000000000000E+00
 -0.108420217249E-18
 -0.108420217249E-18
  0.542101086243E-19
  0.000000000000E+00
 -0.813151629364E-18
 -0.120346441146E-16
 -0.639679281766E-17
  0.216840434497E-18
 -0.216840434497E-18
  0.000000000000E+00
  0.216840434497E-18
  0.433680868994E-18
  0.650521303491E-18
  0.000000000000E+00
 -0.867361737988E-18
  0.216840434497E-18
  0.000000000000E+00
  0.000000000000E+00
  0.216840434497E-18
  0.216840434497E-18
  0.433680868994E-18
  0.216840434497E-18
  0.867361737988E-18
 -0.433680868994E-18
 -0.216840434497E-18
 -0.650521303491E-18
 -0.650521303491E-18
 -0.216840434497E-18
  0.000000000000E+00
  0.433680868994E-18
 -0.108420217249E-17
  0.433680868994E-18
  0.000000000000E+00
  0.000000000000E+00
  0.000000000000E+00
 -0.867361737988E-18
  0.000000000000E+00
 -0.867361737988E-18
 -0.216840434497E-17
  0.433680868994E-18
  0.000000000000E+00
 -0.650521303491E-18
 -0.216840434497E-18
  0.216840434497E-18
 -0.216840434497E-18
  0.216840434497E-18
 -0.433680868994E-18
  0.108420217249E-18
  0.758941520740E-18
  0.000000000000E+00
 -0.433680868994E-18
 -0.433680868994E-18
  0.000000000000E+00
  0.433680868994E-18
  0.000000000000E+00
 -0.867361737988E-18
  0.433680868994E-18
  0.867361737988E-18
  0.433680868994E-18
  0.000000000000E+00
 -0.433680868994E-18
  0.000000000000E+00
  0.260208521397E-17
  0.173472347598E-17
  0.867361737988E-18
  0.216840434497E-17
  0.173472347598E-17
  0.000000000000E+00
 -0.260208521397E-17
 -0.303576608296E-17
 -0.433680868994E-18
 -0.303576608296E-17
  0.173472347598E-17
  0.867361737988E-18
  0.000000000000E+00
  0.867361737988E-18
  0.216840434497E-17
  0.303576608296E-17
 -0.130104260698E-17
  0.433680868994E-18
 -0.303576608296E-17
 -0.867361737988E-18
  0.173472347598E-17
  0.173472347598E-17
 -0.433680868994E-18
  0.000000000000E+00
 -0.867361737988E-18
  0.130104260698E-17
  0.130104260698E-17
  0.867361737988E-18
  0.411996825544E-17
 -0.151788304148E-17
  0.216840434497E-18
  0.000000000000E+00
  0.867361737988E-18
 -0.867361737988E-18
  0.173472347598E-17
  0.000000000000E+00
  0.000000000000E+00
 -0.433680868994E-17
 -0.867361737988E-18
 -0.260208521397E-17
 -0.867361737988E-18
  0.867361737988E-18
  0.000000000000E+00
  0.867361737988E-18
  0.260208521397E-17
  0.260208521397E-17
  0.867361737988E-18
  0.173472347598E-17
  0.867361737988E-18
  0.173472347598E-17
  0.433680868994E-17
  0.346944695195E-17
  0.000000000000E+00
 -0.260208521397E-17
 -0.520417042793E-17
  0.433680868994E-17
  0.000000000000E+00
 -0.260208521397E-17
 -0.260208521397E-17
  0.000000000000E+00
  0.000000000000E+00
 -0.260208521397E-17
 -0.260208521397E-17
  0.346944695195E-17
  0.260208521397E-17
  0.173472347598E-17
  0.607153216592E-17
  0.693889390391E-17
 -0.867361737988E-18
  0.173472347598E-17
  0.346944695195E-17
 -0.433680868994E-18
 -0.563785129692E-17
  0.260208521397E-17
 -0.520417042793E-17
  0.000000000000E+00
 -0.693889390391E-17
  0.173472347598E-17
 -0.173472347598E-17
  0.693889390391E-17
 -0.520417042793E-17
  0.693889390391E-17
 -0.520417042793E-17
 -0.173472347598E-17
 -0.346944695195E-17
 -0.173472347598E-17
  0.346944695195E-17
  0.520417042793E-17
  0.346944695195E-17
  0.693889390391E-17
  0.156125112838E-16
  0.173472347598E-17
  0.104083408559E-16
 -0.104083408559E-16
  0.173472347598E-17
  0.520417042793E-17
 -0.173472347598E-17
 -0.104083408559E-16
  0.867361737988E-17
  0.121430643318E-16
  0.693889390391E-17
  0.173472347598E-17
  0.173472347598E-17
  0.693889390391E-17
 -0.520417042793E-17
  0.000000000000E+00
  0.346944695195E-17
  0.173472347598E-17
  0.346944695195E-17
  0.520417042793E-17
 -0.346944695195E-17
 -0.693889390391E-17
  0.000000000000E+00
 -0.867361737988E-18
 -0.520417042793E-17
 -0.433680868994E-17
  0.520417042793E-17
  0.216840434497E-18
 -0.173472347598E-17
  0.173472347598E-17
  0.260208521397E-17
 -0.433680868994E-18
 -0.433680868994E-18
  0.260208521397E-17
  0.867361737988E-18
  0.303576608296E-17
 -0.130104260698E-17
  0.346944695195E-17
  0.867361737988E-18
  0.260208521397E-17
  0.433680868994E-18
 -0.303576608296E-17
  0.260208521397E-17
  0.433680868994E-18
  0.130104260698E-17
 -0.433680868994E-18
  0.000000000000E+00
  0.000000000000E+00
  0.303576608296E-17
 -0.303576608296E-17
 -0.433680868994E-17
  0.173472347598E-17
 -0.867361737988E-18
 -0.173472347598E-17
  0.130104260698E-17
  0.303576608296E-17
 -0.867361737988E-18
 -0.433680868994E-18
  0.130104260698E-17
 -0.433680868994E-18
  0.000000000000E+00
 -0.477048955894E-17
 -0.130104260698E-17
  0.000000000000E+00
  0.433680868994E-18
 -0.411996825544E-17
  0.162630325873E-16
 -0.303576608296E-17
  0.737257477290E-17
 -0.585469173142E-17
 -0.130104260698E-17
  0.130104260698E-17
  0.108420217249E-18
  0.433680868994E-18
  0.271050543121E-18
  0.379470760370E-18
  0.000000000000E+00
  0.162630325873E-18
 -0.596311194867E-18
 -0.379470760370E-18
 -0.162630325873E-18
  0.216840434497E-18
 -0.325260651746E-18
 -0.542101086243E-18
  0.325260651746E-18
 -0.271050543121E-18
 -0.325260651746E-18
  0.487890977618E-18
  0.433680868994E-18
  0.216840434497E-18
  0.325260651746E-18
  0.000000000000E+00
 -0.308997619158E-17
 -0.157209315010E-17
 -0.596311194867E-18
 -0.813151629364E-18
  0.758941520740E-18
 -0.271050543121E-18
 -0.704731412116E-18
  0.271050543121E-18
  0.146367293286E-17
 -0.108420217249E-17
 -0.119262238973E-17
 -0.401154803820E-17
 -0.574627151417E-17
  0.975781955237E-17
 -0.693889390391E-17
  0.138777878078E-16
 -0.209251019290E-16
  0.490601483050E-16
  0.346944695195E-17
 -0.184314369323E-16
 -0.130104260698E-17
 -0.173472347598E-17
 -0.303576608296E-17
  0.173472347598E-17
  0.867361737988E-18
 -0.216840434497E-18
  0.433680868994E-18
 -0.867361737988E-18
 -0.867361737988E-18
 -0.433680868994E-18
 -0.108420217249E-17
  0.108420217249E-17
  0.650521303491E-18
  0.108420217249E-17
  0.433680868994E-18
 -0.216840434497E-18
 -0.650521303491E-18
  0.433680868994E-18
 -0.108420217249E-17
 -0.173472347598E-17
 -0.173472347598E-17
 -0.216840434497E-18
  0.216840434497E-18
 -0.216840434497E-17
 -0.433680868994E-18
 -0.130104260698E-17
  0.000000000000E+00
 -0.867361737988E-18
  0.151788304148E-17
  0.433680868994E-18
  0.108420217249E-17
 -0.216840434497E-18
  0.216840434497E-18
 -0.130104260698E-17
 -0.758941520740E-18
  0.607153216592E-17
  0.433680868994E-18
  0.312250225676E-16
  0.216840434497E-16
  0.151788304148E-15
  0.411996825544E-17
 -0.487890977618E-16
  0.353449908230E-16
 -0.650521303491E-18
  0.867361737988E-18
  0.000000000000E+00
 -0.130104260698E-17
  0.000000000000E+00
  0.130104260698E-17
  0.433680868994E-18
  0.216840434497E-17
  0.173472347598E-17
  0.130104260698E-17
 -0.433680868994E-18
 -0.216840434497E-17
  0.173472347598E-17
 -0.346944695195E-17
  0.000000000000E+00
  0.433680868994E-18
  0.130104260698E-17
  0.130104260698E-17
 -0.260208521397E-17
  0.173472347598E-17
 -0.130104260698E-17
 -0.216840434497E-17
  0.867361737988E-18
 -0.173472347598E-17
  0.130104260698E-17
 -0.867361737988E-18
  0.260208521397E-17
 -0.130104260698E-17
 -0.173472347598E-17
  0.303576608296E-17
  0.000000000000E+00
  0.169135538908E-16
  0.173472347598E-17
  0.737257477290E-16
 -0.364291929955E-16
  0.182145964978E-16
 -0.234187669257E-16
 -0.433680868994E-17
 -0.260208521397E-16
  0.138777878078E-16
 -0.711236625150E-16
 -0.703430369509E-15
 -0.377302356025E-16
  0.146367293286E-15
  0.867361737988E-18
 -0.173472347598E-17
 -0.433680868994E-18
 -0.433680868994E-18
  0.433680868994E-18
  0.303576608296E-17
 -0.216840434497E-17
 -0.216840434497E-17
 -0.433680868994E-18
 -0.130104260698E-17
  0.260208521397E-17
 -0.867361737988E-18
  0.433680868994E-18
 -0.520417042793E-17
 -0.173472347598E-17
 -0.260208521397E-17
 -0.303576608296E-17
 -0.173472347598E-17
  0.173472347598E-17
 -0.433680868994E-18
  0.216840434497E-17
  0.867361737988E-18
 -0.260208521397E-17
 -0.216840434497E-17
  0.130104260698E-17
  0.260208521397E-17
  0.867361737988E-18
 -0.130104260698E-17
 -0.130104260698E-17
  0.000000000000E+00
 -0.173472347598E-17
 -0.867361737988E-18
 -0.737257477290E-17
 -0.433680868994E-18
  0.867361737988E-18
  0.173472347598E-17
  0.867361737988E-18
 -0.104083408559E-16
 -0.260208521397E-17
SCALARS phi_mu float 1
LOOKUP_TABLE default
 -0.320289476112E-07
 -0.303136163961E-07
 -0.317378358817E-07
 -0.328893421847E-07
 -0.337170009784E-07
 -0.341822573907E-07
 -0.342627713756E-07
 -0.339546832997E-07
 -0.332729582104E-07
 -0.322499079952E-07
 -0.309320232072E-07
 -0.293757786258E-07
 -0.276427971389E-07
 -0.257952956873E-07
 -0.238921605258E-07
 -0.219859344685E-07
 -0.201209783322E-07
 -0.183327744846E-07
 -0.166476899761E-07
 -0.215109445179E-09
 -0.573950258208E-03
 -0.573950258208E-03
 -0.573950312429E-03
 -0.573950312429E-03
 -0.573950440897E-03
 -0.573950440897E-03
 -0.573950547029E-03
 -0.573950547029E-03
 -0.573950626157E-03
 -0.573950626157E-03
 -0.573950674617E-03
 -0.573950674617E-03
 -0.573950690085E-03
 -0.573950690085E-03
 -0.573950671811E-03
 -0.573950671811E-03
 -0.573950620694E-03
 -0.573950620694E-03
 -0.573950539186E-03
 -0.573950539186E-03
 -0.573950431058E-03
 -0.573950431058E-03
 -0.573950301051E-03
 -0.573950301051E-03
 -0.573950154463E-03
 -0.573950154463E-03
 -0.573949996745E-03
 -0.573949996745E-03
 -0.573949833139E-03
 -0.573949833139E-03
 -0.573949668397E-03
 -0.573949668397E-03
 -0.573949506587E-03
 -0.573949506587E-03
 -0.573949351013E-03
 -0.573949351013E-03
 -0.573949204179E-03
 -0.573949204179E-03
 -0.448161942692E-03
 -0.448161942692E-03
 -0.343541510783E-03
 -0.343541510783E-03
 -0.300914150145E-03
 -0.157703344357E-02
 -0.157703344357E-02
 -0.157703347675E-02
 -0.157703347675E-02
 -0.157703360310E-02
 -0.157703360310E-02
 -0.157703370764E-02
 -0.157703370764E-02
 -0.157703378569E-02
 -0.157703378569E-02
 -0.157703383355E-02
 -0.157703383355E-02
 -0.157703384889E-02
 -0.157703384889E-02
 -0.157703383096E-02
 -0.157703383096E-02
 -0.157703378067E-02
 -0.157703378067E-02
 -0.157703370047E-02
 -0.157703370047E-02
 -0.157703359416E-02
 -0.157703359416E-02
 -0.157703346651E-02
 -0.157703346651E-02
 -0.157703332284E-02
 -0.157703332284E-02
 -0.157703316863E-02
 -0.157703316863E-02
 -0.157703300916E-02
 -0.157703300916E-02
 -0.157703284918E-02
 -0.157703284918E-02
 -0.157703269278E-02
 -0.157703269278E-02
 -0.157703254324E-02
 -0.157703254324E-02
 -0.157703240301E-02
 -0.157703240301E-02
 -0.123580434500E-02
 -0.123580434500E-02
 -0.943178893825E-03
 -0.943178893825E-03
 -0.825041651894E-03
 -0.320428752822E-02
 -0.320428752822E-02
 -0.320428753788E-02
 -0.320428753788E-02
 -0.320428766060E-02
 -0.320428766060E-02
 -0.320428776237E-02
 -0.320428776237E-02
 -0.320428783849E-02
 -0.320428783849E-02
 -0.320428788524E-02
 -0.320428788524E-02
 -0.320428790030E-02
 -0.320428790030E-02
 -0.320428788289E-02
 -0.320428788289E-02
 -0.320428783393E-02
 -0.320428783393E-02
 -0.320428775589E-02
 -0.320428775589E-02
 -0.320428765257E-02
 -0.320428765257E-02
 -0.320428752875E-02
 -0.320428752875E-02
 -0.320428738977E-02
 -0.320428738977E-02
 -0.320428724110E-02
 -0.320428724110E-02
 -0.320428708798E-02
 -0.320428708798E-02
 -0.320428693515E-02
 -0.320428693515E-02
 -0.320428678657E-02
 -0.320428678657E-02
 -0.320428664542E-02
 -0.320428664542E-02
 -0.320428651397E-02
 -0.320428651397E-02
 -0.252010038300E-02
 -0.252010038300E-02
 -0.191486419389E-02
 -0.191486419389E-02
 -0.167273728218E-02
 -0.554987747506E-02
 -0.554987747506E-02
 -0.554987748961E-02
 -0.554987748961E-02
 -0.554987760841E-02
 -0.554987760841E-02
 -0.554987770711E-02
 -0.554987770711E-02
 -0.554987778104E-02
 -0.554987778104E-02
 -0.554987782647E-02
 -0.554987782647E-02
 -0.554987784108E-02
 -0.554987784108E-02
 -0.554987782410E-02
 -0.554987782410E-02
 -0.554987777642E-02
 -0.554987777642E-02
 -0.554987770054E-02
 -0.554987770054E-02
 -0.554987760023E-02
 -0.554987760023E-02
 -0.554987748027E-02
 -0.554987748027E-02
 -0.554987734597E-02
 -0.554987734597E-02
 -0.554987720274E-02
 -0.554987720274E-02
 -0.554987705576E-02
 -0.554987705576E-02
 -0.554987690964E-02
 -0.554987690964E-02
 -0.554987676821E-02
 -0.554987676821E-02
 -0.554987663447E-02
 -0.554987663447E-02
 -0.593910799244E-02
 -0.593910799244E-02
 -0.438643308560E-02
 -0.438643308560E-02
 -0.331315650094E-02
 -0.331315650094E-02
 -0.288933821194E-02
 -0.841318419575E-02
 -0.841318419575E-02
 -0.841318419575E-02
 -0.841318419575E-02
 -0.841318419575E-02
 -0.841318419575E-02
 -0.841318419575E-02
 -0.841318419575E-02
 -0.841318419575E-02
 -0.841318419575E-02
 -0.841318419575E-02
 -0.841318419575E-02
 -0.841318419575E-02
 -0.841318419575E-02
 -0.841318419575E-02
 -0.841318419575E-02
 -0.841318419575E-02
 -0.841318419575E-02
 -0.841318419575E-02
 -0.841318419575E-02
 -0.841318419575E-02
 -0.841318419575E-02
 -0.841318419575E-02
 -0.841318419575E-02
 -0.841318419575E-02
 -0.841318419575E-02
 -0.841318419575E-02
 -0.841318419575E-02
 -0.841318419575E-02
 -0.841318419575E-02
 -0.841318419575E-02
 -0.841318419575E-02
 -0.841318419575E-02
 -0.841318419575E-02
 -0.859936115893E-02
 -0.859936115893E-02
 -0.815636528793E-02
 -0.815636528793E-02
 -0.672095529652E-02
 -0.672095529652E-02
 -0.501184805355E-02
 -0.501184805355E-02
 -0.435747271401E-02
 -0.649435580377E-03
 -0.485255567651E-02
 -0.275099564388E-02
 -0.275099564388E-02
 -0.275099576982E-02
 -0.275099576982E-02
 -0.275099587447E-02
 -0.275099587447E-02
 -0.275099595284E-02
 -0.275099595284E-02
 -0.275099600101E-02
 -0.275099600101E-02
 -0.275099601650E-02
 -0.275099601650E-02
 -0.275099599849E-02
 -0.275099599849E-02
 -0.275099594795E-02
 -0.275099594795E-02
 -0.275099586750E-02
 -0.275099586750E-02
 -0.275099576116E-02
 -0.275099576116E-02
 -0.275099563397E-02
 -0.275099563397E-02
 -0.275099549158E-02
 -0.275099549158E-02
 -0.275099533973E-02
 -0.275099533973E-02
 -0.275099518391E-02
 -0.275099518391E-02
 -0.275099502899E-02
 -0.275099502899E-02
 -0.298711367019E-02
 -0.298711367019E-02
 -0.328244157819E-02
 -0.328244157819E-02
 -0.214326825668E-02
 -0.214326825668E-02
 -0.169276003460E-02
 -0.169276003460E-02
  0.740413166247E-03
  0.740413166247E-03
  0.245946491570E-03
  0.949090411601E-03
 -0.147751302249E-02
 -0.264211315684E-03
 -0.264211315684E-03
 -0.264211445790E-03
 -0.264211445790E-03
 -0.264211553689E-03
 -0.264211553689E-03
 -0.264211634385E-03
 -0.264211634385E-03
 -0.264211683955E-03
 -0.264211683955E-03
 -0.264211699914E-03
 -0.264211699914E-03
 -0.264211681459E-03
 -0.264211681459E-03
 -0.264211629549E-03
 -0.264211629549E-03
 -0.264211546809E-03
 -0.264211546809E-03
 -0.264211437271E-03
 -0.264211437271E-03
 -0.264211306000E-03
 -0.264211306000E-03
 -0.264211158652E-03
 -0.264211158652E-03
 -0.264211001033E-03
 -0.264211001033E-03
 -0.264210838704E-03
 -0.264210838704E-03
 -0.264210676667E-03
 -0.264210676667E-03
 -0.764905062085E-03
 -0.764905062085E-03
 -0.857842982505E-03
 -0.857842982505E-03
  0.502737454183E-02
  0.502737454183E-02
  0.116898584354E-03
  0.116898584354E-03
  0.148841004018E-02
  0.148841004018E-02
  0.114440981168E-02
  0.205807485111E-02
  0.863918280478E-03
  0.146099653062E-02
  0.146099653062E-02
  0.146099639666E-02
  0.146099639666E-02
  0.146099628582E-02
  0.146099628582E-02
  0.146099620308E-02
  0.146099620308E-02
  0.146099615234E-02
  0.146099615234E-02
  0.146099613607E-02
  0.146099613607E-02
  0.146099615508E-02
  0.146099615508E-02
  0.146099620840E-02
  0.146099620840E-02
  0.146099629343E-02
  0.146099629343E-02
  0.146099640613E-02
  0.146099640613E-02
  0.146099654147E-02
  0.146099654147E-02
  0.146099669379E-02
  0.146099669379E-02
  0.146099685728E-02
  0.146099685728E-02
  0.146099702635E-02
  0.146099702635E-02
  0.146099719596E-02
  0.146099719596E-02
  0.718973780737E-03
  0.718973780737E-03
  0.182650480147E-02
  0.182650480147E-02
  0.510172804941E-02
  0.510172804941E-02
  0.124609121144E-02
  0.124609121144E-02
  0.185990141948E-02
  0.185990141948E-02
  0.166302239396E-02
  0.274168391006E-02
  0.230723780043E-02
  0.252446079776E-02
  0.252446079776E-02
  0.252446066156E-02
  0.252446066156E-02
  0.252446054904E-02
  0.252446054904E-02
  0.252446046515E-02
  0.252446046515E-02
  0.252446041377E-02
  0.252446041377E-02
  0.252446039737E-02
  0.252446039737E-02
  0.252446041675E-02
  0.252446041675E-02
  0.252446047094E-02
  0.252446047094E-02
  0.252446055736E-02
  0.252446055736E-02
  0.252446067199E-02
  0.252446067199E-02
  0.252446080983E-02
  0.252446080983E-02
  0.252446096524E-02
  0.252446096524E-02
  0.252446113245E-02
  0.252446113245E-02
  0.252446130590E-02
  0.252446130590E-02
  0.198041029347E-02
  0.198041029347E-02
  0.222003906041E-02
  0.222003906041E-02
  0.445351107372E-02
  0.445351107372E-02
  0.541355836818E-02
  0.541355836818E-02
  0.183845451257E-02
  0.183845451257E-02
  0.203433748879E-02
  0.203433748879E-02
  0.195092225776E-02
  0.313293264312E-02
  0.313292843620E-02
  0.313292693198E-02
  0.313292571580E-02
  0.313292484165E-02
  0.313292435026E-02
  0.313292426522E-02
  0.313292459062E-02
  0.313292531063E-02
  0.313292639115E-02
  0.313292778306E-02
  0.313292942671E-02
  0.313293125704E-02
  0.313293320831E-02
  0.313293521834E-02
  0.270872871874E-02
  0.300893516075E-02
  0.949468246499E-02
  0.530278700482E-02
  0.209094907331E-02
  0.313292843620E-02
  0.313292060592E-02
  0.313292693198E-02
  0.313292571580E-02
  0.313292484165E-02
  0.313292435026E-02
  0.313292426522E-02
  0.313292459062E-02
  0.313292531063E-02
  0.313292639115E-02
  0.313292778306E-02
  0.313292942671E-02
  0.313293125704E-02
  0.313293320831E-02
  0.313293521834E-02
  0.270872871874E-02
  0.300893516075E-02
  0.949468246499E-02
  0.530278700482E-02
SCALARS phi_sigma float 1
LOOKUP_TABLE default
  0.320289476112E-07
  0.303136163961E-07
  0.317378358817E-07
  0.328893421847E-07
  0.337170009784E-07
  0.341822573907E-07
  0.342627713756E-07
  0.339546832997E-07
  0.332729582104E-07
  0.322499079952E-07
  0.309320232072E-07
  0.293757786258E-07
  0.276427971389E-07
  0.257952956873E-07
  0.238921605333E-07
  0.219859344685E-07
  0.201209783322E-07
  0.183327744846E-07
  0.166476899761E-07
  0.215109445179E-09
  0.573950258208E-03
  0.573950258208E-03
  0.573950312429E-03
  0.573950312429E-03
  0.573950440897E-03
  0.573950440897E-03
  0.573950547029E-03
  0.573950547029E-03
  0.573950626157E-03
  0.573950626157E-03
  0.573950674617E-03
  0.573950674617E-03
  0.573950690085E-03
  0.573950690085E-03
  0.573950671811E-03
  0.573950671811E-03
  0.573950620694E-03
  0.573950620694E-03
  0.573950539186E-03
  0.573950539186E-03
  0.573950431058E-03
  0.573950431058E-03
  0.573950301051E-03
  0.573950301051E-03
  0.573950154463E-03
  0.573950154463E-03
  0.573949996745E-03
  0.573949996745E-03
  0.573949833139E-03
  0.573949833139E-03
  0.573949668397E-03
  0.573949668397E-03