# vtk DataFile Version 3.0
MachLine results file. Generated by MachLine, USU AeroLab (c) 2022.
ASCII
DATASET POLYDATA
POINTS                1637 float
  0.999998020492E+00  0.000000000000E+00 -0.862621335198E-07
  0.953837267098E+00  0.222222222220E+00 -0.403678544627E-02
  0.999998189836E+00  0.222222222220E+00 -0.788825324211E-07
  0.953837265000E+00  0.000000000000E+00 -0.403676146608E-02
  0.863184609450E+00  0.222222222220E+00 -0.119675844198E-01
  0.863184604526E+00  0.000000000000E+00 -0.119675281353E-01
  0.708754177432E+00  0.222222222220E+00 -0.254781581565E-01
  0.708754171921E+00  0.000000000000E+00 -0.254780951626E-01
  0.500000000000E+00  0.222222222220E+00 -0.437416286384E-01
  0.500000000000E+00  0.000000000000E+00 -0.437419570058E-01
  0.291245828079E+00  0.000000000000E+00 -0.254780951626E-01
  0.291245822568E+00  0.222222222220E+00 -0.254781581565E-01
  0.136815395474E+00  0.000000000000E+00 -0.119675281353E-01
  0.136815390550E+00  0.222222222220E+00 -0.119675844198E-01
  0.461627349957E-01  0.000000000000E+00 -0.403676146608E-02
  0.461627328977E-01  0.222222222220E+00 -0.403678544627E-02
  0.198705531345E-05  0.000000000000E+00 -0.632796672553E-21
  0.181706559750E-05  0.222222222220E+00  0.000000000000E+00
  0.461627328977E-01  0.222222222220E+00  0.403678544627E-02
  0.461627349957E-01  0.000000000000E+00  0.403676146608E-02
  0.136815390550E+00  0.222222222220E+00  0.119675844198E-01
  0.136815395474E+00  0.000000000000E+00  0.119675281353E-01
  0.291245822568E+00  0.222222222220E+00  0.254781581565E-01
  0.291245828079E+00  0.000000000000E+00  0.254780951626E-01
  0.500000000000E+00  0.222222222220E+00  0.437416286384E-01
  0.500000000000E+00  0.000000000000E+00  0.437419570058E-01
  0.708754171921E+00  0.000000000000E+00  0.254780951626E-01
  0.708754177432E+00  0.222222222220E+00  0.254781581565E-01
  0.863184604526E+00  0.000000000000E+00  0.119675281353E-01
  0.863184609450E+00  0.222222222220E+00  0.119675844198E-01
  0.953837265000E+00  0.000000000000E+00  0.403676146608E-02
  0.953837267098E+00  0.222222222220E+00  0.403678544627E-02
  0.953837267098E+00  0.444444444440E+00 -0.403678544627E-02
  0.999998189836E+00  0.444444444440E+00 -0.788825324235E-07
  0.863184609450E+00  0.444444444440E+00 -0.119675844198E-01
  0.708754177432E+00  0.444444444440E+00 -0.254781581565E-01
  0.500000000000E+00  0.444444444440E+00 -0.437416286384E-01
  0.291245822568E+00  0.444444444440E+00 -0.254781581565E-01
  0.136815390550E+00  0.444444444440E+00 -0.119675844198E-01
  0.461627328977E-01  0.444444444440E+00 -0.403678544627E-02
  0.181706559755E-05  0.444444444440E+00  0.000000000000E+00
  0.461627328977E-01  0.444444444440E+00  0.403678544627E-02
  0.136815390550E+00  0.444444444440E+00  0.119675844198E-01
  0.291245822568E+00  0.444444444440E+00  0.254781581565E-01
  0.500000000000E+00  0.444444444440E+00  0.437416286384E-01
  0.708754177432E+00  0.444444444440E+00  0.254781581565E-01
  0.863184609450E+00  0.444444444440E+00  0.119675844198E-01
  0.953837267098E+00  0.444444444440E+00  0.403678544627E-02
  0.953837267098E+00  0.666666666670E+00 -0.403678544627E-02
  0.999998189836E+00  0.666666666670E+00 -0.788825324219E-07
  0.863184609450E+00  0.666666666670E+00 -0.119675844198E-01
  0.708754177432E+00  0.666666666670E+00 -0.254781581565E-01
  0.500000000000E+00  0.666666666670E+00 -0.437416286384E-01
  0.291245822568E+00  0.666666666670E+00 -0.254781581565E-01
  0.136815390550E+00  0.666666666670E+00 -0.119675844198E-01
  0.461627328977E-01  0.666666666670E+00 -0.403678544627E-02
  0.181706559751E-05  0.666666666670E+00  0.000000000000E+00
  0.461627328977E-01  0.666666666670E+00  0.403678544627E-02
  0.136815390550E+00  0.666666666670E+00  0.119675844198E-01
  0.291245822568E+00  0.666666666670E+00  0.254781581565E-01
  0.500000000000E+00  0.666666666670E+00  0.437416286384E-01
  0.708754177432E+00  0.666666666670E+00  0.254781581565E-01
  0.863184609450E+00  0.666666666670E+00  0.119675844198E-01
  0.953837267098E+00  0.666666666670E+00  0.403678544627E-02
  0.953837267098E+00  0.888888888890E+00 -0.403678544627E-02
  0.999998189836E+00  0.888888888890E+00 -0.788825324188E-07
  0.863184609450E+00  0.888888888890E+00 -0.119675844198E-01
  0.708754177432E+00  0.888888888890E+00 -0.254781581565E-01
  0.500000000000E+00  0.888888888890E+00 -0.437416286384E-01
  0.291245822568E+00  0.888888888890E+00 -0.254781581565E-01
  0.136815390550E+00  0.888888888890E+00 -0.119675844198E-01
  0.461627328977E-01  0.888888888890E+00 -0.403678544627E-02
  0.181706559744E-05  0.888888888890E+00  0.000000000000E+00
  0.461627328977E-01  0.888888888890E+00  0.403678544627E-02
  0.136815390550E+00  0.888888888890E+00  0.119675844198E-01
  0.291245822568E+00  0.888888888890E+00  0.254781581565E-01
  0.500000000000E+00  0.888888888890E+00  0.437416286384E-01
  0.708754177432E+00  0.888888888890E+00  0.254781581565E-01
  0.863184609450E+00  0.888888888890E+00  0.119675844198E-01
  0.953837267098E+00  0.888888888890E+00  0.403678544627E-02
  0.953837267098E+00  0.111111111110E+01 -0.403678544627E-02
  0.999998189836E+00  0.111111111110E+01 -0.788825324156E-07
  0.863184609450E+00  0.111111111110E+01 -0.119675844198E-01
  0.708754177432E+00  0.111111111110E+01 -0.254781581565E-01
  0.500000000000E+00  0.111111111110E+01 -0.437416286384E-01
  0.291245822568E+00  0.111111111110E+01 -0.254781581565E-01
  0.136815390550E+00  0.111111111110E+01 -0.119675844198E-01
  0.461627328977E-01  0.111111111110E+01 -0.403678544627E-02
  0.181706559737E-05  0.111111111110E+01  0.000000000000E+00
  0.461627328977E-01  0.111111111110E+01  0.403678544627E-02
  0.136815390550E+00  0.111111111110E+01  0.119675844198E-01
  0.291245822568E+00  0.111111111110E+01  0.254781581565E-01
  0.500000000000E+00  0.111111111110E+01  0.437416286384E-01
  0.708754177432E+00  0.111111111110E+01  0.254781581565E-01
  0.863184609450E+00  0.111111111110E+01  0.119675844198E-01
  0.953837267098E+00  0.111111111110E+01  0.403678544627E-02
  0.953837267098E+00  0.133333333330E+01 -0.403678544627E-02
  0.999998189836E+00  0.133333333330E+01 -0.788825324384E-07
  0.863184609450E+00  0.133333333330E+01 -0.119675844198E-01
  0.708754177432E+00  0.133333333330E+01 -0.254781581565E-01
  0.500000000000E+00  0.133333333330E+01 -0.437416286384E-01
  0.291245822568E+00  0.133333333330E+01 -0.254781581565E-01
  0.136815390550E+00  0.133333333330E+01 -0.119675844198E-01
  0.461627328977E-01  0.133333333330E+01 -0.403678544627E-02
  0.181706559789E-05  0.133333333330E+01  0.000000000000E+00
  0.461627328977E-01  0.133333333330E+01  0.403678544627E-02
  0.136815390550E+00  0.133333333330E+01  0.119675844198E-01
  0.291245822568E+00  0.133333333330E+01  0.254781581565E-01
  0.500000000000E+00  0.133333333330E+01  0.437416286384E-01
  0.708754177432E+00  0.133333333330E+01  0.254781581565E-01
  0.863184609450E+00  0.133333333330E+01  0.119675844198E-01
  0.953837267098E+00  0.133333333330E+01  0.403678544627E-02
  0.953837267098E+00  0.155555555560E+01 -0.403678544627E-02
  0.999998189836E+00  0.155555555560E+01 -0.788825324228E-07
  0.863184609450E+00  0.155555555560E+01 -0.119675844198E-01
  0.708754177432E+00  0.155555555560E+01 -0.254781581565E-01
  0.500000000000E+00  0.155555555560E+01 -0.437416286384E-01
  0.291245822568E+00  0.155555555560E+01 -0.254781581565E-01
  0.136815390550E+00  0.155555555560E+01 -0.119675844198E-01
  0.461627328977E-01  0.155555555560E+01 -0.403678544627E-02
  0.181706559753E-05  0.155555555560E+01  0.000000000000E+00
  0.461627328977E-01  0.155555555560E+01  0.403678544627E-02
  0.136815390550E+00  0.155555555560E+01  0.119675844198E-01
  0.291245822568E+00  0.155555555560E+01  0.254781581565E-01
  0.500000000000E+00  0.155555555560E+01  0.437416286384E-01
  0.708754177432E+00  0.155555555560E+01  0.254781581565E-01
  0.863184609450E+00  0.155555555560E+01  0.119675844198E-01
  0.953837267098E+00  0.155555555560E+01  0.403678544627E-02
  0.953837267098E+00  0.177777777780E+01 -0.403678544627E-02
  0.999998189836E+00  0.177777777780E+01 -0.788825324148E-07
  0.863184609450E+00  0.177777777780E+01 -0.119675844198E-01
  0.708754177432E+00  0.177777777780E+01 -0.254781581565E-01
  0.500000000000E+00  0.177777777780E+01 -0.437416286384E-01
  0.291245822568E+00  0.177777777780E+01 -0.254781581565E-01
  0.136815390550E+00  0.177777777780E+01 -0.119675844198E-01
  0.461627328977E-01  0.177777777780E+01 -0.403678544627E-02
  0.181706559735E-05  0.177777777780E+01  0.000000000000E+00
  0.461627328977E-01  0.177777777780E+01  0.403678544627E-02
  0.136815390550E+00  0.177777777780E+01  0.119675844198E-01
  0.291245822568E+00  0.177777777780E+01  0.254781581565E-01
  0.500000000000E+00  0.177777777780E+01  0.437416286384E-01
  0.708754177432E+00  0.177777777780E+01  0.254781581565E-01
  0.863184609450E+00  0.177777777780E+01  0.119675844198E-01
  0.953837267098E+00  0.177777777780E+01  0.403678544627E-02
  0.953837326708E+00  0.199999987650E+01 -0.403746678518E-02
  0.999999883616E+00  0.199999930650E+01 -0.414011066441E-22
  0.863184663382E+00  0.199999984212E+01 -0.119682008632E-01
  0.708754227427E+00  0.199999980402E+01 -0.254787296092E-01
  0.500000000000E+00  0.199999984561E+01 -0.437420093370E-01
  0.291245772573E+00  0.199999980402E+01 -0.254787296092E-01
  0.136815336618E+00  0.199999984212E+01 -0.119682008632E-01
  0.461626732883E-01  0.199999987650E+01 -0.403746678518E-02
  0.116384236832E-06  0.199999930650E+01  0.376373696743E-23
  0.461626732883E-01  0.199999987650E+01  0.403746678518E-02
  0.136815336618E+00  0.199999984212E+01  0.119682008632E-01
  0.291245772573E+00  0.199999980402E+01  0.254787296092E-01
  0.500000000000E+00  0.199999984561E+01  0.437420093370E-01
  0.708754227427E+00  0.199999980402E+01  0.254787296092E-01
  0.863184663382E+00  0.199999984212E+01  0.119682008632E-01
  0.953837326708E+00  0.199999987650E+01  0.403746678518E-02
  0.953837390329E+00  0.200157120037E+01 -0.372065011230E-02
[...]
POINT_DATA                1637
SCALARS phi float 1
LOOKUP_TABLE default
 -0.199239752111E-09
  0.191422910017E-03
 -0.207350602522E-08
 -0.223404892477E-03
 -0.322560156929E-03
 -0.400691297850E-09
  0.664171978283E-07
  0.155342854788E-06
  0.567144220476E-09
  0.327853713240E-07
  0.610794761609E-04
 -0.449479629438E-04
 -0.200352135135E-05
  0.318599585288E-05
 -0.187179022282E-10
 -0.151440925772E-11
  0.238969160003E-04
  0.153345266279E-04
  0.137228955824E-04
 -0.568256565682E-04
  0.303576608296E-16
 -0.899959414671E-05
 -0.922587382979E-04
  0.608299538332E-04
 -0.973972557653E-04
  0.589742552742E-03
  0.176515567124E-03
 -0.339064500724E-03
  0.634711183892E-04
  0.536296354547E-11
  0.129574043812E-05
 -0.147664626613E-03
  0.106536768622E-03
 -0.152653227163E-09
  0.244494298508E-03
  0.146790836233E-06
  0.922358905156E-07
  0.220856926083E-04
  0.283935305459E-04
  0.443891348909E-05
  0.957977361051E-08
  0.241257096105E-04
  0.998601855830E-04
  0.166566660030E-03
 -0.591629676094E-03
 -0.348737184963E-09
  0.185165794600E-03
  0.739099637722E-05
 -0.250070267858E-03
  0.673391296091E-07
  0.203354267453E-09
  0.133358096874E-06
 -0.684826418155E-04
  0.392769768372E-05
 -0.771234868771E-06
  0.688400626656E-05
  0.783647099885E-09
 -0.412739379066E-04
 -0.433435747738E-04
 -0.112981838410E-03
 -0.220685106566E-04
  0.307506596506E-07
 -0.294005344497E-03
  0.136113101986E-03
 -0.106533867620E-03
  0.188801750624E-03
  0.311423762231E-03
  0.141794928576E-07
  0.717765129311E-07
 -0.464075815520E-05
 -0.126142187204E-04
  0.136323720667E-07
 -0.251067804530E-08
 -0.149977420401E-04
 -0.465282807284E-04
  0.576285786097E-04
  0.300803944323E-07
  0.976810051907E-07
  0.510363151757E-04
  0.555004956149E-03
 -0.730690396233E-04
  0.305256973803E-03
 -0.152584843866E-03
 -0.174739860949E-06
 -0.342765290161E-04
  0.303412478981E-04
 -0.271622160482E-05
  0.127997074080E-05
 -0.247066706332E-08
 -0.461199026463E-06
  0.237023821264E-06
  0.270055058175E-04
  0.180249296512E-03
  0.147085739081E-06
 -0.114887212051E-03
  0.409987292141E-03
  0.379513762587E-06
  0.261898236245E-06
  0.847661083952E-04
 -0.480530772187E-07
 -0.186876417517E-04
 -0.240514025043E-04
 -0.275568163157E-05
  0.890107320142E-06
  0.308870375406E-07
  0.206115315318E-04
  0.360520524557E-04
  0.374408645005E-04
 -0.543219852293E-04
  0.132326378164E-06
  0.127466855744E-03
  0.208348399513E-06
  0.930838383812E-06
  0.609862490012E-04
 -0.106995525556E-02
 -0.776227731084E-04
  0.591952261630E-04
  0.240802870834E-04
  0.686364911979E-05
 -0.121559440101E-05
  0.218908249313E-09
  0.348485004394E-04
  0.184582974048E-04
  0.386537531604E-04
  0.575553941145E-04
  0.109947260532E-06
 -0.772552867043E-07
 -0.615909879186E-03
  0.662838293750E-04
 -0.172786796562E-06
  0.955914642537E-08
 -0.332665243477E-07
  0.997414484963E-07
 -0.382566477852E-04
  0.477420131722E-05
  0.192987179536E-08
 -0.768125087688E-06
  0.174249982880E-04
 -0.314480981163E-05
  0.549126726592E-04
 -0.884227405271E-04
  0.275104639121E-06
  0.498771367959E-04
 -0.285038975996E-06
 -0.172556874467E-06
 -0.231898049400E-07
  0.684976518589E-05
  0.476861343659E-04
  0.102425891553E-08
  0.734736565339E-08
 -0.573082297806E-08
  0.132684327887E-05
 -0.478382837087E-09
  0.103699519819E-03
 -0.141712900016E-03
 -0.468352130795E-04
  0.109082652744E-06
  0.359473519710E-07
  0.533022894173E-07
 -0.137310055742E-04
 -0.988297805220E-07
 -0.155044903310E-04
  0.331416253572E-04
 -0.855859667341E-05
 -0.374136759871E-05
 -0.352187660877E-06
  0.678876886672E-08
  0.957604984967E-04
 -0.159894087114E-04
 -0.120433594557E-04
  0.358902890088E-05
  0.975678151163E-04
  0.281014639713E-07
 -0.113363902151E-07
 -0.129046731408E-06
 -0.294947869214E-07
 -0.370382050446E-05
  0.350102944552E-08
 -0.103244049594E-08
 -0.216281230971E-04
 -0.710964752262E-08
  0.189466485067E-03
  0.455572068412E-04
 -0.879843249331E-05
 -0.406657686948E-06
  0.844819871189E-04
  0.224033715208E-07
 -0.207774463134E-05
 -0.197501976391E-04
 -0.156682000540E-04
  0.382884986339E-05
 -0.251615412047E-07
 -0.361690657432E-05
 -0.110981632729E-07
  0.168452330656E-04
 -0.361794371130E-04
 -0.238315296539E-04
 -0.140480352272E-04
  0.672307349858E-05
  0.344621917635E-07
 -0.124056292284E-04
 -0.184476266032E-04
 -0.593077854408E-06
  0.156153632797E-04
 -0.531313426195E-04
 -0.201750523728E-05
  0.630233783264E-05
  0.190863107850E-04
  0.119820228522E-04
  0.346182929216E-06
  0.651625814945E-03
  0.107809476494E-05
  0.983067793836E-12
 -0.148133137701E-10
  0.603525944101E-04
 -0.145664976071E-07
 -0.120108658563E-04
  0.130254478315E-04
 -0.226538916971E-04
  0.222021105119E-04
 -0.880839321920E-04
  0.441988435674E-03
  0.209403720570E-03
  0.250780727781E-09
  0.945785112021E-03
  0.614403830703E-06
 -0.113025820849E-02
 -0.352447008162E-03
 -0.359569077051E-03
 -0.345793158993E-03
 -0.505956003895E-04
  0.167388073920E-04
 -0.326718759686E-09
  0.904183078267E-09
  0.703264825605E-06
  0.222141567791E-04
 -0.193056489954E-03
  0.352819328574E-05
  0.402793251184E-08
 -0.808967270576E-03
 -0.764737226303E-03
  0.986342421638E-04
 -0.121641951818E-02
 -0.605190583765E-04
  0.207092403034E-05
 -0.183207054458E-07
 -0.960843044772E-04
 -0.848356489514E-04
 -0.462744340242E-09
  0.105330597927E-05
  0.647262342065E-05
  0.788026382795E-04
  0.638651063496E-04
 -0.735807128105E-04
  0.658817683429E-07
  0.750423171242E-04
 -0.407088851755E-03
 -0.268411160363E-03
  0.847381537556E-05
 -0.381714921988E-03
  0.170001474069E-02
  0.344297773619E-05
  0.261313632177E-03
  0.443254121272E-04
 -0.151063907447E-04
  0.363768423454E-08
  0.433465334633E-08
  0.294445714964E-04
  0.502138104069E-04
 -0.242691901992E-03
 -0.182937706903E-06
  0.121739388261E-02
 -0.674735580435E-05
  0.392246161573E-05
 -0.570599516552E-03
 -0.294202667045E-03
  0.120764266890E-02
 -0.858578511481E-07
  0.107542500236E-03
 -0.171342101954E-06
 -0.314258409876E-08
  0.365904275570E-07
 -0.136778256566E-04
 -0.541144587899E-04
 -0.311380913372E-05
  0.215576684552E-03
  0.533501807436E-03
 -0.222918799342E-03
 -0.199854655594E-03
  0.556158934708E-05
  0.718648605781E-05
  0.230042837695E-04
  0.444964931433E-04
  0.968700194774E-03
  0.141634648769E-03
 -0.398816178725E-03
 -0.106082214194E-07
 -0.884327740369E-04
 -0.654709228860E-04
  0.100480172654E-04
 -0.191777626085E-05
 -0.841062209355E-04
  0.358372504282E-02
  0.336059555099E-02
  0.445988110175E-04
  0.592314341512E-02
 -0.584271392628E-02
  0.267114578533E-02
  0.522306257778E-04
  0.103833660849E-02
 -0.126450761047E-02
  0.384321771709E-03
 -0.951251416532E-06
 -0.165630120202E-03
  0.515880712774E-04
 -0.133836414688E-02
  0.152502599262E-02
 -0.269631712342E-02
 -0.214296540119E-02
 -0.387146044111E-02
 -0.207947635910E-02
  0.101106471530E-02
 -0.716721335985E-03
  0.266533860101E-02
  0.442874335884E-03
  0.515782748457E-02
  0.363551001550E-03
  0.684936610568E-03
  0.346297567323E-05
 -0.839518418172E-04
  0.389804839794E-04
  0.540643309389E-04
  0.318837509804E-03
 -0.122149220289E-02
  0.939295688619E-03
 -0.966784387398E-03
 -0.714338213905E-03
 -0.185162005933E-02
 -0.113118361359E-02
  0.313153582076E-02
  0.325838837760E-02
  0.281478911284E-02
  0.114300359920E-02
  0.369042048144E-03
  0.433879638508E-05
 -0.201495768578E-04
  0.345492241645E-04
  0.297599380041E-04
  0.409598046057E-04
  0.517656869695E-03
 -0.143645129927E-02
  0.147977190475E-02
  0.851445685576E-03
 -0.984558930661E-03
  0.188442708916E-02
  0.186121600068E-02
  0.260070564402E-02
  0.894055560696E-03
  0.308937686210E-03
  0.475712196635E-05
 -0.679192461288E-04
  0.728251498161E-04
  0.470603717592E-03
  0.688863489104E-03
 -0.499010663247E-03
 -0.499758701852E-03
  0.684102902148E-03
 -0.785147356857E-03
  0.237564845504E-02
  0.125794337580E-02
  0.181393810512E-02
  0.109701646599E-02
 -0.369916724494E-04
 -0.532520301343E-05
  0.904136520535E-05
  0.879411386387E-04
  0.485398375131E-03
  0.784208262743E-03
 -0.725008775015E-04
  0.155167384566E-02
 -0.526055279244E-03
 -0.150071886670E-02
  0.207053319374E-02
 -0.109073237805E-02
 -0.262029824493E-03
 -0.587746171013E-05
  0.299827396262E-03
  0.137057111198E-04
 -0.352990527298E-04
  0.173031999155E-03
  0.699184665777E-03
 -0.181805789424E-04
 -0.281055588129E-02
  0.165949956337E-02
 -0.237367173027E-02
 -0.207223460165E-02
  0.475300704930E-04
 -0.206400215731E-02
 -0.837139901312E-04
  0.599207506757E-03
  0.265461145026E-03
 -0.262703825489E-04
 -0.238742838594E-03
  0.258379044722E-06
  0.205933051861E-09
 -0.713352217626E-07
 -0.141925486048E-03
 -0.253590495478E-07
  0.808967629192E-04
 -0.141277027184E-03
 -0.108855432569E-08
  0.422287889006E-03
 -0.271946481274E-04
  0.164000828721E-04
 -0.184288903843E-04
 -0.151805667540E-06
  0.172733446036E-03
 -0.813285689103E-04
  0.910535824271E-06
 -0.734969432408E-04
 -0.233330840659E-06
 -0.161779367152E-04
 -0.497112973747E-05
 -0.135604505055E-10
  0.278956598655E-06
 -0.330114755133E-03
 -0.194339875009E-08
  0.268004244637E-05
  0.533586833713E-05
 -0.107524900615E-08
 -0.369004687986E-04
 -0.474362731425E-05
  0.342332929423E-05
  0.186864725747E-04
  0.122298512040E-03
  0.608134198187E-05
  0.134921193173E-04
  0.811692637441E-04
  0.393525064847E-06
 -0.333778864573E-03
  0.459185546461E-05
 -0.563014071566E-04
  0.215921344787E-03
  0.408180098945E-05
 -0.217933919260E-03
 -0.371195511468E-03
 -0.764925209975E-04
 -0.185981356310E-04
  0.369347925508E-09
 -0.367926526788E-05
  0.242649807794E-03
  0.533327257750E-03
  0.184627835447E-03
 -0.460830249064E-03
  0.559370527857E-04
 -0.500604825230E-03
 -0.601277998454E-04
 -0.152791486172E-05
  0.546634995520E-04
 -0.176825269277E-04
  0.584508897755E-03
  0.623636117153E-04
  0.342520291085E-03
 -0.208330044738E-06
  0.161915043388E-03
  0.446307102117E-07
 -0.958620675385E-04
 -0.993706255302E-08
 -0.187419344747E-04
  0.495279255108E-09
 -0.144161658305E-09
 -0.166228824040E-04
  0.561513834100E-04
  0.753421960237E-10
 -0.273647083082E-09
 -0.310140184617E-04
  0.219443443136E-03
 -0.843901832640E-04
  0.274457729290E-05
  0.647794153023E-05
  0.844318462029E-05
 -0.468901799569E-04
  0.386653657009E-09
 -0.597510404364E-07
 -0.301673135009E-05
 -0.900405558597E-07
  0.857879432304E-04
  0.636314217774E-03
  0.143756820416E-04
  0.424085099594E-04
 -0.317896273335E-04
  0.447118317488E-04
 -0.378742879682E-04
 -0.245358228855E-04
  0.101567645117E-04
 -0.115394289927E-04
 -0.223070457368E-03
  0.252804555226E-05
 -0.513827838408E-03
 -0.168363586961E-12
 -0.208365548275E-05
  0.338713353609E-03
 -0.566750150421E-03
 -0.237117430643E-03
 -0.130566423524E-03
 -0.131795259011E-03
 -0.968751881017E-05
  0.178201204942E-03
 -0.276329065697E-04
 -0.200835116993E-06
  0.343125479326E-04
  0.109866572904E-03
 -0.415162022745E-03
 -0.395100766402E-04
 -0.274594951516E-04
  0.521542587042E-04
  0.377680596853E-06
  0.124103984901E-07
  0.472247363124E-07
 -0.171887513077E-08
 -0.665834120526E-04
 -0.696909239466E-07
 -0.833946609107E-04
 -0.764674752072E-07
 -0.217264437411E-06
 -0.438699338622E-04
  0.989935397259E-06
 -0.770429577507E-06
 -0.323350229271E-05
 -0.109146915922E-06
 -0.150239171279E-03
  0.754104118966E-06
  0.536591728213E-05
 -0.216580682555E-08
 -0.117539112178E-03
  0.106851842120E-04
  0.487217276483E-06
 -0.280558409371E-06
 -0.881560768440E-05
  0.410469476960E-05
 -0.159620659186E-05
 -0.157340798461E-03
 -0.404550294362E-03
  0.796473413558E-06
 -0.560954347600E-04
  0.519148075223E-10
 -0.103331903629E-04
  0.461134225835E-03
 -0.305199332695E-04
  0.516724997209E-03
 -0.106836173015E-03
  0.286123556654E-03
 -0.750264361682E-05
 -0.737844442620E-04
  0.479133407727E-04
  0.471043101443E-09
 -0.277878791356E-06
 -0.916584977552E-04
  0.157365727816E-03
 -0.109435550483E-03
 -0.270046423977E-04
  0.687460823586E-04
 -0.262204005575E-03
  0.707105243689E-04
 -0.493311694813E-06
  0.229245123451E-04
  0.136701573408E-06
 -0.830559486534E-07
 -0.180068974093E-04
 -0.248206441008E-07
  0.762327755308E-06
  0.873731403316E-04
  0.854509140893E-05
  0.970462325241E-06
 -0.609534647157E-06
  0.497715608565E-03
 -0.934066551275E-06
 -0.338345448151E-05
 -0.561854741968E-07
  0.257971216810E-05
  0.930357283296E-07
 -0.270367463777E-04
  0.312749051349E-07
  0.149288139287E-04
  0.356522694274E-04
 -0.684825687268E-04
 -0.695429415427E-04
 -0.114377279617E-03
 -0.422861328633E-03
  0.788611701799E-04
  0.924576189023E-04
  0.146751271657E-05
  0.684509203069E-07
 -0.740090379556E-06
  0.139000469560E-05
 -0.517016650175E-03
 -0.376715303500E-06
  0.270726942016E-03
 -0.263336183499E-03
  0.514209881425E-04
 -0.681037002673E-05
  0.447741896723E-04
  0.225343936943E-03
 -0.158709979731E-04
  0.715218876497E-05
 -0.188683132980E-03
  0.199393691752E-03
  0.101973340591E-06
 -0.988535985767E-04
  0.102781698009E-06
  0.883234428424E-04
 -0.102676504740E-03
 -0.231540779133E-06
 -0.636840552914E-07
  0.394321853450E-04
 -0.638602552289E-03
  0.539915571103E-03
 -0.671473904257E-09
  0.447510347047E-04
  0.400164824331E-05
 -0.157189174176E-04
 -0.238412013643E-06
 -0.906169602480E-07
 -0.410320393408E-05
 -0.474966922281E-06
  0.164697779113E-07
 -0.173343269924E-03
 -0.303108940906E-06
  0.579542886771E-07
 -0.362842884803E-06
  0.618663957479E-05
  0.177049724819E-06
  0.244542024209E-06
  0.102519408881E-04
  0.478244580056E-05
 -0.139300505176E-03
  0.120255927948E-03
 -0.281159410324E-05
  0.407181396084E-04
  0.125835011203E-03
  0.960684504167E-05
 -0.102428899503E-03
 -0.813329842181E-05
  0.934652311586E-04
  0.856719207753E-04
  0.298076364180E-03
  0.866424231995E-06
 -0.325742205975E-04
  0.355778863515E-04
  0.401686815533E-03
  0.192855187375E-07
  0.915321915430E-04
 -0.892332343514E-05
  0.327828667683E-04
  0.351899305919E-09
 -0.546277392066E-04
  0.221254666431E-03
  0.273136839994E-03
 -0.348730828753E-04
 -0.814887791494E-04
 -0.313573680248E-04
  0.175311233957E-06
 -0.744731222628E-07
  0.250158546924E-06
  0.131548604926E-07
 -0.314303161129E-04
 -0.236713165730E-06
 -0.230049706795E-05
 -0.136944738629E-04
  0.403522685908E-05
 -0.182520532761E-06
  0.780977818023E-06
  0.853446303007E-06
 -0.145606096285E-06
  0.484756345866E-03
  0.602605107189E-04
  0.596424038434E-04
  0.660095658689E-10
  0.173180235751E-05
  0.825918141839E-06
 -0.150133662312E-04
 -0.521584384670E-06
 -0.238872356533E-04
  0.344307435531E-07
  0.878548808566E-04
 -0.465964630075E-08
  0.247001016241E-04
  0.207401188149E-03
 -0.822440523179E-04
  0.180681270787E-03
  0.282714469249E-05
  0.386261678383E-04
 -0.223484556076E-03
 -0.107227856385E-03
  0.263056312755E-06
  0.804322461630E-05
  0.346559230171E-04
  0.116429390725E-03
  0.118600677640E-03
  0.281621675911E-04
  0.792282717454E-04
 -0.325489435785E-03
  0.212531985731E-06
 -0.340924945131E-03
  0.282205399186E-06
  0.155403851954E-06
  0.659193043473E-06
 -0.911795746266E-05
  0.142486661313E-03
  0.312543664387E-04
 -0.152138576125E-02
  0.135904858536E-03
  0.204481238316E-03
 -0.388761175126E-05
  0.191775604426E-04
  0.748903736851E-03
 -0.503835414709E-08
 -0.442786881929E-04
 -0.592265840781E-07
 -0.234286688557E-07
  0.156961155651E-05
  0.228047603870E-05
 -0.152256259221E-02
  0.115460193913E-05
  0.761744775119E-06
 -0.490917889200E-05
  0.266772331343E-07
  0.423528719871E-06
  0.124728206674E-05
  0.198542445705E-04
 -0.119150762783E-06
  0.510331570986E-05
  0.111177454233E-04
  0.755880755137E-04
  0.503875058604E-04
  0.630100121435E-06
 -0.531185141156E-04
  0.193723215845E-04
 -0.181435245659E-03
 -0.146598378794E-04
  0.327615764769E-06
 -0.186912086033E-06
  0.128842068740E-03
  0.274653731370E-04
  0.941055730804E-04
 -0.174484066826E-02
  0.219125390153E-06
  0.308269977421E-05
 -0.230381831510E-06
 -0.144968987562E-03
  0.585584467864E-06
  0.485380444231E-04
 -0.610413645678E-04
 -0.343845038791E-04
  0.318442650714E-02
  0.399741831616E-03
  0.409053936548E-06
  0.979584322311E-05
 -0.704583666029E-07
  0.155127858257E-04
 -0.138501836855E-02
 -0.566234098151E-08
 -0.290941209923E-02
 -0.115354090880E-05
  0.328047182111E-03
  0.370241308280E-06
 -0.672619251744E-04
  0.439609427333E-07
 -0.149259009583E-06
 -0.210209410017E-06
  0.500870378255E-06
  0.954268594012E-06
  0.438632981276E-06
 -0.373282560859E-05
  0.367292590475E-05
 -0.606964272549E-03
 -0.258670269399E-06
  0.840214485735E-05
  0.155962031466E-03
  0.376578673160E-04
  0.278401131040E-04
 -0.301808432660E-04
  0.115827037114E-05
  0.872876203933E-04
 -0.894562029936E-07
  0.210033740864E-02
 -0.386846785018E-03
 -0.203474341773E-04
 -0.164938536612E-04
 -0.169197205576E-03
 -0.193855210275E-02
  0.811752171223E-05
 -0.171443165424E-06
  0.115920346489E-05
  0.359937252587E-04
  0.347572603899E-04
 -0.421408952251E-02
 -0.324625025169E-04
 -0.128961399583E-06
  0.876960298205E-04
 -0.695171806999E-04
 -0.255738659777E-06
 -0.199528148293E-06
 -0.498789336553E-07
 -0.157886214554E-07
  0.109709424601E-07
  0.148569383910E-03
 -0.214404867004E-04
 -0.649621762182E-07
  0.175233148112E-05
 -0.654067008625E-03
 -0.242706633456E-03
  0.138248149829E-06
 -0.116520635657E-03
  0.446238630019E-05
 -0.584618673353E-07
 -0.103885257524E-06
  0.218296086975E-06
  0.831405846426E-08
 -0.188276578390E-05
  0.110621685701E-07
  0.572146958320E-06
 -0.141323073920E-07
  0.403037956257E-06
  0.222792923724E-05
 -0.396821097861E-03
 -0.104741826468E-05
 -0.659291820343E-06
  0.156097121104E-04
  0.127504018980E-04
 -0.410987749393E-04
 -0.291135546993E-05
 -0.104209910380E-03
 -0.752944013731E-04
  0.182075734524E-08
 -0.438439205037E-08
  0.463568210116E-04
  0.176396003593E-03
 -0.323271335700E-06
 -0.137618531831E-07
 -0.542446192695E-07
 -0.283842154164E-08
  0.691442317540E-05
 -0.224854230391E-07
  0.242595496699E-05
  0.216544561119E-04
  0.760337854570E-08
  0.635796059464E-08
  0.649727247929E-05
 -0.822432730540E-05
  0.499435270250E-07
  0.773900938102E-04
  0.108812411815E-04
 -0.133939628524E-05
  0.168717969713E-04
  0.496167858414E-07
  0.584136358278E-05
 -0.282991228922E-05
 -0.173345445026E-05
  0.188613036246E-04
 -0.244262245402E-04
 -0.241356385954E-05
 -0.507008565727E-05
  0.133507941337E-04
  0.109842964738E-05
 -0.153857272692E-05
  0.108024644254E-03
 -0.152524926134E-04
 -0.268141849944E-03
  0.117104893845E-04
  0.886094037901E-08
 -0.222856169816E-04
  0.186243575042E-06
  0.166386103902E-04
  0.204935268261E-05
  0.148053780728E-07
 -0.972039668706E-07
  0.225178813779E-04
  0.148222620019E-04
  0.162559295975E-04
 -0.710376342681E-06
  0.369565214308E-04
  0.135507553529E-09
  0.618731866861E-07
  0.318809505022E-07
  0.791580870170E-05
  0.147409776423E-05
 -0.134818224303E-04
 -0.578562399890E-05
  0.188585578616E-07
  0.149169764521E-04
 -0.113696647478E-04
  0.224287943366E-04
  0.624972147874E-05
 -0.974419753240E-05
  0.646737243201E-06
  0.183502439249E-05
  0.475318420469E-05
  0.146331379962E-04
  0.112117208028E-04
 -0.209171535390E-05
 -0.378780212888E-05
  0.105709252069E-04
 -0.355879660897E-08
 -0.844227062298E-05
  0.374694080145E-06
  0.972747949229E-05
 -0.100606244263E-05
  0.404819918386E-07
  0.240082339465E-05
 -0.107433037645E-04
 -0.701710275552E-05
 -0.162598509496E-05
 -0.962038309498E-06
  0.547450031839E-05
  0.351629752565E-05
  0.619277307097E-05
  0.802172556663E-05
  0.157038714963E-04
 -0.832726471364E-06
 -0.443019041718E-05
  0.227052775950E-04
  0.684584850546E-04
  0.604839828872E-04
  0.183963067132E-04
 -0.112135242614E-04
 -0.668181576067E-05
 -0.313411543880E-05
  0.798080691851E-05
 -0.872752280974E-05
 -0.480857757355E-05
  0.346528672741E-05
  0.209163648738E-04
  0.247705009103E-05
 -0.852070477264E-05
 -0.771137274994E-05
  0.832434855253E-05
 -0.106105305708E-04
 -0.154418431018E-04
  0.157082943453E-04
  0.257284430803E-05
 -0.126759028557E-05
  0.657183795921E-06
  0.303923736750E-07
 -0.153485272950E-04
  0.168508119689E-04
 -0.424022720516E-08
  0.131835763224E-04