# vtk DataFile Version 3.0
MachLine results file. Generated by MachLine, USU AeroLab (c) 2022.
ASCII
DATASET POLYDATA
POINTS                 312 float
  0.100000000000E+01  0.104252345860E+00  0.000000000000E+00
  0.100000000000E+01  0.000000000000E+00  0.000000000000E+00
  0.294585113873E+02  0.152717791523E+01  0.000000000000E+00
  0.294663108147E+02  0.142331554074E+01  0.000000000000E+00
  0.100000000000E+01 -0.000000000000E+00  0.000000000000E+00
  0.100000000000E+01 -0.104252345860E+00  0.000000000000E+00
  0.294663108147E+02  0.142331554074E+01  0.000000000000E+00
  0.294741102421E+02  0.131945316624E+01  0.000000000000E+00
  0.100000000000E+01  0.211780935526E+00  0.000000000000E+00
  0.100000000000E+01  0.104252345860E+00  0.000000000000E+00
  0.294504668545E+02  0.163430427825E+01  0.000000000000E+00
  0.294585113873E+02  0.152717791523E+01  0.000000000000E+00
  0.100000000000E+01 -0.104252345860E+00  0.000000000000E+00
  0.100000000000E+01 -0.211780935526E+00  0.000000000000E+00
  0.294741102421E+02  0.131945316624E+01  0.000000000000E+00
  0.294821547750E+02  0.121232680322E+01  0.000000000000E+00
  0.100000000000E+01  0.322413772345E+00  0.000000000000E+00
  0.100000000000E+01  0.211780935526E+00  0.000000000000E+00
  0.294421900836E+02  0.174452327653E+01  0.000000000000E+00
  0.294504668545E+02  0.163430427825E+01  0.000000000000E+00
  0.100000000000E+01 -0.211780935526E+00  0.000000000000E+00
  0.100000000000E+01 -0.322413772345E+00  0.000000000000E+00
  0.294821547750E+02  0.121232680322E+01  0.000000000000E+00
  0.294904315458E+02  0.110210780495E+01  0.000000000000E+00
  0.100000000000E+01  0.435950160027E+00  0.000000000000E+00
  0.100000000000E+01  0.322413772345E+00  0.000000000000E+00
  0.294336960895E+02  0.185763496450E+01  0.000000000000E+00
  0.294421900836E+02  0.174452327653E+01  0.000000000000E+00
  0.100000000000E+01 -0.322413772345E+00  0.000000000000E+00
  0.100000000000E+01 -0.435950160027E+00  0.000000000000E+00
  0.294904315458E+02  0.110210780495E+01  0.000000000000E+00
  0.294989255399E+02  0.988996116968E+00  0.000000000000E+00
  0.100000000000E+01  0.552161276340E+00  0.000000000000E+00
  0.100000000000E+01  0.435950160027E+00  0.000000000000E+00
  0.294250019910E+02  0.197341137589E+01  0.000000000000E+00
  0.294336960895E+02  0.185763496450E+01  0.000000000000E+00
  0.100000000000E+01 -0.435950160027E+00  0.000000000000E+00
  0.100000000000E+01 -0.552161276340E+00  0.000000000000E+00
  0.294989255399E+02  0.988996116968E+00  0.000000000000E+00
  0.295076196384E+02  0.873219705579E+00  0.000000000000E+00
  0.100000000000E+01  0.670791566372E+00  0.000000000000E+00
  0.100000000000E+01  0.552161276340E+00  0.000000000000E+00
  0.294161269070E+02  0.209159791172E+01  0.000000000000E+00
  0.294250019910E+02  0.197341137589E+01  0.000000000000E+00
  0.100000000000E+01 -0.552161276340E+00  0.000000000000E+00
  0.100000000000E+01 -0.670791566372E+00  0.000000000000E+00
  0.295076196384E+02  0.873219705579E+00  0.000000000000E+00
  0.295164947224E+02  0.755033169749E+00  0.000000000000E+00
  0.100000000000E+01  0.791560173035E+00  0.000000000000E+00
  0.100000000000E+01  0.670791566372E+00  0.000000000000E+00
  0.294070918492E+02  0.221191476549E+01  0.000000000000E+00
  0.294161269070E+02  0.209159791172E+01  0.000000000000E+00
  0.100000000000E+01 -0.670791566372E+00  0.000000000000E+00
  0.100000000000E+01 -0.791560173035E+00  0.000000000000E+00
  0.295164947224E+02  0.755033169749E+00  0.000000000000E+00
  0.295255297803E+02  0.634716315979E+00  0.000000000000E+00
  0.100000000000E+01  0.914163351059E+00  0.000000000000E+00
  0.100000000000E+01  0.791560173035E+00  0.000000000000E+00
  0.293979195416E+02  0.233405932814E+01  0.000000000000E+00
  0.294070918492E+02  0.221191476549E+01  0.000000000000E+00
  0.100000000000E+01 -0.791560173035E+00  0.000000000000E+00
  0.100000000000E+01 -0.914163351059E+00  0.000000000000E+00
  0.295255297803E+02  0.634716315979E+00  0.000000000000E+00
  0.295347020879E+02  0.512571753334E+00  0.000000000000E+00
  0.100000000000E+01  0.103827738762E+01  0.000000000000E+00
  0.100000000000E+01  0.914163351059E+00  0.000000000000E+00
  0.293886342022E+02  0.245770909773E+01  0.000000000000E+00
  0.293979195416E+02  0.233405932814E+01  0.000000000000E+00
  0.100000000000E+01 -0.914163351059E+00  0.000000000000E+00
  0.100000000000E+01 -0.103827738762E+01  0.000000000000E+00
  0.295347020879E+02  0.512571753334E+00  0.000000000000E+00
  0.295439874273E+02  0.388921983743E+00  0.000000000000E+00
  0.100000000000E+01  0.116356134415E+01  0.000000000000E+00
  0.100000000000E+01  0.103827738762E+01  0.000000000000E+00
  0.293792613376E+02  0.258252441103E+01  0.000000000000E+00
  0.293886342022E+02  0.245770909773E+01  0.000000000000E+00
  0.100000000000E+01 -0.103827738762E+01  0.000000000000E+00
  0.100000000000E+01 -0.116356134415E+01  0.000000000000E+00
  0.295439874273E+02  0.388921983743E+00  0.000000000000E+00
  0.295533602918E+02  0.264106670442E+00  0.000000000000E+00
  0.100000000000E+01  0.128966128826E+01  0.000000000000E+00
  0.100000000000E+01  0.116356134415E+01  0.000000000000E+00
  0.293698274266E+02  0.270815265959E+01  0.000000000000E+00
  0.293792613376E+02  0.258252441103E+01  0.000000000000E+00
  0.100000000000E+01 -0.116356134415E+01  0.000000000000E+00
  0.100000000000E+01 -0.128966128826E+01  0.000000000000E+00
  0.295533602918E+02  0.264106670442E+00  0.000000000000E+00
  0.295627942029E+02  0.138478421883E+00  0.000000000000E+00
  0.100000000000E+01  0.141621339321E+01  0.000000000000E+00
  0.100000000000E+01  0.128966128826E+01  0.000000000000E+00
  0.293603596880E+02  0.283423137761E+01  0.000000000000E+00
  0.293698274266E+02  0.270815265959E+01  0.000000000000E+00
  0.100000000000E+01 -0.128966128826E+01  0.000000000000E+00
  0.100000000000E+01 -0.141621339321E+01  0.000000000000E+00
  0.295627942029E+02  0.138478421883E+00  0.000000000000E+00
  0.295722619414E+02  0.123997038594E-01  0.000000000000E+00
  0.100000000000E+01  0.154284906387E+01  0.000000000000E+00
  0.100000000000E+01  0.141621339321E+01  0.000000000000E+00
  0.293508856977E+02  0.296039334876E+01  0.000000000000E+00
  0.293603596880E+02  0.283423137761E+01  0.000000000000E+00
  0.100000000000E+01 -0.141621339321E+01  0.000000000000E+00
  0.100000000000E+01 -0.154284906387E+01  0.000000000000E+00
  0.295722619414E+02  0.123997038594E-01  0.000000000000E+00
  0.295817359317E+02 -0.113762267284E+00  0.000000000000E+00
  0.100000000000E+01  0.166919851303E+01  0.000000000000E+00
  0.100000000000E+01  0.154284906387E+01  0.000000000000E+00
  0.293414331205E+02  0.308627016905E+01  0.000000000000E+00
  0.293508856977E+02  0.296039334876E+01  0.000000000000E+00
  0.100000000000E+01 -0.154284906387E+01  0.000000000000E+00
  0.100000000000E+01 -0.166919851303E+01  0.000000000000E+00
  0.295817359317E+02 -0.113762267284E+00  0.000000000000E+00
  0.295911885090E+02 -0.239639087582E+00  0.000000000000E+00
  0.100000000000E+01  0.179489517212E+01  0.000000000000E+00
  0.100000000000E+01  0.166919851303E+01  0.000000000000E+00
  0.293320293804E+02  0.321149664114E+01  0.000000000000E+00
  0.293414331205E+02  0.308627016905E+01  0.000000000000E+00
  0.100000000000E+01 -0.166919851303E+01  0.000000000000E+00
  0.100000000000E+01 -0.179489517212E+01  0.000000000000E+00
  0.295911885090E+02 -0.239639087582E+00  0.000000000000E+00
  0.296005922490E+02 -0.364865559668E+00  0.000000000000E+00
  0.100000000000E+01  0.191958034039E+01  0.000000000000E+00
  0.100000000000E+01  0.179489517212E+01  0.000000000000E+00
  0.293227013129E+02  0.333571540604E+01  0.000000000000E+00
  0.293320293804E+02  0.321149664114E+01  0.000000000000E+00
  0.100000000000E+01 -0.179489517212E+01  0.000000000000E+00
  0.100000000000E+01 -0.191958034039E+01  0.000000000000E+00
  0.296005922490E+02 -0.364865559668E+00  0.000000000000E+00
  0.296099203165E+02 -0.489084324566E+00  0.000000000000E+00
  0.100000000000E+01  0.204290652275E+01  0.000000000000E+00
  0.100000000000E+01  0.191958034039E+01  0.000000000000E+00
  0.293134749153E+02  0.345858026851E+01  0.000000000000E+00
  0.293227013129E+02  0.333571540604E+01  0.000000000000E+00
  0.100000000000E+01 -0.191958034039E+01  0.000000000000E+00
  0.100000000000E+01 -0.204290652275E+01  0.000000000000E+00
  0.296099203165E+02 -0.489084324566E+00  0.000000000000E+00
  0.296191467142E+02 -0.611949187041E+00  0.000000000000E+00
  0.100000000000E+01  0.216454195976E+01  0.000000000000E+00
  0.100000000000E+01  0.204290652275E+01  0.000000000000E+00
  0.293043750073E+02  0.357976071012E+01  0.000000000000E+00
  0.293134749153E+02  0.345858026851E+01  0.000000000000E+00
  0.100000000000E+01 -0.204290652275E+01  0.000000000000E+00
  0.100000000000E+01 -0.216454195976E+01  0.000000000000E+00
  0.296191467142E+02 -0.611949187041E+00  0.000000000000E+00
  0.296282466222E+02 -0.733129628651E+00  0.000000000000E+00
  0.100000000000E+01  0.228417348862E+01  0.000000000000E+00
  0.100000000000E+01  0.216454195976E+01  0.000000000000E+00
  0.292954250176E+02  0.369894473950E+01  0.000000000000E+00
  0.293043750073E+02  0.357976071012E+01  0.000000000000E+00
  0.100000000000E+01 -0.216454195976E+01  0.000000000000E+00
  0.100000000000E+01 -0.228417348862E+01  0.000000000000E+00
  0.296282466222E+02 -0.733129628651E+00  0.000000000000E+00
  0.296371966119E+02 -0.852313658027E+00  0.000000000000E+00
  0.100000000000E+01  0.240150952339E+01  0.000000000000E+00
  0.100000000000E+01  0.228417348862E+01  0.000000000000E+00
  0.292866467606E+02  0.381584186142E+01  0.000000000000E+00
  0.292954250176E+02  0.369894473950E+01  0.000000000000E+00
  0.100000000000E+01 -0.228417348862E+01  0.000000000000E+00
  0.100000000000E+01 -0.240150952339E+01  0.000000000000E+00
  0.296371966119E+02 -0.852313658027E+00  0.000000000000E+00
  0.296459748688E+02 -0.969210779948E+00  0.000000000000E+00
  0.100000000000E+01  0.251628303528E+01  0.000000000000E+00
[...]
POINT_DATA                 312
SCALARS mu float 1
LOOKUP_TABLE default
 -0.599335036405E-15
 -0.258931351117E-15
 -0.599335036405E-15
 -0.258931351117E-15
  0.250695467546E-14
 -0.215415709671E-15
  0.250695467546E-14
 -0.215415709671E-15
 -0.758433487693E-15
 -0.599335036405E-15
 -0.758433487693E-15
 -0.599335036405E-15
 -0.215415709671E-15
  0.802823959273E-15
 -0.215415709671E-15
  0.802823959273E-15
  0.172734600250E-14
 -0.758433487693E-15
  0.172734600250E-14
 -0.758433487693E-15
  0.802823959273E-15
  0.827195512762E-15
  0.802823959273E-15
  0.827195512762E-15
 -0.980278342775E-16
  0.172734600250E-14
 -0.980278342775E-16
  0.172734600250E-14
  0.827195512762E-15
 -0.107520253079E-14
  0.827195512762E-15
 -0.107520253079E-14
 -0.487121522320E-15
 -0.980278342775E-16
 -0.487121522320E-15
 -0.980278342775E-16
 -0.107520253079E-14
  0.129227355933E-15
 -0.107520253079E-14
  0.129227355933E-15
 -0.318405063505E-15
 -0.487121522320E-15
 -0.318405063505E-15
 -0.487121522320E-15
  0.129227355933E-15
  0.380354494468E-15
  0.129227355933E-15
  0.380354494468E-15
 -0.162354316654E-14
 -0.318405063505E-15
 -0.162354316654E-14
 -0.318405063505E-15
  0.380354494468E-15
 -0.714727604306E-15
  0.380354494468E-15
 -0.714727604306E-15
  0.987325330383E-15
 -0.162354316654E-14
  0.987325330383E-15
 -0.162354316654E-14
 -0.714727604306E-15
  0.591185365800E-15
 -0.714727604306E-15
  0.591185365800E-15
 -0.554726294610E-15
  0.987325330383E-15
 -0.554726294610E-15
  0.987325330383E-15
  0.591185365800E-15
 -0.866442430584E-15
  0.591185365800E-15
 -0.866442430584E-15
 -0.914465029493E-15
 -0.554726294610E-15
 -0.914465029493E-15
 -0.554726294610E-15
 -0.866442430584E-15
  0.228345289755E-15
 -0.866442430584E-15
  0.228345289755E-15
 -0.104537088346E-14
 -0.914465029493E-15
 -0.104537088346E-14
 -0.914465029493E-15
  0.228345289755E-15
  0.543470537066E-15
  0.228345289755E-15
  0.543470537066E-15
 -0.142385416603E-15
 -0.104537088346E-14
 -0.142385416603E-15
 -0.104537088346E-14
  0.543470537066E-15
 -0.464911897716E-15
  0.543470537066E-15
 -0.464911897716E-15
  0.882153841899E-15
 -0.142385416603E-15
  0.882153841899E-15
 -0.142385416603E-15
 -0.464911897716E-15
 -0.180254901208E-15
 -0.464911897716E-15
 -0.180254901208E-15
  0.450853407119E-15
  0.882153841899E-15
  0.450853407119E-15
  0.882153841899E-15
 -0.180254901208E-15
 -0.183234706403E-15
 -0.180254901208E-15
 -0.183234706403E-15
 -0.290436953213E-15
  0.450853407119E-15
 -0.290436953213E-15
  0.450853407119E-15
 -0.183234706403E-15
 -0.827413287693E-15
 -0.183234706403E-15
 -0.827413287693E-15
  0.597513844188E-15
 -0.290436953213E-15
  0.597513844188E-15
 -0.290436953213E-15
 -0.827413287693E-15
 -0.110255676211E-14
 -0.827413287693E-15
 -0.110255676211E-14
  0.635562014876E-15
  0.597513844188E-15
  0.635562014876E-15
  0.597513844188E-15
 -0.110255676211E-14
  0.752161206849E-15
 -0.110255676211E-14
  0.752161206849E-15
 -0.127150880600E-14
  0.635562014876E-15
 -0.127150880600E-14
  0.635562014876E-15
  0.752161206849E-15
 -0.167951861548E-15
  0.752161206849E-15
 -0.167951861548E-15
 -0.120733633128E-15
 -0.127150880600E-14
 -0.120733633128E-15
 -0.127150880600E-14
 -0.167951861548E-15
  0.214126184861E-15
 -0.167951861548E-15
  0.214126184861E-15
  0.198475349971E-16
 -0.120733633128E-15
  0.198475349971E-16
 -0.120733633128E-15
  0.214126184861E-15
 -0.375250208885E-15
  0.214126184861E-15
 -0.375250208885E-15
  0.105011714784E-14
  0.198475349971E-16
  0.105011714784E-14
  0.198475349971E-16
 -0.375250208885E-15
  0.168916985569E-15
 -0.375250208885E-15
  0.168916985569E-15
  0.240916872197E-14
  0.105011714784E-14
  0.240916872197E-14
  0.105011714784E-14
  0.168916985569E-15
  0.545030997981E-15
  0.168916985569E-15
  0.545030997981E-15
  0.180872718709E-15
  0.240916872197E-14
  0.180872718709E-15
  0.240916872197E-14
  0.545030997981E-15
  0.123989811983E-14
  0.545030997981E-15
  0.123989811983E-14
  0.249215033803E-15
  0.180872718709E-15
  0.249215033803E-15
  0.180872718709E-15
  0.123989811983E-14
 -0.148490255636E-15
  0.123989811983E-14
 -0.148490255636E-15
  0.971905588984E-15
  0.249215033803E-15
  0.971905588984E-15
  0.249215033803E-15
 -0.148490255636E-15
  0.153435571472E-15
 -0.148490255636E-15
  0.153435571472E-15
 -0.104823972111E-14
  0.971905588984E-15
 -0.104823972111E-14
  0.971905588984E-15
  0.153435571472E-15
  0.493854089567E-14
  0.153435571472E-15
  0.493854089567E-14
  0.112587534646E-14
 -0.104823972111E-14
  0.112587534646E-14
 -0.104823972111E-14
  0.493854089567E-14
 -0.152717682250E-12
  0.493854089567E-14
 -0.152717682250E-12
 -0.123647294660E-13
  0.112587534646E-14
 -0.123647294660E-13
  0.112587534646E-14
 -0.152717682250E-12
 -0.207609103520E-12
 -0.152717682250E-12
 -0.207609103520E-12
  0.165714664213E-12
 -0.123647294660E-13
  0.165714664213E-12
 -0.123647294660E-13
 -0.207609103520E-12
  0.158002951001E-13
 -0.207609103520E-12
  0.158002951001E-13
  0.377227329235E-12
  0.165714664213E-12
  0.377227329235E-12
  0.165714664213E-12
  0.158002951001E-13
 -0.236446279223E-12
  0.158002951001E-13
 -0.236446279223E-12
 -0.152287904509E-12
  0.377227329235E-12
 -0.152287904509E-12
  0.377227329235E-12
 -0.236446279223E-12
 -0.600006155871E-12
 -0.236446279223E-12
 -0.600006155871E-12
 -0.276137619715E-12
 -0.152287904509E-12
 -0.276137619715E-12
 -0.152287904509E-12
 -0.600006155871E-12
  0.456240947799E-12
 -0.600006155871E-12
  0.456240947799E-12
  0.350653013570E-11
 -0.276137619715E-12
  0.350653013570E-11
 -0.276137619715E-12
  0.456240947799E-12
  0.993902876667E-12
  0.456240947799E-12
  0.993902876667E-12
 -0.218637608018E-12
  0.350653013570E-11
 -0.218637608018E-12
  0.350653013570E-11
  0.993902876667E-12
  0.819747048020E-12
  0.993902876667E-12
  0.819747048020E-12
 -0.376936502844E-11
 -0.218637608018E-12
 -0.376936502844E-11
 -0.218637608018E-12
  0.819747048020E-12
  0.107617040279E-11
  0.819747048020E-12
  0.107617040279E-11
 -0.192967170021E-12
 -0.376936502844E-11
 -0.192967170021E-12
 -0.376936502844E-11
  0.107617040279E-11
  0.192042388936E-11
  0.107617040279E-11
  0.192042388936E-11
  0.349590148496E-12
 -0.192967170021E-12
  0.349590148496E-12
 -0.192967170021E-12
  0.192042388936E-11
  0.711001570119E-12
  0.192042388936E-11
  0.711001570119E-12
  0.170321222404E-12
  0.349590148496E-12
  0.170321222404E-12
  0.349590148496E-12
  0.711001570119E-12
 -0.479724766855E-12
  0.711001570119E-12
 -0.479724766855E-12
  0.000000000000E+00
  0.170321222404E-12
  0.000000000000E+00
  0.170321222404E-12
 -0.479724766855E-12
  0.000000000000E+00
 -0.479724766855E-12
  0.000000000000E+00
