# vtk DataFile Version 3.0
MachLine results file. Generated by MachLine, USU AeroLab (c) 2022.
ASCII
DATASET POLYDATA
POINTS                3847 float
  0.100000000000E+01  0.000000000000E+00  0.000000000000E+00
  0.986936852140E+00  0.512820512820E-01 -0.114287734800E-02
  0.100000000000E+01  0.512820512820E-01  0.000000000000E+00
  0.986936852140E+00  0.000000000000E+00 -0.114287734800E-02
  0.969870673510E+00  0.512820512820E-01 -0.263597450740E-02
  0.969870673510E+00  0.000000000000E+00 -0.263597450740E-02
  0.947785033200E+00  0.512820512820E-01 -0.456821766120E-02
  0.947785033200E+00  0.000000000000E+00 -0.456821766120E-02
  0.919551441300E+00  0.512820512820E-01 -0.703833688330E-02
  0.919551441300E+00  0.000000000000E+00 -0.703833688330E-02
  0.884018106510E+00  0.512820512820E-01 -0.101471008550E-01
  0.884018106510E+00  0.000000000000E+00 -0.101471008550E-01
  0.840166851150E+00  0.512820512820E-01 -0.139835885800E-01
  0.840166851150E+00  0.000000000000E+00 -0.139835885800E-01
  0.787342649140E+00  0.512820512820E-01 -0.186051074160E-01
  0.787342649140E+00  0.000000000000E+00 -0.186051074160E-01
  0.725530751590E+00  0.512820512820E-01 -0.240129477220E-01
  0.725530751590E+00  0.000000000000E+00 -0.240129477220E-01
  0.655612654280E+00  0.512820512820E-01 -0.301299886120E-01
  0.655612654280E+00  0.000000000000E+00 -0.301299886120E-01
  0.579493951800E+00  0.512820512820E-01 -0.367895121620E-01
  0.579493951800E+00  0.000000000000E+00 -0.367895121620E-01
  0.500000000000E+00  0.512820512820E-01 -0.437443317630E-01
  0.500000000000E+00  0.000000000000E+00 -0.437443317630E-01
  0.420506048200E+00  0.000000000000E+00 -0.367895121620E-01
  0.420506048200E+00  0.512820512820E-01 -0.367895121620E-01
  0.344387345720E+00  0.000000000000E+00 -0.301299886120E-01
  0.344387345720E+00  0.512820512820E-01 -0.301299886120E-01
  0.274469248410E+00  0.000000000000E+00 -0.240129477220E-01
  0.274469248410E+00  0.512820512820E-01 -0.240129477220E-01
  0.212657350860E+00  0.000000000000E+00 -0.186051074160E-01
  0.212657350860E+00  0.512820512820E-01 -0.186051074160E-01
  0.159833148850E+00  0.000000000000E+00 -0.139835885800E-01
  0.159833148850E+00  0.512820512820E-01 -0.139835885800E-01
  0.115981893490E+00  0.000000000000E+00 -0.101471008550E-01
  0.115981893490E+00  0.512820512820E-01 -0.101471008550E-01
  0.804485587010E-01  0.000000000000E+00 -0.703833688330E-02
  0.804485587010E-01  0.512820512820E-01 -0.703833688330E-02
  0.522149667970E-01  0.000000000000E+00 -0.456821766120E-02
  0.522149667970E-01  0.512820512820E-01 -0.456821766120E-02
  0.301293264890E-01  0.000000000000E+00 -0.263597450740E-02
  0.301293264890E-01  0.512820512820E-01 -0.263597450740E-02
  0.130631478640E-01  0.000000000000E+00 -0.114287734800E-02
  0.130631478640E-01  0.512820512820E-01 -0.114287734800E-02
  0.000000000000E+00  0.000000000000E+00  0.000000000000E+00
  0.000000000000E+00  0.512820512820E-01  0.000000000000E+00
  0.130631478640E-01  0.512820512820E-01  0.114287734800E-02
  0.130631478640E-01  0.000000000000E+00  0.114287734800E-02
  0.301293264890E-01  0.512820512820E-01  0.263597450740E-02
  0.301293264890E-01  0.000000000000E+00  0.263597450740E-02
  0.522149667970E-01  0.512820512820E-01  0.456821766120E-02
  0.522149667970E-01  0.000000000000E+00  0.456821766120E-02
  0.804485587010E-01  0.512820512820E-01  0.703833688330E-02
  0.804485587010E-01  0.000000000000E+00  0.703833688330E-02
  0.115981893490E+00  0.512820512820E-01  0.101471008550E-01
  0.115981893490E+00  0.000000000000E+00  0.101471008550E-01
  0.159833148850E+00  0.512820512820E-01  0.139835885800E-01
  0.159833148850E+00  0.000000000000E+00  0.139835885800E-01
  0.212657350860E+00  0.512820512820E-01  0.186051074160E-01
  0.212657350860E+00  0.000000000000E+00  0.186051074160E-01
  0.274469248410E+00  0.512820512820E-01  0.240129477220E-01
  0.274469248410E+00  0.000000000000E+00  0.240129477220E-01
  0.344387345720E+00  0.512820512820E-01  0.301299886120E-01
  0.344387345720E+00  0.000000000000E+00  0.301299886120E-01
  0.420506048200E+00  0.512820512820E-01  0.367895121620E-01
  0.420506048200E+00  0.000000000000E+00  0.367895121620E-01
  0.500000000000E+00  0.512820512820E-01  0.437443317630E-01
  0.500000000000E+00  0.000000000000E+00  0.437443317630E-01
  0.579493951800E+00  0.000000000000E+00  0.367895121620E-01
  0.579493951800E+00  0.512820512820E-01  0.367895121620E-01
  0.655612654280E+00  0.000000000000E+00  0.301299886120E-01
  0.655612654280E+00  0.512820512820E-01  0.301299886120E-01
  0.725530751590E+00  0.000000000000E+00  0.240129477220E-01
  0.725530751590E+00  0.512820512820E-01  0.240129477220E-01
  0.787342649140E+00  0.000000000000E+00  0.186051074160E-01
  0.787342649140E+00  0.512820512820E-01  0.186051074160E-01
  0.840166851150E+00  0.000000000000E+00  0.139835885800E-01
  0.840166851150E+00  0.512820512820E-01  0.139835885800E-01
  0.884018106510E+00  0.000000000000E+00  0.101471008550E-01
  0.884018106510E+00  0.512820512820E-01  0.101471008550E-01
  0.919551441300E+00  0.000000000000E+00  0.703833688330E-02
  0.919551441300E+00  0.512820512820E-01  0.703833688330E-02
  0.947785033200E+00  0.000000000000E+00  0.456821766120E-02
  0.947785033200E+00  0.512820512820E-01  0.456821766120E-02
  0.969870673510E+00  0.000000000000E+00  0.263597450740E-02
  0.969870673510E+00  0.512820512820E-01  0.263597450740E-02
  0.986936852140E+00  0.000000000000E+00  0.114287734800E-02
  0.986936852140E+00  0.512820512820E-01  0.114287734800E-02
  0.986936852140E+00  0.102564102560E+00 -0.114287734800E-02
  0.100000000000E+01  0.102564102560E+00  0.000000000000E+00
  0.969870673510E+00  0.102564102560E+00 -0.263597450740E-02
  0.947785033200E+00  0.102564102560E+00 -0.456821766120E-02
  0.919551441300E+00  0.102564102560E+00 -0.703833688330E-02
  0.884018106510E+00  0.102564102560E+00 -0.101471008550E-01
  0.840166851150E+00  0.102564102560E+00 -0.139835885800E-01
  0.787342649140E+00  0.102564102560E+00 -0.186051074160E-01
  0.725530751590E+00  0.102564102560E+00 -0.240129477220E-01
  0.655612654280E+00  0.102564102560E+00 -0.301299886120E-01
  0.579493951800E+00  0.102564102560E+00 -0.367895121620E-01
  0.500000000000E+00  0.102564102560E+00 -0.437443317630E-01
  0.420506048200E+00  0.102564102560E+00 -0.367895121620E-01
  0.344387345720E+00  0.102564102560E+00 -0.301299886120E-01
  0.274469248410E+00  0.102564102560E+00 -0.240129477220E-01
  0.212657350860E+00  0.102564102560E+00 -0.186051074160E-01
  0.159833148850E+00  0.102564102560E+00 -0.139835885800E-01
  0.115981893490E+00  0.102564102560E+00 -0.101471008550E-01
  0.804485587010E-01  0.102564102560E+00 -0.703833688330E-02
  0.522149667970E-01  0.102564102560E+00 -0.456821766120E-02
  0.301293264890E-01  0.102564102560E+00 -0.263597450740E-02
  0.130631478640E-01  0.102564102560E+00 -0.114287734800E-02
  0.000000000000E+00  0.102564102560E+00  0.000000000000E+00
  0.130631478640E-01  0.102564102560E+00  0.114287734800E-02
  0.301293264890E-01  0.102564102560E+00  0.263597450740E-02
  0.522149667970E-01  0.102564102560E+00  0.456821766120E-02
  0.804485587010E-01  0.102564102560E+00  0.703833688330E-02
  0.115981893490E+00  0.102564102560E+00  0.101471008550E-01
  0.159833148850E+00  0.102564102560E+00  0.139835885800E-01
  0.212657350860E+00  0.102564102560E+00  0.186051074160E-01
  0.274469248410E+00  0.102564102560E+00  0.240129477220E-01
  0.344387345720E+00  0.102564102560E+00  0.301299886120E-01
  0.420506048200E+00  0.102564102560E+00  0.367895121620E-01
  0.500000000000E+00  0.102564102560E+00  0.437443317630E-01
  0.579493951800E+00  0.102564102560E+00  0.367895121620E-01
  0.655612654280E+00  0.102564102560E+00  0.301299886120E-01
  0.725530751590E+00  0.102564102560E+00  0.240129477220E-01
  0.787342649140E+00  0.102564102560E+00  0.186051074160E-01
  0.840166851150E+00  0.102564102560E+00  0.139835885800E-01
  0.884018106510E+00  0.102564102560E+00  0.101471008550E-01
  0.919551441300E+00  0.102564102560E+00  0.703833688330E-02
  0.947785033200E+00  0.102564102560E+00  0.456821766120E-02
  0.969870673510E+00  0.102564102560E+00  0.263597450740E-02
  0.986936852140E+00  0.102564102560E+00  0.114287734800E-02
  0.986936852140E+00  0.153846153850E+00 -0.114287734800E-02
  0.100000000000E+01  0.153846153850E+00  0.000000000000E+00
  0.969870673510E+00  0.153846153850E+00 -0.263597450740E-02
  0.947785033200E+00  0.153846153850E+00 -0.456821766120E-02
  0.919551441300E+00  0.153846153850E+00 -0.703833688330E-02
  0.884018106510E+00  0.153846153850E+00 -0.101471008550E-01
  0.840166851150E+00  0.153846153850E+00 -0.139835885800E-01
  0.787342649140E+00  0.153846153850E+00 -0.186051074160E-01
  0.725530751590E+00  0.153846153850E+00 -0.240129477220E-01
  0.655612654280E+00  0.153846153850E+00 -0.301299886120E-01
  0.579493951800E+00  0.153846153850E+00 -0.367895121620E-01
  0.500000000000E+00  0.153846153850E+00 -0.437443317630E-01
  0.420506048200E+00  0.153846153850E+00 -0.367895121620E-01
  0.344387345720E+00  0.153846153850E+00 -0.301299886120E-01
  0.274469248410E+00  0.153846153850E+00 -0.240129477220E-01
  0.212657350860E+00  0.153846153850E+00 -0.186051074160E-01
  0.159833148850E+00  0.153846153850E+00 -0.139835885800E-01
  0.115981893490E+00  0.153846153850E+00 -0.101471008550E-01
  0.804485587010E-01  0.153846153850E+00 -0.703833688330E-02
  0.522149667970E-01  0.153846153850E+00 -0.456821766120E-02
  0.301293264890E-01  0.153846153850E+00 -0.263597450740E-02
  0.130631478640E-01  0.153846153850E+00 -0.114287734800E-02
  0.000000000000E+00  0.153846153850E+00  0.000000000000E+00
  0.130631478640E-01  0.153846153850E+00  0.114287734800E-02
  0.301293264890E-01  0.153846153850E+00  0.263597450740E-02
  0.522149667970E-01  0.153846153850E+00  0.456821766120E-02
  0.804485587010E-01  0.153846153850E+00  0.703833688330E-02
  0.115981893490E+00  0.153846153850E+00  0.101471008550E-01
  0.159833148850E+00  0.153846153850E+00  0.139835885800E-01
[...]
CELL_DATA                7536
SCALARS C_p_ise float 1
LOOKUP_TABLE default
 -0.545320261469E-01
 -0.542286154213E-01
 -0.866637850142E-01
 -0.866637850142E-01
 -0.866637850341E-01
 -0.866637850341E-01
 -0.866637850424E-01
 -0.866637850424E-01
 -0.866637850427E-01
 -0.866637850427E-01
 -0.866637850282E-01
 -0.866637850282E-01
 -0.866637850406E-01
 -0.866637850406E-01
 -0.866637850267E-01
 -0.866637850267E-01
 -0.866637850364E-01
 -0.866637850364E-01
 -0.866637850432E-01
 -0.866637850432E-01
 -0.866637850315E-01
 -0.866637850315E-01
  0.116357274782E+00
  0.116357274782E+00
  0.116357274803E+00
  0.116357274803E+00
  0.116357274791E+00
  0.116357274791E+00
  0.116357274774E+00
  0.116357274774E+00
  0.116357274798E+00
  0.116357274798E+00
  0.116357274776E+00
  0.116357274776E+00
  0.116357274806E+00
  0.116357274806E+00
  0.116357274783E+00
  0.116357274783E+00
  0.116357274799E+00
  0.116357274799E+00
  0.116357274790E+00
  0.116357274790E+00
  0.116357274782E+00
  0.116357274782E+00
  0.116357274782E+00
  0.116357274782E+00
  0.116357274790E+00
  0.116357274790E+00
  0.116357274799E+00
  0.116357274799E+00
  0.116357274783E+00
  0.116357274783E+00
  0.116357274806E+00
  0.116357274806E+00
  0.116357274776E+00
  0.116357274776E+00
  0.116357274798E+00
  0.116357274798E+00
  0.116357274774E+00
  0.116357274774E+00
  0.116357274791E+00
  0.116357274791E+00
  0.116357274803E+00
  0.116357274803E+00
  0.116357274782E+00
  0.116357274782E+00
 -0.866637850315E-01
 -0.866637850315E-01
 -0.866637850432E-01
 -0.866637850432E-01
 -0.866637850364E-01
 -0.866637850364E-01
 -0.866637850267E-01
 -0.866637850267E-01
 -0.866637850406E-01
 -0.866637850406E-01
 -0.866637850282E-01
 -0.866637850282E-01
 -0.866637850427E-01
 -0.866637850427E-01
 -0.866637850424E-01
 -0.866637850424E-01
 -0.866637850341E-01
 -0.866637850341E-01
 -0.866637850142E-01
 -0.866637850142E-01
 -0.117103781709E+00
 -0.116836426608E+00
 -0.521708586347E-01
 -0.545320245561E-01
 -0.866637850142E-01
 -0.866637850142E-01
 -0.866637850341E-01
 -0.866637850341E-01
 -0.866637850424E-01
 -0.866637850424E-01
 -0.866637850427E-01
 -0.866637850427E-01
 -0.866637850282E-01
 -0.866637850282E-01
 -0.866637850406E-01
 -0.866637850406E-01
 -0.866637850266E-01
 -0.866637850267E-01
 -0.866637850364E-01
 -0.866637850364E-01
 -0.866637850432E-01
 -0.866637850432E-01
 -0.866637850315E-01
 -0.866637850315E-01
  0.116357274782E+00
  0.116357274782E+00
  0.116357274803E+00
  0.116357274803E+00
  0.116357274791E+00
  0.116357274791E+00
  0.116357274774E+00
  0.116357274774E+00
  0.116357274798E+00
  0.116357274798E+00
  0.116357274776E+00
  0.116357274776E+00
  0.116357274806E+00
  0.116357274806E+00
  0.116357274783E+00
  0.116357274783E+00
  0.116357274799E+00
  0.116357274799E+00
  0.116357274790E+00
  0.116357274790E+00
  0.116357274782E+00
  0.116357274782E+00
  0.116357274782E+00
  0.116357274782E+00
  0.116357274790E+00
  0.116357274790E+00
  0.116357274799E+00
  0.116357274799E+00
  0.116357274783E+00
  0.116357274783E+00
  0.116357274806E+00
  0.116357274806E+00
  0.116357274776E+00
  0.116357274776E+00
  0.116357274798E+00
  0.116357274798E+00
  0.116357274774E+00
  0.116357274774E+00
  0.116357274791E+00
  0.116357274791E+00
  0.116357274803E+00
  0.116357274803E+00
  0.116357274782E+00
  0.116357274782E+00
 -0.866637850315E-01
 -0.866637850315E-01
 -0.866637850432E-01
 -0.866637850432E-01
 -0.866637850364E-01
 -0.866637850364E-01
 -0.866637850267E-01
 -0.866637850266E-01
 -0.866637850406E-01
 -0.866637850406E-01
 -0.866637850282E-01
 -0.866637850282E-01
 -0.866637850427E-01
 -0.866637850427E-01
 -0.866637850424E-01
 -0.866637850424E-01
 -0.866637850341E-01
 -0.866637850341E-01
 -0.866637850142E-01
 -0.866637850142E-01
 -0.116836425259E+00
 -0.118909067682E+00
 -0.504671232245E-01
 -0.521707621014E-01
 -0.866637850142E-01
 -0.866637850142E-01
 -0.866637850341E-01
 -0.866637850341E-01
 -0.866637850424E-01
 -0.866637850424E-01
 -0.866637850427E-01
 -0.866637850427E-01
 -0.866637850282E-01
 -0.866637850282E-01
 -0.866637850406E-01
 -0.866637850406E-01
 -0.866637850267E-01
 -0.866637850266E-01
 -0.866637850364E-01
 -0.866637850364E-01
 -0.866637850432E-01
 -0.866637850432E-01
 -0.866637850315E-01
 -0.866637850315E-01
  0.116357274782E+00
  0.116357274782E+00
  0.116357274803E+00
  0.116357274803E+00
  0.116357274791E+00
  0.116357274791E+00
  0.116357274774E+00
  0.116357274774E+00
  0.116357274798E+00
  0.116357274798E+00
  0.116357274776E+00
  0.116357274776E+00
  0.116357274806E+00
  0.116357274806E+00
  0.116357274783E+00
  0.116357274783E+00
  0.116357274799E+00
  0.116357274799E+00
  0.116357274790E+00
  0.116357274790E+00
  0.116357274782E+00
  0.116357274782E+00
  0.116357274782E+00
  0.116357274782E+00
  0.116357274790E+00
  0.116357274790E+00
  0.116357274799E+00
  0.116357274799E+00
  0.116357274783E+00
  0.116357274783E+00
  0.116357274806E+00
  0.116357274806E+00
  0.116357274776E+00
  0.116357274776E+00
  0.116357274798E+00
  0.116357274798E+00
  0.116357274774E+00
  0.116357274774E+00
  0.116357274791E+00
  0.116357274791E+00
  0.116357274803E+00
  0.116357274803E+00
  0.116357274782E+00
  0.116357274782E+00
 -0.866637850315E-01
 -0.866637850315E-01
 -0.866637850432E-01
 -0.866637850432E-01
 -0.866637850364E-01
 -0.866637850364E-01
 -0.866637850266E-01
 -0.866637850267E-01
 -0.866637850406E-01
 -0.866637850406E-01
 -0.866637850282E-01
 -0.866637850282E-01
 -0.866637850427E-01
 -0.866637850427E-01
 -0.866637850424E-01
 -0.866637850424E-01
 -0.866637850341E-01
 -0.866637850341E-01
 -0.866637850142E-01
 -0.866637850142E-01
 -0.118908986760E+00
 -0.120392915395E+00
 -0.486075629572E-01
 -0.504670731277E-01
 -0.866637850142E-01
 -0.866637850142E-01
 -0.866637850341E-01
 -0.866637850341E-01
 -0.866637850424E-01
 -0.866637850424E-01
 -0.866637850427E-01
 -0.866637850427E-01
 -0.866637850282E-01
 -0.866637850282E-01
 -0.866637850406E-01
 -0.866637850406E-01
 -0.866637850267E-01
 -0.866637850267E-01
 -0.866637850364E-01
 -0.866637850364E-01
 -0.866637850432E-01
 -0.866637850432E-01
 -0.866637850315E-01
 -0.866637850315E-01
  0.116357274782E+00
  0.116357274782E+00
  0.116357274803E+00
  0.116357274803E+00
  0.116357274791E+00
  0.116357274791E+00
  0.116357274774E+00
  0.116357274774E+00
  0.116357274798E+00
  0.116357274798E+00
  0.116357274776E+00
  0.116357274776E+00
  0.116357274806E+00
  0.116357274806E+00
  0.116357274783E+00
  0.116357274783E+00
  0.116357274799E+00
  0.116357274799E+00
  0.116357274790E+00
  0.116357274790E+00
  0.116357274782E+00
  0.116357274782E+00
  0.116357274782E+00
  0.116357274782E+00
  0.116357274790E+00
  0.116357274790E+00
  0.116357274799E+00
  0.116357274799E+00
  0.116357274783E+00
  0.116357274783E+00
  0.116357274806E+00
  0.116357274806E+00
  0.116357274776E+00
  0.116357274776E+00
  0.116357274798E+00
  0.116357274798E+00
  0.116357274774E+00
  0.116357274774E+00
  0.116357274791E+00
  0.116357274791E+00
  0.116357274803E+00
  0.116357274803E+00
  0.116357274782E+00
  0.116357274782E+00
 -0.866637850315E-01
 -0.866637850315E-01
 -0.866637850432E-01
 -0.866637850432E-01
 -0.866637850364E-01
 -0.866637850364E-01
 -0.866637850267E-01
 -0.866637850267E-01
 -0.866637850406E-01
 -0.866637850406E-01
 -0.866637850282E-01
 -0.866637850282E-01
 -0.866637850427E-01
 -0.866637850427E-01
 -0.866637850424E-01
 -0.866637850424E-01
 -0.866637850341E-01
 -0.866637850341E-01
 -0.866637850142E-01
 -0.866637850142E-01
 -0.120392873753E+00
 -0.122001692955E+00
 -0.481929898671E-01
 -0.486075033848E-01
 -0.866637850142E-01
 -0.866637850142E-01
 -0.866637850341E-01
 -0.866637850341E-01
 -0.866637850424E-01
 -0.866637850424E-01
 -0.866637850427E-01
 -0.866637850427E-01
 -0.866637850282E-01
 -0.866637850282E-01
 -0.866637850406E-01
 -0.866637850406E-01
 -0.866637850266E-01
 -0.866637850267E-01
 -0.866637850364E-01
 -0.866637850364E-01
 -0.866637850432E-01
 -0.866637850432E-01
 -0.866637850315E-01
 -0.866637850315E-01
  0.116357274782E+00
  0.116357274782E+00
  0.116357274803E+00
  0.116357274803E+00
  0.116357274791E+00
  0.116357274791E+00
  0.116357274774E+00
  0.116357274774E+00
  0.116357274798E+00
  0.116357274798E+00
  0.116357274776E+00
  0.116357274776E+00
  0.116357274806E+00
  0.116357274806E+00
  0.116357274783E+00
  0.116357274783E+00
  0.116357274799E+00
  0.116357274799E+00
  0.116357274790E+00
  0.116357274790E+00
  0.116357274782E+00
  0.116357274782E+00
  0.116357274782E+00
  0.116357274782E+00
  0.116357274790E+00
  0.116357274790E+00
  0.116357274799E+00
  0.116357274799E+00
  0.116357274783E+00
  0.116357274783E+00
  0.116357274806E+00
  0.116357274806E+00
  0.116357274776E+00
  0.116357274776E+00
  0.116357274798E+00
  0.116357274798E+00
  0.116357274774E+00
  0.116357274774E+00
  0.116357274791E+00
  0.116357274791E+00
  0.116357274803E+00
  0.116357274803E+00
  0.116357274782E+00
  0.116357274782E+00
 -0.866637850315E-01
 -0.866637850315E-01
 -0.866637850432E-01
 -0.866637850432E-01
 -0.866637850364E-01
 -0.866637850364E-01
 -0.866637850267E-01
 -0.866637850267E-01
 -0.866637850406E-01
 -0.866637850406E-01
 -0.866637850282E-01
 -0.866637850282E-01
 -0.866637850427E-01
 -0.866637850427E-01
 -0.866637850424E-01
 -0.866637850424E-01
 -0.866637850341E-01
 -0.866637850341E-01
 -0.866637850142E-01
 -0.866637850142E-01
 -0.122001643889E+00
 -0.122358719253E+00
 -0.471742327012E-01
 -0.481929869157E-01
 -0.866637850142E-01
 -0.866637850142E-01
 -0.866637850341E-01
 -0.866637850341E-01
 -0.866637850424E-01
 -0.866637850424E-01
 -0.866637850427E-01
 -0.866637850427E-01
 -0.866637850282E-01
 -0.866637850282E-01
 -0.866637850406E-01
 -0.866637850406E-01
 -0.866637850266E-01
 -0.866637850266E-01
 -0.866637850364E-01
 -0.866637850364E-01
 -0.866637850432E-01
 -0.866637850432E-01
 -0.866637850315E-01
 -0.866637850315E-01
  0.116357274782E+00
  0.116357274782E+00
  0.116357274803E+00
  0.116357274803E+00
  0.116357274791E+00
  0.116357274791E+00
  0.116357274774E+00
  0.116357274774E+00
  0.116357274798E+00
  0.116357274798E+00
  0.116357274776E+00
  0.116357274776E+00
  0.116357274806E+00
  0.116357274806E+00
  0.116357274783E+00
  0.116357274783E+00
  0.116357274799E+00
  0.116357274799E+00
  0.116357274790E+00
  0.116357274790E+00
  0.116357274782E+00
  0.116357274782E+00
  0.116357274782E+00
  0.116357274782E+00
  0.116357274790E+00
  0.116357274790E+00
  0.116357274799E+00
  0.116357274799E+00
  0.116357274783E+00
  0.116357274783E+00
  0.116357274806E+00
  0.116357274806E+00
  0.116357274776E+00
  0.116357274776E+00
  0.116357274798E+00
  0.116357274798E+00
  0.116357274774E+00
  0.116357274774E+00
  0.116357274791E+00
  0.116357274791E+00
  0.116357274803E+00
  0.116357274803E+00
  0.116357274782E+00
  0.116357274782E+00
 -0.866637850315E-01
 -0.866637850315E-01
 -0.866637850432E-01
 -0.866637850432E-01
 -0.866637850364E-01
 -0.866637850364E-01
 -0.866637850267E-01
 -0.866637850266E-01
 -0.866637850406E-01
 -0.866637850406E-01
 -0.866637850282E-01
 -0.866637850282E-01
 -0.866637850427E-01
 -0.866637850427E-01
 -0.866637850424E-01
 -0.866637850424E-01
 -0.866637850341E-01
 -0.866637850341E-01
 -0.866637850142E-01
 -0.866637850142E-01
 -0.122358716827E+00
 -0.123233954138E+00
 -0.562162431126E-01
 -0.471742148759E-01
 -0.866637850142E-01
 -0.866637850142E-01
 -0.866637850341E-01
 -0.866637850341E-01
 -0.866637850424E-01
 -0.866637850424E-01
 -0.866637850427E-01
 -0.866637850427E-01
 -0.866637850282E-01
 -0.866637850282E-01
 -0.866637850406E-01
 -0.866637850406E-01
 -0.866637850267E-01
 -0.866637850266E-01
 -0.866637850364E-01
 -0.866637850364E-01
 -0.866637850432E-01
 -0.866637850432E-01
 -0.866637850315E-01
 -0.866637850315E-01
  0.116357274782E+00
  0.116357274782E+00
  0.116357274803E+00
  0.116357274803E+00
  0.116357274791E+00
  0.116357274791E+00
  0.116357274774E+00
  0.116357274774E+00
  0.116357274798E+00
  0.116357274798E+00
  0.116357274776E+00
  0.116357274776E+00
  0.116357274806E+00
  0.116357274806E+00
  0.116357274783E+00
  0.116357274783E+00
  0.116357274799E+00
  0.116357274799E+00
  0.116357274790E+00
  0.116357274790E+00
  0.116357274782E+00
  0.116357274782E+00
  0.116357274782E+00
  0.116357274782E+00
  0.116357274790E+00
  0.116357274790E+00
  0.116357274799E+00
  0.116357274799E+00
  0.116357274783E+00
  0.116357274783E+00
  0.116357274806E+00
  0.116357274806E+00
  0.116357274776E+00
  0.116357274776E+00
  0.116357274798E+00
  0.116357274798E+00
  0.116357274774E+00
  0.116357274774E+00
  0.116357274791E+00
  0.116357274791E+00
  0.116357274803E+00
  0.116357274803E+00
  0.116357274782E+00
  0.116357274782E+00
 -0.866637850315E-01
 -0.866637850315E-01
 -0.866637850432E-01
 -0.866637850432E-01
 -0.866637850364E-01
 -0.866637850364E-01
 -0.866637850266E-01
 -0.866637850267E-01
 -0.866637850406E-01
 -0.866637850406E-01
 -0.866637850282E-01
 -0.866637850282E-01
 -0.866637850427E-01
 -0.866637850427E-01
 -0.866637850424E-01
 -0.866637850424E-01
 -0.866637850341E-01
 -0.866637850341E-01
 -0.866637850142E-01
 -0.866637850142E-01
 -0.123233939560E+00
 -0.115349125870E+00
 -0.561914810418E-01
 -0.562148494600E-01
 -0.866637850142E-01
 -0.866637850142E-01
 -0.866637850341E-01
 -0.866637850341E-01
 -0.866637850424E-01
 -0.866637850424E-01
 -0.866637850427E-01
 -0.866637850427E-01
 -0.866637850282E-01
 -0.866637850282E-01
 -0.866637850406E-01
 -0.866637850406E-01
 -0.866637850266E-01
 -0.866637850267E-01
 -0.866637850364E-01
 -0.866637850364E-01
 -0.866637850432E-01
 -0.866637850432E-01
 -0.866637850315E-01
 -0.866637850315E-01
  0.116357274782E+00
  0.116357274782E+00
  0.116357274803E+00
  0.116357274803E+00
  0.116357274791E+00
  0.116357274791E+00
  0.116357274774E+00
  0.116357274774E+00
  0.116357274798E+00
  0.116357274798E+00
  0.116357274776E+00
  0.116357274776E+00
  0.116357274806E+00
  0.116357274806E+00
  0.116357274783E+00
  0.116357274783E+00
  0.116357274799E+00
  0.116357274799E+00
  0.116357274790E+00
  0.116357274790E+00
  0.116357274782E+00
  0.116357274782E+00
  0.116357274782E+00
  0.116357274782E+00
  0.116357274790E+00
  0.116357274790E+00
  0.116357274799E+00
  0.116357274799E+00
  0.116357274783E+00
  0.116357274783E+00
  0.116357274806E+00
  0.116357274806E+00
  0.116357274776E+00
  0.116357274776E+00
  0.116357274798E+00
  0.116357274798E+00
  0.116357274774E+00
  0.116357274774E+00
  0.116357274791E+00
  0.116357274791E+00
  0.116357274803E+00
  0.116357274803E+00
  0.116357274782E+00
  0.116357274782E+00
 -0.866637850315E-01
 -0.866637850315E-01
 -0.866637850432E-01
 -0.866637850432E-01
 -0.866637850364E-01
 -0.866637850364E-01
 -0.866637850267E-01
 -0.866637850266E-01
 -0.866637850406E-01
 -0.866637850406E-01
 -0.866637850282E-01
 -0.866637850282E-01
 -0.866637850427E-01
 -0.866637850427E-01
 -0.866637850424E-01
 -0.866637850424E-01
 -0.866637850341E-01
 -0.866637850341E-01
 -0.866637850142E-01
 -0.866637850142E-01
 -0.115347933843E+00
 -0.115368669216E+00
 -0.536786588392E-01
 -0.561914810323E-01
 -0.866637850142E-01
 -0.866637850142E-01
 -0.866637850341E-01
 -0.866637850341E-01
 -0.866637850424E-01
 -0.866637850424E-01
 -0.866637850427E-01
 -0.866637850427E-01
 -0.866637850282E-01
 -0.866637850282E-01
 -0.866637850406E-01
 -0.866637850406E-01
 -0.866637850267E-01
 -0.866637850266E-01
 -0.866637850364E-01
 -0.866637850364E-01
 -0.866637850432E-01
 -0.866637850432E-01
 -0.866637850315E-01
 -0.866637850315E-01
  0.116357274782E+00
  0.116357274782E+00
  0.116357274803E+00
  0.116357274803E+00
  0.116357274791E+00
  0.116357274791E+00
  0.116357274774E+00
  0.116357274774E+00
  0.116357274798E+00
  0.116357274798E+00
  0.116357274776E+00
  0.116357274776E+00
  0.116357274806E+00
  0.116357274806E+00
  0.116357274783E+00
  0.116357274783E+00
  0.116357274799E+00
  0.116357274799E+00
  0.116357274790E+00
  0.116357274790E+00
  0.116357274782E+00
  0.116357274782E+00
  0.116357274782E+00
  0.116357274782E+00
  0.116357274790E+00
  0.116357274790E+00
  0.116357274799E+00
  0.116357274799E+00
  0.116357274783E+00
  0.116357274783E+00
  0.116357274806E+00
  0.116357274806E+00
  0.116357274776E+00
  0.116357274776E+00
  0.116357274798E+00
  0.116357274798E+00
  0.116357274774E+00
  0.116357274774E+00
  0.116357274791E+00
  0.116357274791E+00
  0.116357274803E+00
  0.116357274803E+00
  0.116357274782E+00
  0.116357274782E+00
 -0.866637850315E-01
 -0.866637850315E-01
 -0.866637850432E-01
 -0.866637850432E-01
 -0.866637850364E-01
 -0.866637850364E-01
 -0.866637850267E-01
 -0.866637850266E-01
 -0.866637850406E-01
 -0.866637850406E-01
 -0.866637850282E-01
 -0.866637850282E-01
 -0.866637850427E-01
 -0.866637850427E-01
 -0.866637850424E-01
 -0.866637850424E-01
 -0.866637850341E-01
 -0.866637850341E-01
 -0.866637850142E-01
 -0.866637850142E-01
 -0.115368669208E+00
 -0.117587791636E+00
 -0.485788271944E-01
 -0.536785492835E-01
 -0.866637850142E-01
 -0.866637850142E-01
 -0.866637850341E-01
 -0.866637850341E-01
 -0.866637850424E-01
 -0.866637850424E-01
 -0.866637850427E-01
 -0.866637850427E-01
 -0.866637850282E-01
 -0.866637850282E-01
 -0.866637850406E-01
 -0.866637850406E-01
 -0.866637850266E-01
 -0.866637850267E-01
 -0.866637850364E-01
 -0.866637850364E-01
 -0.866637850432E-01
 -0.866637850432E-01
 -0.866637850315E-01
 -0.866637850315E-01
  0.116357274782E+00
  0.116357274782E+00
  0.116357274803E+00
  0.116357274803E+00
  0.116357274791E+00
  0.116357274791E+00
  0.116357274774E+00
  0.116357274774E+00
  0.116357274798E+00
  0.116357274798E+00
  0.116357274776E+00
  0.116357274776E+00
  0.116357274806E+00
  0.116357274806E+00
  0.116357274783E+00
  0.116357274783E+00
  0.116357274799E+00
  0.116357274799E+00
  0.116357274790E+00
  0.116357274790E+00
  0.116357274782E+00
  0.116357274782E+00
  0.116357274782E+00
  0.116357274782E+00
  0.116357274790E+00
  0.116357274790E+00
  0.116357274799E+00
  0.116357274799E+00
  0.116357274783E+00
  0.116357274783E+00
  0.116357274806E+00
  0.116357274806E+00
  0.116357274776E+00
  0.116357274776E+00
  0.116357274798E+00
  0.116357274798E+00
  0.116357274774E+00
  0.116357274774E+00
  0.116357274791E+00
  0.116357274791E+00
  0.116357274803E+00
  0.116357274803E+00
  0.116357274782E+00
  0.116357274782E+00
 -0.866637850315E-01
 -0.866637850315E-01
 -0.866637850432E-01
 -0.866637850432E-01
 -0.866637850364E-01
 -0.866637850364E-01
 -0.866637850266E-01
 -0.866637850266E-01
 -0.866637850406E-01
 -0.866637850406E-01
 -0.866637850282E-01
 -0.866637850282E-01
 -0.866637850427E-01
 -0.866637850427E-01
 -0.866637850424E-01
 -0.866637850424E-01
 -0.866637850341E-01
 -0.866637850341E-01
 -0.866637850142E-01
 -0.866637850142E-01
 -0.117587699107E+00
 -0.122027123683E+00
 -0.462911918622E-01
 -0.485783765602E-01
 -0.866637850142E-01
 -0.866637850142E-01
 -0.866637850341E-01
 -0.866637850341E-01
 -0.866637850424E-01
 -0.866637850424E-01
 -0.866637850427E-01
 -0.866637850427E-01
 -0.866637850282E-01
 -0.866637850282E-01
 -0.866637850406E-01
 -0.866637850406E-01
 -0.866637850266E-01
 -0.866637850266E-01
 -0.866637850364E-01
 -0.866637850364E-01
 -0.866637850432E-01
 -0.866637850432E-01
 -0.866637850315E-01
 -0.866637850315E-01
  0.116357274782E+00
  0.116357274782E+00
  0.116357274803E+00
  0.116357274803E+00
  0.116357274791E+00
  0.116357274791E+00
  0.116357274774E+00
  0.116357274774E+00
  0.116357274798E+00
  0.116357274798E+00
  0.116357274776E+00
  0.116357274776E+00
  0.116357274806E+00
  0.116357274806E+00
  0.116357274783E+00
  0.116357274783E+00
  0.116357274799E+00
  0.116357274799E+00
  0.116357274790E+00
  0.116357274790E+00
  0.116357274782E+00
  0.116357274782E+00
  0.116357274782E+00
  0.116357274782E+00
  0.116357274790E+00
  0.116357274790E+00
  0.116357274799E+00
  0.116357274799E+00
  0.116357274783E+00
  0.116357274783E+00
  0.116357274806E+00
  0.116357274806E+00
  0.116357274776E+00
  0.116357274776E+00
  0.116357274798E+00
  0.116357274798E+00
  0.116357274774E+00
  0.116357274774E+00
  0.116357274791E+00
  0.116357274791E+00
  0.116357274803E+00
  0.116357274803E+00
  0.116357274782E+00
  0.116357274782E+00
 -0.866637850315E-01
 -0.866637850315E-01