# vtk DataFile Version 3.0
TriPan results file. Generated by TriPan, USU AeroLab (c) 2021.
ASCII
DATASET POLYDATA
POINTS                 446 float
  0.190349744366E-05  0.000000000000E+00  0.000000000000E+00
  0.180155439444E-05  0.217527970672E+00  0.000000000000E+00
  0.188619651827E-05  0.448061168194E+00  0.000000000000E+00
  0.195463115218E-05  0.689725637436E+00  0.000000000000E+00
  0.200381935583E-05  0.940178275108E+00  0.000000000000E+00
  0.203146979263E-05  0.119668114185E+01  0.000000000000E+00
  0.203625478170E-05  0.145621216297E+01  0.432309807279E-21
  0.201794494299E-05  0.171560299397E+01  0.000000000000E+00
  0.197742965724E-05  0.197169232368E+01  0.000000000000E+00
  0.191662923716E-05  0.222147774696E+01  0.000000000000E+00
  0.183830664114E-05  0.246225214005E+01  0.000000000000E+00
  0.174581819542E-05  0.269171094894E+01  0.370648277606E-21
  0.164282618113E-05  0.290802383423E+01  0.000000000000E+00
  0.153302818423E-05  0.310986590385E+01  0.000000000000E+00
  0.141992384673E-05  0.329641318321E+01  0.000000000000E+00
  0.130663581474E-05  0.346730756760E+01  0.000000000000E+00
  0.119580047662E-05  0.362259936333E+01  0.000000000000E+00
  0.108952656797E-05  0.376267743111E+01  0.000000000000E+00
  0.989381096661E-06  0.388819599152E+01  0.000000000000E+00
  0.971479789355E-07  0.399999949033E+01 -0.325828402727E-22
  0.341101700422E-01  0.000000000000E+00 -0.298244900752E-02
  0.341101700422E-01  0.000000000000E+00  0.298244900752E-02
  0.341101732645E-01  0.217527970672E+00 -0.298241217554E-02
  0.341101732645E-01  0.217527970672E+00  0.298241217554E-02
  0.341101808994E-01  0.448061168194E+00 -0.298232490813E-02
  0.341101808994E-01  0.448061168194E+00  0.298232490813E-02
  0.341101872069E-01  0.689725637436E+00 -0.298225281343E-02
  0.341101872069E-01  0.689725637436E+00  0.298225281343E-02
  0.341101919096E-01  0.940178275108E+00 -0.298219906190E-02
  0.341101919096E-01  0.940178275108E+00  0.298219906190E-02
  0.341101947895E-01  0.119668114185E+01 -0.298216614364E-02
  0.341101947895E-01  0.119668114185E+01  0.298216614364E-02
  0.341101957088E-01  0.145621216297E+01 -0.298215563625E-02
  0.341101957088E-01  0.145621216297E+01  0.298215563625E-02
  0.341101946228E-01  0.171560299397E+01 -0.298216804932E-02
  0.341101946228E-01  0.171560299397E+01  0.298216804932E-02
  0.341101915849E-01  0.197169232368E+01 -0.298220277328E-02
  0.341101915849E-01  0.197169232368E+01  0.298220277328E-02
  0.341101867408E-01  0.222147774696E+01 -0.298225814118E-02
  0.341101867408E-01  0.222147774696E+01  0.298225814118E-02
  0.341101803147E-01  0.246225214005E+01 -0.298233159154E-02
  0.341101803147E-01  0.246225214005E+01  0.298233159154E-02
  0.341101725883E-01  0.269171094894E+01 -0.298241990475E-02
  0.341101725883E-01  0.269171094894E+01  0.298241990475E-02
  0.341101638765E-01  0.290802383423E+01 -0.298251948086E-02
  0.341101638765E-01  0.290802383423E+01  0.298251948086E-02
  0.341101545033E-01  0.310986590385E+01 -0.298262661791E-02
  0.341101545033E-01  0.310986590385E+01  0.298262661791E-02
  0.341101447801E-01  0.329641318321E+01 -0.298273775438E-02
  0.341101447801E-01  0.329641318321E+01  0.298273775438E-02
  0.341101349893E-01  0.346730756760E+01 -0.298284966302E-02
  0.341101349893E-01  0.346730756760E+01  0.298284966302E-02
  0.341101253729E-01  0.362259936333E+01 -0.298295957907E-02
  0.341101253729E-01  0.362259936333E+01  0.298295957907E-02
  0.341101161271E-01  0.376267743111E+01 -0.298306525965E-02
  0.341101161271E-01  0.376267743111E+01  0.298306525965E-02
  0.341101074006E-01  0.388819599152E+01 -0.298316500328E-02
  0.341101074006E-01  0.388819599152E+01  0.298316500328E-02
  0.341100737472E-01  0.399999986265E+01 -0.298354966883E-02
  0.341100737472E-01  0.399999986265E+01  0.298354966883E-02
  0.341100436987E-01  0.400210926234E+01 -0.210953759438E-02
  0.341100436987E-01  0.400210926234E+01  0.210953759438E-02
  0.341100370391E-01  0.400298377669E+01 -0.122196032094E-22
  0.937239372188E-01  0.000000000000E+00 -0.819781594942E-02
  0.937239372188E-01  0.000000000000E+00  0.819781594942E-02
  0.937239391905E-01  0.217527970672E+00 -0.819779341279E-02
  0.937239391905E-01  0.217527970672E+00  0.819779341279E-02
  0.937239466997E-01  0.448061168194E+00 -0.819770758223E-02
  0.937239466997E-01  0.448061168194E+00  0.819770758223E-02
  0.937239529129E-01  0.689725637436E+00 -0.819763656592E-02
  0.937239529129E-01  0.689725637436E+00  0.819763656592E-02
  0.937239575511E-01  0.940178275108E+00 -0.819758355120E-02
  0.937239575511E-01  0.940178275108E+00  0.819758355120E-02
  0.937239603954E-01  0.119668114185E+01 -0.819755104039E-02
  0.937239603954E-01  0.119668114185E+01  0.819755104039E-02
  0.937239613072E-01  0.145621216297E+01 -0.819754061826E-02
  0.937239613072E-01  0.145621216297E+01  0.819754061826E-02
  0.937239602418E-01  0.171560299397E+01 -0.819755279622E-02
  0.937239602418E-01  0.171560299397E+01  0.819755279622E-02
  0.937239572527E-01  0.197169232368E+01 -0.819758696122E-02
  0.937239572527E-01  0.197169232368E+01  0.819758696122E-02
  0.937239524866E-01  0.222147774696E+01 -0.819764143773E-02
  0.937239524866E-01  0.222147774696E+01  0.819764143773E-02
  0.937239461688E-01  0.246225214005E+01 -0.819771365102E-02
  0.937239461688E-01  0.246225214005E+01  0.819771365102E-02
  0.937239385823E-01  0.269171094894E+01 -0.819780036452E-02
  0.937239385823E-01  0.269171094894E+01  0.819780036452E-02
  0.937239300440E-01  0.290802383423E+01 -0.819789795872E-02
  0.937239300440E-01  0.290802383423E+01  0.819789795872E-02
  0.937239208793E-01  0.310986590385E+01 -0.819800271149E-02
  0.937239208793E-01  0.310986590385E+01  0.819800271149E-02
  0.937239114015E-01  0.329641318321E+01 -0.819811104320E-02
  0.937239114015E-01  0.329641318321E+01  0.819811104320E-02
  0.937239018940E-01  0.346730756760E+01 -0.819821971403E-02
  0.937239018940E-01  0.346730756760E+01  0.819821971403E-02
  0.937238925990E-01  0.362259936333E+01 -0.819832595654E-02
  0.937238925990E-01  0.362259936333E+01  0.819832595654E-02
  0.937238837116E-01  0.376267743111E+01 -0.819842754027E-02
  0.937238837116E-01  0.376267743111E+01  0.819842754027E-02
  0.937238753778E-01  0.388819599152E+01 -0.819852279555E-02
  0.937238753778E-01  0.388819599152E+01  0.819852279555E-02
  0.937238447620E-01  0.399999982191E+01 -0.819887273523E-02
  0.937238447620E-01  0.399999982191E+01  0.819887273523E-02
  0.937238187329E-01  0.400579648713E+01 -0.579655186704E-02
  0.937238187329E-01  0.400579648713E+01  0.579655186704E-02
  0.937238127474E-01  0.400819916324E+01 -0.531059685571E-23
  0.190432515049E+00  0.000000000000E+00 -0.166584976144E-01
  0.190432515049E+00  0.000000000000E+00  0.166584976144E-01
  0.190432515623E+00  0.217527970672E+00 -0.166584910535E-01
  0.190432515623E+00  0.217527970672E+00  0.166584910535E-01
  0.190432522917E+00  0.448061168194E+00 -0.166584076910E-01
  0.190432522917E+00  0.448061168194E+00  0.166584076910E-01
  0.190432528965E+00  0.689725637436E+00 -0.166583385577E-01
  0.190432528965E+00  0.689725637436E+00  0.166583385577E-01
  0.190432533488E+00  0.940178275108E+00 -0.166582868539E-01
  0.190432533488E+00  0.940178275108E+00  0.166582868539E-01
  0.190432536267E+00  0.119668114185E+01 -0.166582550931E-01
  0.190432536267E+00  0.119668114185E+01  0.166582550931E-01
  0.190432537162E+00  0.145621216297E+01 -0.166582448678E-01
  0.190432537162E+00  0.145621216297E+01  0.166582448678E-01
  0.190432536127E+00  0.171560299397E+01 -0.166582566924E-01
  0.190432536127E+00  0.171560299397E+01  0.166582566924E-01
  0.190432533217E+00  0.197169232368E+01 -0.166582899521E-01
  0.190432533217E+00  0.197169232368E+01  0.166582899521E-01
  0.190432528579E+00  0.222147774696E+01 -0.166583429656E-01
  0.190432528579E+00  0.222147774696E+01  0.166583429656E-01
  0.190432522439E+00  0.246225214005E+01 -0.166584131493E-01
  0.190432522439E+00  0.246225214005E+01  0.166584131493E-01
  0.190432515080E+00  0.269171094894E+01 -0.166584972583E-01
  0.190432515080E+00  0.269171094894E+01  0.166584972583E-01
  0.190432506821E+00  0.290802383423E+01 -0.166585916677E-01
  0.190432506821E+00  0.290802383423E+01  0.166585916677E-01
  0.190432497985E+00  0.310986590385E+01 -0.166586926582E-01
  0.190432497985E+00  0.310986590385E+01  0.166586926582E-01
  0.190432488886E+00  0.329641318321E+01 -0.166587966664E-01
  0.190432488886E+00  0.329641318321E+01  0.166587966664E-01
  0.190432479802E+00  0.346730756760E+01 -0.166589004874E-01
  0.190432479802E+00  0.346730756760E+01  0.166589004874E-01
  0.190432470973E+00  0.362259936333E+01 -0.166590014131E-01
  0.190432470973E+00  0.362259936333E+01  0.166590014131E-01
  0.190432462584E+00  0.376267743111E+01 -0.166590972994E-01
  0.190432462584E+00  0.376267743111E+01  0.166590972994E-01
  0.190432454772E+00  0.388819599152E+01 -0.166591865905E-01
  0.190432454772E+00  0.388819599152E+01  0.166591865905E-01
  0.190432426971E+00  0.399999976796E+01 -0.166595043537E-01
  0.190432426971E+00  0.399999976796E+01  0.166595043537E-01
  0.190432405032E+00  0.401177770772E+01 -0.117779154044E-01
  0.190432405032E+00  0.401177770772E+01  0.117779154044E-01
  0.190432398107E+00  0.401665985477E+01 -0.272412558306E-17
  0.329832195175E+00  0.000000000000E+00 -0.288541863447E-01
  0.329832195175E+00  0.000000000000E+00  0.288541863447E-01
  0.329832196040E+00  0.217527970672E+00 -0.288541764567E-01
  0.329832196040E+00  0.217527970672E+00  0.288541764567E-01
  0.329832203100E+00  0.448061168194E+00 -0.288540957614E-01
  0.329832203100E+00  0.448061168194E+00  0.288540957614E-01
  0.329832208967E+00  0.689725637436E+00 -0.288540287094E-01
  0.329832208967E+00  0.689725637436E+00  0.288540287094E-01
  0.329832213360E+00  0.940178275108E+00 -0.288539784943E-01
  0.329832213360E+00  0.940178275108E+00  0.288539784943E-01
  0.329832216060E+00  0.119668114185E+01 -0.288539476290E-01
  0.329832216060E+00  0.119668114185E+01  0.288539476290E-01
[...]
POINT_DATA                 446
SCALARS phi float 1
LOOKUP_TABLE default
 -0.286895987383E-16
  0.144497292933E-14
 -0.118300677567E-14
  0.171719396129E-15
  0.366903028318E-15
 -0.121186246733E-14
 -0.321489021861E-14
 -0.358110074155E-14
  0.483211597948E-14
  0.201317380228E-14
  0.155035358558E-14
  0.308600367216E-15
  0.444014710212E-14
 -0.103106374885E-13
 -0.432188993894E-14
 -0.599148392756E-14
  0.905229612222E-14
 -0.541441820502E-14
  0.721790603962E-15
 -0.402921339657E-12
 -0.425882744869E-13
  0.829716883307E-14
  0.359210342135E-13
  0.146309017419E-14
 -0.168996625504E-14
  0.324120884212E-14
 -0.664306798589E-13
  0.215527194616E-14
  0.245493865037E-13
 -0.144078271449E-14
  0.137168081797E-12
 -0.167072844275E-14
  0.152020052362E-13
  0.413530971619E-14
 -0.353805797593E-13
 -0.292579410135E-14
  0.165496847997E-12
  0.142447563619E-13
 -0.206218370288E-13
  0.501230730098E-14
 -0.249256588676E-13
 -0.150730122828E-13
 -0.326571858748E-13
 -0.135285229200E-12
  0.797856043928E-13
  0.208082588161E-13
 -0.319586208625E-14
  0.279156377376E-13
  0.640181538423E-13
 -0.194077914818E-13
 -0.953580137487E-13
  0.174834410458E-13
 -0.100901820672E-12
 -0.514909634570E-14
  0.760285660383E-13
 -0.143100033098E-13
  0.196050708762E-12
  0.269518311342E-12
  0.130753465130E-16
  0.119224159714E-16
  0.276639256581E-16
  0.949806622846E-17
  0.250368504907E-16
  0.213470734145E-13
  0.587160528531E-14
  0.395948464987E-13
 -0.155708779204E-13
 -0.390576676904E-12
  0.871657346996E-13
  0.395623204336E-13
  0.386431338317E-14
 -0.640637716487E-13
 -0.782490391926E-14
 -0.118711464270E-13
  0.190433606384E-13
 -0.523877816128E-13
 -0.532612148829E-13
 -0.479928596864E-13
 -0.154468451918E-13
 -0.210814438822E-13
  0.300577705087E-13
 -0.326871776174E-13
  0.180879616840E-13
  0.131410724316E-12
  0.223579835201E-13
 -0.221291518096E-12
 -0.202962646689E-14
  0.484407002357E-12
 -0.903530722463E-14
  0.289825888983E-12
  0.729581325909E-14
 -0.209378955146E-13
 -0.386112582879E-13
 -0.626828233416E-12
  0.150464926976E-12
 -0.104295044823E-12
  0.319601116405E-14
 -0.160305145894E-11
  0.113131943050E-12
  0.207117526255E-12
 -0.816931158137E-13
 -0.108775862666E-12
 -0.387376789717E-12
 -0.331843059975E-12
 -0.148647533085E-12
  0.543551857170E-12
 -0.802309607639E-17
  0.512800522531E-13
  0.896773974524E-13
  0.166792794853E-12
 -0.114916756666E-13
 -0.220032325693E-13
  0.124090841769E-12
  0.177982628635E-13
 -0.975244190959E-13
 -0.245636844198E-14
 -0.568815827773E-14
 -0.249748138836E-13
  0.623182061510E-13
 -0.312423698023E-13
 -0.313036055410E-12
 -0.820593593076E-13
 -0.444600953275E-13
  0.641309921834E-13
  0.729789492726E-13
 -0.243126699329E-12
  0.820795688361E-12
  0.390451559973E-13
  0.148932949307E-12
  0.343231519595E-12
 -0.148734323469E-12
 -0.739833541652E-13
 -0.206926489832E-13
  0.245619496964E-13
  0.667975223745E-12
 -0.881759075477E-12
  0.100638074263E-11
 -0.868211752492E-12
 -0.274755999202E-11
  0.103788505568E-13
 -0.821781878657E-13
 -0.499728557146E-11
 -0.167778724941E-11
 -0.893022635007E-12
  0.269939788838E-11
  0.285995066605E-11
 -0.261741366428E-12
  0.393363727008E-13
  0.988229463539E-12
  0.809870573382E-11
  0.158491102187E-11
  0.146835668624E-11
 -0.116920362281E-14
  0.346962042430E-12
 -0.104776604060E-11
 -0.327859961402E-11
  0.810098516046E-13
 -0.462976705584E-11
  0.791429421998E-12
  0.777431938270E-12
  0.433819646872E-13
 -0.137695410629E-12
  0.188301457760E-11
 -0.353876650205E-12
 -0.446837011836E-12
  0.222290762186E-11
 -0.517655363019E-12
  0.638690489385E-13
 -0.236346185678E-11
 -0.213676298877E-12
  0.596050986346E-13
 -0.173633156464E-11
  0.252870641093E-13
  0.221781273901E-11
  0.378779646537E-11
  0.991637327807E-13
 -0.149190729215E-11
 -0.196377636374E-12
 -0.830863156054E-13
 -0.395726854063E-11
  0.185580717460E-13
  0.178864562050E-11
 -0.275435924069E-12
 -0.101654795692E-11
 -0.329108268415E-12
 -0.408508947156E-13
  0.542315953429E-11
  0.180441035377E-11
 -0.885076300444E-12
 -0.560568952368E-12
 -0.127447401591E-11
  0.801366785430E-12
  0.260220664461E-12
  0.609191516676E-12
 -0.106720188242E-12
 -0.158900670399E-14
  0.259930965640E-12
  0.847030778850E-13
  0.428684865383E-13
  0.135176592142E-12
  0.317974813147E-12
  0.125663368600E-12
  0.148756007512E-12
 -0.267966204781E-12
 -0.356152607406E-12
 -0.659534926672E-12
  0.264517574511E-12
  0.388342136226E-12
 -0.288528229087E-11
  0.117708620628E-11
  0.254241072639E-13
 -0.763972218820E-14
 -0.520833376427E-13
  0.238420394538E-13
  0.143274281328E-12
  0.155424284554E-12
 -0.437351543869E-12
  0.136973765663E-13
 -0.230433033765E-11
 -0.328403970684E-12
 -0.347465112238E-12
  0.117444248771E-11
 -0.349672374389E-11
 -0.253819187890E-11
 -0.786103127037E-11
 -0.954847312329E-12
  0.153234369638E-11
 -0.244769482460E-11
  0.780134463974E-11
 -0.469580797857E-11
 -0.131374772172E-11
 -0.526316403654E-11
 -0.838858496555E-12
 -0.565299543287E-12
 -0.547967921039E-12
  0.920478970823E-13
  0.144260298152E-11
  0.338832434332E-11
  0.246331427478E-11
 -0.267008637422E-13
 -0.180411241502E-15
 -0.149573409214E-11
 -0.246504205936E-12
  0.106203240646E-11
 -0.131978455942E-11
 -0.222745433209E-12
 -0.115851772620E-12
 -0.639627240062E-13
 -0.103255598516E-11
 -0.102298725047E-11
  0.562216939670E-12
  0.290455159924E-12
  0.234860741966E-12
 -0.200061495148E-11
 -0.170554542711E-11
 -0.284614692925E-11
  0.108860837011E-11
 -0.116993220667E-11
 -0.176338110780E-11
  0.422419044188E-11
  0.728491572621E-11
 -0.561000551569E-11
 -0.406887717963E-11
 -0.173564634887E-11
 -0.182192455567E-11
 -0.782002240740E-11
 -0.128402150024E-11
 -0.771824826273E-10
  0.336856653682E-10
 -0.382215925576E-10
 -0.261603655405E-10
  0.117920256892E-11
 -0.304539032880E-11
  0.245531503115E-11
  0.321932931702E-11
  0.326026185216E-11
 -0.254261021959E-11
  0.805030955092E-12
 -0.118655085757E-13
  0.272538935864E-11
 -0.291600771307E-11
 -0.686679879625E-12
  0.110382536445E-11
 -0.203492778184E-11
 -0.192254545617E-11
  0.179622289265E-11
  0.136373898285E-10
  0.126201826767E-11
  0.256093757312E-12
  0.123299287447E-11
 -0.174479874993E-11
 -0.219495949194E-11
 -0.609703953991E-11
  0.105615932666E-10
  0.224641832913E-11
  0.149022461038E-11
 -0.924227361310E-11
  0.409902667364E-11
 -0.321764836997E-11
  0.128950322642E-11
 -0.351192686043E-11
  0.219174678406E-11
 -0.131759880784E-11
 -0.245990727787E-12
 -0.599242877541E-11
  0.381378956194E-11
  0.134322414302E-11
  0.127022004026E-11
 -0.311103920403E-11
 -0.292962182291E-11
 -0.264019847651E-10
 -0.177728665118E-10
  0.128490551532E-10
  0.757821583264E-11
  0.208474626451E-10
 -0.724034721067E-11
  0.280133555242E-11
 -0.821880757895E-12
 -0.125858108657E-10
 -0.248213949394E-11
 -0.343651149204E-11
  0.316145026824E-11
  0.142491574096E-11
  0.120354767819E-11
  0.224698731843E-12
  0.204149197547E-12
 -0.549303658115E-12
 -0.488942220045E-11
 -0.101516017814E-12
  0.439093206239E-12
 -0.112682085884E-11
 -0.518571297015E-12
 -0.196842542266E-12
 -0.125965904374E-11
 -0.105132569317E-11
 -0.567490499037E-12
  0.104798114631E-11
  0.406882860737E-12
  0.138565547925E-11
  0.219435580817E-12
  0.442701431069E-13
 -0.337915806448E-11
 -0.160253754711E-12
  0.153270798831E-11
 -0.464100285980E-11
 -0.467488461137E-11
 -0.947542305035E-11
  0.345966658100E-11
  0.886582474102E-13
 -0.229687987380E-10
 -0.278810811244E-10
 -0.102040931260E-09
 -0.102733488383E-09
  0.265999999804E-10
  0.423906743041E-10
  0.487470341870E-10
 -0.285825807467E-10
 -0.532321409175E-11
  0.503527775031E-11
 -0.147210924006E-10
 -0.130626620631E-10
 -0.180049725129E-10
  0.396236515821E-11
 -0.314265627410E-11
 -0.242791897698E-12
  0.658917365115E-13
  0.449314196960E-12
  0.863746574264E-12
 -0.373828572264E-12
 -0.408883864267E-12
  0.124677698721E-11
  0.786044840329E-12
 -0.220394882899E-12
  0.257897869727E-12
  0.566248437028E-13
 -0.594350957339E-13
  0.827449220253E-12
  0.942336486620E-12
  0.417846313105E-12
  0.333884309089E-11
 -0.428104079964E-11
 -0.306637701342E-11
 -0.192452997982E-11
  0.869096461464E-13
 -0.929635708691E-12
 -0.239552475079E-11
  0.503477988467E-11
  0.108380630859E-10
 -0.419423870635E-11
 -0.300994298930E-11
 -0.748609854662E-11
 -0.573892322553E-11
  0.223353974205E-11
 -0.154658924556E-11
  0.238264963315E-11
  0.131344934928E-10
 -0.268238209422E-10
  0.389532572864E-10
 -0.232935060129E-10
  0.206419048521E-10
  0.192909022090E-10
  0.157988344629E-10
 -0.452553966523E-11
 -0.160575441832E-10
  0.198337596347E-10
 -0.655522858217E-11
 -0.936283203745E-10
  0.535071986718E-12
  0.257897869727E-12
  0.324244103789E-12
 -0.179297549030E-12
 -0.228622676346E-12
 -0.376400299817E-13
  0.341726646980E-12
  0.186230544874E-11
 -0.129746734190E-11
  0.187611731706E-11
 -0.321262287606E-11
  0.724673793195E-11
  0.628777585554E-11
  0.804230813889E-13
  0.508677301669E-13
  0.483396656037E-11
  0.247566689371E-10
 -0.152597379177E-10
  0.126278376644E-09
 -0.240597819445E-11
  0.392200161237E-12
 -0.111388676061E-11
 -0.873624089737E-13
 -0.150893186834E-12
 -0.120618792732E-12
 -0.852200254808E-13
  0.268108452106E-12
  0.507477740386E-12
 -0.545057055046E-12
  0.468337174597E-12
 -0.262716584598E-11
  0.134163166687E-11
  0.109861911235E-10
  0.158931028060E-12
 -0.223111459863E-13
  0.420552481728E-12
  0.175546521763E-10
 -0.499125185627E-10
 -0.312390113777E-10
SCALARS phi_mu float 1
LOOKUP_TABLE default
 -0.294391247491E-13
 -0.515976150695E-13
 -0.593136650906E-13
 -0.622418783180E-13
 -0.652186638028E-13
 -0.686152523688E-13
 -0.709363123796E-13
 -0.700949714938E-13
 -0.590465176753E-13
 -0.580091530367E-13
 -0.536792832406E-13
 -0.495159468983E-13
 -0.396904731303E-13
 -0.391115091702E-13
 -0.290366689026E-13
 -0.269248599111E-13
 -0.848370698152E-14
 -0.199740397833E-13
 -0.728215231172E-14
 -0.402947115372E-12
 -0.568467165658E-04
 -0.381053002582E-04
 -0.474493226156E-04
 -0.381055252141E-04
 -0.474292464473E-04
 -0.381044215304E-04
 -0.474126405824E-04
 -0.381035095082E-04
 -0.474007147351E-04
 -0.381028293917E-04
 -0.473943958258E-04
 -0.381024127652E-04
 -0.473941924224E-04
 -0.381022796303E-04
 -0.474001147656E-04
 -0.381024364579E-04
 -0.474116754685E-04
 -0.381028754638E-04
 -0.474279653254E-04
 -0.381035755318E-04
 -0.474477866345E-04
 -0.381045041148E-04
 -0.474698161967E-04
 -0.381056203896E-04
 -0.379651280576E-04
 -0.285792429476E-04
 -0.284595450441E-04
 -0.190522815364E-04
 -0.284804568315E-04
 -0.190529790828E-04
 -0.284996173392E-04
 -0.190536793647E-04
 -0.285166685219E-04
 -0.190543642953E-04
 -0.190021037502E-04
 -0.952565406135E-05
 -0.190143630193E-04
 -0.952594917257E-05
  0.244753683835E-08
  0.149790264318E-08
  0.225662998253E-08
  0.121871126498E-08
  0.124748288435E-08
  0.128869532617E-02
  0.108539406880E-02
 -0.169439162755E-02
 -0.169584306973E-02
 -0.177009753496E-02
 -0.177169034242E-02
 -0.190453020237E-02
 -0.190623993511E-02
 -0.195107421807E-02
 -0.195286767913E-02
 -0.197955773914E-02
 -0.198139503145E-02
 -0.198863196441E-02
 -0.199046954029E-02
 -0.197785941449E-02
 -0.197965370693E-02
 -0.194775794936E-02
 -0.194946899740E-02
 -0.189974813411E-02
 -0.190134264747E-02
 -0.183601414305E-02
 -0.183746756301E-02
 -0.168734574278E-02
 -0.168864311265E-02
 -0.160072283207E-02
 -0.160185850079E-02
 -0.150734464952E-02
 -0.150832106548E-02
 -0.141024288027E-02
 -0.141106882214E-02
 -0.131216049975E-02
 -0.131284908620E-02
 -0.121544229417E-02
 -0.121600908267E-02
 -0.112239412157E-02
 -0.112243729607E-02
 -0.103354903417E-02
 -0.103358521122E-02
 -0.214476494850E-03
 -0.214573584370E-03
 -0.319364001366E-03
 -0.321866782843E-03
 -0.345897853601E-03
 -0.251041732967E-03
 -0.743498930645E-03
 -0.419992684783E-02
 -0.420621298523E-02
 -0.431390530237E-02
 -0.432077915908E-02
 -0.440796830816E-02
 -0.441532772899E-02
 -0.447805130085E-02
 -0.448575818702E-02
 -0.452095936960E-02
 -0.452884807958E-02
 -0.453466478844E-02
 -0.454255466502E-02
 -0.451850681605E-02
 -0.452621712111E-02
 -0.447325819643E-02
 -0.448062302163E-02
 -0.440104712867E-02
 -0.440792798209E-02
 -0.430514979455E-02
 -0.431144402629E-02
 -0.419474819923E-02
 -0.419517547036E-02
 -0.406369986692E-02
 -0.406408531639E-02
 -0.392245308457E-02
 -0.392279247489E-02
 -0.407269485867E-02
 -0.407298443726E-02
 -0.422211095477E-02
 -0.422160800968E-02
 -0.407587469595E-02
 -0.407531616783E-02
 -0.423169090432E-02
 -0.393285789877E-02
 -0.732689884506E-02
 -0.702965569443E-02
 -0.919684120134E-03
 -0.620375636332E-03
 -0.119761487392E-02
 -0.979640850304E-03
 -0.108608795180E-02
 -0.926720409552E-02
 -0.105778287172E-01
 -0.152103712135E-01
 -0.152116196057E-01
 -0.153575704024E-01
 -0.153589848094E-01
 -0.154790432417E-01
 -0.154805926419E-01
 -0.155695233571E-01
 -0.155711746469E-01
 -0.156248728654E-01
 -0.156265898036E-01
 -0.147511854293E-01
 -0.147529286861E-01
 -0.156214657026E-01
 -0.156231937471E-01
 -0.155628742095E-01
 -0.155645444992E-01
 -0.154694643288E-01
 -0.154710343336E-01
 -0.153454904322E-01
 -0.153469179207E-01
 -0.151962975668E-01
 -0.151975395707E-01
 -0.158932953764E-01
 -0.159116595772E-01
 -0.247640168876E-01
 -0.247787682210E-01
 -0.314657192571E-01
 -0.314796140388E-01
 -0.261577913349E-01
 -0.261702759737E-01
 -0.218977660692E-01
 -0.219293309951E-01
 -0.187011114337E-01
 -0.187557091461E-01
 -0.857867625813E-03
  0.123078126675E-02
 -0.364650546664E-02
 -0.357466622399E-02
 -0.262320454419E-02
 -0.309476632688E-02
 -0.619561021995E-02
  0.144045994964E-01
 -0.112919708886E-01
 -0.389551579823E-01
 -0.438445916848E-01
 -0.544933461594E-01
 -0.529035306371E-01
 -0.534149424501E-01
 -0.534551017686E-01
 -0.547765591975E-01
 -0.548276606330E-01
 -0.557112704886E-01
 -0.557727282087E-01
 -0.560098996434E-01
 -0.560779014901E-01
 -0.555932478115E-01
 -0.556595574577E-01
 -0.545854497494E-01
 -0.546436607901E-01
 -0.531929598995E-01
 -0.532413593414E-01
 -0.543100696640E-01
 -0.536888339149E-01
 -0.468511442978E-01
 -0.453484040368E-01
 -0.418868173469E-01
 -0.420060580393E-01
 -0.402296869483E-01
 -0.403009229830E-01
 -0.432903523373E-01
 -0.425464417785E-01
 -0.445890397121E-01
 -0.452559226918E-01
 -0.455930909745E-01
 -0.458022766164E-01
 -0.849527375402E-01
 -0.879305181745E-01
  0.109082873928E-01
  0.951855472149E-02
 -0.559697696724E-02
 -0.774403718076E-02
 -0.153750294480E-01
 -0.153593434035E-01
 -0.160219547193E-01
 -0.381391282933E-02
 -0.200983404041E-01
 -0.461823150487E-01
 -0.495934710076E-01
 -0.475791597734E-01
 -0.477697699415E-01
 -0.470327345819E-01
 -0.472314088104E-01
 -0.454228381556E-01
 -0.458946119270E-01
 -0.438758669048E-01
 -0.443756778660E-01
 -0.437627395582E-01
 -0.442791088295E-01
 -0.435388674468E-01
 -0.440507045230E-01
 -0.432299684891E-01
 -0.437189310069E-01
 -0.446555724746E-01
 -0.451149907417E-01
 -0.500759653335E-01
 -0.505097352642E-01
 -0.506063352129E-01
 -0.510365308503E-01
 -0.629804433076E-01
 -0.616022215325E-01
 -0.623523732837E-01
 -0.621312728275E-01
 -0.529268541409E-01
 -0.544529150989E-01
 -0.478591290344E-01
 -0.483880457444E-01
 -0.272628740706E+00
 -0.270934664170E+00
  0.659573690419E-01
  0.681346477995E-01
  0.480028712990E-01
  0.501324605110E-01
  0.362892062389E-02
  0.175988305737E-02
  0.419599558966E-02
  0.528892538673E-02
  0.158384305596E-02
  0.691513338533E-01
  0.475019523571E-01
 -0.299264663173E-01
 -0.331739036803E-01
 -0.701873539540E-01
 -0.736217943975E-01
 -0.530879751486E-01
 -0.537596897925E-01
 -0.451379334475E-01
 -0.437339408018E-01
 -0.457673145453E-01
 -0.442527204299E-01
 -0.463141451161E-01
 -0.448046453567E-01
 -0.461291698058E-01
 -0.446147831120E-01
 -0.451926735517E-01
 -0.436682035884E-01
 -0.489052308475E-01
 -0.475578744060E-01
 -0.580464691482E-01
 -0.608494213797E-01
 -0.663906864567E-01
 -0.691167446075E-01
 -0.567747626445E-01
 -0.592002971069E-01
 -0.568675791034E-01
 -0.584286053961E-01
 -0.525515350879E-01
 -0.530928594997E-01
 -0.275152751054E-01
 -0.284366301320E-01
  0.233198133706E-01
  0.195151959401E-01
  0.167742206548E+00
  0.167698989097E+00
  0.126277670240E+00
  0.125925774440E+00
  0.266779354149E-01
  0.259291773462E-01
  0.244041416269E-01
  0.244476371408E-01
  0.243267209366E-01
  0.614962538545E-01
  0.536275467678E-01
  0.155441960558E-01
  0.162519823756E-01
 -0.321259778552E-01
 -0.334358878473E-01
 -0.803068840584E-01
 -0.804895940582E-01
 -0.925358134113E-01
 -0.925761413882E-01
 -0.103161707659E+00
 -0.103344007269E+00
 -0.116706602550E+00
 -0.117416007886E+00
 -0.114936673189E+00
 -0.115631681905E+00
 -0.898647297385E-01
 -0.900162234513E-01
 -0.921640728507E-01
 -0.921281432579E-01
 -0.479823968170E-01
 -0.459490864697E-01
 -0.221049131201E-01
 -0.239038154973E-01
 -0.763028439724E-02
 -0.741505212227E-02
 -0.280688388300E-01
 -0.282053307710E-01
 -0.108402188766E-01
 -0.102874624009E-01
 -0.413897400828E+00
 -0.413223223792E+00
  0.181849043917E+00
  0.182380979411E+00
  0.203539844165E+00
  0.204878944367E+00
  0.134229226996E+00
  0.135689544026E+00
  0.332309935513E-01
  0.325618886042E-01
  0.307745306910E-01
  0.323405895992E-01
  0.294510159977E-01
  0.684725836856E-01
  0.657808815143E-01
  0.346676963528E-01
  0.345896934262E-01
 -0.524032368584E-02
 -0.594283573061E-02
 -0.248389968676E-01
 -0.248473012946E-01
 -0.771971907300E-02
 -0.788648040619E-02
 -0.241417512111E-01
 -0.242227323187E-01
 -0.242468438526E-01
 -0.243270283049E-01
 -0.324639470976E-01
 -0.325217318627E-01
 -0.221042528764E-01
 -0.221401367378E-01
 -0.503137414150E-01
 -0.507575213302E-01
 -0.666075527475E-02
 -0.651926681255E-02
 -0.126992082222E-01
 -0.126867422682E-01
 -0.137457740626E-01
 -0.137087805310E-01
 -0.213546327389E-01
 -0.213716620171E-01
 -0.233078716756E-01
 -0.233097442529E-01
 -0.429415320743E+00
 -0.429319223126E+00
  0.206263085339E+00
  0.205860743252E+00
  0.220256147952E+00
  0.224375044881E+00
  0.147694350725E+00
  0.147694128970E+00
  0.460382174726E-01
  0.463349293644E-01
  0.490256419211E-01
  0.492343351149E-01
  0.487411892423E-01
  0.495989862762E-01
  0.374340313340E-01
  0.156113962309E-01
 -0.281869423134E-01
 -0.173223648431E-01
 -0.128850888895E-01
 -0.115628245870E-01
 -0.116665562269E-01
 -0.119841899822E-01
 -0.231874792246E-01
 -0.996087472528E-02
 -0.214286155273E-01
 -0.365837729897E-01
  0.960894023070E-03
 -0.325095444456E-02
 -0.467968711083E+00
  0.657056177684E-01
  0.374330680535E+00
  0.160217365218E+00
  0.617061966663E-01
  0.495989233470E-01
  0.374340174747E-01
  0.156113747429E-01
 -0.281868765115E-01
 -0.173223675411E-01
 -0.128850841845E-01
 -0.115628286174E-01
 -0.116665600622E-01
 -0.119841774535E-01
 -0.231874837512E-01
 -0.996086876890E-02
 -0.214286194246E-01
 -0.365837818072E-01
  0.960891483908E-03
 -0.325096014721E-02
 -0.467968710921E+00
  0.657056179678E-01
  0.374330694150E+00
  0.160217370288E+00
SCALARS phi_sigma float 1
LOOKUP_TABLE default
  0.294104351503E-13
  0.530425879988E-13
  0.581306583149E-13
  0.624135977142E-13
  0.655855668311E-13
  0.674033899015E-13
  0.677214221610E-13
  0.665138707522E-13
  0.638786336548E-13
  0.600223268389E-13
  0.552296368262E-13
  0.498245472655E-13
  0.441306202325E-13
  0.288008716817E-13
  0.247147789637E-13
  0.209333759835E-13
  0.175360031037E-13
  0.145596215782E-13
  0.800394291568E-14
  0.257757147341E-16
  0.568467165232E-04
  0.381053002665E-04
  0.474493226516E-04
  0.381055252156E-04
  0.474292464456E-04
  0.381044215336E-04
  0.474126405160E-04
  0.381035095104E-04
  0.474007147596E-04
  0.381028293903E-04
  0.473943959630E-04
  0.381024127636E-04
  0.473941924376E-04
  0.381022796344E-04
  0.474001147303E-04
  0.381024364550E-04
  0.474116756340E-04
  0.381028754781E-04
  0.474279653048E-04
  0.381035755368E-04
  0.474477866095E-04
  0.381045040997E-04
  0.474698161641E-04
  0.381056202543E-04
  0.379651281374E-04
  0.285792429684E-04
  0.284595450409E-04
  0.190522815644E-04
  0.284804568955E-04
  0.190529790634E-04
  0.284996172438E-04
  0.190536793822E-04