# vtk DataFile Version 3.0
MachLine results file. Generated by MachLine, USU AeroLab (c) 2022.
ASCII
DATASET POLYDATA
POINTS                1127 float
  0.999999041957E+00  0.000000000000E+00 -0.417491494650E-07
  0.973034383663E+00  0.105263157890E+00 -0.235825883963E-02
  0.999999119618E+00  0.105263157890E+00 -0.383648804671E-07
  0.973034382832E+00  0.000000000000E+00 -0.235824933777E-02
  0.929717675664E+00  0.105263157890E+00 -0.614787723533E-02
  0.929717673943E+00  0.000000000000E+00 -0.614785756087E-02
  0.863184699151E+00  0.105263157890E+00 -0.119686097007E-01
  0.863184696324E+00  0.000000000000E+00 -0.119685773901E-01
  0.767714125425E+00  0.105263157890E+00 -0.203210244768E-01
  0.767714122072E+00  0.000000000000E+00 -0.203209861486E-01
  0.643290413741E+00  0.105263157890E+00 -0.312065343397E-01
  0.643290411360E+00  0.000000000000E+00 -0.312065071268E-01
  0.500000000000E+00  0.105263157890E+00 -0.437427648440E-01
  0.500000000000E+00  0.000000000000E+00 -0.437429617072E-01
  0.356709588640E+00  0.000000000000E+00 -0.312065071268E-01
  0.356709586259E+00  0.105263157890E+00 -0.312065343397E-01
  0.232285877928E+00  0.000000000000E+00 -0.203209861486E-01
  0.232285874575E+00  0.105263157890E+00 -0.203210244768E-01
  0.136815303676E+00  0.000000000000E+00 -0.119685773901E-01
  0.136815300849E+00  0.105263157890E+00 -0.119686097007E-01
  0.702823260562E-01  0.000000000000E+00 -0.614785756087E-02
  0.702823243349E-01  0.105263157890E+00 -0.614787723533E-02
  0.269656171711E-01  0.000000000000E+00 -0.235824933777E-02
  0.269656163398E-01  0.105263157890E+00 -0.235825883963E-02
  0.961695078561E-06  0.000000000000E+00  0.000000000000E+00
  0.883738164913E-06  0.105263157890E+00  0.000000000000E+00
  0.269656163398E-01  0.105263157890E+00  0.235825883963E-02
  0.269656171711E-01  0.000000000000E+00  0.235824933777E-02
  0.702823243349E-01  0.105263157890E+00  0.614787723533E-02
  0.702823260562E-01  0.000000000000E+00  0.614785756087E-02
  0.136815300849E+00  0.105263157890E+00  0.119686097007E-01
  0.136815303676E+00  0.000000000000E+00  0.119685773901E-01
  0.232285874575E+00  0.105263157890E+00  0.203210244768E-01
  0.232285877928E+00  0.000000000000E+00  0.203209861486E-01
  0.356709586259E+00  0.105263157890E+00  0.312065343397E-01
  0.356709588640E+00  0.000000000000E+00  0.312065071268E-01
  0.500000000000E+00  0.105263157890E+00  0.437427648440E-01
  0.500000000000E+00  0.000000000000E+00  0.437429617072E-01
  0.643290411360E+00  0.000000000000E+00  0.312065071268E-01
  0.643290413741E+00  0.105263157890E+00  0.312065343397E-01
  0.767714122072E+00  0.000000000000E+00  0.203209861486E-01
  0.767714125425E+00  0.105263157890E+00  0.203210244768E-01
  0.863184696324E+00  0.000000000000E+00  0.119685773901E-01
  0.863184699151E+00  0.105263157890E+00  0.119686097007E-01
  0.929717673943E+00  0.000000000000E+00  0.614785756087E-02
  0.929717675664E+00  0.105263157890E+00  0.614787723533E-02
  0.973034382832E+00  0.000000000000E+00  0.235824933777E-02
  0.973034383663E+00  0.105263157890E+00  0.235825883963E-02
  0.973034383663E+00  0.210526315790E+00 -0.235825883963E-02
  0.999999119618E+00  0.210526315790E+00 -0.383648804656E-07
  0.929717675664E+00  0.210526315790E+00 -0.614787723533E-02
  0.863184699151E+00  0.210526315790E+00 -0.119686097007E-01
  0.767714125425E+00  0.210526315790E+00 -0.203210244768E-01
  0.643290413741E+00  0.210526315790E+00 -0.312065343397E-01
  0.500000000000E+00  0.210526315790E+00 -0.437427648440E-01
  0.356709586259E+00  0.210526315790E+00 -0.312065343397E-01
  0.232285874575E+00  0.210526315790E+00 -0.203210244768E-01
  0.136815300849E+00  0.210526315790E+00 -0.119686097007E-01
  0.702823243349E-01  0.210526315790E+00 -0.614787723533E-02
  0.269656163398E-01  0.210526315790E+00 -0.235825883963E-02
  0.883738164878E-06  0.210526315790E+00  0.000000000000E+00
  0.269656163398E-01  0.210526315790E+00  0.235825883963E-02
  0.702823243349E-01  0.210526315790E+00  0.614787723533E-02
  0.136815300849E+00  0.210526315790E+00  0.119686097007E-01
  0.232285874575E+00  0.210526315790E+00  0.203210244768E-01
  0.356709586259E+00  0.210526315790E+00  0.312065343397E-01
  0.500000000000E+00  0.210526315790E+00  0.437427648440E-01
  0.643290413741E+00  0.210526315790E+00  0.312065343397E-01
  0.767714125425E+00  0.210526315790E+00  0.203210244768E-01
  0.863184699151E+00  0.210526315790E+00  0.119686097007E-01
  0.929717675664E+00  0.210526315790E+00  0.614787723533E-02
  0.973034383663E+00  0.210526315790E+00  0.235825883963E-02
  0.973034383663E+00  0.315789473680E+00 -0.235825883963E-02
  0.999999119618E+00  0.315789473680E+00 -0.383648804671E-07
  0.929717675664E+00  0.315789473680E+00 -0.614787723533E-02
  0.863184699151E+00  0.315789473680E+00 -0.119686097007E-01
  0.767714125425E+00  0.315789473680E+00 -0.203210244768E-01
  0.643290413741E+00  0.315789473680E+00 -0.312065343397E-01
  0.500000000000E+00  0.315789473680E+00 -0.437427648440E-01
  0.356709586259E+00  0.315789473680E+00 -0.312065343397E-01
  0.232285874575E+00  0.315789473680E+00 -0.203210244768E-01
  0.136815300849E+00  0.315789473680E+00 -0.119686097007E-01
  0.702823243349E-01  0.315789473680E+00 -0.614787723533E-02
  0.269656163398E-01  0.315789473680E+00 -0.235825883963E-02
  0.883738164913E-06  0.315789473680E+00  0.000000000000E+00
  0.269656163398E-01  0.315789473680E+00  0.235825883963E-02
  0.702823243349E-01  0.315789473680E+00  0.614787723533E-02
  0.136815300849E+00  0.315789473680E+00  0.119686097007E-01
  0.232285874575E+00  0.315789473680E+00  0.203210244768E-01
  0.356709586259E+00  0.315789473680E+00  0.312065343397E-01
  0.500000000000E+00  0.315789473680E+00  0.437427648440E-01
  0.643290413741E+00  0.315789473680E+00  0.312065343397E-01
  0.767714125425E+00  0.315789473680E+00  0.203210244768E-01
  0.863184699151E+00  0.315789473680E+00  0.119686097007E-01
  0.929717675664E+00  0.315789473680E+00  0.614787723533E-02
  0.973034383663E+00  0.315789473680E+00  0.235825883963E-02
  0.973034383663E+00  0.421052631580E+00 -0.235825883963E-02
  0.999999119618E+00  0.421052631580E+00 -0.383648804656E-07
  0.929717675664E+00  0.421052631580E+00 -0.614787723533E-02
  0.863184699151E+00  0.421052631580E+00 -0.119686097007E-01
  0.767714125425E+00  0.421052631580E+00 -0.203210244768E-01
  0.643290413741E+00  0.421052631580E+00 -0.312065343397E-01
  0.500000000000E+00  0.421052631580E+00 -0.437427648440E-01
  0.356709586259E+00  0.421052631580E+00 -0.312065343397E-01
  0.232285874575E+00  0.421052631580E+00 -0.203210244768E-01
  0.136815300849E+00  0.421052631580E+00 -0.119686097007E-01
  0.702823243349E-01  0.421052631580E+00 -0.614787723533E-02
  0.269656163398E-01  0.421052631580E+00 -0.235825883963E-02
  0.883738164878E-06  0.421052631580E+00  0.187623218593E-21
  0.269656163398E-01  0.421052631580E+00  0.235825883963E-02
  0.702823243349E-01  0.421052631580E+00  0.614787723533E-02
  0.136815300849E+00  0.421052631580E+00  0.119686097007E-01
  0.232285874575E+00  0.421052631580E+00  0.203210244768E-01
  0.356709586259E+00  0.421052631580E+00  0.312065343397E-01
  0.500000000000E+00  0.421052631580E+00  0.437427648440E-01
  0.643290413741E+00  0.421052631580E+00  0.312065343397E-01
  0.767714125425E+00  0.421052631580E+00  0.203210244768E-01
  0.863184699151E+00  0.421052631580E+00  0.119686097007E-01
  0.929717675664E+00  0.421052631580E+00  0.614787723533E-02
  0.973034383663E+00  0.421052631580E+00  0.235825883963E-02
  0.973034383663E+00  0.526315789470E+00 -0.235825883963E-02
  0.999999119618E+00  0.526315789470E+00 -0.383648804671E-07
  0.929717675664E+00  0.526315789470E+00 -0.614787723533E-02
  0.863184699151E+00  0.526315789470E+00 -0.119686097007E-01
  0.767714125425E+00  0.526315789470E+00 -0.203210244768E-01
  0.643290413741E+00  0.526315789470E+00 -0.312065343397E-01
  0.500000000000E+00  0.526315789470E+00 -0.437427648440E-01
  0.356709586259E+00  0.526315789470E+00 -0.312065343397E-01
  0.232285874575E+00  0.526315789470E+00 -0.203210244768E-01
  0.136815300849E+00  0.526315789470E+00 -0.119686097007E-01
  0.702823243349E-01  0.526315789470E+00 -0.614787723533E-02
  0.269656163398E-01  0.526315789470E+00 -0.235825883963E-02
  0.883738164913E-06  0.526315789470E+00  0.187623218601E-21
  0.269656163398E-01  0.526315789470E+00  0.235825883963E-02
  0.702823243349E-01  0.526315789470E+00  0.614787723533E-02
  0.136815300849E+00  0.526315789470E+00  0.119686097007E-01
  0.232285874575E+00  0.526315789470E+00  0.203210244768E-01
  0.356709586259E+00  0.526315789470E+00  0.312065343397E-01
  0.500000000000E+00  0.526315789470E+00  0.437427648440E-01
  0.643290413741E+00  0.526315789470E+00  0.312065343397E-01
  0.767714125425E+00  0.526315789470E+00  0.203210244768E-01
  0.863184699151E+00  0.526315789470E+00  0.119686097007E-01
  0.929717675664E+00  0.526315789470E+00  0.614787723533E-02
  0.973034383663E+00  0.526315789470E+00  0.235825883963E-02
  0.973034383663E+00  0.631578947370E+00 -0.235825883963E-02
  0.999999119618E+00  0.631578947370E+00 -0.383648804656E-07
  0.929717675664E+00  0.631578947370E+00 -0.614787723533E-02
  0.863184699151E+00  0.631578947370E+00 -0.119686097007E-01
  0.767714125425E+00  0.631578947370E+00 -0.203210244768E-01
  0.643290413741E+00  0.631578947370E+00 -0.312065343397E-01
  0.500000000000E+00  0.631578947370E+00 -0.437427648440E-01
  0.356709586259E+00  0.631578947370E+00 -0.312065343397E-01
  0.232285874575E+00  0.631578947370E+00 -0.203210244768E-01
  0.136815300849E+00  0.631578947370E+00 -0.119686097007E-01
  0.702823243349E-01  0.631578947370E+00 -0.614787723533E-02
  0.269656163398E-01  0.631578947370E+00 -0.235825883963E-02
  0.883738164878E-06  0.631578947370E+00  0.000000000000E+00
  0.269656163398E-01  0.631578947370E+00  0.235825883963E-02
  0.702823243349E-01  0.631578947370E+00  0.614787723533E-02
  0.136815300849E+00  0.631578947370E+00  0.119686097007E-01
  0.232285874575E+00  0.631578947370E+00  0.203210244768E-01
[...]
POINT_DATA                1127
SCALARS phi float 1
LOOKUP_TABLE default
 -0.131175625028E-17
  0.108420217249E-17
 -0.677024170318E-17
  0.368628738645E-17
  0.173472347598E-16
  0.693889390391E-17
  0.693889390391E-17
 -0.520417042793E-17
 -0.104083408559E-16
  0.121430643318E-16
 -0.138777878078E-16
  0.346944695195E-17
 -0.104083408559E-16
  0.138777878078E-16
  0.000000000000E+00
  0.693889390391E-17
  0.173472347598E-17
  0.000000000000E+00
  0.000000000000E+00
  0.173472347598E-17
  0.867361737988E-18
  0.000000000000E+00
 -0.889045781438E-17
  0.260208521397E-17
  0.000000000000E+00
  0.000000000000E+00
  0.000000000000E+00
  0.216840434497E-18
  0.000000000000E+00
  0.867361737988E-18
  0.173472347598E-17
  0.173472347598E-17
 -0.520417042793E-17
  0.173472347598E-17
 -0.346944695195E-17
 -0.104083408559E-16
 -0.104083408559E-16
  0.242861286637E-16
  0.693889390391E-17
 -0.173472347598E-16
  0.346944695195E-17
 -0.520417042793E-17
  0.000000000000E+00
  0.433680868994E-17
  0.000000000000E+00
 -0.867361737988E-18
  0.607153216592E-17
  0.238524477947E-17
 -0.368628738645E-17
 -0.202724762780E-17
  0.997465998687E-17
 -0.867361737988E-17
 -0.156125112838E-16
 -0.138777878078E-16
 -0.346944695195E-17
  0.693889390391E-17
  0.173472347598E-17
  0.000000000000E+00
 -0.867361737988E-18
  0.477048955894E-17
 -0.198523347013E-22
 -0.216840434497E-18
  0.867361737988E-18
 -0.520417042793E-17
  0.173472347598E-17
 -0.346944695195E-17
  0.346944695195E-16
 -0.693889390391E-17
 -0.173472347598E-17
 -0.173472347598E-17
  0.520417042793E-17
  0.954097911787E-17
 -0.390312782095E-17
 -0.919368237461E-18
 -0.693889390391E-17
  0.138777878078E-16
  0.346944695195E-17
  0.693889390391E-17
  0.173472347598E-16
 -0.208166817117E-16
  0.173472347598E-17
  0.000000000000E+00
  0.000000000000E+00
  0.737257477290E-17
  0.000000000000E+00
  0.000000000000E+00
  0.000000000000E+00
 -0.173472347598E-17
  0.000000000000E+00
 -0.346944695195E-17
  0.208166817117E-16
  0.138777878078E-16
  0.173472347598E-17
 -0.260208521397E-17
 -0.112757025938E-16
 -0.130104260698E-17
  0.433680868994E-17
 -0.546739915118E-17
  0.607153216592E-17
  0.104083408559E-16
  0.520417042793E-17
  0.104083408559E-16
 -0.346944695195E-17
 -0.104083408559E-16
 -0.346944695195E-17
  0.346944695195E-17
  0.000000000000E+00
 -0.238524477947E-17
 -0.132348898008E-22
 -0.216840434497E-18
  0.867361737988E-18
  0.520417042793E-17
 -0.693889390391E-17
  0.693889390391E-17
  0.173472347598E-16
  0.138777878078E-16
 -0.520417042793E-17
  0.867361737988E-18
 -0.433680868994E-17
  0.477048955894E-17
  0.195156391047E-17
 -0.438571160776E-18
 -0.346944695195E-17
  0.000000000000E+00
  0.173472347598E-17
 -0.104083408559E-16
 -0.173472347598E-16
  0.346944695195E-17
 -0.520417042793E-17
  0.173472347598E-17
  0.000000000000E+00
  0.260208521397E-17
 -0.132348898008E-22
 -0.433680868994E-18
 -0.867361737988E-18
 -0.346944695195E-17
  0.520417042793E-17
 -0.104083408559E-16
 -0.138777878078E-16
 -0.138777878078E-16
 -0.173472347598E-17
  0.520417042793E-17
 -0.433680868994E-17
  0.650521303491E-18
  0.693889390391E-17
 -0.625138108342E-17
 -0.156125112838E-16
 -0.867361737988E-18
 -0.520417042793E-17
  0.000000000000E+00
  0.208166817117E-16
  0.000000000000E+00
 -0.520417042793E-17
  0.346944695195E-17
  0.867361737988E-18
  0.260208521397E-17
 -0.132348898008E-22
 -0.216840434497E-18
  0.173472347598E-17
  0.346944695195E-17
 -0.346944695195E-17
 -0.104083408559E-16
  0.693889390391E-17
  0.138777878078E-16
  0.173472347598E-17
 -0.260208521397E-17
 -0.693889390391E-17
  0.477048955894E-17
 -0.346944695195E-17
 -0.307049443380E-19
 -0.260208521397E-17
 -0.867361737988E-17
 -0.520417042793E-17
  0.277555756156E-16
 -0.173472347598E-16
  0.693889390391E-17
 -0.346944695195E-17
  0.173472347598E-17
  0.867361737988E-18
 -0.780625564190E-17
 -0.132348898008E-22
 -0.216840434497E-18
  0.000000000000E+00
  0.000000000000E+00
  0.173472347598E-17
 -0.346944695195E-17
  0.346944695195E-17
  0.277555756156E-16
 -0.121430643318E-16
 -0.138777878078E-16
 -0.173472347598E-17
 -0.520417042793E-17
  0.390312782095E-17
  0.239339085414E-17
  0.346944695195E-17
  0.000000000000E+00
  0.121430643318E-16
 -0.693889390391E-17
  0.104083408559E-16
  0.693889390391E-17
 -0.346944695195E-17
  0.173472347598E-17
 -0.867361737988E-18
 -0.195156391047E-17
 -0.132348898008E-22
 -0.433680868994E-18
  0.000000000000E+00
  0.000000000000E+00
 -0.520417042793E-17
 -0.104083408559E-16
  0.208166817117E-16
 -0.346944695195E-17
  0.173472347598E-17
 -0.520417042793E-17
 -0.433680868994E-17
  0.455364912444E-17
  0.151788304148E-17
  0.471789410687E-17
  0.563785129692E-17
  0.130104260698E-16
  0.346944695195E-17
 -0.693889390391E-17
  0.346944695195E-17
 -0.693889390391E-17
  0.346944695195E-17
  0.173472347598E-17
  0.173472347598E-17
 -0.281892564846E-17
  0.000000000000E+00
 -0.216840434497E-18
 -0.867361737988E-18
 -0.173472347598E-17
 -0.173472347598E-17
 -0.346944695195E-17
 -0.173472347598E-16
  0.000000000000E+00
 -0.520417042793E-17
  0.346944695195E-17
  0.173472347598E-17
  0.585469173142E-17
  0.346944695195E-17
  0.328246442885E-17
  0.130104260698E-17
  0.867361737988E-18
 -0.173472347598E-16
  0.173472347598E-16
 -0.104083408559E-16
  0.693889390391E-17
 -0.520417042793E-17
 -0.346944695195E-17
 -0.867361737988E-18
 -0.498732999343E-17
 -0.661744490042E-23
 -0.433680868994E-18
 -0.173472347598E-17
 -0.346944695195E-17
 -0.173472347598E-17
 -0.346944695195E-17
  0.000000000000E+00
 -0.346944695195E-17
 -0.520417042793E-17
  0.173472347598E-17
  0.000000000000E+00
 -0.498732999343E-17
  0.151788304148E-17
 -0.362530101425E-17
 -0.130104260698E-17
  0.520417042793E-17
  0.173472347598E-17
  0.138777878078E-16
  0.693889390391E-17
 -0.346944695195E-17
  0.346944695195E-17
 -0.520417042793E-17
  0.000000000000E+00
  0.433680868994E-18
 -0.661744490042E-23
 -0.216840434497E-18
  0.867361737988E-18
  0.346944695195E-17
  0.173472347598E-17
  0.346944695195E-17
 -0.173472347598E-16
  0.104083408559E-16
  0.346944695195E-17
  0.173472347598E-17
 -0.433680868994E-18
  0.650521303491E-18
  0.433680868994E-18
  0.532614317234E-17
  0.260208521397E-17
 -0.104083408559E-16
  0.867361737988E-17
 -0.242861286637E-16
 -0.173472347598E-16
 -0.138777878078E-16
 -0.104083408559E-16
  0.173472347598E-17
  0.867361737988E-18
  0.238524477947E-17
 -0.661744490042E-23
 -0.216840434497E-18
  0.173472347598E-17
  0.173472347598E-17
 -0.520417042793E-17
 -0.693889390391E-17
 -0.693889390391E-17
  0.346944695195E-17
 -0.520417042793E-17
  0.000000000000E+00
 -0.867361737988E-18
  0.260208521397E-17
  0.000000000000E+00
 -0.390312782095E-17
 -0.173472347598E-17
 -0.346944695195E-17
 -0.173472347598E-17
 -0.138777878078E-16
 -0.104083408559E-16
  0.000000000000E+00
  0.000000000000E+00
  0.173472347598E-17
  0.867361737988E-18
  0.758941520740E-17
 -0.132348898008E-22
 -0.216840434497E-18
  0.173472347598E-17
  0.173472347598E-17
 -0.173472347598E-17
 -0.693889390391E-17
 -0.173472347598E-16
  0.138777878078E-16
 -0.173472347598E-16
 -0.693889390391E-17
  0.867361737988E-18
 -0.151788304148E-17
 -0.208166817117E-16
 -0.208166817117E-16
 -0.208166817117E-16
 -0.433680868994E-17
 -0.867361737988E-17
  0.277555756156E-16
  0.693889390391E-17
 -0.346944695195E-17
 -0.346944695195E-17
  0.000000000000E+00
  0.000000000000E+00
  0.650521303491E-18
 -0.661744490042E-23
 -0.216840434497E-18
 -0.173472347598E-17
  0.346944695195E-17
 -0.346944695195E-17
  0.000000000000E+00
  0.312250225676E-16
 -0.104083408559E-16
  0.173472347598E-17
 -0.173472347598E-17
 -0.416333634234E-16
 -0.138777878078E-16
 -0.832667268469E-16
  0.277555756156E-16
  0.346944695195E-16
  0.277555756156E-16
 -0.242861286637E-16
 -0.693889390391E-17
  0.346944695195E-17
 -0.693889390391E-17
  0.520417042793E-17
 -0.173472347598E-17
  0.867361737988E-18
  0.520417042793E-17
 -0.132348898008E-22
  0.000000000000E+00
  0.173472347598E-17
  0.173472347598E-17
  0.000000000000E+00
 -0.104083408559E-16
  0.242861286637E-16
 -0.693889390391E-17
  0.208166817117E-16
 -0.485722573274E-16
  0.208166817117E-16
 -0.416333634234E-16
  0.208166817117E-16
 -0.763278329430E-16
  0.000000000000E+00
  0.693889390391E-17
 -0.104083408559E-16
  0.208166817117E-16
 -0.346944695195E-17
 -0.346944695195E-17
 -0.173472347598E-17
  0.000000000000E+00
  0.867361737988E-18
  0.650521303491E-18
 -0.132348898008E-22
  0.000000000000E+00
  0.000000000000E+00
  0.000000000000E+00
  0.000000000000E+00
  0.346944695195E-17
 -0.346944695195E-17
 -0.346944695195E-17
  0.000000000000E+00
  0.485722573274E-16
 -0.277555756156E-16
  0.416333634234E-16
 -0.173472347598E-17
  0.156125112838E-16
  0.242861286637E-16
  0.000000000000E+00
 -0.242861286637E-16
 -0.693889390391E-17
 -0.138777878078E-16
  0.104083408559E-16
  0.173472347598E-17
  0.173472347598E-17
  0.000000000000E+00
  0.498732999343E-17
 -0.661744490042E-23
  0.000000000000E+00
  0.173472347598E-17
 -0.173472347598E-17
  0.000000000000E+00
  0.693889390391E-17
 -0.104083408559E-16
 -0.780625564190E-17
 -0.312250225676E-16
  0.693889390391E-17
  0.000000000000E+00
 -0.520417042793E-17
 -0.520417042793E-17
  0.000000000000E+00
 -0.693889390391E-17
  0.173472347598E-17
  0.607153216592E-17
 -0.108420217249E-17
 -0.607153216592E-17
 -0.477048955894E-17
 -0.867361737988E-17
  0.173472347598E-17
 -0.173472347598E-17
  0.000000000000E+00
 -0.661744490042E-23
 -0.216840434497E-18
  0.000000000000E+00
 -0.173472347598E-17
  0.693889390391E-17
 -0.433680868994E-18
 -0.346944695195E-17
 -0.195156391047E-17
  0.000000000000E+00
  0.156125112838E-16
 -0.173472347598E-17
 -0.693889390391E-17
  0.411996825544E-17
 -0.607153216592E-17
  0.520417042793E-17
 -0.433680868994E-18
  0.780625564190E-17
 -0.260208521397E-17
  0.208166817117E-16
 -0.173472347598E-17
  0.173472347598E-17
 -0.867361737988E-18
  0.433680868994E-18
 -0.216840434497E-18
 -0.827180612553E-24
 -0.216840434497E-18
  0.433680868994E-18
 -0.867361737988E-18
 -0.173472347598E-17
  0.000000000000E+00
  0.000000000000E+00
  0.173472347598E-17
  0.433680868994E-18
  0.563785129692E-17
  0.867361737988E-18
  0.780625564190E-17
 -0.390312782095E-17
 -0.607153216592E-17
  0.520417042793E-17
  0.156125112838E-16
  0.173472347598E-17
 -0.121430643318E-16
  0.780625564190E-17
  0.173472347598E-17
 -0.867361737988E-18
  0.000000000000E+00
 -0.487890977618E-17
  0.162630325873E-18
 -0.433680868994E-18
  0.000000000000E+00
  0.867361737988E-18
  0.520417042793E-17
  0.173472347598E-16
  0.693889390391E-17
  0.173472347598E-17
 -0.867361737988E-18
  0.000000000000E+00
  0.433680868994E-17
  0.650521303491E-17
 -0.867361737988E-17
  0.147451495458E-16
 -0.346944695195E-17
  0.173472347598E-17
 -0.346944695195E-17
  0.260208521397E-17
 -0.867361737988E-18
 -0.867361737988E-18
 -0.650521303491E-18
 -0.216840434497E-18
  0.000000000000E+00
 -0.867361737988E-18
  0.433680868994E-18
 -0.173472347598E-17
 -0.780625564190E-17
 -0.173472347598E-17
  0.000000000000E+00
 -0.173472347598E-17
  0.260208521397E-17
 -0.346944695195E-17
  0.000000000000E+00
 -0.997465998687E-17
 -0.390312782095E-17
 -0.954097911787E-17
  0.173472347598E-17
  0.138777878078E-16
 -0.520417042793E-17
  0.433680868994E-17
 -0.260208521397E-17
  0.216840434497E-17
 -0.108420217249E-17
 -0.162630325873E-17
  0.000000000000E+00
 -0.216840434497E-18
 -0.130104260698E-17
  0.867361737988E-18
 -0.433680868994E-17
  0.000000000000E+00
  0.693889390391E-17
 -0.693889390391E-17
  0.346944695195E-17
  0.303576608296E-17
  0.216840434497E-17
 -0.346944695195E-17
 -0.216840434497E-17
  0.433680868994E-17
  0.104083408559E-16
  0.693889390391E-17
  0.520417042793E-17
 -0.520417042793E-17
 -0.260208521397E-17
  0.433680868994E-18
  0.000000000000E+00
 -0.650521303491E-18
  0.709568764338E-17
  0.125767452008E-16
  0.607153216592E-17
  0.182145964978E-16
  0.346944695195E-17
  0.138777878078E-16
  0.693889390391E-17
  0.000000000000E+00
  0.173472347598E-17
  0.173472347598E-17
  0.346944695195E-17
  0.216840434497E-18
 -0.397046694025E-22
 -0.433680868994E-18
 -0.173472347598E-17
 -0.693889390391E-17
 -0.693889390391E-17
 -0.242861286637E-16
 -0.173472347598E-16
  0.104083408559E-16
  0.346944695195E-17
  0.867361737988E-17
  0.433680868994E-18
  0.325260651746E-17
 -0.183938498452E-17
 -0.173472347598E-17
 -0.997465998687E-17
  0.346944695195E-17
  0.346944695195E-17
 -0.138777878078E-16
 -0.208166817117E-16
  0.104083408559E-16
  0.000000000000E+00
  0.346944695195E-17
 -0.867361737988E-18
 -0.216840434497E-17
  0.661744490042E-23
 -0.650521303491E-18
  0.000000000000E+00
 -0.346944695195E-17
  0.520417042793E-17
 -0.138777878078E-16
  0.555111512313E-16
  0.104083408559E-16
  0.104083408559E-16
 -0.433680868994E-17
 -0.173472347598E-17
 -0.889045781438E-17
  0.669923651939E-18
  0.104083408559E-16
 -0.433680868994E-17
 -0.867361737988E-18
  0.346944695195E-17
 -0.104083408559E-16
  0.277555756156E-16
 -0.346944695195E-17
  0.693889390391E-17
 -0.173472347598E-17
  0.000000000000E+00
 -0.260208521397E-17
  0.661744490042E-23
 -0.216840434497E-18
 -0.173472347598E-17
  0.000000000000E+00
 -0.693889390391E-17
  0.346944695195E-17
  0.138777878078E-16
 -0.208166817117E-16
 -0.121430643318E-16
  0.520417042793E-17
  0.173472347598E-17
 -0.216840434497E-18
 -0.866183832796E-18
 -0.715573433840E-17
  0.173472347598E-17
  0.693889390391E-17
  0.190819582357E-16
  0.173472347598E-16
 -0.693889390391E-17
 -0.138777878078E-16
  0.000000000000E+00
  0.346944695195E-17
  0.000000000000E+00
 -0.238524477947E-17
 -0.661744490042E-23
 -0.216840434497E-18
  0.173472347598E-17
  0.000000000000E+00
 -0.520417042793E-17
 -0.138777878078E-16
  0.277555756156E-16
  0.346944695195E-17
  0.121430643318E-16
  0.173472347598E-17
 -0.997465998687E-17
 -0.281892564846E-17
 -0.389171934594E-17
  0.216840434497E-18
 -0.130104260698E-17
  0.346944695195E-17
  0.208166817117E-16
 -0.138777878078E-16
  0.104083408559E-16
  0.693889390391E-17
 -0.520417042793E-17
  0.000000000000E+00
  0.000000000000E+00
 -0.173472347598E-17
  0.661744490042E-23
 -0.650521303491E-18
 -0.173472347598E-17
  0.520417042793E-17
 -0.346944695195E-17
 -0.693889390391E-17
  0.000000000000E+00
 -0.693889390391E-17
  0.520417042793E-17
  0.433680868994E-17
  0.433680868994E-17
 -0.411996825544E-17
  0.427097173063E-17
  0.390312782095E-17
  0.607153216592E-17
 -0.260208521397E-17
  0.346944695195E-17
 -0.693889390391E-17
  0.693889390391E-17
  0.000000000000E+00
  0.000000000000E+00
  0.520417042793E-17
  0.000000000000E+00
 -0.130104260698E-17
 -0.132348898008E-22
 -0.216840434497E-18
  0.000000000000E+00
  0.000000000000E+00
 -0.346944695195E-17
 -0.346944695195E-17
  0.277555756156E-16
 -0.138777878078E-16
  0.000000000000E+00
  0.867361737988E-18
  0.867361737988E-18
  0.000000000000E+00
 -0.648405044612E-17
 -0.390312782095E-17
 -0.260208521397E-17
 -0.867361737988E-17
  0.000000000000E+00
 -0.138777878078E-16
 -0.693889390391E-17
  0.000000000000E+00
  0.000000000000E+00
  0.000000000000E+00
  0.000000000000E+00
 -0.650521303491E-17
  0.661744490042E-23
 -0.216840434497E-18
  0.867361737988E-18
  0.000000000000E+00
  0.520417042793E-17
 -0.138777878078E-16
 -0.346944695195E-17
 -0.173472347598E-16
 -0.693889390391E-17
 -0.260208521397E-17
 -0.520417042793E-17
 -0.477048955894E-17
  0.458402981398E-17
 -0.433680868994E-18
 -0.563785129692E-17
  0.867361737988E-18
  0.867361737988E-17
 -0.693889390391E-17
  0.173472347598E-16
  0.693889390391E-17
 -0.346944695195E-17
  0.000000000000E+00
 -0.867361737988E-18
 -0.628837260042E-17
  0.661744490042E-23
 -0.216840434497E-18
  0.867361737988E-18
  0.173472347598E-17
 -0.173472347598E-17
  0.000000000000E+00
 -0.208166817117E-16
 -0.104083408559E-16
 -0.693889390391E-17
 -0.693889390391E-17
 -0.173472347598E-17
 -0.650521303491E-18
 -0.101988193154E-16
  0.433680868994E-18
 -0.173472347598E-17
  0.867361737988E-18
  0.520417042793E-17
  0.104083408559E-16
 -0.346944695195E-17
 -0.346944695195E-17
 -0.104083408559E-16
  0.173472347598E-17
  0.867361737988E-18
 -0.650521303491E-17
  0.000000000000E+00
 -0.216840434497E-18
  0.173472347598E-17
  0.000000000000E+00
  0.000000000000E+00
 -0.346944695195E-17
  0.346944695195E-17
 -0.104083408559E-16
  0.867361737988E-17
 -0.867361737988E-18
 -0.780625564190E-17
  0.216840434497E-17
  0.414114407913E-17
 -0.303576608296E-17
  0.216840434497E-17
 -0.867361737988E-18
  0.000000000000E+00
 -0.346944695195E-17
 -0.104083408559E-16
 -0.173472347598E-16
 -0.173472347598E-17
 -0.173472347598E-17
  0.000000000000E+00
  0.346944695195E-17
 -0.132348898008E-22
 -0.216840434497E-18
  0.000000000000E+00
 -0.173472347598E-17
  0.520417042793E-17
  0.000000000000E+00
 -0.346944695195E-17
  0.000000000000E+00
 -0.693889390391E-17
  0.173472347598E-17
  0.000000000000E+00
 -0.867361737988E-18
 -0.474338450462E-18
  0.433680868994E-18
  0.130104260698E-17
 -0.607153216592E-17
  0.173472347598E-17
  0.000000000000E+00
  0.000000000000E+00
 -0.346944695195E-17
  0.173472347598E-17
  0.173472347598E-17
  0.000000000000E+00
 -0.281892564846E-17
 -0.661744490042E-23
  0.000000000000E+00
  0.173472347598E-17
  0.000000000000E+00
  0.000000000000E+00
 -0.346944695195E-17
  0.346944695195E-17
 -0.138777878078E-16
 -0.867361737988E-17
 -0.693889390391E-17
 -0.867361737988E-18
  0.303576608296E-17
 -0.397089045673E-17
  0.433680868994E-17
  0.130104260698E-16
 -0.867361737988E-17
  0.000000000000E+00
  0.104083408559E-16
  0.000000000000E+00
 -0.346944695195E-17
 -0.520417042793E-17
  0.520417042793E-17
  0.260208521397E-17
  0.867361737988E-18
 -0.132348898008E-22
 -0.433680868994E-18
  0.867361737988E-18
  0.173472347598E-17
  0.000000000000E+00
  0.000000000000E+00
  0.000000000000E+00
  0.693889390391E-17
  0.346944695195E-17
  0.520417042793E-17
  0.867361737988E-18
  0.390312782095E-17
 -0.433680868994E-18
 -0.390312782095E-17
 -0.477048955894E-17
 -0.433680868994E-17
 -0.867361737988E-17
  0.693889390391E-17
 -0.104083408559E-16
  0.000000000000E+00
 -0.173472347598E-17
  0.173472347598E-17
  0.000000000000E+00
 -0.867361737988E-18
  0.000000000000E+00
 -0.216840434497E-18
  0.173472347598E-17
  0.000000000000E+00
 -0.520417042793E-17
 -0.693889390391E-17
 -0.693889390391E-17
  0.104083408559E-16
 -0.520417042793E-17
 -0.867361737988E-18
  0.216840434497E-17
 -0.216840434497E-18
 -0.693889390391E-17
 -0.346944695195E-16
  0.624500451352E-16
 -0.346944695195E-17
 -0.225514051877E-16
  0.000000000000E+00
 -0.693889390391E-17
  0.346944695195E-17
 -0.346944695195E-17
  0.346944695195E-17
  0.867361737988E-18
  0.000000000000E+00
 -0.661744490042E-23
 -0.216840434497E-18
  0.173472347598E-17
  0.346944695195E-17
  0.000000000000E+00
  0.693889390391E-17
 -0.138777878078E-16
  0.346944695195E-17
 -0.693889390391E-17
  0.173472347598E-17
  0.277555756156E-16
 -0.624500451352E-16
 -0.138777878078E-16
 -0.693889390391E-17
 -0.208166817117E-16
  0.208166817117E-16
 -0.346944695195E-17
  0.138777878078E-16
  0.000000000000E+00
 -0.104083408559E-16
  0.173472347598E-17
  0.346944695195E-17
  0.000000000000E+00
  0.433680868994E-17
 -0.132348898008E-22
  0.216840434497E-18
  0.000000000000E+00
  0.000000000000E+00
  0.173472347598E-17
 -0.138777878078E-16
  0.242861286637E-16
  0.138777878078E-16
  0.277555756156E-16
  0.346944695195E-16
  0.277555756156E-16
 -0.277555756156E-16
  0.277555756156E-16
  0.138777878078E-16
  0.000000000000E+00
 -0.208166817117E-16
 -0.208166817117E-16
 -0.138777878078E-16
 -0.104083408559E-16
 -0.346944695195E-17
 -0.693889390391E-17
  0.173472347598E-17
  0.000000000000E+00
  0.628837260042E-17
 -0.661744490042E-23
  0.433680868994E-18
  0.173472347598E-17
  0.173472347598E-17
 -0.346944695195E-17
  0.346944695195E-17
  0.104083408559E-16
 -0.104083408559E-16
  0.693889390391E-17
  0.416333634234E-16
  0.346944695195E-16
  0.693889390391E-16
 -0.346944695195E-17
 -0.104083408559E-16
  0.138777878078E-16
 -0.138777878078E-16
 -0.693889390391E-17
 -0.182145964978E-16
  0.104083408559E-16