# vtk DataFile Version 3.0
MachLine results file. Generated by MachLine, USU AeroLab (c) 2022.
ASCII
DATASET POLYDATA
POINTS                1696 float
  0.000000000000E+00 -0.000000000000E+00  0.000000000000E+00
  0.000000000000E+00 -0.104252345860E+00  0.000000000000E+00
  0.000000000000E+00 -0.211780935526E+00  0.000000000000E+00
  0.145739717409E-01 -0.000000000000E+00 -0.127505732235E-02
  0.145739717409E-01 -0.000000000000E+00  0.127505732235E-02
  0.000000000000E+00 -0.322413772345E+00  0.000000000000E+00
  0.145739717409E-01 -0.104252345860E+00 -0.127505732235E-02
  0.145739717409E-01 -0.104252345860E+00  0.127505732235E-02
  0.000000000000E+00 -0.435950160027E+00  0.000000000000E+00
  0.145739717409E-01 -0.211780935526E+00 -0.127505732235E-02
  0.145739717409E-01 -0.211780935526E+00  0.127505732235E-02
  0.000000000000E+00 -0.552161276340E+00  0.000000000000E+00
  0.145739717409E-01 -0.322413772345E+00 -0.127505732235E-02
  0.145739717409E-01 -0.322413772345E+00  0.127505732235E-02
  0.000000000000E+00 -0.670791566372E+00  0.000000000000E+00
  0.341100133955E-01 -0.000000000000E+00 -0.298423948698E-02
  0.341100133955E-01 -0.000000000000E+00  0.298423948698E-02
  0.145739717409E-01 -0.435950160027E+00 -0.127505732235E-02
  0.145739717409E-01 -0.435950160027E+00  0.127505732235E-02
  0.341100133955E-01 -0.104252345860E+00 -0.298423948698E-02
  0.341100133955E-01 -0.104252345860E+00  0.298423948698E-02
  0.000000000000E+00 -0.791560173035E+00  0.000000000000E+00
  0.145739717409E-01 -0.552161276340E+00 -0.127505732235E-02
  0.145739717409E-01 -0.552161276340E+00  0.127505732235E-02
  0.341100133955E-01 -0.211780935526E+00 -0.298423948698E-02
  0.341100133955E-01 -0.211780935526E+00  0.298423948698E-02
  0.000000000000E+00 -0.914163351059E+00  0.000000000000E+00
  0.145739717409E-01 -0.670791566372E+00 -0.127505732235E-02
  0.145739717409E-01 -0.670791566372E+00  0.127505732235E-02
  0.341100133955E-01 -0.322413772345E+00 -0.298423948698E-02
  0.341100133955E-01 -0.322413772345E+00  0.298423948698E-02
  0.000000000000E+00 -0.103827738762E+01  0.000000000000E+00
  0.145739717409E-01 -0.791560173035E+00 -0.127505732235E-02
  0.145739717409E-01 -0.791560173035E+00  0.127505732235E-02
  0.341100133955E-01 -0.435950160027E+00 -0.298423948698E-02
  0.341100133955E-01 -0.435950160027E+00  0.298423948698E-02
  0.000000000000E+00 -0.116356134415E+01  0.000000000000E+00
  0.599864572287E-01 -0.000000000000E+00 -0.524813495576E-02
  0.145739717409E-01 -0.914163351059E+00 -0.127505732235E-02
  0.599864572287E-01 -0.000000000000E+00  0.524813495576E-02
  0.145739717409E-01 -0.914163351059E+00  0.127505732235E-02
  0.341100133955E-01 -0.552161276340E+00 -0.298423948698E-02
  0.341100133955E-01 -0.552161276340E+00  0.298423948698E-02
  0.000000000000E+00 -0.128966128826E+01  0.000000000000E+00
  0.599864572287E-01 -0.104252345860E+00 -0.524813495576E-02
  0.599864572287E-01 -0.104252345860E+00  0.524813495576E-02
  0.145739717409E-01 -0.103827738762E+01 -0.127505732235E-02
  0.145739717409E-01 -0.103827738762E+01  0.127505732235E-02
  0.341100133955E-01 -0.670791566372E+00 -0.298423948698E-02
  0.341100133955E-01 -0.670791566372E+00  0.298423948698E-02
  0.599864572287E-01 -0.211780935526E+00 -0.524813495576E-02
  0.000000000000E+00 -0.141621339321E+01  0.000000000000E+00
  0.599864572287E-01 -0.211780935526E+00  0.524813495576E-02
  0.145739717409E-01 -0.116356134415E+01 -0.127505732235E-02
  0.145739717409E-01 -0.116356134415E+01  0.127505732235E-02
  0.341100133955E-01 -0.791560173035E+00 -0.298423948698E-02
  0.341100133955E-01 -0.791560173035E+00  0.298423948698E-02
  0.599864572287E-01 -0.322413772345E+00 -0.524813495576E-02
  0.599864572287E-01 -0.322413772345E+00  0.524813495576E-02
  0.000000000000E+00 -0.154284906387E+01  0.000000000000E+00
  0.145739717409E-01 -0.128966128826E+01 -0.127505732235E-02
  0.145739717409E-01 -0.128966128826E+01  0.127505732235E-02
  0.341100133955E-01 -0.914163351059E+00 -0.298423948698E-02
  0.341100133955E-01 -0.914163351059E+00  0.298423948698E-02
  0.599864572287E-01 -0.435950160027E+00 -0.524813495576E-02
  0.599864572287E-01 -0.435950160027E+00  0.524813495576E-02
  0.000000000000E+00 -0.166919851303E+01  0.000000000000E+00
  0.145739717409E-01 -0.141621339321E+01 -0.127505732235E-02
  0.145739717409E-01 -0.141621339321E+01  0.127505732235E-02
  0.341100133955E-01 -0.103827738762E+01 -0.298423948698E-02
  0.341100133955E-01 -0.103827738762E+01  0.298423948698E-02
  0.599864572287E-01 -0.552161276340E+00 -0.524813495576E-02
  0.599864572287E-01 -0.552161276340E+00  0.524813495576E-02
  0.000000000000E+00 -0.179489517212E+01  0.000000000000E+00
  0.145739717409E-01 -0.154284906387E+01 -0.127505732235E-02
  0.145739717409E-01 -0.154284906387E+01  0.127505732235E-02
  0.341100133955E-01 -0.116356134415E+01 -0.298423948698E-02
  0.341100133955E-01 -0.116356134415E+01  0.298423948698E-02
  0.599864572287E-01 -0.670791566372E+00 -0.524813495576E-02
  0.937237665057E-01 -0.000000000000E+00 -0.819976720959E-02
  0.599864572287E-01 -0.670791566372E+00  0.524813495576E-02
  0.937237665057E-01 -0.000000000000E+00  0.819976720959E-02
  0.000000000000E+00 -0.191958034039E+01  0.000000000000E+00
  0.145739717409E-01 -0.166919851303E+01 -0.127505732235E-02
  0.145739717409E-01 -0.166919851303E+01  0.127505732235E-02
  0.341100133955E-01 -0.128966128826E+01 -0.298423948698E-02
  0.937237665057E-01 -0.104252345860E+00 -0.819976720959E-02
  0.341100133955E-01 -0.128966128826E+01  0.298423948698E-02
  0.599864572287E-01 -0.791560173035E+00 -0.524813495576E-02
  0.937237665057E-01 -0.104252345860E+00  0.819976720959E-02
  0.599864572287E-01 -0.791560173035E+00  0.524813495576E-02
  0.000000000000E+00 -0.204290652275E+01  0.000000000000E+00
  0.937237665057E-01 -0.211780935526E+00 -0.819976720959E-02
  0.145739717409E-01 -0.179489517212E+01 -0.127505732235E-02
  0.145739717409E-01 -0.179489517212E+01  0.127505732235E-02
  0.937237665057E-01 -0.211780935526E+00  0.819976720959E-02
  0.341100133955E-01 -0.141621339321E+01 -0.298423948698E-02
  0.341100133955E-01 -0.141621339321E+01  0.298423948698E-02
  0.599864572287E-01 -0.914163351059E+00 -0.524813495576E-02
  0.599864572287E-01 -0.914163351059E+00  0.524813495576E-02
  0.000000000000E+00 -0.216454195976E+01  0.000000000000E+00
  0.937237665057E-01 -0.322413772345E+00 -0.819976720959E-02
  0.937237665057E-01 -0.322413772345E+00  0.819976720959E-02
  0.145739717409E-01 -0.191958034039E+01 -0.127505732235E-02
  0.145739717409E-01 -0.191958034039E+01  0.127505732235E-02
  0.341100133955E-01 -0.154284906387E+01 -0.298423948698E-02
  0.341100133955E-01 -0.154284906387E+01  0.298423948698E-02
  0.599864572287E-01 -0.103827738762E+01 -0.524813495576E-02
  0.599864572287E-01 -0.103827738762E+01  0.524813495576E-02
  0.000000000000E+00 -0.228417348862E+01  0.000000000000E+00
  0.937237665057E-01 -0.435950160027E+00 -0.819976720959E-02
  0.937237665057E-01 -0.435950160027E+00  0.819976720959E-02
  0.145739717409E-01 -0.204290652275E+01 -0.127505732235E-02
  0.145739717409E-01 -0.204290652275E+01  0.127505732235E-02
  0.341100133955E-01 -0.166919851303E+01 -0.298423948698E-02
  0.341100133955E-01 -0.166919851303E+01  0.298423948698E-02
  0.599864572287E-01 -0.116356134415E+01 -0.524813495576E-02
  0.599864572287E-01 -0.116356134415E+01  0.524813495576E-02
  0.000000000000E+00 -0.240150952339E+01  0.000000000000E+00
  0.937237665057E-01 -0.552161276340E+00 -0.819976720959E-02
  0.937237665057E-01 -0.552161276340E+00  0.819976720959E-02
  0.145739717409E-01 -0.216454195976E+01 -0.127505732235E-02
  0.145739717409E-01 -0.216454195976E+01  0.127505732235E-02
  0.341100133955E-01 -0.179489517212E+01 -0.298423948698E-02
  0.341100133955E-01 -0.179489517212E+01  0.298423948698E-02
  0.599864572287E-01 -0.128966128826E+01 -0.524813495576E-02
  0.599864572287E-01 -0.128966128826E+01  0.524813495576E-02
  0.000000000000E+00 -0.251628303528E+01  0.000000000000E+00
  0.937237665057E-01 -0.670791566372E+00 -0.819976720959E-02
  0.937237665057E-01 -0.670791566372E+00  0.819976720959E-02
  0.145739717409E-01 -0.228417348862E+01 -0.127505732235E-02
  0.145739717409E-01 -0.228417348862E+01  0.127505732235E-02
  0.341100133955E-01 -0.191958034039E+01 -0.298423948698E-02
  0.341100133955E-01 -0.191958034039E+01  0.298423948698E-02
  0.599864572287E-01 -0.141621339321E+01 -0.524813495576E-02
  0.599864572287E-01 -0.141621339321E+01  0.524813495576E-02
  0.000000000000E+00 -0.262825274467E+01  0.000000000000E+00
  0.937237665057E-01 -0.791560173035E+00 -0.819976720959E-02
  0.937237665057E-01 -0.791560173035E+00  0.819976720959E-02
  0.145739717409E-01 -0.240150952339E+01 -0.127505732235E-02
  0.145739717409E-01 -0.240150952339E+01  0.127505732235E-02
  0.341100133955E-01 -0.204290652275E+01 -0.298423948698E-02
  0.136815205216E+00 -0.000000000000E+00 -0.119697786868E-01
  0.341100133955E-01 -0.204290652275E+01  0.298423948698E-02
  0.000000000000E+00 -0.273720526695E+01  0.000000000000E+00
  0.599864572287E-01 -0.154284906387E+01 -0.524813495576E-02
  0.599864572287E-01 -0.154284906387E+01  0.524813495576E-02
  0.136815205216E+00 -0.000000000000E+00  0.119697786868E-01
  0.937237665057E-01 -0.914163351059E+00 -0.819976720959E-02
  0.937237665057E-01 -0.914163351059E+00  0.819976720959E-02
  0.145739717409E-01 -0.251628303528E+01 -0.127505732235E-02
  0.145739717409E-01 -0.251628303528E+01  0.127505732235E-02
  0.136815205216E+00 -0.104252345860E+00 -0.119697786868E-01
  0.000000000000E+00 -0.284295582771E+01  0.000000000000E+00
  0.341100133955E-01 -0.216454195976E+01 -0.298423948698E-02
  0.341100133955E-01 -0.216454195976E+01  0.298423948698E-02
  0.136815205216E+00 -0.104252345860E+00  0.119697786868E-01
  0.599864572287E-01 -0.166919851303E+01 -0.524813495576E-02
  0.599864572287E-01 -0.166919851303E+01  0.524813495576E-02
  0.937237665057E-01 -0.103827738762E+01 -0.819976720959E-02
  0.145739717409E-01 -0.262825274467E+01 -0.127505732235E-02
[...]
CELL_DATA                3272
SCALARS C_p_ise float 1
LOOKUP_TABLE default
 -0.403519612965E-01
 -0.403474837120E-01
 -0.403477098015E-01
 -0.403477099232E-01
 -0.403475419513E-01
 -0.403475417962E-01
 -0.403476296117E-01
 -0.403476298088E-01
 -0.403476303319E-01
 -0.403476300570E-01
 -0.403476238942E-01
 -0.403476242049E-01
 -0.403475382110E-01
 -0.403475380176E-01
 -0.403476644067E-01
 -0.403476645342E-01
 -0.403475807296E-01
 -0.403475806524E-01
 -0.403476269268E-01
 -0.403476269317E-01
  0.194725944973E+00
  0.194725944981E+00
  0.194725921786E+00
  0.194725921863E+00
  0.194725893519E+00
  0.194725893394E+00
  0.194725900444E+00
  0.194725900489E+00
  0.194725940474E+00
  0.194725940459E+00
  0.194725877749E+00
  0.194725877743E+00
  0.194725918601E+00
  0.194725918630E+00
  0.194725910126E+00
  0.194725910116E+00
  0.194725910455E+00
  0.194725910476E+00
  0.194725912666E+00
  0.194725912592E+00
  0.458785124920E-01
  0.458785124315E-01
  0.458785106208E-01
  0.458785106369E-01
  0.458785103619E-01
  0.458785103709E-01
  0.458785172329E-01
  0.458785172505E-01
  0.458784840789E-01
  0.458784840879E-01
  0.458785350269E-01
  0.458785350053E-01
  0.458785025309E-01
  0.458785025126E-01
  0.458784968713E-01
  0.458784968856E-01
  0.458785198341E-01
  0.458785198290E-01
  0.458785386687E-01
  0.458785386855E-01
 -0.125289533016E+00
 -0.125289533000E+00
 -0.125289500664E+00
 -0.125289500676E+00
 -0.125289559337E+00
 -0.125289559276E+00
 -0.125289470924E+00
 -0.125289471064E+00
 -0.125289531065E+00
 -0.125289530902E+00
 -0.125289535296E+00
 -0.125289535408E+00
 -0.125289534963E+00
 -0.125289534850E+00
 -0.125289473413E+00
 -0.125289473539E+00
 -0.125289590993E+00
 -0.125289591021E+00
 -0.125289440638E+00
 -0.125285614892E+00
 -0.418804917213E-01
 -0.403519922510E-01
 -0.403477091961E-01
 -0.403477098021E-01
 -0.403475414876E-01
 -0.403475419476E-01
 -0.403476298426E-01
 -0.403476296096E-01
 -0.403476302856E-01
 -0.403476303321E-01
 -0.403476239237E-01
 -0.403476238896E-01
 -0.403475380306E-01
 -0.403475382090E-01
 -0.403476645457E-01
 -0.403476644036E-01
 -0.403475807171E-01
 -0.403475807307E-01
 -0.403476269274E-01
 -0.403476269248E-01
  0.194725944983E+00
  0.194725944976E+00
  0.194725921862E+00
  0.194725921786E+00
  0.194725893394E+00
  0.194725893533E+00
  0.194725900493E+00
  0.194725900358E+00
  0.194725940459E+00
  0.194725940501E+00
  0.194725877745E+00
  0.194725877637E+00
  0.194725918629E+00
  0.194725918514E+00
  0.194725910112E+00
  0.194725910129E+00
  0.194725910473E+00
  0.194725910595E+00
  0.194725912591E+00
  0.194725912810E+00
  0.458785123321E-01
  0.458785124931E-01
  0.458785105467E-01
  0.458785106230E-01
  0.458785103365E-01
  0.458785103643E-01
  0.458785173184E-01
  0.458785172339E-01
  0.458784841176E-01
  0.458784840788E-01
  0.458785350511E-01
  0.458785350260E-01
  0.458785025042E-01
  0.458785025313E-01
  0.458784969607E-01
  0.458784968691E-01
  0.458785197420E-01
  0.458785198350E-01
  0.458785387176E-01
  0.458785386678E-01
 -0.125289533000E+00
 -0.125289533003E+00
 -0.125289500677E+00
 -0.125289500677E+00
 -0.125289559275E+00
 -0.125289559263E+00
 -0.125289471068E+00
 -0.125289471020E+00
 -0.125289530903E+00
 -0.125289530943E+00
 -0.125289535410E+00
 -0.125289535294E+00
 -0.125289534852E+00
 -0.125289535075E+00
 -0.125289473540E+00
 -0.125289473595E+00
 -0.125289591021E+00
 -0.125289591908E+00
 -0.125285589619E+00
 -0.123975940821E+00
 -0.281385183956E-01
 -0.418906991229E-01
 -0.403477093863E-01
 -0.403477091865E-01
 -0.403475415286E-01
 -0.403475414840E-01
 -0.403476301170E-01
 -0.403476298486E-01
 -0.403476298924E-01
 -0.403476302803E-01
 -0.403476243466E-01
 -0.403476239296E-01
 -0.403475377788E-01
 -0.403475380283E-01
 -0.403476647838E-01
 -0.403476645566E-01
 -0.403475805815E-01
 -0.403475807177E-01
 -0.403476269061E-01
 -0.403476269277E-01
  0.194725944976E+00
  0.194725944876E+00
  0.194725921784E+00
  0.194725921725E+00
  0.194725893524E+00
  0.194725893535E+00
  0.194725900355E+00
  0.194725900384E+00
  0.194725940497E+00
  0.194725940506E+00
  0.194725877635E+00
  0.194725877781E+00
  0.194725918517E+00
  0.194725918522E+00
  0.194725910132E+00
  0.194725910130E+00
  0.194725910597E+00
  0.194725910408E+00
  0.194725912809E+00
  0.194725912989E+00
  0.458785122163E-01
  0.458785123329E-01
  0.458785105990E-01
  0.458785105459E-01
  0.458785104042E-01
  0.458785103342E-01
  0.458785172606E-01
  0.458785173166E-01
  0.458784841168E-01
  0.458784841172E-01
  0.458785350094E-01
  0.458785350524E-01
  0.458785024893E-01
  0.458785025067E-01
  0.458784969384E-01
  0.458784969632E-01
  0.458785198220E-01
  0.458785197449E-01
  0.458785386878E-01
  0.458785387180E-01
 -0.125289533001E+00
 -0.125289532948E+00
 -0.125289500677E+00
 -0.125289500671E+00
 -0.125289559263E+00
 -0.125289559422E+00
 -0.125289471014E+00
 -0.125289470684E+00
 -0.125289530947E+00
 -0.125289531355E+00
 -0.125289535286E+00
 -0.125289534970E+00
 -0.125289535077E+00
 -0.125289535036E+00
 -0.125289473598E+00
 -0.125289473753E+00
 -0.125289591917E+00
 -0.125289591628E+00
 -0.123967528573E+00
 -0.135492925628E+00
 -0.212089108428E-01
 -0.280464648018E-01
 -0.403477105064E-01
 -0.403477093929E-01
 -0.403475414778E-01
 -0.403475415329E-01
 -0.403476302859E-01
 -0.403476301232E-01
 -0.403476295181E-01
 -0.403476298874E-01
 -0.403476244824E-01
 -0.403476243523E-01
 -0.403475378109E-01
 -0.403475377754E-01
 -0.403476647557E-01
 -0.403476647866E-01
 -0.403475805445E-01
 -0.403475805755E-01
 -0.403476268722E-01
 -0.403476269040E-01
  0.194725944882E+00
  0.194725944755E+00
  0.194725921728E+00
  0.194725921746E+00
  0.194725893538E+00
  0.194725893543E+00
  0.194725900387E+00
  0.194725900406E+00
  0.194725940509E+00
  0.194725940530E+00
  0.194725877781E+00
  0.194725877726E+00
  0.194725918522E+00
  0.194725918515E+00
  0.194725910129E+00
  0.194725910199E+00
  0.194725910410E+00
  0.194725910520E+00
  0.194725912990E+00
  0.194725912757E+00
  0.458785123821E-01
  0.458785122152E-01
  0.458785105742E-01
  0.458785105973E-01
  0.458785103341E-01
  0.458785104038E-01
  0.458785172425E-01
  0.458785172614E-01
  0.458784841704E-01
  0.458784841157E-01
  0.458785349783E-01
  0.458785350089E-01
  0.458785024812E-01
  0.458785024880E-01
  0.458784969165E-01
  0.458784969373E-01
  0.458785198404E-01
  0.458785198192E-01
  0.458785386606E-01
  0.458785386890E-01
 -0.125289532946E+00
 -0.125289532920E+00
 -0.125289500670E+00
 -0.125289500681E+00
 -0.125289559426E+00
 -0.125289559479E+00
 -0.125289470676E+00
 -0.125289470572E+00
 -0.125289531360E+00
 -0.125289531304E+00
 -0.125289534970E+00
 -0.125289535120E+00
 -0.125289535033E+00
 -0.125289535238E+00
 -0.125289473749E+00
 -0.125289473412E+00
 -0.125289591625E+00
 -0.125289590814E+00
 -0.135562560020E+00
 -0.141079377733E+00
 -0.331332607811E-01
 -0.211646547987E-01
 -0.403477094392E-01
 -0.403477105055E-01
 -0.403475415262E-01
 -0.403475414681E-01
 -0.403476304130E-01
 -0.403476302788E-01
 -0.403476296246E-01
 -0.403476295106E-01
 -0.403476245975E-01
 -0.403476244846E-01
 -0.403475378639E-01
 -0.403475378115E-01
 -0.403476647465E-01
 -0.403476647549E-01
 -0.403475806886E-01
 -0.403475805498E-01
 -0.403476269209E-01
 -0.403476268802E-01
  0.194725944747E+00
  0.194725944995E+00
  0.194725921747E+00
  0.194725921746E+00
  0.194725893543E+00
  0.194725893542E+00
  0.194725900406E+00
  0.194725900388E+00
  0.194725940529E+00
  0.194725940579E+00
  0.194725877727E+00
  0.194725877662E+00
  0.194725918515E+00
  0.194725918542E+00
  0.194725910198E+00
  0.194725910114E+00
  0.194725910518E+00
  0.194725910546E+00
  0.194725912757E+00
  0.194725912811E+00
  0.458785123455E-01
  0.458785123823E-01
  0.458785105424E-01
  0.458785105758E-01
  0.458785103587E-01
  0.458785103352E-01
  0.458785172718E-01
  0.458785172424E-01
  0.458784841445E-01
  0.458784841705E-01
  0.458785350218E-01
  0.458785349785E-01
  0.458785024579E-01
  0.458785024812E-01
  0.458784969293E-01
  0.458784969159E-01
  0.458785198359E-01
  0.458785198394E-01
  0.458785386456E-01
  0.458785386609E-01
 -0.125289532920E+00
 -0.125289532996E+00
 -0.125289500679E+00
 -0.125289500644E+00
 -0.125289559479E+00
 -0.125289559361E+00
 -0.125289470573E+00
 -0.125289470642E+00
 -0.125289531302E+00
 -0.125289531229E+00
 -0.125289535122E+00
 -0.125289534769E+00
 -0.125289535249E+00
 -0.125289535438E+00
 -0.125289473417E+00
 -0.125289473359E+00
 -0.125289590813E+00
 -0.125289591331E+00
 -0.141112138290E+00
 -0.131368205737E+00
 -0.438949997954E-01
 -0.332063778284E-01
 -0.403477099459E-01
 -0.403477094393E-01
 -0.403475414362E-01
 -0.403475415341E-01
 -0.403476300485E-01
 -0.403476304150E-01
 -0.403476299296E-01
 -0.403476296302E-01
 -0.403476245503E-01
 -0.403476245998E-01
 -0.403475379860E-01
 -0.403475378669E-01
 -0.403476646867E-01
 -0.403476647461E-01
 -0.403475806842E-01
 -0.403475806884E-01
 -0.403476269285E-01
 -0.403476269161E-01
  0.194725944994E+00
  0.194725944901E+00
  0.194725921741E+00
  0.194725921879E+00
  0.194725893543E+00
  0.194725893490E+00
  0.194725900388E+00
  0.194725900454E+00
  0.194725940579E+00
  0.194725940424E+00
  0.194725877660E+00
  0.194725877744E+00
  0.194725918541E+00
  0.194725918519E+00
  0.194725910114E+00
  0.194725910090E+00
  0.194725910545E+00
  0.194725910516E+00
  0.194725912809E+00
  0.194725913018E+00
  0.458785122147E-01
  0.458785123463E-01
  0.458785105302E-01
  0.458785105430E-01
  0.458785103816E-01
  0.458785103588E-01
  0.458785173088E-01
  0.458785172717E-01
  0.458784841368E-01
  0.458784841449E-01
  0.458785349890E-01
  0.458785350226E-01
  0.458785025826E-01
  0.458785024562E-01
  0.458784968534E-01
  0.458784969293E-01
  0.458785198432E-01
  0.458785198361E-01
  0.458785386179E-01
  0.458785386467E-01
 -0.125289532999E+00
 -0.125289532987E+00
 -0.125289500646E+00
 -0.125289500655E+00
 -0.125289559359E+00
 -0.125289559325E+00
 -0.125289470642E+00
 -0.125289470610E+00
 -0.125289531229E+00
 -0.125289531081E+00
 -0.125289534766E+00
 -0.125289535175E+00
 -0.125289535430E+00
 -0.125289535051E+00
 -0.125289473356E+00
 -0.125289473573E+00
 -0.125289591329E+00
 -0.125289591091E+00
 -0.131309568058E+00
 -0.122237830079E+00
 -0.336760250413E-01
 -0.439586964950E-01
 -0.403477096800E-01
 -0.403477099457E-01
 -0.403475415835E-01
 -0.403475414334E-01
 -0.403476304341E-01
 -0.403476300521E-01
 -0.403476299269E-01
 -0.403476299383E-01
 -0.403476245667E-01
 -0.403476245538E-01
 -0.403475379263E-01
 -0.403475379890E-01
 -0.403476646377E-01
 -0.403476646849E-01
 -0.403475805167E-01
 -0.403475806787E-01
 -0.403476270722E-01
 -0.403476269284E-01
  0.194725944906E+00
  0.194725944993E+00
  0.194725921881E+00
  0.194725921727E+00
  0.194725893489E+00
  0.194725893583E+00
  0.194725900454E+00
  0.194725900382E+00
  0.194725940426E+00
  0.194725940607E+00
  0.194725877748E+00
  0.194725877722E+00
  0.194725918524E+00
  0.194725918381E+00
  0.194725910093E+00
  0.194725910235E+00
  0.194725910520E+00
  0.194725910477E+00
  0.194725913020E+00
  0.194725912637E+00
  0.458785124664E-01
  0.458785122131E-01
  0.458785105958E-01
  0.458785105273E-01
  0.458785103272E-01
  0.458785103791E-01
  0.458785172844E-01
  0.458785173069E-01
  0.458784841741E-01
  0.458784841347E-01
  0.458785349967E-01
  0.458785349865E-01
  0.458785024393E-01
  0.458785025832E-01
  0.458784969452E-01
  0.458784968547E-01
  0.458785197967E-01
  0.458785198437E-01
  0.458785386794E-01
  0.458785386164E-01
 -0.125289532988E+00
 -0.125289533002E+00
 -0.125289500656E+00
 -0.125289500560E+00
 -0.125289559328E+00
 -0.125289559537E+00
 -0.125289470606E+00
 -0.125289470625E+00
 -0.125289531073E+00
 -0.125289531129E+00
 -0.125289535173E+00
 -0.125289534868E+00
 -0.125289535050E+00
 -0.125289535139E+00
 -0.125289473573E+00
 -0.125289473331E+00
 -0.125289591091E+00
 -0.125289591001E+00
 -0.122184199508E+00
 -0.130921751396E+00
 -0.344257872481E-01
 -0.336135527821E-01
 -0.403477111095E-01
 -0.403477096858E-01
 -0.403475410699E-01
 -0.403475415860E-01
 -0.403476305785E-01
 -0.403476304370E-01
 -0.403476296865E-01
 -0.403476299204E-01
 -0.403476246260E-01
 -0.403476245618E-01
 -0.403475378585E-01
 -0.403475379195E-01
 -0.403476647147E-01
 -0.403476646350E-01
 -0.403475807115E-01
 -0.403475805220E-01
 -0.403476268271E-01
 -0.403476270742E-01
  0.194725944995E+00
  0.194725944851E+00
  0.194725921728E+00
  0.194725921774E+00
  0.194725893583E+00
  0.194725893557E+00
  0.194725900383E+00
  0.194725900398E+00
  0.194725940605E+00
  0.194725940521E+00
  0.194725877718E+00
  0.194725877641E+00
  0.194725918378E+00
  0.194725918537E+00
  0.194725910232E+00
  0.194725910151E+00
  0.194725910474E+00
  0.194725910458E+00
  0.194725912637E+00
  0.194725912759E+00
  0.458785123824E-01
  0.458785124669E-01
  0.458785105776E-01
  0.458785105980E-01
  0.458785103661E-01
  0.458785103297E-01
  0.458785172775E-01
  0.458785172864E-01
  0.458784841411E-01
  0.458784841764E-01
  0.458785350592E-01
  0.458785349984E-01
  0.458785024792E-01
  0.458785024401E-01
  0.458784969017E-01
  0.458784969435E-01
  0.458785198274E-01
  0.458785197967E-01
  0.458785386418E-01
  0.458785386792E-01
 -0.125289533001E+00
 -0.125289532940E+00
 -0.125289500558E+00
 -0.125289500693E+00
 -0.125289559537E+00
 -0.125289559376E+00
 -0.125289470630E+00
 -0.125289470677E+00
 -0.125289531134E+00
 -0.125289531170E+00
 -0.125289534867E+00
 -0.125289534785E+00
 -0.125289535140E+00
 -0.125289535304E+00
 -0.125289473328E+00
 -0.125289473444E+00
 -0.125289590996E+00
 -0.125289590287E+00
 -0.130970530305E+00
 -0.130292531631E+00
 -0.317558260002E-01
 -0.344305651999E-01
 -0.403477103819E-01
 -0.403477111153E-01
 -0.403475420728E-01
 -0.403475410748E-01
 -0.403476302204E-01
 -0.403476305839E-01
 -0.403476299048E-01
 -0.403476296936E-01
 -0.403476247694E-01
 -0.403476246400E-01
 -0.403475376414E-01
 -0.403475378653E-01
 -0.403476645587E-01
 -0.403476647183E-01
 -0.403475806754E-01
 -0.403475807113E-01
 -0.403476268096E-01
 -0.403476268201E-01
  0.194725944854E+00
  0.194725944768E+00
  0.194725921772E+00
  0.194725921901E+00
  0.194725893560E+00
  0.194725893292E+00
  0.194725900392E+00
  0.194725900552E+00
  0.194725940522E+00
  0.194725940499E+00
  0.194725877643E+00
  0.194725877722E+00
  0.194725918538E+00
  0.194725918474E+00
  0.194725910152E+00
  0.194725910143E+00
  0.194725910459E+00
  0.194725910445E+00
  0.194725912759E+00
  0.194725912785E+00
  0.458785123637E-01
  0.458785123825E-01
  0.458785105948E-01
  0.458785105770E-01
  0.458785103793E-01
  0.458785103653E-01
  0.458785173099E-01
  0.458785172766E-01
  0.458784841228E-01
  0.458784841403E-01
  0.458785350337E-01
  0.458785350584E-01
  0.458785025003E-01
  0.458785024792E-01
  0.458784968090E-01
  0.458784969055E-01
  0.458785199905E-01
  0.458785198245E-01
  0.458785385935E-01
  0.458785386416E-01
 -0.125289532939E+00
 -0.125289532944E+00
 -0.125289500697E+00
 -0.125289500711E+00
 -0.125289559374E+00
 -0.125289559352E+00
 -0.125289470677E+00
 -0.125289470788E+00
 -0.125289531168E+00
 -0.125289531287E+00
 -0.125289534779E+00
 -0.125289534922E+00
 -0.125289535298E+00
 -0.125289534997E+00
 -0.125289473443E+00
 -0.125289473386E+00
 -0.125289590281E+00
 -0.125289590252E+00
 -0.130288733629E+00
 -0.132513981893E+00
  0.743742525089E-04
 -0.317401826582E-01
 -0.403477094891E-01
 -0.403477103754E-01
 -0.403475409611E-01
 -0.403475420608E-01
 -0.403476307461E-01
 -0.403476302053E-01
 -0.403476294379E-01
 -0.403476298869E-01
 -0.403476249106E-01
 -0.403476247513E-01
 -0.403475374777E-01
 -0.403475376168E-01
 -0.403476650077E-01
 -0.403476645537E-01
 -0.403475806993E-01
 -0.403475806761E-01
 -0.403476268538E-01
 -0.403476268129E-01
  0.194725944766E+00
  0.194725944848E+00
  0.194725921898E+00
  0.194725921913E+00
  0.194725893297E+00
  0.194725893346E+00
  0.194725900555E+00
  0.194725900372E+00
  0.194725940497E+00
  0.194725940565E+00
  0.194725877720E+00
  0.194725877702E+00
  0.194725918473E+00
  0.194725918531E+00
  0.194725910143E+00
  0.194725910106E+00
  0.194725910445E+00
  0.194725910546E+00
  0.194725912785E+00
  0.194725912766E+00
  0.458785123797E-01
  0.458785123636E-01
  0.458785105448E-01
  0.458785105950E-01
  0.458785103706E-01
  0.458785103797E-01
  0.458785172977E-01
  0.458785173107E-01
  0.458784841306E-01
  0.458784841239E-01
  0.458785350036E-01
  0.458785350352E-01
  0.458785024859E-01
  0.458785025017E-01
  0.458784969218E-01
  0.458784968075E-01
  0.458785199182E-01
  0.458785199884E-01
  0.458785386167E-01
  0.458785385962E-01
 -0.125289532943E+00
 -0.125289532962E+00
 -0.125289500711E+00
 -0.125289500676E+00
 -0.125289559352E+00
 -0.125289559404E+00
 -0.125289470789E+00
 -0.125289470404E+00
 -0.125289531300E+00
 -0.125289531385E+00
 -0.125289534936E+00
 -0.125289534639E+00
 -0.125289535011E+00
 -0.125289535531E+00
 -0.125289473394E+00
 -0.125289473192E+00
 -0.125289590262E+00
 -0.125289591865E+00
 -0.132526209911E+00
 -0.157417086872E+00
 -0.147073326997E-01
  0.269386356838E-03
 -0.403477111900E-01
 -0.403477094864E-01
 -0.403475415639E-01
 -0.403475409712E-01
 -0.403476303512E-01
 -0.403476307620E-01
 -0.403476298308E-01
 -0.403476294531E-01
 -0.403476245103E-01
 -0.403476249246E-01
 -0.403475380752E-01
 -0.403475375030E-01
 -0.403476645429E-01
 -0.403476650223E-01
 -0.403475806913E-01
 -0.403475806998E-01
 -0.403476268299E-01
 -0.403476268528E-01
  0.194725944849E+00
  0.194725944797E+00
  0.194725921911E+00
  0.194725921823E+00
  0.194725893339E+00
  0.194725893423E+00
  0.194725900373E+00
  0.194725900390E+00
  0.194725940565E+00
  0.194725940551E+00
  0.194725877702E+00
  0.194725877747E+00
  0.194725918531E+00
  0.194725918616E+00
  0.194725910108E+00
  0.194725910142E+00
  0.194725910547E+00
  0.194725910466E+00
  0.194725912766E+00
  0.194725912672E+00
  0.458785124252E-01
  0.458785123794E-01
  0.458785106253E-01
  0.458785105440E-01
  0.458785103549E-01
  0.458785103695E-01
  0.458785172531E-01
  0.458785172971E-01
  0.458784841049E-01
  0.458784841303E-01
  0.458785349734E-01
  0.458785350041E-01
  0.458785024773E-01
  0.458785024859E-01
  0.458784969357E-01
  0.458784969209E-01
  0.458785199014E-01
  0.458785199214E-01
  0.458785386549E-01
  0.458785386163E-01
 -0.125289532963E+00
 -0.125289532971E+00
 -0.125289500675E+00
 -0.125289500705E+00
 -0.125289559404E+00
 -0.125289559345E+00
 -0.125289470396E+00
 -0.125289470740E+00
 -0.125289531370E+00
 -0.125289531160E+00
 -0.125289534624E+00
 -0.125289534716E+00
 -0.125289535520E+00
 -0.125289535283E+00
 -0.125289473183E+00
 -0.125289473204E+00
 -0.125289591867E+00
 -0.125289590615E+00
 -0.157544450962E+00
 -0.146192215595E+00
 -0.297328484351E-01
 -0.147921962502E-01
 -0.403477106363E-01
 -0.403477112053E-01
 -0.403475408131E-01
 -0.403475415587E-01
 -0.403476305251E-01
 -0.403476303423E-01
 -0.403476299334E-01
 -0.403476298292E-01
 -0.403476244426E-01
 -0.403476245009E-01
 -0.403475378888E-01
 -0.403475380701E-01
 -0.403476647715E-01
 -0.403476645302E-01
 -0.403475806454E-01
 -0.403475806915E-01
 -0.403476269727E-01
 -0.403476268351E-01
  0.194725944790E+00
  0.194725944984E+00
  0.194725921826E+00
  0.194725921916E+00
  0.194725893427E+00
  0.194725893386E+00
  0.194725900392E+00
  0.194725900398E+00
  0.194725940553E+00
  0.194725940532E+00
  0.194725877748E+00
  0.194725877615E+00
  0.194725918614E+00
  0.194725918606E+00
  0.194725910139E+00
  0.194725910114E+00
  0.194725910464E+00
  0.194725910533E+00
  0.194725912671E+00
  0.194725912877E+00
  0.458785123046E-01
  0.458785124260E-01
  0.458785105387E-01
  0.458785106270E-01
  0.458785103434E-01
  0.458785103574E-01
  0.458785172789E-01
  0.458785172551E-01
  0.458784841114E-01
  0.458784841062E-01
  0.458785350667E-01
  0.458785349722E-01
  0.458785025076E-01
  0.458785024746E-01
  0.458784968726E-01
  0.458784969347E-01
  0.458785199239E-01
  0.458785199000E-01
  0.458785385944E-01
  0.458785386550E-01
 -0.125289532971E+00
 -0.125289533000E+00
 -0.125289500704E+00
 -0.125289500604E+00
 -0.125289559346E+00
 -0.125289559393E+00
 -0.125289470748E+00
 -0.125289470603E+00