# vtk DataFile Version 3.0
MachLine results file. Generated by MachLine, USU AeroLab (c) 2022.
ASCII
DATASET POLYDATA
POINTS                1696 float
  0.000000000000E+00  0.000000000000E+00  0.000000000000E+00
  0.000000000000E+00  0.104252345860E+00  0.000000000000E+00
  0.000000000000E+00  0.211780935526E+00  0.000000000000E+00
  0.000000000000E+00  0.322413772345E+00  0.000000000000E+00
  0.000000000000E+00  0.435950160027E+00  0.000000000000E+00
  0.000000000000E+00  0.552161276340E+00  0.000000000000E+00
  0.000000000000E+00  0.670791566372E+00  0.000000000000E+00
  0.000000000000E+00  0.791560173035E+00  0.000000000000E+00
  0.000000000000E+00  0.914163351059E+00  0.000000000000E+00
  0.000000000000E+00  0.103827738762E+01  0.000000000000E+00
  0.000000000000E+00  0.116356134415E+01  0.000000000000E+00
  0.000000000000E+00  0.128966128826E+01  0.000000000000E+00
  0.000000000000E+00  0.141621339321E+01  0.000000000000E+00
  0.000000000000E+00  0.154284906387E+01  0.000000000000E+00
  0.000000000000E+00  0.166919851303E+01  0.000000000000E+00
  0.000000000000E+00  0.179489517212E+01  0.000000000000E+00
  0.000000000000E+00  0.191958034039E+01  0.000000000000E+00
  0.000000000000E+00  0.204290652275E+01  0.000000000000E+00
  0.000000000000E+00  0.216454195976E+01  0.000000000000E+00
  0.000000000000E+00  0.228417348862E+01  0.000000000000E+00
  0.000000000000E+00  0.240150952339E+01  0.000000000000E+00
  0.000000000000E+00  0.251628303528E+01  0.000000000000E+00
  0.000000000000E+00  0.262825274467E+01  0.000000000000E+00
  0.000000000000E+00  0.273720526695E+01  0.000000000000E+00
  0.000000000000E+00  0.284295582771E+01  0.000000000000E+00
  0.000000000000E+00  0.294534778595E+01  0.000000000000E+00
  0.000000000000E+00  0.304425406456E+01  0.000000000000E+00
  0.000000000000E+00  0.313957524300E+01  0.000000000000E+00
  0.000000000000E+00  0.323123931885E+01  0.000000000000E+00
  0.000000000000E+00  0.331920027733E+01  0.000000000000E+00
  0.000000000000E+00  0.340343642235E+01  0.000000000000E+00
  0.000000000000E+00  0.348394894600E+01  0.000000000000E+00
  0.000000000000E+00  0.356075930595E+01  0.000000000000E+00
  0.000000000000E+00  0.363390779495E+01  0.000000000000E+00
  0.000000000000E+00  0.370345163345E+01  0.000000000000E+00
  0.000000000000E+00  0.376946210861E+01  0.000000000000E+00
  0.000000000000E+00  0.383202338219E+01  0.000000000000E+00
  0.000000000000E+00  0.389123010635E+01  0.000000000000E+00
  0.000000000000E+00  0.394718551636E+01  0.000000000000E+00
  0.000000000000E+00  0.400000000000E+01  0.000000000000E+00
  0.145739717409E-01  0.000000000000E+00 -0.127505732235E-02
  0.145739717409E-01  0.104252345860E+00 -0.127505732235E-02
  0.145739717409E-01  0.211780935526E+00 -0.127505732235E-02
  0.145739717409E-01  0.322413772345E+00 -0.127505732235E-02
  0.145739717409E-01  0.435950160027E+00 -0.127505732235E-02
  0.145739717409E-01  0.552161276340E+00 -0.127505732235E-02
  0.145739717409E-01  0.670791566372E+00 -0.127505732235E-02
  0.145739717409E-01  0.791560173035E+00 -0.127505732235E-02
  0.145739717409E-01  0.914163351059E+00 -0.127505732235E-02
  0.145739717409E-01  0.103827738762E+01 -0.127505732235E-02
  0.145739717409E-01  0.116356134415E+01 -0.127505732235E-02
  0.145739717409E-01  0.128966128826E+01 -0.127505732235E-02
  0.145739717409E-01  0.141621339321E+01 -0.127505732235E-02
  0.145739717409E-01  0.154284906387E+01 -0.127505732235E-02
  0.145739717409E-01  0.166919851303E+01 -0.127505732235E-02
  0.145739717409E-01  0.179489517212E+01 -0.127505732235E-02
  0.145739717409E-01  0.191958034039E+01 -0.127505732235E-02
  0.145739717409E-01  0.204290652275E+01 -0.127505732235E-02
  0.145739717409E-01  0.216454195976E+01 -0.127505732235E-02
  0.145739717409E-01  0.228417348862E+01 -0.127505732235E-02
  0.145739717409E-01  0.240150952339E+01 -0.127505732235E-02
  0.145739717409E-01  0.251628303528E+01 -0.127505732235E-02
  0.145739717409E-01  0.262825274467E+01 -0.127505732235E-02
  0.145739717409E-01  0.273720526695E+01 -0.127505732235E-02
  0.145739717409E-01  0.284295582771E+01 -0.127505732235E-02
  0.145739717409E-01  0.294534778595E+01 -0.127505732235E-02
  0.145739717409E-01  0.304425406456E+01 -0.127505732235E-02
  0.145739717409E-01  0.313957524300E+01 -0.127505732235E-02
  0.145739717409E-01  0.323123931885E+01 -0.127505732235E-02
  0.145739717409E-01  0.331920027733E+01 -0.127505732235E-02
  0.145739717409E-01  0.340343642235E+01 -0.127505732235E-02
  0.145739717409E-01  0.348394894600E+01 -0.127505732235E-02
  0.145739717409E-01  0.356075930595E+01 -0.127505732235E-02
  0.145739717409E-01  0.363390779495E+01 -0.127505732235E-02
  0.145739717409E-01  0.370345163345E+01 -0.127505732235E-02
  0.145739717409E-01  0.376946210861E+01 -0.127505732235E-02
  0.145739717409E-01  0.383202338219E+01 -0.127505732235E-02
  0.145739717409E-01  0.389123010635E+01 -0.127505732235E-02
  0.145739717409E-01  0.394718551636E+01 -0.127505732235E-02
  0.145739717409E-01  0.400000000000E+01 -0.127505732235E-02
  0.145739717409E-01  0.400090122223E+01 -0.901424908079E-03
  0.145739717409E-01  0.400127506256E+01  0.000000000000E+00
  0.145739717409E-01  0.400090122223E+01  0.901424908079E-03
  0.145739717409E-01  0.000000000000E+00  0.127505732235E-02
  0.145739717409E-01  0.104252345860E+00  0.127505732235E-02
  0.145739717409E-01  0.211780935526E+00  0.127505732235E-02
  0.145739717409E-01  0.322413772345E+00  0.127505732235E-02
  0.145739717409E-01  0.435950160027E+00  0.127505732235E-02
  0.145739717409E-01  0.552161276340E+00  0.127505732235E-02
  0.145739717409E-01  0.670791566372E+00  0.127505732235E-02
  0.145739717409E-01  0.791560173035E+00  0.127505732235E-02
  0.145739717409E-01  0.914163351059E+00  0.127505732235E-02
  0.145739717409E-01  0.103827738762E+01  0.127505732235E-02
  0.145739717409E-01  0.116356134415E+01  0.127505732235E-02
  0.145739717409E-01  0.128966128826E+01  0.127505732235E-02
  0.145739717409E-01  0.141621339321E+01  0.127505732235E-02
  0.145739717409E-01  0.154284906387E+01  0.127505732235E-02
  0.145739717409E-01  0.166919851303E+01  0.127505732235E-02
  0.145739717409E-01  0.179489517212E+01  0.127505732235E-02
  0.145739717409E-01  0.191958034039E+01  0.127505732235E-02
  0.145739717409E-01  0.204290652275E+01  0.127505732235E-02
  0.145739717409E-01  0.216454195976E+01  0.127505732235E-02
  0.145739717409E-01  0.228417348862E+01  0.127505732235E-02
  0.145739717409E-01  0.240150952339E+01  0.127505732235E-02
  0.145739717409E-01  0.251628303528E+01  0.127505732235E-02
  0.145739717409E-01  0.262825274467E+01  0.127505732235E-02
  0.145739717409E-01  0.273720526695E+01  0.127505732235E-02
  0.145739717409E-01  0.284295582771E+01  0.127505732235E-02
  0.145739717409E-01  0.294534778595E+01  0.127505732235E-02
  0.145739717409E-01  0.304425406456E+01  0.127505732235E-02
  0.145739717409E-01  0.313957524300E+01  0.127505732235E-02
  0.145739717409E-01  0.323123931885E+01  0.127505732235E-02
  0.145739717409E-01  0.331920027733E+01  0.127505732235E-02
  0.145739717409E-01  0.340343642235E+01  0.127505732235E-02
  0.145739717409E-01  0.348394894600E+01  0.127505732235E-02
  0.145739717409E-01  0.356075930595E+01  0.127505732235E-02
  0.145739717409E-01  0.363390779495E+01  0.127505732235E-02
  0.145739717409E-01  0.370345163345E+01  0.127505732235E-02
  0.145739717409E-01  0.376946210861E+01  0.127505732235E-02
  0.145739717409E-01  0.383202338219E+01  0.127505732235E-02
  0.145739717409E-01  0.389123010635E+01  0.127505732235E-02
  0.145739717409E-01  0.394718551636E+01  0.127505732235E-02
  0.145739717409E-01  0.400000000000E+01  0.127505732235E-02
  0.341100133955E-01  0.000000000000E+00 -0.298423948698E-02
  0.341100133955E-01  0.104252345860E+00 -0.298423948698E-02
  0.341100133955E-01  0.211780935526E+00 -0.298423948698E-02
  0.341100133955E-01  0.322413772345E+00 -0.298423948698E-02
  0.341100133955E-01  0.435950160027E+00 -0.298423948698E-02
  0.341100133955E-01  0.552161276340E+00 -0.298423948698E-02
  0.341100133955E-01  0.670791566372E+00 -0.298423948698E-02
  0.341100133955E-01  0.791560173035E+00 -0.298423948698E-02
  0.341100133955E-01  0.914163351059E+00 -0.298423948698E-02
  0.341100133955E-01  0.103827738762E+01 -0.298423948698E-02
  0.341100133955E-01  0.116356134415E+01 -0.298423948698E-02
  0.341100133955E-01  0.128966128826E+01 -0.298423948698E-02
  0.341100133955E-01  0.141621339321E+01 -0.298423948698E-02
  0.341100133955E-01  0.154284906387E+01 -0.298423948698E-02
  0.341100133955E-01  0.166919851303E+01 -0.298423948698E-02
  0.341100133955E-01  0.179489517212E+01 -0.298423948698E-02
  0.341100133955E-01  0.191958034039E+01 -0.298423948698E-02
  0.341100133955E-01  0.204290652275E+01 -0.298423948698E-02
  0.341100133955E-01  0.216454195976E+01 -0.298423948698E-02
  0.341100133955E-01  0.228417348862E+01 -0.298423948698E-02
  0.341100133955E-01  0.240150952339E+01 -0.298423948698E-02
  0.341100133955E-01  0.251628303528E+01 -0.298423948698E-02
  0.341100133955E-01  0.262825274467E+01 -0.298423948698E-02
  0.341100133955E-01  0.273720526695E+01 -0.298423948698E-02
  0.341100133955E-01  0.284295582771E+01 -0.298423948698E-02
  0.341100133955E-01  0.294534778595E+01 -0.298423948698E-02
  0.341100133955E-01  0.304425406456E+01 -0.298423948698E-02
  0.341100133955E-01  0.313957524300E+01 -0.298423948698E-02
  0.341100133955E-01  0.323123931885E+01 -0.298423948698E-02
  0.341100133955E-01  0.331920027733E+01 -0.298423948698E-02
  0.341100133955E-01  0.340343642235E+01 -0.298423948698E-02
  0.341100133955E-01  0.348394894600E+01 -0.298423948698E-02
  0.341100133955E-01  0.356075930595E+01 -0.298423948698E-02
  0.341100133955E-01  0.363390779495E+01 -0.298423948698E-02
  0.341100133955E-01  0.370345163345E+01 -0.298423948698E-02
  0.341100133955E-01  0.376946210861E+01 -0.298423948698E-02
  0.341100133955E-01  0.383202338219E+01 -0.298423948698E-02
  0.341100133955E-01  0.389123010635E+01 -0.298423948698E-02
[...]
CELL_DATA                3272
SCALARS C_p_ise float 1
LOOKUP_TABLE default
  0.403760240964E-01
  0.403760102401E-01
  0.403761094767E-01
  0.403761094768E-01
  0.403759412851E-01
  0.403759412852E-01
  0.403760292755E-01
  0.403760292755E-01
  0.403760297630E-01
  0.403760297630E-01
  0.403760236210E-01
  0.403760236210E-01
  0.403759376295E-01
  0.403759376295E-01
  0.403760641044E-01
  0.403760641044E-01
  0.403759802374E-01
  0.403759802374E-01
  0.403760264831E-01
  0.403760264831E-01
 -0.195591497065E+00
 -0.195591497065E+00
 -0.195591473386E+00
 -0.195591473386E+00
 -0.195591444684E+00
 -0.195591444684E+00
 -0.195591451731E+00
 -0.195591451731E+00
 -0.195591492433E+00
 -0.195591492433E+00
 -0.195591428646E+00
 -0.195591428646E+00
 -0.195591470191E+00
 -0.195591470191E+00
 -0.195591461572E+00
 -0.195591461572E+00
 -0.195591461906E+00
 -0.195591461906E+00
 -0.195591464155E+00
 -0.195591464155E+00
 -0.459230020901E-01
 -0.459230020901E-01
 -0.459230002931E-01
 -0.459230002931E-01
 -0.459230000259E-01
 -0.459230000259E-01
 -0.459230069141E-01
 -0.459230069141E-01
 -0.459229737114E-01
 -0.459229737114E-01
 -0.459230246900E-01
 -0.459230246900E-01
 -0.459229921608E-01
 -0.459229921608E-01
 -0.459229865287E-01
 -0.459229865287E-01
 -0.459230094674E-01
 -0.459230094674E-01
 -0.459230283920E-01
 -0.459230283920E-01
  0.125260986443E+00
  0.125260986443E+00
  0.125260954210E+00
  0.125260954210E+00
  0.125261012664E+00
  0.125261012664E+00
  0.125260924512E+00
  0.125260924512E+00
  0.125260984448E+00
  0.125260984448E+00
  0.125260988729E+00
  0.125260988729E+00
  0.125260988389E+00
  0.125260988389E+00
  0.125260927060E+00
  0.125260927060E+00
  0.125261044288E+00
  0.125261044288E+00
  0.125260741048E+00
  0.125260724127E+00
  0.403758225227E-01
  0.403760240964E-01
  0.403761094767E-01
  0.403761094767E-01
  0.403759412852E-01
  0.403759412851E-01
  0.403760292755E-01
  0.403760292755E-01
  0.403760297630E-01
  0.403760297630E-01
  0.403760236210E-01
  0.403760236210E-01
  0.403759376295E-01
  0.403759376295E-01
  0.403760641044E-01
  0.403760641044E-01
  0.403759802374E-01
  0.403759802374E-01
  0.403760264831E-01
  0.403760264831E-01
 -0.195591497065E+00
 -0.195591497065E+00
 -0.195591473386E+00
 -0.195591473386E+00
 -0.195591444684E+00
 -0.195591444684E+00
 -0.195591451731E+00
 -0.195591451731E+00
 -0.195591492433E+00
 -0.195591492433E+00
 -0.195591428646E+00
 -0.195591428646E+00
 -0.195591470191E+00
 -0.195591470191E+00
 -0.195591461572E+00
 -0.195591461572E+00
 -0.195591461906E+00
 -0.195591461906E+00
 -0.195591464155E+00
 -0.195591464155E+00
 -0.459230020901E-01
 -0.459230020901E-01
 -0.459230002931E-01
 -0.459230002931E-01
 -0.459230000259E-01
 -0.459230000259E-01
 -0.459230069141E-01
 -0.459230069141E-01
 -0.459229737114E-01
 -0.459229737114E-01
 -0.459230246900E-01
 -0.459230246900E-01
 -0.459229921608E-01
 -0.459229921608E-01
 -0.459229865287E-01
 -0.459229865287E-01
 -0.459230094674E-01
 -0.459230094674E-01
 -0.459230283920E-01
 -0.459230283920E-01
  0.125260986443E+00
  0.125260986443E+00
  0.125260954210E+00
  0.125260954210E+00
  0.125261012664E+00
  0.125261012664E+00
  0.125260924512E+00
  0.125260924512E+00
  0.125260984448E+00
  0.125260984448E+00
  0.125260988729E+00
  0.125260988729E+00
  0.125260988389E+00
  0.125260988389E+00
  0.125260927060E+00
  0.125260927060E+00
  0.125261044288E+00
  0.125261044288E+00
  0.125260724127E+00
  0.125260970286E+00
  0.403758390021E-01
  0.403758225227E-01
  0.403761094767E-01
  0.403761094767E-01
  0.403759412852E-01
  0.403759412852E-01
  0.403760292755E-01
  0.403760292755E-01
  0.403760297630E-01
  0.403760297630E-01
  0.403760236210E-01
  0.403760236210E-01
  0.403759376295E-01
  0.403759376295E-01
  0.403760641044E-01
  0.403760641044E-01
  0.403759802374E-01
  0.403759802374E-01
  0.403760264831E-01
  0.403760264831E-01
 -0.195591497065E+00
 -0.195591497065E+00
 -0.195591473386E+00
 -0.195591473386E+00
 -0.195591444684E+00
 -0.195591444684E+00
 -0.195591451731E+00
 -0.195591451731E+00
 -0.195591492433E+00
 -0.195591492433E+00
 -0.195591428646E+00
 -0.195591428646E+00
 -0.195591470191E+00
 -0.195591470191E+00
 -0.195591461572E+00
 -0.195591461572E+00
 -0.195591461906E+00
 -0.195591461906E+00
 -0.195591464155E+00
 -0.195591464155E+00
 -0.459230020901E-01
 -0.459230020901E-01
 -0.459230002931E-01
 -0.459230002931E-01
 -0.459230000259E-01
 -0.459230000259E-01
 -0.459230069141E-01
 -0.459230069141E-01
 -0.459229737114E-01
 -0.459229737114E-01
 -0.459230246900E-01
 -0.459230246900E-01
 -0.459229921608E-01
 -0.459229921608E-01
 -0.459229865287E-01
 -0.459229865287E-01
 -0.459230094674E-01
 -0.459230094674E-01
 -0.459230283920E-01
 -0.459230283920E-01
  0.125260986443E+00
  0.125260986443E+00
  0.125260954210E+00
  0.125260954210E+00
  0.125261012664E+00
  0.125261012664E+00
  0.125260924512E+00
  0.125260924512E+00
  0.125260984448E+00
  0.125260984448E+00
  0.125260988729E+00
  0.125260988729E+00
  0.125260988389E+00
  0.125260988389E+00
  0.125260927060E+00
  0.125260927060E+00
  0.125261044288E+00
  0.125261044288E+00
  0.125260970286E+00
  0.125260950162E+00
  0.403758878792E-01
  0.403758390021E-01
  0.403761094767E-01
  0.403761094767E-01
  0.403759412852E-01
  0.403759412852E-01
  0.403760292755E-01
  0.403760292755E-01
  0.403760297630E-01
  0.403760297630E-01
  0.403760236210E-01
  0.403760236210E-01
  0.403759376295E-01
  0.403759376295E-01
  0.403760641044E-01
  0.403760641044E-01
  0.403759802374E-01
  0.403759802374E-01
  0.403760264831E-01
  0.403760264831E-01
 -0.195591497065E+00
 -0.195591497065E+00
 -0.195591473386E+00
 -0.195591473386E+00
 -0.195591444684E+00
 -0.195591444684E+00
 -0.195591451731E+00
 -0.195591451731E+00
 -0.195591492433E+00
 -0.195591492433E+00
 -0.195591428646E+00
 -0.195591428646E+00
 -0.195591470191E+00
 -0.195591470191E+00
 -0.195591461572E+00
 -0.195591461572E+00
 -0.195591461906E+00
 -0.195591461906E+00
 -0.195591464155E+00
 -0.195591464155E+00
 -0.459230020901E-01
 -0.459230020901E-01
 -0.459230002931E-01
 -0.459230002931E-01
 -0.459230000259E-01
 -0.459230000259E-01
 -0.459230069141E-01
 -0.459230069141E-01
 -0.459229737114E-01
 -0.459229737114E-01
 -0.459230246900E-01
 -0.459230246900E-01
 -0.459229921608E-01
 -0.459229921608E-01
 -0.459229865287E-01
 -0.459229865287E-01
 -0.459230094674E-01
 -0.459230094674E-01
 -0.459230283920E-01
 -0.459230283920E-01
  0.125260986443E+00
  0.125260986443E+00
  0.125260954210E+00
  0.125260954210E+00
  0.125261012664E+00
  0.125261012664E+00
  0.125260924512E+00
  0.125260924512E+00
  0.125260984448E+00
  0.125260984448E+00
  0.125260988729E+00
  0.125260988729E+00
  0.125260988389E+00
  0.125260988389E+00
  0.125260927060E+00
  0.125260927060E+00
  0.125261044288E+00
  0.125261044288E+00
  0.125260950162E+00
  0.125260890474E+00
  0.403758812390E-01
  0.403758878792E-01
  0.403761094767E-01
  0.403761094767E-01
  0.403759412852E-01
  0.403759412852E-01
  0.403760292755E-01
  0.403760292755E-01
  0.403760297630E-01
  0.403760297630E-01
  0.403760236210E-01
  0.403760236210E-01
  0.403759376295E-01
  0.403759376295E-01
  0.403760641044E-01
  0.403760641044E-01
  0.403759802374E-01
  0.403759802374E-01
  0.403760264831E-01
  0.403760264831E-01
 -0.195591497065E+00
 -0.195591497065E+00
 -0.195591473386E+00
 -0.195591473386E+00
 -0.195591444684E+00
 -0.195591444684E+00
 -0.195591451731E+00
 -0.195591451731E+00
 -0.195591492433E+00
 -0.195591492433E+00
 -0.195591428646E+00
 -0.195591428646E+00
 -0.195591470191E+00
 -0.195591470191E+00
 -0.195591461572E+00
 -0.195591461572E+00
 -0.195591461906E+00
 -0.195591461906E+00
 -0.195591464155E+00
 -0.195591464155E+00
 -0.459230020901E-01
 -0.459230020901E-01
 -0.459230002931E-01
 -0.459230002931E-01
 -0.459230000259E-01
 -0.459230000259E-01
 -0.459230069141E-01
 -0.459230069141E-01
 -0.459229737114E-01
 -0.459229737114E-01
 -0.459230246900E-01
 -0.459230246900E-01
 -0.459229921608E-01
 -0.459229921608E-01
 -0.459229865287E-01
 -0.459229865287E-01
 -0.459230094674E-01
 -0.459230094674E-01
 -0.459230283920E-01
 -0.459230283920E-01
  0.125260986443E+00
  0.125260986443E+00
  0.125260954210E+00
  0.125260954210E+00
  0.125261012664E+00
  0.125261012664E+00
  0.125260924512E+00
  0.125260924512E+00
  0.125260984448E+00
  0.125260984448E+00
  0.125260988729E+00
  0.125260988729E+00
  0.125260988389E+00
  0.125260988389E+00
  0.125260927060E+00
  0.125260927060E+00
  0.125261044288E+00
  0.125261044288E+00
  0.125260890474E+00
  0.125260898583E+00
  0.403758915420E-01
  0.403758812390E-01
  0.403761094767E-01
  0.403761094767E-01
  0.403759412851E-01
  0.403759412852E-01
  0.403760292755E-01
  0.403760292755E-01
  0.403760297630E-01
  0.403760297630E-01
  0.403760236210E-01
  0.403760236210E-01
  0.403759376295E-01
  0.403759376295E-01
  0.403760641044E-01
  0.403760641044E-01
  0.403759802374E-01
  0.403759802374E-01
  0.403760264831E-01
  0.403760264831E-01
 -0.195591497065E+00
 -0.195591497065E+00
 -0.195591473386E+00
 -0.195591473386E+00
 -0.195591444684E+00
 -0.195591444684E+00
 -0.195591451731E+00
 -0.195591451731E+00
 -0.195591492433E+00
 -0.195591492433E+00
 -0.195591428646E+00
 -0.195591428646E+00
 -0.195591470191E+00
 -0.195591470191E+00
 -0.195591461572E+00
 -0.195591461572E+00
 -0.195591461906E+00
 -0.195591461906E+00
 -0.195591464155E+00
 -0.195591464155E+00
 -0.459230020901E-01
 -0.459230020901E-01
 -0.459230002931E-01
 -0.459230002931E-01
 -0.459230000259E-01
 -0.459230000259E-01
 -0.459230069141E-01
 -0.459230069141E-01
 -0.459229737114E-01
 -0.459229737114E-01
 -0.459230246900E-01
 -0.459230246900E-01
 -0.459229921608E-01
 -0.459229921608E-01
 -0.459229865287E-01
 -0.459229865287E-01
 -0.459230094674E-01
 -0.459230094674E-01
 -0.459230283920E-01
 -0.459230283920E-01
  0.125260986443E+00
  0.125260986443E+00
  0.125260954210E+00
  0.125260954210E+00
  0.125261012664E+00
  0.125261012664E+00
  0.125260924512E+00
  0.125260924512E+00
  0.125260984448E+00
  0.125260984448E+00
  0.125260988729E+00
  0.125260988729E+00
  0.125260988389E+00
  0.125260988389E+00
  0.125260927060E+00
  0.125260927060E+00
  0.125261044288E+00
  0.125261044288E+00
  0.125260898583E+00
  0.125260886001E+00
  0.403758236611E-01
  0.403758915420E-01
  0.403761094767E-01
  0.403761094767E-01
  0.403759412851E-01
  0.403759412851E-01
  0.403760292755E-01
  0.403760292755E-01
  0.403760297630E-01
  0.403760297630E-01
  0.403760236210E-01
  0.403760236210E-01
  0.403759376295E-01
  0.403759376295E-01
  0.403760641044E-01
  0.403760641044E-01
  0.403759802374E-01
  0.403759802374E-01
  0.403760264831E-01
  0.403760264831E-01
 -0.195591497065E+00
 -0.195591497065E+00
 -0.195591473386E+00
 -0.195591473386E+00
 -0.195591444684E+00
 -0.195591444684E+00
 -0.195591451731E+00
 -0.195591451731E+00
 -0.195591492433E+00
 -0.195591492433E+00
 -0.195591428646E+00
 -0.195591428646E+00
 -0.195591470191E+00
 -0.195591470191E+00
 -0.195591461572E+00
 -0.195591461572E+00
 -0.195591461906E+00
 -0.195591461906E+00
 -0.195591464155E+00
 -0.195591464155E+00
 -0.459230020901E-01
 -0.459230020901E-01
 -0.459230002931E-01
 -0.459230002931E-01
 -0.459230000259E-01
 -0.459230000259E-01
 -0.459230069141E-01
 -0.459230069141E-01
 -0.459229737114E-01
 -0.459229737114E-01
 -0.459230246900E-01
 -0.459230246900E-01
 -0.459229921608E-01
 -0.459229921608E-01
 -0.459229865287E-01
 -0.459229865287E-01
 -0.459230094674E-01
 -0.459230094674E-01
 -0.459230283920E-01
 -0.459230283920E-01
  0.125260986443E+00
  0.125260986443E+00
  0.125260954210E+00
  0.125260954210E+00
  0.125261012664E+00
  0.125261012664E+00
  0.125260924512E+00
  0.125260924512E+00
  0.125260984448E+00
  0.125260984448E+00
  0.125260988729E+00
  0.125260988729E+00
  0.125260988389E+00
  0.125260988389E+00
  0.125260927060E+00
  0.125260927060E+00
  0.125261044288E+00
  0.125261044288E+00
  0.125260886001E+00
  0.125260968896E+00
  0.403758250936E-01
  0.403758236611E-01
  0.403761094767E-01
  0.403761094767E-01
  0.403759412851E-01
  0.403759412851E-01
  0.403760292755E-01
  0.403760292755E-01
  0.403760297630E-01
  0.403760297630E-01
  0.403760236210E-01
  0.403760236210E-01
  0.403759376295E-01
  0.403759376295E-01
  0.403760641044E-01
  0.403760641044E-01
  0.403759802374E-01
  0.403759802374E-01
  0.403760264831E-01
  0.403760264831E-01
 -0.195591497065E+00
 -0.195591497065E+00
 -0.195591473386E+00
 -0.195591473386E+00
 -0.195591444684E+00
 -0.195591444684E+00
 -0.195591451731E+00
 -0.195591451731E+00
 -0.195591492433E+00
 -0.195591492433E+00
 -0.195591428646E+00
 -0.195591428646E+00
 -0.195591470191E+00
 -0.195591470191E+00
 -0.195591461572E+00
 -0.195591461572E+00
 -0.195591461906E+00
 -0.195591461906E+00
 -0.195591464155E+00
 -0.195591464155E+00
 -0.459230020901E-01
 -0.459230020901E-01
 -0.459230002931E-01
 -0.459230002931E-01
 -0.459230000259E-01
 -0.459230000259E-01
 -0.459230069141E-01
 -0.459230069141E-01
 -0.459229737114E-01
 -0.459229737114E-01
 -0.459230246900E-01
 -0.459230246900E-01
 -0.459229921608E-01
 -0.459229921608E-01
 -0.459229865287E-01
 -0.459229865287E-01
 -0.459230094674E-01
 -0.459230094674E-01
 -0.459230283920E-01
 -0.459230283920E-01
  0.125260986443E+00
  0.125260986443E+00
  0.125260954210E+00
  0.125260954210E+00
  0.125261012664E+00
  0.125261012664E+00
  0.125260924512E+00
  0.125260924512E+00
  0.125260984448E+00
  0.125260984448E+00
  0.125260988729E+00
  0.125260988729E+00
  0.125260988389E+00
  0.125260988389E+00
  0.125260927060E+00
  0.125260927060E+00
  0.125261044288E+00
  0.125261044288E+00
  0.125260968896E+00
  0.125260967147E+00
  0.403758777974E-01
  0.403758250936E-01
  0.403761094767E-01
  0.403761094767E-01
  0.403759412852E-01
  0.403759412851E-01
  0.403760292755E-01
  0.403760292755E-01
  0.403760297630E-01
  0.403760297630E-01
  0.403760236210E-01
  0.403760236210E-01
  0.403759376295E-01
  0.403759376295E-01
  0.403760641044E-01
  0.403760641044E-01
  0.403759802374E-01
  0.403759802374E-01
  0.403760264831E-01
  0.403760264831E-01
 -0.195591497065E+00
 -0.195591497065E+00
 -0.195591473386E+00
 -0.195591473386E+00
 -0.195591444684E+00
 -0.195591444684E+00
 -0.195591451731E+00
 -0.195591451731E+00
 -0.195591492433E+00
 -0.195591492433E+00
 -0.195591428646E+00
 -0.195591428646E+00
 -0.195591470191E+00
 -0.195591470191E+00
 -0.195591461572E+00
 -0.195591461572E+00
 -0.195591461906E+00
 -0.195591461906E+00
 -0.195591464155E+00
 -0.195591464155E+00
 -0.459230020901E-01
 -0.459230020901E-01
 -0.459230002931E-01
 -0.459230002931E-01
 -0.459230000259E-01
 -0.459230000259E-01
 -0.459230069141E-01
 -0.459230069141E-01
 -0.459229737114E-01
 -0.459229737114E-01
 -0.459230246900E-01
 -0.459230246900E-01
 -0.459229921608E-01
 -0.459229921608E-01
 -0.459229865287E-01
 -0.459229865287E-01
 -0.459230094674E-01
 -0.459230094674E-01
 -0.459230283920E-01
 -0.459230283920E-01
  0.125260986443E+00
  0.125260986443E+00
  0.125260954210E+00
  0.125260954210E+00
  0.125261012664E+00
  0.125261012664E+00
  0.125260924512E+00
  0.125260924512E+00
  0.125260984448E+00
  0.125260984448E+00
  0.125260988729E+00
  0.125260988729E+00
  0.125260988389E+00
  0.125260988389E+00
  0.125260927060E+00
  0.125260927060E+00
  0.125261044288E+00
  0.125261044288E+00
  0.125260967147E+00
  0.125260902785E+00
  0.403758778101E-01
  0.403758777974E-01
  0.403761094767E-01
  0.403761094767E-01
  0.403759412852E-01
  0.403759412852E-01
  0.403760292755E-01
  0.403760292755E-01
  0.403760297630E-01
  0.403760297630E-01
  0.403760236210E-01
  0.403760236210E-01
  0.403759376295E-01
  0.403759376295E-01
  0.403760641044E-01
  0.403760641044E-01
  0.403759802374E-01
  0.403759802374E-01
  0.403760264831E-01
  0.403760264831E-01
 -0.195591497065E+00
 -0.195591497065E+00
 -0.195591473386E+00
 -0.195591473386E+00
 -0.195591444684E+00
 -0.195591444684E+00
 -0.195591451731E+00
 -0.195591451731E+00
 -0.195591492433E+00
 -0.195591492433E+00
 -0.195591428646E+00
 -0.195591428646E+00
 -0.195591470191E+00
 -0.195591470191E+00
 -0.195591461572E+00
 -0.195591461572E+00
 -0.195591461906E+00
 -0.195591461906E+00
 -0.195591464155E+00
 -0.195591464155E+00
 -0.459230020901E-01
 -0.459230020901E-01
 -0.459230002931E-01
 -0.459230002931E-01
 -0.459230000259E-01
 -0.459230000259E-01
 -0.459230069141E-01
 -0.459230069141E-01
 -0.459229737114E-01
 -0.459229737114E-01
 -0.459230246900E-01
 -0.459230246900E-01
 -0.459229921608E-01
 -0.459229921608E-01
 -0.459229865287E-01
 -0.459229865287E-01
 -0.459230094674E-01
 -0.459230094674E-01
 -0.459230283920E-01
 -0.459230283920E-01
  0.125260986443E+00
  0.125260986443E+00
  0.125260954210E+00
  0.125260954210E+00
  0.125261012664E+00
  0.125261012664E+00
  0.125260924512E+00
  0.125260924512E+00
  0.125260984448E+00
  0.125260984448E+00
  0.125260988729E+00
  0.125260988729E+00
  0.125260988389E+00
  0.125260988389E+00
  0.125260927060E+00
  0.125260927060E+00
  0.125261044288E+00
  0.125261044288E+00
  0.125260902785E+00
  0.125260902770E+00
  0.403758831398E-01
  0.403758778101E-01
  0.403761094767E-01
  0.403761094767E-01
  0.403759412852E-01
  0.403759412852E-01
  0.403760292755E-01
  0.403760292755E-01
  0.403760297630E-01
  0.403760297630E-01
  0.403760236210E-01
  0.403760236210E-01
  0.403759376295E-01
  0.403759376295E-01
  0.403760641044E-01
  0.403760641044E-01
  0.403759802374E-01
  0.403759802374E-01
  0.403760264831E-01
  0.403760264831E-01
 -0.195591497065E+00
 -0.195591497065E+00
 -0.195591473386E+00
 -0.195591473386E+00
 -0.195591444684E+00
 -0.195591444684E+00
 -0.195591451731E+00
 -0.195591451731E+00
 -0.195591492433E+00
 -0.195591492433E+00
 -0.195591428646E+00
 -0.195591428646E+00
 -0.195591470191E+00
 -0.195591470191E+00
 -0.195591461572E+00
 -0.195591461572E+00
 -0.195591461906E+00
 -0.195591461906E+00
 -0.195591464155E+00
 -0.195591464155E+00
 -0.459230020901E-01
 -0.459230020901E-01
 -0.459230002931E-01
 -0.459230002931E-01
 -0.459230000259E-01
 -0.459230000259E-01
 -0.459230069141E-01
 -0.459230069141E-01
 -0.459229737114E-01
 -0.459229737114E-01
 -0.459230246900E-01
 -0.459230246900E-01
 -0.459229921608E-01
 -0.459229921608E-01
 -0.459229865287E-01
 -0.459229865287E-01
 -0.459230094674E-01
 -0.459230094674E-01
 -0.459230283920E-01
 -0.459230283920E-01
  0.125260986443E+00
  0.125260986443E+00
  0.125260954210E+00
  0.125260954210E+00
  0.125261012664E+00
  0.125261012664E+00
  0.125260924512E+00
  0.125260924512E+00
  0.125260984448E+00
  0.125260984448E+00
  0.125260988729E+00
  0.125260988729E+00
  0.125260988389E+00
  0.125260988389E+00
  0.125260927060E+00
  0.125260927060E+00
  0.125261044288E+00
  0.125261044288E+00
  0.125260902770E+00
  0.125260896261E+00
  0.403759113651E-01
  0.403758831398E-01
  0.403761094767E-01
  0.403761094767E-01
  0.403759412852E-01
  0.403759412852E-01
  0.403760292755E-01
  0.403760292755E-01
  0.403760297630E-01
  0.403760297630E-01
  0.403760236210E-01
  0.403760236210E-01
  0.403759376295E-01
  0.403759376295E-01
  0.403760641044E-01
  0.403760641044E-01
  0.403759802374E-01
  0.403759802374E-01
  0.403760264831E-01
  0.403760264831E-01
 -0.195591497065E+00
 -0.195591497065E+00
 -0.195591473386E+00
 -0.195591473386E+00
 -0.195591444684E+00
 -0.195591444684E+00
 -0.195591451731E+00
 -0.195591451731E+00
 -0.195591492433E+00
 -0.195591492433E+00
 -0.195591428646E+00
 -0.195591428646E+00
 -0.195591470191E+00
 -0.195591470191E+00
 -0.195591461572E+00
 -0.195591461572E+00
 -0.195591461906E+00
 -0.195591461906E+00
 -0.195591464155E+00
 -0.195591464155E+00
 -0.459230020901E-01
 -0.459230020901E-01
 -0.459230002931E-01
 -0.459230002931E-01
 -0.459230000259E-01
 -0.459230000259E-01
 -0.459230069141E-01
 -0.459230069141E-01
 -0.459229737114E-01
 -0.459229737114E-01
 -0.459230246900E-01
 -0.459230246900E-01
 -0.459229921608E-01
 -0.459229921608E-01
 -0.459229865287E-01
 -0.459229865287E-01
 -0.459230094674E-01
 -0.459230094674E-01
 -0.459230283920E-01
 -0.459230283920E-01
  0.125260986443E+00
  0.125260986443E+00
  0.125260954210E+00
  0.125260954210E+00
  0.125261012664E+00
  0.125261012664E+00
  0.125260924512E+00
  0.125260924512E+00