# vtk DataFile Version 3.0
TriPan results file. Generated by TriPan, USU AeroLab (c) 2021.
ASCII
DATASET POLYDATA
POINTS                 446 float
  0.190349744366E-02  0.000000000000E+00  0.000000000000E+00
  0.180155439444E-02  0.217527970672E+00  0.000000000000E+00
  0.188619651827E-02  0.448061168194E+00  0.000000000000E+00
  0.195463115218E-02  0.689725637436E+00  0.000000000000E+00
  0.200381935583E-02  0.940178275108E+00  0.000000000000E+00
  0.203146979263E-02  0.119668114185E+01  0.000000000000E+00
  0.203625478170E-02  0.145621216297E+01  0.432309807279E-18
  0.201794494299E-02  0.171560299397E+01  0.000000000000E+00
  0.197742965724E-02  0.197169232368E+01  0.000000000000E+00
  0.191662923716E-02  0.222147774696E+01  0.000000000000E+00
  0.183830664114E-02  0.246225214005E+01  0.000000000000E+00
  0.174581819542E-02  0.269171094894E+01  0.370648277606E-18
  0.164282618113E-02  0.290802383423E+01  0.000000000000E+00
  0.153302818423E-02  0.310986590385E+01  0.000000000000E+00
  0.141992384673E-02  0.329641318321E+01  0.000000000000E+00
  0.130663581474E-02  0.346730756760E+01  0.000000000000E+00
  0.119580047662E-02  0.362259936333E+01  0.000000000000E+00
  0.108952656797E-02  0.376267743111E+01  0.000000000000E+00
  0.989381096661E-03  0.388819599152E+01  0.000000000000E+00
  0.971479789355E-04  0.399949033288E+01 -0.325828402727E-19
  0.342666600534E-01  0.000000000000E+00 -0.119376002534E-02
  0.342666600534E-01  0.000000000000E+00  0.119376002534E-02
  0.342698824337E-01  0.217527970672E+00 -0.115692804277E-02
  0.342698824337E-01  0.217527970672E+00  0.115692804277E-02
  0.342775173423E-01  0.448061168194E+00 -0.106966063919E-02
  0.342775173423E-01  0.448061168194E+00  0.106966063919E-02
  0.342838248119E-01  0.689725637436E+00 -0.997565933343E-03
  0.342838248119E-01  0.689725637436E+00  0.997565933343E-03
  0.342885274612E-01  0.940178275108E+00 -0.943814406113E-03
  0.342885274612E-01  0.940178275108E+00  0.943814406113E-03
  0.342914074361E-01  0.119668114185E+01 -0.910896143339E-03
  0.342914074361E-01  0.119668114185E+01  0.910896143339E-03
  0.342923267137E-01  0.145621216297E+01 -0.900388752406E-03
  0.342923267137E-01  0.145621216297E+01  0.900388752406E-03
  0.342912407103E-01  0.171560299397E+01 -0.912801828255E-03
  0.342912407103E-01  0.171560299397E+01  0.912801828255E-03
  0.342882027576E-01  0.197169232368E+01 -0.947525785931E-03
  0.342882027576E-01  0.197169232368E+01  0.947525785931E-03
  0.342833586936E-01  0.222147774696E+01 -0.100289368959E-02
  0.342833586936E-01  0.222147774696E+01  0.100289368959E-02
  0.342769326198E-01  0.246225214005E+01 -0.107634404818E-02
  0.342769326198E-01  0.246225214005E+01  0.107634404818E-02
  0.342692062149E-01  0.269171094894E+01 -0.116465725981E-02
  0.342692062149E-01  0.269171094894E+01  0.116465725981E-02
  0.342604944343E-01  0.290802383423E+01 -0.126423336595E-02
  0.342604944343E-01  0.290802383423E+01  0.126423336595E-02
  0.342511211565E-01  0.310986590385E+01 -0.137137042041E-02
  0.342511211565E-01  0.310986590385E+01  0.137137042041E-02
  0.342413979750E-01  0.329641318321E+01 -0.148250689126E-02
  0.342413979750E-01  0.329641318321E+01  0.148250689126E-02
  0.342316072375E-01  0.346730756760E+01 -0.159441553133E-02
  0.342316072375E-01  0.346730756760E+01  0.159441553133E-02
  0.342219908292E-01  0.362259936333E+01 -0.170433158034E-02
  0.342219908292E-01  0.362259936333E+01  0.170433158034E-02
  0.342127449763E-01  0.376267743111E+01 -0.181001216133E-02
  0.342127449763E-01  0.376267743111E+01  0.181001216133E-02
  0.342040185398E-01  0.388819599152E+01 -0.190975578472E-02
  0.342040185398E-01  0.388819599152E+01  0.190975578472E-02
  0.341703651092E-01  0.399986265213E+01 -0.229442133769E-02
  0.341703651092E-01  0.399986265213E+01  0.229442133769E-02
  0.341403165739E-01  0.400184427598E+01 -0.188507548451E-02
  0.341403165739E-01  0.400184427598E+01  0.188507548451E-02
  0.341336570292E-01  0.400271379329E+01 -0.122196032094E-19
  0.938944796530E-01  0.000000000000E+00 -0.624850703535E-02
  0.938944796530E-01  0.000000000000E+00  0.624850703535E-02
  0.938964513531E-01  0.217527970672E+00 -0.622597040666E-02
  0.938964513531E-01  0.217527970672E+00  0.622597040666E-02
  0.939039605542E-01  0.448061168194E+00 -0.614013984579E-02
  0.939039605542E-01  0.448061168194E+00  0.614013984579E-02
  0.939101736757E-01  0.689725637436E+00 -0.606912354413E-02
  0.939101736757E-01  0.689725637436E+00  0.606912354413E-02
  0.939148118631E-01  0.940178275108E+00 -0.601610882013E-02
  0.939148118631E-01  0.940178275108E+00  0.601610882013E-02
  0.939176561901E-01  0.119668114185E+01 -0.598359801449E-02
  0.939176561901E-01  0.119668114185E+01  0.598359801449E-02
  0.939185680090E-01  0.145621216297E+01 -0.597317587732E-02
  0.939185680090E-01  0.145621216297E+01  0.597317587732E-02
  0.939175025749E-01  0.171560299397E+01 -0.598535384381E-02
  0.939175025749E-01  0.171560299397E+01  0.598535384381E-02
  0.939145135250E-01  0.197169232368E+01 -0.601951884018E-02
  0.939145135250E-01  0.197169232368E+01  0.601951884018E-02
  0.939097474483E-01  0.222147774696E+01 -0.607399534563E-02
  0.939097474483E-01  0.222147774696E+01  0.607399534563E-02
  0.939034296032E-01  0.246225214005E+01 -0.614620864342E-02
  0.939034296032E-01  0.246225214005E+01  0.614620864342E-02
  0.938958431551E-01  0.269171094894E+01 -0.623292214103E-02
  0.938958431551E-01  0.269171094894E+01  0.623292214103E-02
  0.938873047692E-01  0.290802383423E+01 -0.633051633640E-02
  0.938873047692E-01  0.290802383423E+01  0.633051633640E-02
  0.938781400889E-01  0.310986590385E+01 -0.643526911029E-02
  0.938781400889E-01  0.310986590385E+01  0.643526911029E-02
  0.938686622919E-01  0.329641318321E+01 -0.654360082321E-02
  0.938686622919E-01  0.329641318321E+01  0.654360082321E-02
  0.938591548263E-01  0.346730756760E+01 -0.665227165035E-02
  0.938591548263E-01  0.346730756760E+01  0.665227165035E-02
  0.938498598112E-01  0.362259936333E+01 -0.675851415785E-02
  0.938498598112E-01  0.362259936333E+01  0.675851415785E-02
  0.938409723865E-01  0.376267743111E+01 -0.686009788503E-02
  0.938409723865E-01  0.376267743111E+01  0.686009788503E-02
  0.938326386285E-01  0.388819599152E+01 -0.695535317288E-02
  0.938326386285E-01  0.388819599152E+01  0.695535317288E-02
  0.938020228261E-01  0.399982191417E+01 -0.730529285109E-02
  0.938020228261E-01  0.399982191417E+01  0.730529285109E-02
  0.937759936759E-01  0.400537471243E+01 -0.537478190946E-02
  0.937759936759E-01  0.400537471243E+01  0.537478190946E-02
  0.937700081870E-01  0.400767115840E+01 -0.531059685571E-20
  0.190622368231E+00  0.000000000000E+00 -0.144884656727E-01
  0.190622368231E+00  0.000000000000E+00  0.144884656727E-01
  0.190622942239E+00  0.217527970672E+00 -0.144819047741E-01
  0.190622942239E+00  0.217527970672E+00  0.144819047741E-01
  0.190630235509E+00  0.448061168194E+00 -0.143985423066E-01
  0.190630235509E+00  0.448061168194E+00  0.143985423066E-01
  0.190636283885E+00  0.689725637436E+00 -0.143294090565E-01
  0.190636283885E+00  0.689725637436E+00  0.143294090565E-01
  0.190640807385E+00  0.940178275108E+00 -0.142777052053E-01
  0.190640807385E+00  0.940178275108E+00  0.142777052053E-01
  0.190643586096E+00  0.119668114185E+01 -0.142459443984E-01
  0.190643586096E+00  0.119668114185E+01  0.142459443984E-01
  0.190644480696E+00  0.145621216297E+01 -0.142357190716E-01
  0.190644480696E+00  0.145621216297E+01  0.142357190716E-01
  0.190643446174E+00  0.171560299397E+01 -0.142475437125E-01
  0.190643446174E+00  0.171560299397E+01  0.142475437125E-01
  0.190640536323E+00  0.197169232368E+01 -0.142808034669E-01
  0.190640536323E+00  0.197169232368E+01  0.142808034669E-01
  0.190635898251E+00  0.222147774696E+01 -0.143338168751E-01
  0.190635898251E+00  0.222147774696E+01  0.143338168751E-01
  0.190629757966E+00  0.246225214005E+01 -0.144040006542E-01
  0.190629757966E+00  0.246225214005E+01  0.144040006542E-01
  0.190622399387E+00  0.269171094894E+01 -0.144881095980E-01
  0.190622399387E+00  0.269171094894E+01  0.144881095980E-01
  0.190614139635E+00  0.290802383423E+01 -0.145825190040E-01
  0.190614139635E+00  0.290802383423E+01  0.145825190040E-01
  0.190605304110E+00  0.310986590385E+01 -0.146835095219E-01
  0.190605304110E+00  0.310986590385E+01  0.146835095219E-01
  0.190596204576E+00  0.329641318321E+01 -0.147875176743E-01
  0.190596204576E+00  0.329641318321E+01  0.147875176743E-01
  0.190587121410E+00  0.346730756760E+01 -0.148913387449E-01
  0.190587121410E+00  0.346730756760E+01  0.148913387449E-01
  0.190578291561E+00  0.362259936333E+01 -0.149922643858E-01
  0.190578291561E+00  0.362259936333E+01  0.149922643858E-01
  0.190569902593E+00  0.376267743111E+01 -0.150881507315E-01
  0.190569902593E+00  0.376267743111E+01  0.150881507315E-01
  0.190562090635E+00  0.388819599152E+01 -0.151774418214E-01
  0.190562090635E+00  0.388819599152E+01  0.151774418214E-01
  0.190534290081E+00  0.399976796102E+01 -0.154952050037E-01
  0.190534290081E+00  0.399976796102E+01  0.154952050037E-01
  0.190512351166E+00  0.401113143599E+01 -0.111316370339E-01
  0.190512351166E+00  0.401113143599E+01  0.111316370339E-01
  0.190505425757E+00  0.401582515114E+01 -0.268219081496E-17
  0.330039544037E+00  0.000000000000E+00 -0.264841781860E-01
  0.330039544037E+00  0.000000000000E+00  0.264841781860E-01
  0.330040409116E+00  0.217527970672E+00 -0.264742901773E-01
  0.330040409116E+00  0.217527970672E+00  0.264742901773E-01
  0.330047469038E+00  0.448061168194E+00 -0.263935949007E-01
  0.330047469038E+00  0.448061168194E+00  0.263935949007E-01
  0.330053335330E+00  0.689725637436E+00 -0.263265428815E-01
  0.330053335330E+00  0.689725637436E+00  0.263265428815E-01
  0.330057728574E+00  0.940178275108E+00 -0.262763278701E-01
  0.330057728574E+00  0.940178275108E+00  0.262763278701E-01
  0.330060428946E+00  0.119668114185E+01 -0.262454624787E-01
  0.330060428946E+00  0.119668114185E+01  0.262454624787E-01
[...]
POINT_DATA                 446
SCALARS phi float 1
LOOKUP_TABLE default
  0.130104260698E-17
  0.205998412772E-17
 -0.249366499672E-17
 -0.867361737988E-18
 -0.195156391047E-17
  0.238524477947E-17
  0.303576608296E-17
  0.173472347598E-17
 -0.108420217249E-17
 -0.162630325873E-17
  0.108420217249E-18
  0.140946282423E-17
 -0.173472347598E-17
  0.433680868994E-18
  0.195156391047E-17
  0.216840434497E-18
 -0.867361737988E-18
  0.433680868994E-18
  0.130104260698E-17
 -0.338813178902E-20
  0.000000000000E+00
  0.346944695195E-17
  0.346944695195E-17
  0.346944695195E-17
  0.000000000000E+00
  0.000000000000E+00
 -0.346944695195E-17
  0.000000000000E+00
 -0.346944695195E-17
 -0.346944695195E-17
  0.693889390391E-17
 -0.346944695195E-17
  0.104083408559E-16
  0.346944695195E-17
  0.000000000000E+00
  0.346944695195E-17
 -0.693889390391E-17
 -0.346944695195E-17
 -0.104083408559E-16
  0.693889390391E-17
 -0.346944695195E-17
  0.000000000000E+00
 -0.520417042793E-17
 -0.173472347598E-17
  0.000000000000E+00
 -0.867361737988E-17
  0.173472347598E-17
 -0.346944695195E-17
 -0.346944695195E-17
  0.000000000000E+00
  0.173472347598E-17
  0.173472347598E-17
  0.955832635263E-15
 -0.346944695195E-17
  0.202095284951E-14
 -0.173472347598E-17
  0.329597460436E-16
 -0.173472347598E-17
  0.867361737988E-18
  0.867361737988E-18
 -0.337403716077E-15
 -0.505671893247E-15
  0.607153216592E-17
 -0.346944695195E-17
 -0.346944695195E-17
 -0.693889390391E-17
  0.000000000000E+00
 -0.416333634234E-16
  0.104083408559E-16
 -0.173472347598E-16
  0.000000000000E+00
  0.000000000000E+00
  0.693889390391E-17
  0.416333634234E-16
 -0.104083408559E-16
 -0.520417042793E-16
  0.000000000000E+00
  0.000000000000E+00
  0.693889390391E-17
 -0.104083408559E-16
 -0.104083408559E-16
 -0.107552855511E-15
 -0.208166817117E-16
 -0.128369537222E-15
 -0.104083408559E-16
  0.659194920871E-15
 -0.104083408559E-16
  0.173472347598E-16
  0.274086309204E-15
 -0.104083408559E-16
  0.659194920871E-15
  0.000000000000E+00
 -0.154043444667E-14
  0.104083408559E-16
  0.447558656802E-15
 -0.693889390391E-17
 -0.346944695195E-17
  0.000000000000E+00
  0.346944695195E-17
  0.190819582357E-16
 -0.121430643318E-16
 -0.277555756156E-16
  0.346944695195E-17
 -0.130104260698E-16
  0.954097911787E-17
 -0.632306706994E-15
  0.693889390391E-17
 -0.173472347598E-16
  0.346944695195E-17
  0.346944695195E-16
  0.693889390391E-17
  0.693889390391E-17
  0.346944695195E-17
  0.242861286637E-16
  0.242861286637E-16
 -0.208166817117E-16
  0.000000000000E+00
  0.346944695195E-17
 -0.138777878078E-16
 -0.242861286637E-16
 -0.208166817117E-16
  0.138777878078E-16
 -0.138777878078E-16
 -0.346944695195E-17
  0.346944695195E-17
 -0.346944695195E-17
 -0.277555756156E-16
 -0.142247325030E-15
  0.138777878078E-16
 -0.121430643318E-15
 -0.173472347598E-15
 -0.277555756156E-16
 -0.451028103754E-16
  0.152655665886E-15
  0.346944695195E-17
 -0.346944695195E-16
 -0.485722573274E-16
 -0.346944695195E-17
 -0.346944695195E-17
 -0.693889390391E-17
  0.242861286637E-16
 -0.277555756156E-16
 -0.346944695195E-16
  0.138777878078E-16
 -0.196891114523E-14
 -0.520417042793E-15
  0.173472347598E-16
 -0.589805981832E-16
  0.346944695195E-17
  0.000000000000E+00
 -0.555111512313E-16
 -0.138777878078E-16
  0.624500451352E-16
  0.000000000000E+00
  0.693889390391E-17
 -0.208166817117E-16
  0.693889390391E-17
  0.138777878078E-16
 -0.416333634234E-16
  0.000000000000E+00
  0.693889390391E-17
  0.693889390391E-17
 -0.693889390391E-17
 -0.277555756156E-16
  0.902056207508E-16
  0.693889390391E-16
 -0.416333634234E-16
  0.138777878078E-15
 -0.693889390391E-16
 -0.555111512313E-16
  0.693889390391E-17
 -0.180411241502E-15
  0.256739074445E-15
  0.187350135405E-15
 -0.138777878078E-15
 -0.485722573274E-15
 -0.138777878078E-15
  0.346944695195E-16
  0.416333634234E-16
 -0.151961776496E-14
  0.693889390391E-16
 -0.416333634234E-16
 -0.693889390391E-16
 -0.208166817117E-16
  0.145716771982E-15
 -0.197758476261E-15
  0.485722573274E-16
 -0.305311331772E-15
 -0.173472347598E-17
 -0.666133814775E-15
  0.135308431126E-15
  0.988792381307E-16
 -0.138777878078E-15
 -0.346944695195E-16
  0.000000000000E+00
  0.000000000000E+00
  0.138777878078E-16
 -0.208166817117E-16
 -0.693889390391E-17
  0.208166817117E-16
 -0.277555756156E-16
 -0.971445146547E-16
 -0.346944695195E-16
 -0.485722573274E-16
  0.555111512313E-16
  0.763278329430E-16
 -0.971445146547E-16
 -0.277555756156E-16
  0.555111512313E-16
 -0.693889390391E-16
 -0.693889390391E-17
  0.187350135405E-15
  0.138777878078E-16
  0.395516952523E-15
 -0.485722573274E-16
  0.763278329430E-16
  0.222044604925E-15
 -0.423272528138E-15
 -0.520417042793E-15
  0.333066907388E-15
 -0.444089209850E-15
  0.117961196366E-14
 -0.922872889220E-15
 -0.555111512313E-15
 -0.222044604925E-15
 -0.253963516883E-14
 -0.277555756156E-15
 -0.940220123979E-15
  0.589805981832E-15
  0.523192600355E-14
  0.906393016198E-14
 -0.151094414758E-14
 -0.106858966120E-14
 -0.122818422099E-14
 -0.624500451352E-16
 -0.555111512313E-16
 -0.104083408559E-15
  0.416333634234E-16
 -0.416333634234E-16
  0.797972798949E-16
 -0.124900090270E-15
 -0.520417042793E-16
 -0.208166817117E-16
 -0.381639164715E-16
  0.208166817117E-16
  0.485722573274E-16
 -0.520417042793E-16
  0.128369537222E-15
 -0.107552855511E-15
 -0.346944695195E-17
 -0.208166817117E-16
  0.385108611667E-15
 -0.711236625150E-15
 -0.902056207508E-16
  0.693889390391E-16
 -0.693889390391E-16
  0.659194920871E-16
  0.138777878078E-14
 -0.888178419700E-15
 -0.246330733589E-15
  0.192901250529E-14
 -0.374353326116E-14
  0.235922392733E-15
 -0.145716771982E-15
  0.219962936754E-14
 -0.152655665886E-15
 -0.541233724505E-15
 -0.298372437868E-15
  0.141900380335E-14
  0.198669206086E-14
 -0.323048879314E-14
  0.346944695195E-16
 -0.328383154002E-14
  0.648960052363E-14
 -0.246504205936E-14
  0.522672183312E-14
 -0.287443679969E-14
  0.395516952523E-15
  0.145716771982E-15
  0.693889390391E-16
  0.312250225676E-16
  0.451028103754E-16
  0.138777878078E-16
 -0.104083408559E-16
 -0.346944695195E-16
  0.867361737988E-17
  0.156125112838E-16
  0.346944695195E-17
  0.000000000000E+00
 -0.346944695195E-17
 -0.104083408559E-16
  0.346944695195E-17
  0.936750677027E-16
  0.100613961607E-15
  0.150920942410E-15
 -0.121430643318E-15
  0.364291929955E-15
  0.166533453694E-15
 -0.438885039422E-15
 -0.364291929955E-15
  0.758074159002E-15
  0.105818132035E-14
 -0.135655375821E-14
 -0.993996551735E-15
  0.256392129749E-14
  0.136696209907E-14
 -0.167053870737E-14
  0.192554305833E-15
  0.269922972862E-14
 -0.290392709879E-14
  0.887831475005E-14
  0.804911692853E-15
 -0.182492909673E-14
 -0.319189119580E-15
  0.690072998744E-14
  0.771951946810E-16
 -0.492401258656E-14
 -0.652733075923E-14
 -0.549473661016E-14
 -0.194115556962E-14
 -0.213696248197E-14
  0.945424294407E-16
  0.832667268469E-16
  0.416333634234E-16
  0.173472347598E-17
  0.268882138776E-16
  0.225514051877E-16
 -0.151788304148E-16
 -0.210335221462E-16
  0.238524477947E-17
 -0.628837260042E-17
 -0.162630325873E-16
 -0.208166817117E-16
 -0.724247051220E-16
 -0.138777878078E-16
  0.109938100290E-15
  0.787130777224E-16
 -0.222911966663E-15
  0.130104260698E-15
  0.566604055341E-15
 -0.125333771139E-15
  0.173472347598E-16
 -0.673940070417E-15
  0.107552855511E-15
 -0.360822483003E-15
  0.628837260042E-15
  0.796238075473E-15
 -0.115142270718E-14
 -0.408527378593E-15
  0.149533163629E-14
  0.168094704822E-14
 -0.198799310347E-14
 -0.174339709336E-15
  0.275474087985E-14
 -0.999200722163E-15
 -0.262984078958E-14
 -0.485722573274E-14
 -0.201748340256E-14
  0.715053016798E-14
  0.495263552391E-15
  0.626235174828E-15
  0.350067197452E-14
 -0.185875620451E-14
 -0.129757316003E-14
 -0.277555756156E-16
  0.294902990916E-16
  0.346944695195E-17
  0.121430643318E-16
  0.173472347598E-17
  0.208166817117E-16
 -0.225514051877E-16
 -0.173472347598E-17
  0.104083408559E-16
  0.173472347598E-17
  0.346944695195E-17
  0.693889390391E-17
  0.277555756156E-16
 -0.260208521397E-16
  0.173472347598E-16
 -0.589805981832E-16
  0.170002900646E-15
 -0.607153216592E-16
  0.116226472890E-15
 -0.258473797921E-15
  0.466640615038E-15
  0.202962646689E-15
 -0.104777297949E-14
 -0.115879528195E-14
  0.803176969377E-15
  0.905525654460E-15
 -0.369322628035E-14
 -0.160808866223E-14
  0.669429789379E-14
  0.825381429870E-14
 -0.671684929898E-14
 -0.604377659030E-14
  0.826422263955E-14
  0.441313652288E-14
 -0.381639164715E-14
 -0.685562717706E-14
  0.225514051877E-14
  0.407486544507E-14
  0.255004350969E-14
  0.830932544993E-15
  0.104950770297E-14
  0.219615992059E-14
  0.591540705308E-15
  0.260208521397E-17
  0.156125112838E-16
 -0.745931094670E-16
  0.433680868994E-17
 -0.147451495458E-16
  0.312250225676E-16
 -0.850014503229E-16
 -0.338271077815E-16
  0.385108611667E-15
 -0.636643515683E-15
  0.390312782095E-15
 -0.103736463863E-14
  0.403323208165E-15
 -0.485722573274E-14
  0.668302219120E-14
 -0.603336824945E-14
  0.562050406216E-14
 -0.670297151117E-14
 -0.197671740088E-14
  0.304097025339E-14
 -0.225514051877E-16
  0.260208521397E-16
 -0.624500451352E-16
  0.346944695195E-17
 -0.320923843056E-16
  0.147451495458E-16
  0.806646416329E-16
  0.118828558104E-15
  0.607153216592E-16
 -0.366026653431E-15
  0.395516952523E-15
 -0.532560107125E-15
  0.174860126378E-14
 -0.362383734132E-14
  0.489278756399E-14
  0.402455846427E-15
 -0.129063426613E-14
  0.112410081243E-14
 -0.686950496487E-15
SCALARS phi_mu float 1
LOOKUP_TABLE default
 -0.823197393407E-03
 -0.448956398344E-03
 -0.752141387398E-03
 -0.100888569837E-02
 -0.120042043008E-02
 -0.131187298666E-02
 -0.133406391365E-02
 -0.126469391614E-02
 -0.110865812726E-02
 -0.877455239742E-03
 -0.587779806912E-03
 -0.259588297739E-03
  0.860755584362E-04
  0.429096983858E-03
  0.751917685225E-03
  0.104062838347E-02
  0.128546341379E-02
  0.148076982722E-02
  0.162465276608E-02
 -0.237949131403E-04
 -0.146042212167E-01
 -0.146035267009E-01
 -0.155046265057E-01
 -0.155042997426E-01
 -0.161274049062E-01
 -0.161271090096E-01
 -0.166445635109E-01
 -0.166442913388E-01
 -0.170319813206E-01
 -0.170317259463E-01
 -0.172706129586E-01
 -0.172703674292E-01
 -0.173483191708E-01
 -0.173480764212E-01
 -0.172611210314E-01
 -0.172608738888E-01
 -0.170136260792E-01
 -0.170133672816E-01
 -0.166185400111E-01
 -0.166182621643E-01
 -0.160953752527E-01
 -0.160950706469E-01
 -0.154686056511E-01
 -0.154682658774E-01
 -0.147655790498E-01
 -0.147651943708E-01
 -0.140145598764E-01
 -0.140141183440E-01
 -0.132432891001E-01
 -0.132427754494E-01
 -0.124784116512E-01
 -0.124778060333E-01
 -0.117467033472E-01
 -0.117459799965E-01
 -0.110814909969E-01
 -0.110806169634E-01
 -0.105569249635E-01
 -0.105558589959E-01
 -0.341490581217E-02
 -0.336254114225E-02
 -0.496326138763E-02
 -0.493298496496E-02
 -0.453051468906E-02
 -0.202864267616E-01
 -0.202517789196E-01
 -0.220995442292E-01
 -0.220757711589E-01
 -0.226103921372E-01
 -0.225871763191E-01
 -0.230568281166E-01
 -0.230340679719E-01
 -0.233994124412E-01
 -0.233769827431E-01
 -0.236135684800E-01
 -0.235913264094E-01
 -0.236852905519E-01
 -0.236630819486E-01
 -0.236103528585E-01
 -0.235880184701E-01
 -0.233942716253E-01
 -0.233716531952E-01
 -0.230525011484E-01
 -0.230294472903E-01
 -0.226115880273E-01
 -0.225879597481E-01
 -0.221145920738E-01
 -0.220902677765E-01
 -0.216476800629E-01
 -0.216225596034E-01
 -0.215949696697E-01
 -0.215689770600E-01
 -0.191468268264E-01
 -0.191199110277E-01
 -0.175913386381E-01
 -0.175634719363E-01
 -0.164041153537E-01
 -0.163752891277E-01
 -0.153792210578E-01
 -0.153494391170E-01
 -0.144720780388E-01
 -0.144413473196E-01
 -0.435456921421E-02
 -0.425538871642E-02
 -0.697059773875E-02
 -0.658915474977E-02
 -0.676431507629E-02
 -0.291072319562E-01
 -0.289333861348E-01
 -0.287203713619E-01
 -0.286081520009E-01
 -0.295440210656E-01
 -0.294317042398E-01
 -0.302497243164E-01
 -0.301374160182E-01
 -0.307944027116E-01
 -0.306821039938E-01
 -0.311368667643E-01
 -0.310244944303E-01
 -0.312457530194E-01
 -0.311331656806E-01
 -0.311089846092E-01
 -0.309960117435E-01
 -0.307383042671E-01
 -0.306247755456E-01
 -0.301649776216E-01
 -0.300507503833E-01
 -0.294305352616E-01
 -0.293155176899E-01
 -0.285788517945E-01
 -0.284630199945E-01
 -0.276518123735E-01
 -0.275352191885E-01
 -0.266875892326E-01
 -0.265703641882E-01
 -0.257201716233E-01
 -0.256025113791E-01
 -0.247795567412E-01
 -0.246617067152E-01
 -0.238931617128E-01
 -0.237753908138E-01
 -0.230911268706E-01
 -0.229736980318E-01
 -0.224318045017E-01
 -0.223149415595E-01
 -0.610731405773E-02
 -0.577459965741E-02
 -0.100508318897E-01
 -0.912388650256E-02
 -0.101381835976E-01
 -0.417033799096E-01
 -0.411543403637E-01
 -0.395555014442E-01
 -0.392497954827E-01
 -0.402330135870E-01
 -0.399203380474E-01
 -0.408072869097E-01
 -0.404893352650E-01
 -0.412404369706E-01
 -0.409185897400E-01
 -0.415037067223E-01
 -0.411790818507E-01
 -0.415789395818E-01
 -0.412524634717E-01
 -0.414601351932E-01
 -0.411326262066E-01
 -0.411540657322E-01
 -0.408263204541E-01
 -0.406796437031E-01
 -0.403525194970E-01
 -0.400663240144E-01
 -0.397408100361E-01
 -0.393525229172E-01
 -0.390297952570E-01
 -0.385861852442E-01
 -0.382676399343E-01
 -0.380403992615E-01
 -0.377236571327E-01
 -0.375854783647E-01
 -0.372686804925E-01
 -0.353728007714E-01
 -0.350517372444E-01
 -0.342446809850E-01
 -0.339210895030E-01
 -0.338423136952E-01
 -0.335034305891E-01
 -0.160763602660E-01
 -0.157924172777E-01
 -0.110940967466E-01
 -0.100850362895E-01
 -0.168866909400E-01
 -0.148760869227E-01
 -0.155527536330E-01
 -0.505233507423E-01
 -0.489466722433E-01
 -0.510827004895E-01
 -0.503225110115E-01
 -0.509271944475E-01
 -0.503601331191E-01
 -0.513589083796E-01
 -0.505810303987E-01
 -0.520155163291E-01
 -0.512130036066E-01
 -0.524107070942E-01
 -0.515945293126E-01
 -0.525291419708E-01
 -0.517068695740E-01
 -0.523841888828E-01
 -0.515586485422E-01
 -0.519837120162E-01
 -0.511599315326E-01
 -0.513378195900E-01
 -0.505255510039E-01
 -0.509243026933E-01
 -0.501281511549E-01
 -0.508094897664E-01
 -0.502360396254E-01
 -0.505595103816E-01
 -0.497671889814E-01
 -0.493707158625E-01
 -0.486166332682E-01
 -0.488374153478E-01
 -0.481586674459E-01
 -0.490430848999E-01
 -0.493190702902E-01
 -0.499289872109E-01
 -0.490196879261E-01
 -0.320463590255E-01
 -0.311505198852E-01
 -0.186556962050E-01
 -0.180362493668E-01
 -0.147608028165E-01
 -0.129372869155E-01
 -0.228878048142E-01
 -0.191528731480E-01
 -0.234909861731E-01
 -0.262395516457E-01
 -0.258039559566E-01
 -0.270168962238E-01
 -0.264582117829E-01
 -0.274844599428E-01
 -0.268829544502E-01
 -0.277128317463E-01
 -0.270561419708E-01
 -0.278587878557E-01
 -0.271671897197E-01
 -0.279246982256E-01
 -0.272161894646E-01
 -0.279379721166E-01
 -0.272243449194E-01
 -0.279274583173E-01
 -0.272137267731E-01
 -0.278872307874E-01
 -0.271793426600E-01
 -0.277858798319E-01
 -0.270964707680E-01
 -0.276062887275E-01
 -0.269523981493E-01
 -0.273579504480E-01
 -0.267580518115E-01
 -0.270653734348E-01
 -0.265383851400E-01
 -0.286713548065E-01
 -0.282200154673E-01
 -0.317843997315E-01
 -0.316690037325E-01
 -0.318193934662E-01
 -0.311246402151E-01
 -0.234063696987E-01
 -0.227495773265E-01
  0.337992113031E-02
  0.383134013233E-02
  0.903193125099E-02
  0.923071970634E-02
 -0.133394011213E-01
 -0.967603186109E-02
 -0.109856743668E-01
 -0.800525201098E-02
 -0.841101116557E-02
 -0.130670211848E-01
 -0.126067272285E-01
 -0.140384209946E-01
 -0.135678510031E-01
 -0.139560221378E-01
 -0.135002702714E-01
 -0.139340384376E-01
 -0.134748559051E-01
 -0.139547534044E-01
 -0.134970083257E-01
 -0.139418960183E-01
 -0.134934113925E-01
 -0.139346548251E-01
 -0.134954097690E-01
 -0.139736721614E-01
 -0.135348892923E-01
 -0.140488926954E-01
 -0.136035844900E-01
 -0.141129492084E-01
 -0.136636218515E-01
 -0.143233605376E-01
 -0.138703995893E-01
 -0.141397197071E-01
 -0.136992511476E-01
 -0.147702343899E-01
 -0.143378220680E-01
 -0.146298392807E-01
 -0.142292133921E-01
 -0.129999390301E-01
 -0.150663965675E-01
 -0.120596114048E-01
 -0.110865073576E-01
  0.156662718845E-01
  0.162511985841E-01
  0.328855173767E-01
  0.332229829222E-01
  0.758912393570E-02
  0.772210318353E-02
 -0.553563904170E-02
 -0.251446247715E-02
 -0.262860234985E-02
  0.314215988722E-04
 -0.190814608256E-03
  0.237645867817E-02
  0.229774334671E-02
  0.616507655696E-03
  0.154440891615E-03
 -0.180618234594E-02
 -0.128171552006E-02
 -0.174068372562E-02
 -0.155077793144E-02
 -0.172106549213E-02
 -0.152877590060E-02
 -0.141155387197E-02
 -0.122140948725E-02
 -0.141338881139E-02
 -0.122235926387E-02
 -0.140596559440E-02
 -0.121481094242E-02
 -0.164892560842E-02
 -0.145498484532E-02
 -0.167977182974E-02
 -0.148762395737E-02
 -0.888384989384E-03
 -0.166922681657E-02
  0.331579866787E-03
  0.836536150189E-03
 -0.622643344123E-03
 -0.380310281887E-03
 -0.137244497463E-02
 -0.114624648040E-02
 -0.400766536357E-02
 -0.377877111885E-02
 -0.430267507313E-02
 -0.409856916751E-02
  0.334252228540E-01
  0.335565041431E-01
  0.435023858899E-01
  0.439425596265E-01
  0.106992340308E-01
  0.107499477554E-01
  0.269954781306E-02
  0.374514090025E-02
  0.486501637092E-02
  0.593555625399E-02
  0.615078773033E-02
  0.799090486008E-02
  0.802097187333E-02
  0.700227499236E-02
  0.702991937359E-02
  0.814126911263E-02
  0.817160628684E-02
  0.886186633463E-02
  0.888655220507E-02
  0.927052842524E-02
  0.928935494736E-02
  0.100238726718E-01
  0.100370090282E-01
  0.101015863452E-01
  0.101182644271E-01
  0.100412581971E-01
  0.100658042307E-01
  0.938684859018E-02
  0.941704306990E-02
  0.892212342601E-02
  0.895541039884E-02
  0.714219355339E-02
  0.717953022744E-02
  0.641408980862E-02
  0.645423871800E-02
  0.495066789755E-02
  0.498863444441E-02
  0.324657098663E-02
  0.329351977690E-02
  0.260391608355E-02
  0.265160990260E-02
  0.201571802624E-01
  0.202159970610E-01
  0.454233694572E-01
  0.452940736334E-01
  0.495562215060E-01
  0.496014249910E-01
  0.109146111990E-01
  0.110532128794E-01
  0.809874736477E-02
  0.841616199999E-02
  0.907037435474E-02
  0.952283196141E-02
  0.962682729622E-02
  0.245449355980E-03
  0.387888881629E-03
  0.268899492830E-03
  0.133693334927E-02
  0.157301509876E-02
  0.174865002730E-02
  0.182621562609E-02
  0.175344133914E-02
  0.148347184022E-02
  0.109341065490E-02
  0.104783736122E-03
 -0.274275532421E-03
 -0.164497950642E-02
 -0.116401658667E-02
  0.134883071353E-03
  0.203286430040E-01
  0.431988055272E-01
  0.301286668561E-01
  0.690278592385E-02
  0.838182102733E-02
  0.249659968167E-03
  0.443896958208E-03
  0.328499065297E-03
  0.139932170845E-02
  0.163748393153E-02
  0.181436088528E-02
  0.189229717856E-02
  0.181898135233E-02
  0.154780684728E-02
  0.115566486361E-02
  0.164291156701E-03
 -0.218262571171E-03
 -0.159277488365E-02
 -0.111524886978E-02
  0.178244435784E-03
  0.203705257155E-01
  0.432337863304E-01
  0.301529991004E-01
  0.693079301000E-02
SCALARS phi_sigma float 1
LOOKUP_TABLE default
  0.823197393407E-03
  0.448956398344E-03
  0.752141387398E-03
  0.100888569837E-02
  0.120042043008E-02
  0.131187298666E-02
  0.133406391365E-02
  0.126469391614E-02
  0.110865812726E-02
  0.877455239742E-03
  0.587779806912E-03
  0.259588297739E-03
 -0.860755584362E-04
 -0.429096983858E-03
 -0.751917685225E-03
 -0.104062838347E-02
 -0.128546341379E-02
 -0.148076982722E-02
 -0.162465276608E-02
  0.237949131403E-04
  0.146042212167E-01
  0.146035267009E-01
  0.155046265057E-01
  0.155042997426E-01
  0.161274049062E-01
  0.161271090096E-01
  0.166445635109E-01
  0.166442913388E-01
  0.170319813206E-01
  0.170317259463E-01
  0.172706129586E-01
  0.172703674292E-01
  0.173483191708E-01
  0.173480764212E-01
  0.172611210314E-01
  0.172608738888E-01
  0.170136260792E-01
  0.170133672816E-01
  0.166185400111E-01
  0.166182621643E-01
  0.160953752527E-01
  0.160950706469E-01
  0.154686056511E-01
  0.154682658774E-01
  0.147655790498E-01
  0.147651943708E-01
  0.140145598764E-01
  0.140141183440E-01
  0.132432891001E-01
  0.132427754494E-01
  0.124784116512E-01
  0.124778060333E-01