# vtk DataFile Version 3.0
TriPan results file. Generated by TriPan, USU AeroLab (c) 2021.
ASCII
DATASET POLYDATA
POINTS                 446 float
  0.190349744366E-05  0.000000000000E+00  0.000000000000E+00
  0.180155439444E-05  0.217527970672E+00  0.000000000000E+00
  0.188619651827E-05  0.448061168194E+00  0.000000000000E+00
  0.195463115218E-05  0.689725637436E+00  0.000000000000E+00
  0.200381935583E-05  0.940178275108E+00  0.000000000000E+00
  0.203146979263E-05  0.119668114185E+01  0.000000000000E+00
  0.203625478170E-05  0.145621216297E+01  0.432309807279E-21
  0.201794494299E-05  0.171560299397E+01  0.000000000000E+00
  0.197742965724E-05  0.197169232368E+01  0.000000000000E+00
  0.191662923716E-05  0.222147774696E+01  0.000000000000E+00
  0.183830664114E-05  0.246225214005E+01  0.000000000000E+00
  0.174581819542E-05  0.269171094894E+01  0.370648277606E-21
  0.164282618113E-05  0.290802383423E+01  0.000000000000E+00
  0.153302818423E-05  0.310986590385E+01  0.000000000000E+00
  0.141992384673E-05  0.329641318321E+01  0.000000000000E+00
  0.130663581474E-05  0.346730756760E+01  0.000000000000E+00
  0.119580047662E-05  0.362259936333E+01  0.000000000000E+00
  0.108952656797E-05  0.376267743111E+01  0.000000000000E+00
  0.989381096661E-06  0.388819599152E+01  0.000000000000E+00
  0.971479789355E-07  0.399999949033E+01 -0.325828402727E-22
  0.341101700422E-01  0.000000000000E+00 -0.298244900752E-02
  0.341101700422E-01  0.000000000000E+00  0.298244900752E-02
  0.341101732645E-01  0.217527970672E+00 -0.298241217554E-02
  0.341101732645E-01  0.217527970672E+00  0.298241217554E-02
  0.341101808994E-01  0.448061168194E+00 -0.298232490813E-02
  0.341101808994E-01  0.448061168194E+00  0.298232490813E-02
  0.341101872069E-01  0.689725637436E+00 -0.298225281343E-02
  0.341101872069E-01  0.689725637436E+00  0.298225281343E-02
  0.341101919096E-01  0.940178275108E+00 -0.298219906190E-02
  0.341101919096E-01  0.940178275108E+00  0.298219906190E-02
  0.341101947895E-01  0.119668114185E+01 -0.298216614364E-02
  0.341101947895E-01  0.119668114185E+01  0.298216614364E-02
  0.341101957088E-01  0.145621216297E+01 -0.298215563625E-02
  0.341101957088E-01  0.145621216297E+01  0.298215563625E-02
  0.341101946228E-01  0.171560299397E+01 -0.298216804932E-02
  0.341101946228E-01  0.171560299397E+01  0.298216804932E-02
  0.341101915849E-01  0.197169232368E+01 -0.298220277328E-02
  0.341101915849E-01  0.197169232368E+01  0.298220277328E-02
  0.341101867408E-01  0.222147774696E+01 -0.298225814118E-02
  0.341101867408E-01  0.222147774696E+01  0.298225814118E-02
  0.341101803147E-01  0.246225214005E+01 -0.298233159154E-02
  0.341101803147E-01  0.246225214005E+01  0.298233159154E-02
  0.341101725883E-01  0.269171094894E+01 -0.298241990475E-02
  0.341101725883E-01  0.269171094894E+01  0.298241990475E-02
  0.341101638765E-01  0.290802383423E+01 -0.298251948086E-02
  0.341101638765E-01  0.290802383423E+01  0.298251948086E-02
  0.341101545033E-01  0.310986590385E+01 -0.298262661791E-02
  0.341101545033E-01  0.310986590385E+01  0.298262661791E-02
  0.341101447801E-01  0.329641318321E+01 -0.298273775438E-02
  0.341101447801E-01  0.329641318321E+01  0.298273775438E-02
  0.341101349893E-01  0.346730756760E+01 -0.298284966302E-02
  0.341101349893E-01  0.346730756760E+01  0.298284966302E-02
  0.341101253729E-01  0.362259936333E+01 -0.298295957907E-02
  0.341101253729E-01  0.362259936333E+01  0.298295957907E-02
  0.341101161271E-01  0.376267743111E+01 -0.298306525965E-02
  0.341101161271E-01  0.376267743111E+01  0.298306525965E-02
  0.341101074006E-01  0.388819599152E+01 -0.298316500328E-02
  0.341101074006E-01  0.388819599152E+01  0.298316500328E-02
  0.341100737472E-01  0.399999986265E+01 -0.298354966883E-02
  0.341100737472E-01  0.399999986265E+01  0.298354966883E-02
  0.341100436987E-01  0.400210926234E+01 -0.210953759438E-02
  0.341100436987E-01  0.400210926234E+01  0.210953759438E-02
  0.341100370391E-01  0.400298377669E+01 -0.122196032094E-22
  0.937239372188E-01  0.000000000000E+00 -0.819781594942E-02
  0.937239372188E-01  0.000000000000E+00  0.819781594942E-02
  0.937239391905E-01  0.217527970672E+00 -0.819779341279E-02
  0.937239391905E-01  0.217527970672E+00  0.819779341279E-02
  0.937239466997E-01  0.448061168194E+00 -0.819770758223E-02
  0.937239466997E-01  0.448061168194E+00  0.819770758223E-02
  0.937239529129E-01  0.689725637436E+00 -0.819763656592E-02
  0.937239529129E-01  0.689725637436E+00  0.819763656592E-02
  0.937239575511E-01  0.940178275108E+00 -0.819758355120E-02
  0.937239575511E-01  0.940178275108E+00  0.819758355120E-02
  0.937239603954E-01  0.119668114185E+01 -0.819755104039E-02
  0.937239603954E-01  0.119668114185E+01  0.819755104039E-02
  0.937239613072E-01  0.145621216297E+01 -0.819754061826E-02
  0.937239613072E-01  0.145621216297E+01  0.819754061826E-02
  0.937239602418E-01  0.171560299397E+01 -0.819755279622E-02
  0.937239602418E-01  0.171560299397E+01  0.819755279622E-02
  0.937239572527E-01  0.197169232368E+01 -0.819758696122E-02
  0.937239572527E-01  0.197169232368E+01  0.819758696122E-02
  0.937239524866E-01  0.222147774696E+01 -0.819764143773E-02
  0.937239524866E-01  0.222147774696E+01  0.819764143773E-02
  0.937239461688E-01  0.246225214005E+01 -0.819771365102E-02
  0.937239461688E-01  0.246225214005E+01  0.819771365102E-02
  0.937239385823E-01  0.269171094894E+01 -0.819780036452E-02
  0.937239385823E-01  0.269171094894E+01  0.819780036452E-02
  0.937239300440E-01  0.290802383423E+01 -0.819789795872E-02
  0.937239300440E-01  0.290802383423E+01  0.819789795872E-02
  0.937239208793E-01  0.310986590385E+01 -0.819800271149E-02
  0.937239208793E-01  0.310986590385E+01  0.819800271149E-02
  0.937239114015E-01  0.329641318321E+01 -0.819811104320E-02
  0.937239114015E-01  0.329641318321E+01  0.819811104320E-02
  0.937239018940E-01  0.346730756760E+01 -0.819821971403E-02
  0.937239018940E-01  0.346730756760E+01  0.819821971403E-02
  0.937238925990E-01  0.362259936333E+01 -0.819832595654E-02
  0.937238925990E-01  0.362259936333E+01  0.819832595654E-02
  0.937238837116E-01  0.376267743111E+01 -0.819842754027E-02
  0.937238837116E-01  0.376267743111E+01  0.819842754027E-02
  0.937238753778E-01  0.388819599152E+01 -0.819852279555E-02
  0.937238753778E-01  0.388819599152E+01  0.819852279555E-02
  0.937238447620E-01  0.399999982191E+01 -0.819887273523E-02
  0.937238447620E-01  0.399999982191E+01  0.819887273523E-02
  0.937238187329E-01  0.400579648713E+01 -0.579655186704E-02
  0.937238187329E-01  0.400579648713E+01  0.579655186704E-02
  0.937238127474E-01  0.400819916324E+01 -0.531059685571E-23
  0.190432515049E+00  0.000000000000E+00 -0.166584976144E-01
  0.190432515049E+00  0.000000000000E+00  0.166584976144E-01
  0.190432515623E+00  0.217527970672E+00 -0.166584910535E-01
  0.190432515623E+00  0.217527970672E+00  0.166584910535E-01
  0.190432522917E+00  0.448061168194E+00 -0.166584076910E-01
  0.190432522917E+00  0.448061168194E+00  0.166584076910E-01
  0.190432528965E+00  0.689725637436E+00 -0.166583385577E-01
  0.190432528965E+00  0.689725637436E+00  0.166583385577E-01
  0.190432533488E+00  0.940178275108E+00 -0.166582868539E-01
  0.190432533488E+00  0.940178275108E+00  0.166582868539E-01
  0.190432536267E+00  0.119668114185E+01 -0.166582550931E-01
  0.190432536267E+00  0.119668114185E+01  0.166582550931E-01
  0.190432537162E+00  0.145621216297E+01 -0.166582448678E-01
  0.190432537162E+00  0.145621216297E+01  0.166582448678E-01
  0.190432536127E+00  0.171560299397E+01 -0.166582566924E-01
  0.190432536127E+00  0.171560299397E+01  0.166582566924E-01
  0.190432533217E+00  0.197169232368E+01 -0.166582899521E-01
  0.190432533217E+00  0.197169232368E+01  0.166582899521E-01
  0.190432528579E+00  0.222147774696E+01 -0.166583429656E-01
  0.190432528579E+00  0.222147774696E+01  0.166583429656E-01
  0.190432522439E+00  0.246225214005E+01 -0.166584131493E-01
  0.190432522439E+00  0.246225214005E+01  0.166584131493E-01
  0.190432515080E+00  0.269171094894E+01 -0.166584972583E-01
  0.190432515080E+00  0.269171094894E+01  0.166584972583E-01
  0.190432506821E+00  0.290802383423E+01 -0.166585916677E-01
  0.190432506821E+00  0.290802383423E+01  0.166585916677E-01
  0.190432497985E+00  0.310986590385E+01 -0.166586926582E-01
  0.190432497985E+00  0.310986590385E+01  0.166586926582E-01
  0.190432488886E+00  0.329641318321E+01 -0.166587966664E-01
  0.190432488886E+00  0.329641318321E+01  0.166587966664E-01
  0.190432479802E+00  0.346730756760E+01 -0.166589004874E-01
  0.190432479802E+00  0.346730756760E+01  0.166589004874E-01
  0.190432470973E+00  0.362259936333E+01 -0.166590014131E-01
  0.190432470973E+00  0.362259936333E+01  0.166590014131E-01
  0.190432462584E+00  0.376267743111E+01 -0.166590972994E-01
  0.190432462584E+00  0.376267743111E+01  0.166590972994E-01
  0.190432454772E+00  0.388819599152E+01 -0.166591865905E-01
  0.190432454772E+00  0.388819599152E+01  0.166591865905E-01
  0.190432426971E+00  0.399999976796E+01 -0.166595043537E-01
  0.190432426971E+00  0.399999976796E+01  0.166595043537E-01
  0.190432405032E+00  0.401177770772E+01 -0.117779154044E-01
  0.190432405032E+00  0.401177770772E+01  0.117779154044E-01
  0.190432398107E+00  0.401665985477E+01 -0.272412558306E-17
  0.329832195175E+00  0.000000000000E+00 -0.288541863447E-01
  0.329832195175E+00  0.000000000000E+00  0.288541863447E-01
  0.329832196040E+00  0.217527970672E+00 -0.288541764567E-01
  0.329832196040E+00  0.217527970672E+00  0.288541764567E-01
  0.329832203100E+00  0.448061168194E+00 -0.288540957614E-01
  0.329832203100E+00  0.448061168194E+00  0.288540957614E-01
  0.329832208967E+00  0.689725637436E+00 -0.288540287094E-01
  0.329832208967E+00  0.689725637436E+00  0.288540287094E-01
  0.329832213360E+00  0.940178275108E+00 -0.288539784943E-01
  0.329832213360E+00  0.940178275108E+00  0.288539784943E-01
  0.329832216060E+00  0.119668114185E+01 -0.288539476290E-01
  0.329832216060E+00  0.119668114185E+01  0.288539476290E-01
[...]
POINT_DATA                 446
SCALARS phi float 1
LOOKUP_TABLE default
 -0.372146860494E-16
  0.104497099738E-12
  0.411417476546E-14
  0.166081149148E-12
  0.236658810374E-12
  0.184206367690E-13
  0.104030913841E-12
  0.116712001109E-13
 -0.100074301540E-12
  0.440519123035E-13
  0.120024714719E-12
 -0.133406162404E-12
  0.635680453418E-13
  0.206566532392E-12
 -0.925121874643E-13
  0.158005192603E-12
  0.698677084381E-13
 -0.121788895328E-12
 -0.650730783869E-13
  0.258005230274E-14
 -0.569829556804E-15
  0.755019080568E-14
  0.113732062505E-13
  0.137771958691E-13
 -0.830903136009E-13
 -0.259064518698E-14
  0.105155318589E-12
 -0.964155326893E-14
  0.183034062082E-13
  0.839795762228E-13
 -0.106650799303E-13
  0.550162205628E-13
  0.373724488856E-15
  0.165011598068E-13
 -0.134884237026E-14
 -0.119477365860E-12
  0.106783946106E-12
  0.947100911423E-14
 -0.678735970964E-13
  0.274362594411E-13
 -0.229239641592E-14
 -0.184040659096E-13
  0.177449811030E-12
  0.255982081100E-14
 -0.546194356020E-13
 -0.306185469773E-15
  0.141478859471E-12
 -0.174445723979E-13
  0.243063964680E-13
  0.371130094701E-13
  0.115588962013E-13
 -0.120201869562E-13
 -0.178524966891E-13
 -0.676416117128E-14
  0.199263958740E-13
  0.333496488617E-13
 -0.463041470401E-13
 -0.142519043035E-12
  0.117450469381E-13
  0.326642128601E-13
  0.435183844256E-14
  0.197356982644E-14
  0.543710448843E-15
  0.719259721227E-15
  0.314725676076E-12
  0.644226425678E-13
 -0.247245800222E-13
 -0.271315088451E-13
 -0.152844317064E-13
  0.951834097651E-13
  0.399539342583E-13
 -0.235529911546E-13
 -0.403524869769E-13
 -0.314947720681E-13
 -0.354295585925E-14
  0.160461921528E-16
 -0.327843221321E-13
 -0.185541686182E-13
 -0.812913104886E-14
 -0.271701064425E-13
  0.541840877721E-13
 -0.118083277531E-12
 -0.213383997971E-13
 -0.123961171189E-13
 -0.198840510029E-13
  0.387331226120E-13
  0.152375941725E-13
  0.118351509149E-14
  0.134918118344E-14
  0.898673496730E-14
  0.372336710075E-13
 -0.104042208876E-13
  0.325676985380E-13
  0.725439673610E-14
 -0.225354674158E-13
  0.143315697851E-12
  0.289951439594E-13
  0.743077474552E-13
  0.706055222968E-13
  0.765750310383E-14
 -0.157876099346E-13
  0.215496565904E-13
  0.135923878489E-12
  0.317505353606E-13
 -0.777074937600E-13
  0.297239446598E-13
  0.889482172813E-14
  0.161795490200E-13
  0.478063769127E-13
  0.979251402189E-14
  0.106943100209E-12
 -0.977013608905E-13
 -0.272039335503E-13
  0.111815504772E-12
 -0.974021210909E-13
 -0.991472529077E-13
 -0.242358216829E-13
 -0.244600346921E-13
 -0.430246116512E-13
 -0.216927170671E-14
  0.231559563191E-13
 -0.104509283172E-12
  0.145222375791E-13
 -0.483705957233E-13
 -0.131910975198E-12
 -0.301603360342E-13
 -0.204775432722E-13
  0.680028949818E-13
  0.225349253147E-13
 -0.352439431806E-13
  0.209530309769E-12
 -0.266757102518E-14
  0.949318748611E-13
  0.395863897218E-13
 -0.118452990472E-12
 -0.747349231112E-13
 -0.493173210603E-13
 -0.205777235529E-13
  0.453712588333E-13
  0.130838482409E-12
  0.234077514316E-12
  0.340363154328E-12
  0.116109639264E-11
  0.331306423268E-11
  0.934410968739E-13
 -0.366345408870E-13
  0.117539658562E-12
  0.959685822022E-13
 -0.180455693791E-13
  0.275054024695E-11
  0.351213849670E-12
 -0.119647347585E-12
 -0.476514661063E-12
  0.300650129792E-12
  0.258734006442E-13
  0.101110092521E-12
 -0.120448616359E-11
 -0.942605368759E-12
 -0.141118020047E-12
  0.381535081306E-12
  0.393546306654E-12
  0.230223826114E-12
  0.215381878998E-11
 -0.102228989163E-12
 -0.299250207947E-12
 -0.743329009456E-12
 -0.153023253791E-11
 -0.155943313818E-11
 -0.139070178984E-11
  0.614768652651E-12
 -0.615167639051E-12
  0.280414580445E-12
  0.840038108518E-12
  0.501142530251E-12
 -0.436114686031E-12
  0.885715112364E-13
 -0.125711940857E-12
  0.385629028710E-13
 -0.175165437710E-12
 -0.516798409622E-12
 -0.279425788063E-12
  0.177576703342E-12
  0.235467895182E-12
  0.212243417286E-13
  0.191961030405E-12
 -0.320930781950E-12
 -0.420906365317E-11
  0.103938559148E-12
 -0.219753035213E-12
 -0.684992427363E-13
  0.611312216126E-13
 -0.311402813258E-12
 -0.123512311490E-14
  0.651249887351E-13
 -0.373239633644E-12
 -0.110602152437E-11
  0.138603711841E-11
 -0.110255554686E-11
 -0.949962331021E-12
 -0.141428535549E-12
  0.114225989778E-11
 -0.948206790863E-12
 -0.292994795092E-12
  0.820038481564E-13
 -0.163880714554E-11
 -0.240226588621E-11
  0.272740163787E-12
 -0.145193579382E-11
 -0.657002230398E-12
 -0.916072773194E-12
 -0.930568122559E-12
 -0.631640573179E-12
 -0.217756368492E-12
 -0.130555288802E-12
  0.155580409666E-11
  0.229347790759E-12
 -0.167817149066E-12
  0.129566496421E-12
  0.307545655609E-12
 -0.552273504706E-12
  0.372646358215E-12
 -0.913123743285E-13
 -0.765155300231E-12
 -0.358199581107E-12
 -0.761876672861E-12
 -0.430332852686E-12
 -0.168511732346E-11
 -0.476008121808E-12
 -0.103862751732E-11
  0.669797550756E-11
 -0.210723799521E-12
 -0.466744698446E-12
 -0.595426485894E-12
 -0.338856358947E-12
 -0.750469131283E-12
 -0.405501326961E-11
  0.135758765341E-11
 -0.925398646601E-12
 -0.232439067993E-12
 -0.180185727450E-11
  0.188890916797E-11
  0.310923162217E-11
 -0.150212481342E-11
 -0.121127760599E-11
  0.502580616013E-12
 -0.817082512761E-12
 -0.859416704468E-13
 -0.139778119634E-11
 -0.336922156841E-11
  0.123176469025E-11
 -0.178558730302E-11
  0.155382998135E-11
  0.205684427823E-12
  0.870650773699E-12
  0.139590769499E-11
 -0.250261616985E-12
 -0.570869740368E-12
  0.625371282537E-12
  0.621006718271E-12
  0.691662005448E-12
  0.726155247044E-12
 -0.269437250289E-13
 -0.149531775850E-11
  0.112548859121E-12
 -0.116166451458E-11
 -0.661005972180E-12
  0.606573818951E-12
  0.281680234693E-11
  0.421052082089E-12
  0.180561121610E-11
 -0.925309828759E-11
 -0.838190628016E-11
 -0.175490177945E-11
  0.544911338274E-12
  0.118113158143E-11
 -0.968010394065E-13
 -0.147174633591E-11
  0.307323611004E-12
  0.140762401735E-11
  0.444505543484E-11
 -0.634571908908E-11
  0.119936005571E-11
 -0.111927134228E-11
  0.510615855154E-11
  0.371509246977E-11
  0.248441545114E-11
  0.312991473017E-11
  0.443322548810E-11
  0.471339287045E-11
 -0.441732241063E-11
 -0.973101807467E-12
 -0.819376684558E-12
  0.488606724525E-11
  0.141755183980E-11
  0.324197960144E-11
  0.446249807939E-12
  0.196689192711E-11
 -0.267394613396E-12
 -0.118558982076E-11
  0.879841338675E-12
 -0.141836542511E-11
 -0.252610432572E-13
  0.160952848272E-12
  0.106401866484E-11
  0.198795840900E-12
 -0.723292953309E-12
 -0.532468166781E-12
 -0.589507609394E-12
 -0.110236125783E-11
  0.179821435520E-12
  0.662367383164E-11
 -0.175118253232E-11
 -0.288630230827E-11
 -0.620131723750E-11
  0.641320330175E-12
 -0.106736841587E-11
  0.298418234568E-11
  0.784067255566E-12
  0.156957780106E-13
  0.164285252069E-12
 -0.105360165037E-12
  0.222422080753E-11
 -0.284028356390E-11
 -0.115424891867E-10
 -0.141381351071E-11
 -0.452142143170E-11
 -0.521618859217E-11
  0.343117201318E-11
  0.843624822777E-11
 -0.255297866181E-11
 -0.333129357433E-11
  0.425354196310E-12
  0.104858483008E-11
 -0.107647224468E-11
 -0.217739715147E-11
 -0.187229398652E-11
  0.822550361157E-12
  0.325781068788E-12
 -0.155869067653E-11
  0.602122518512E-11
  0.993878590538E-12
  0.240589492773E-11
  0.443035191866E-11
  0.112104769912E-11
  0.220733847867E-11
 -0.448835413280E-12
 -0.220290452546E-11
 -0.122730992036E-11
 -0.148359796670E-11
 -0.134177391420E-11
 -0.163566382660E-11
  0.305783176557E-11
  0.224835150497E-10
 -0.800470800755E-12
  0.134481314973E-11
 -0.531358290701E-11
 -0.559374768727E-11
  0.128408395028E-11
  0.162764246525E-11
  0.459117466267E-11
 -0.197722394013E-11
  0.382353870787E-11
 -0.355862561641E-11
  0.616520723362E-12
  0.133223432286E-10
  0.461533589124E-11
  0.109781628232E-11
 -0.157617946472E-10
 -0.635339003630E-12
  0.618838313926E-12
  0.374317937757E-11
  0.360136920285E-11
 -0.812169775877E-12
  0.215143181048E-11
  0.445061348886E-11
 -0.608264827395E-11
  0.151323398256E-12
 -0.124469878848E-11
 -0.423769352942E-11
 -0.267966204781E-11
  0.144653733436E-11
  0.575518799284E-12
  0.229364097160E-11
  0.263813276780E-12
  0.157891755226E-11
  0.247855902469E-11
 -0.202490801904E-12
  0.623806561961E-12
  0.104716235683E-11
  0.935224120369E-12
 -0.191571758457E-11
 -0.164927793644E-11
  0.327002314116E-12
  0.469319028085E-12
 -0.522624998833E-11
 -0.124082133457E-10
 -0.783373366176E-11
  0.127887700430E-10
 -0.103858033285E-10
  0.174393832708E-11
  0.908828567958E-12
 -0.271260791607E-11
  0.270894418009E-12
  0.108163478174E-11
 -0.638461505886E-12
 -0.112418407916E-11
 -0.552280443600E-12
 -0.698127666787E-11
 -0.871795691193E-11
 -0.277791678549E-12
  0.184326165442E-11
 -0.442808290035E-11
  0.353170270806E-11
  0.516667264527E-11
 -0.359869078981E-11
  0.317154635887E-11
  0.262143778906E-11
  0.528216359541E-12
 -0.291890123183E-11
 -0.254407606093E-12
 -0.104348474306E-11
  0.728625493274E-12
  0.690836277073E-12
  0.158240087700E-11
  0.342026407196E-11
 -0.156364921011E-10
 -0.709654557340E-11
 -0.117048593040E-10
 -0.646438458318E-11
 -0.637961905525E-13
  0.100779801171E-11
 -0.642301489773E-11
  0.178770886983E-11
  0.289890333960E-11
 -0.110526865438E-11
 -0.433098001906E-12
  0.217748735709E-11
  0.542704770012E-12
 -0.236671793274E-11
 -0.916530740191E-12
 -0.813196732175E-12
 -0.183807136178E-11
 -0.881911210726E-11
  0.302280422915E-11
  0.781852360632E-11
 -0.300021119060E-11
SCALARS phi_mu float 1
LOOKUP_TABLE default
  0.791033905045E-14
  0.780868425476E-13
 -0.248412401760E-13
  0.134982303113E-12
  0.203972255752E-12
 -0.151753609678E-13
  0.702771174588E-13
 -0.214758766326E-13
 -0.131899699496E-12
  0.141588130109E-13
  0.925310175703E-13
 -0.158196372668E-12
  0.416229550826E-13
  0.197100202912E-12
 -0.100627649659E-12
  0.151137335611E-12
  0.641183612281E-13
 -0.126560505240E-12
 -0.650048591344E-13
  0.691987835305E-13
 -0.369193915547E-04
  0.613744837731E-06
 -0.469873424133E-04
  0.546559647920E-05
 -0.469419758131E-04
  0.555461227349E-05
 -0.469074564421E-04
  0.562530192479E-05
 -0.468842828725E-04
  0.567652903023E-05
 -0.468727847172E-04
  0.570743840673E-05
 -0.468731275817E-04
  0.571750806515E-05
 -0.468853120548E-04
  0.570657689087E-05
 -0.469091751667E-04
  0.567485222447E-05
 -0.469443856884E-04
  0.562289527666E-05
 -0.469904417783E-04
  0.555158990271E-05
 -0.470466724235E-04
  0.546208868673E-05
 -0.375846232347E-04
  0.148833681484E-04
 -0.281303115723E-04
  0.242898997517E-04
 -0.282110211185E-04
  0.986230937771E-05
 -0.282981290598E-04
  0.971392112606E-05
 -0.283907026376E-04
  0.955380070217E-05
 -0.189585334989E-04
  0.189120672465E-04
 -0.190593122658E-04
  0.187307927116E-04
 -0.219749685620E-04
  0.498632894962E-04
 -0.115327720072E-04
  0.212416745316E-04
  0.350466843946E-05
  0.142099626637E-02
  0.145242636318E-02
 -0.169586592795E-02
 -0.130358061637E-02
 -0.177082463527E-02
 -0.137842500992E-02
 -0.190468169214E-02
 -0.151217266642E-02
 -0.195082352473E-02
 -0.155820813782E-02
 -0.197907923228E-02
 -0.158635879763E-02
 -0.198810114665E-02
 -0.159527533549E-02
 -0.197745369204E-02
 -0.158452067685E-02
 -0.194765736594E-02
 -0.155461402514E-02
 -0.190013539512E-02
 -0.150697776940E-02
 -0.183707343832E-02
 -0.144379745630E-02
 -0.168926007654E-02
 -0.129586270466E-02
 -0.160366996158E-02
 -0.121015065927E-02
 -0.151149182554E-02
 -0.111785444062E-02
 -0.141574077956E-02
 -0.102199566779E-02
 -0.131913681026E-02
 -0.925303035706E-03
 -0.122399533921E-02
 -0.830102827760E-03
 -0.116815850662E-02
 -0.918172454405E-03
 -0.108105908138E-02
 -0.831114814311E-03
 -0.308541592020E-03
  0.133658569224E-03
 -0.377769360681E-03
 -0.118391912204E-03
 -0.297256794411E-03
  0.166332740592E-03
 -0.350543265141E-03
 -0.394516070611E-02
 -0.233528095978E-02
 -0.405655638219E-02
 -0.244515106300E-02
 -0.414866363052E-02
 -0.253580922602E-02
 -0.421746035374E-02
 -0.260323460106E-02
 -0.425977990907E-02
 -0.264426205297E-02
 -0.427361162743E-02
 -0.265688333653E-02
 -0.425830162771E-02
 -0.264044997013E-02
 -0.421461839116E-02
 -0.259574036149E-02
 -0.414467112973E-02
 -0.252488094942E-02
 -0.405169755485E-02
 -0.243113580815E-02
 -0.408830365474E-02
 -0.306133794564E-02
 -0.396191616431E-02
 -0.293458764647E-02
 -0.382570565177E-02
 -0.279830132617E-02
 -0.398119098844E-02
 -0.295406483560E-02
 -0.398669610450E-02
 -0.325737323524E-02
 -0.384558608352E-02
 -0.311745612456E-02
 -0.400621631419E-02
 -0.313127413028E-02
 -0.700438193399E-02
 -0.553755569535E-02
 -0.738713339093E-03
  0.109381113551E-02
 -0.115544724519E-02
 -0.476689534099E-04
 -0.805159769251E-03
 -0.760728481686E-02
 -0.814569303007E-02
 -0.140457429136E-01
 -0.110456932798E-01
 -0.141867895895E-01
 -0.111789891189E-01
 -0.143037034083E-01
 -0.112886696641E-01
 -0.143914526788E-01
 -0.113697352395E-01
 -0.144460550700E-01
 -0.114182638627E-01
 -0.135736729322E-01
 -0.105405022720E-01
 -0.144472864017E-01
 -0.114095405480E-01
 -0.143939371753E-01
 -0.113525547457E-01
 -0.143074667485E-01
 -0.112635480471E-01
 -0.141918325735E-01
 -0.111466639891E-01
 -0.140520100136E-01
 -0.110070855006E-01
 -0.147848448786E-01
 -0.126331684745E-01
 -0.232122701179E-01
 -0.210754998843E-01
 -0.296436636197E-01
 -0.271966224737E-01
 -0.233240303063E-01
 -0.211590565800E-01
 -0.183447182056E-01
 -0.158923625210E-01
 -0.136895354574E-01
 -0.975433571861E-02
  0.237825182642E-01
  0.230154159407E-01
  0.118119309232E-02
  0.646104537864E-02
 -0.928463909477E-03
  0.256183202413E-02
 -0.501108289017E-02
  0.349989095547E-01
  0.608401832267E-02
 -0.260531051238E-01
 -0.232834202506E-01
 -0.451569456897E-01
 -0.359922902535E-01
 -0.440615466582E-01
 -0.365096993094E-01
 -0.454120325669E-01
 -0.378556967847E-01
 -0.463419203414E-01
 -0.387825383638E-01
 -0.466420986431E-01
 -0.390781707787E-01
 -0.462335634448E-01
 -0.386586358246E-01
 -0.452403233506E-01
 -0.376498205599E-01
 -0.438679143620E-01
 -0.362630988678E-01
 -0.450095596702E-01
 -0.367343924608E-01
 -0.351874273067E-01
 -0.267022785183E-01
 -0.275367196580E-01
 -0.220158739644E-01
 -0.259195547227E-01
 -0.203488133193E-01
 -0.290212713003E-01
 -0.226393502337E-01
 -0.279728483146E-01
 -0.236491982979E-01
 -0.284861595809E-01
 -0.197352095792E-01
 -0.221146865836E-01
 -0.510397607139E-01
  0.706620762387E-01
  0.773577084413E-01
  0.801740785071E-02
  0.228946800885E-01
 -0.988313661322E-02
  0.113660496529E-04
 -0.998885144344E-02
  0.158244763217E-01
  0.117824736293E-01
 -0.219952993459E-01
 -0.209578672134E-01
 -0.249077355457E-01
 -0.188601238185E-01
 -0.243595377861E-01
 -0.184214847442E-01
 -0.227504597611E-01
 -0.168235169480E-01
 -0.212064740532E-01
 -0.152932949835E-01
 -0.210982452759E-01
 -0.151888728348E-01
 -0.208811900228E-01
 -0.149556670042E-01
 -0.205810522283E-01
 -0.146222737731E-01
 -0.220172874441E-01
 -0.180687742741E-01
 -0.274502222537E-01
 -0.234702244150E-01
 -0.279952924849E-01
 -0.240088808096E-01
 -0.403866376119E-01
 -0.345921500335E-01
 -0.336681543843E-01
 -0.298024155439E-01
 -0.219018891418E-01
 -0.162436617979E-01
 -0.137873980070E-01
 -0.654872827104E-02
 -0.214349922526E+00
 -0.209607492228E+00
  0.229391802596E+00
  0.231384088566E+00
  0.125161139971E+00
  0.139551593915E+00
  0.402435070644E-01
  0.394240296929E-01
  0.312478906666E-01
  0.363168982792E-01
  0.256108517667E-01
  0.108335148858E+00
  0.915749071739E-01
  0.125131249254E-01
  0.119813822296E-01
 -0.291776480813E-01
 -0.319643603426E-01
 -0.144145209158E-01
 -0.139546651375E-01
 -0.745058086454E-02
 -0.390645162355E-02
 -0.807430689952E-02
 -0.440906278050E-02
 -0.862075296061E-02
 -0.495143696935E-02
 -0.844110360957E-02
 -0.475834794717E-02
 -0.751573915039E-02
 -0.381484944546E-02
 -0.112448651390E-01
 -0.771415499759E-02
 -0.151008112730E-01
 -0.170528739492E-01
 -0.234753562278E-01
 -0.253384595136E-01
 -0.689786327368E-02
 -0.826591548561E-02
 -0.627452292845E-02
 -0.671120723475E-02
  0.461374003489E-02
  0.540226048835E-02
  0.349503990452E-01
  0.350609203696E-01
  0.207387549276E+00
  0.201959402869E+00
  0.389642238351E+00
  0.386207123233E+00
  0.254661300655E+00
  0.262711389447E+00
  0.823709608034E-01
  0.856541135780E-01
  0.765648943963E-01
  0.775296934205E-01
  0.752144784793E-01
  0.128350845920E+00
  0.121628856075E+00
  0.778405383908E-01
  0.800318980109E-01
  0.297125878107E-01
  0.291134783485E-01
 -0.268321036539E-01
 -0.262128835676E-01
 -0.390393397877E-01
 -0.382786912623E-01
 -0.530252031995E-01
 -0.524707098557E-01
 -0.665649028092E-01
 -0.665385479158E-01
 -0.647998173636E-01
 -0.647577701772E-01
 -0.363078968794E-01
 -0.357778312700E-01
 -0.385605811692E-01
 -0.379050581009E-01
  0.128594416754E-01
  0.159307703202E-01
  0.405332295970E-01
  0.394549740088E-01
  0.629606256079E-01
  0.636099475607E-01
  0.442008357248E-01
  0.444966173074E-01
  0.743308608060E-01
  0.748752917733E-01
 -0.328770321658E+00
 -0.328100869319E+00
  0.572943379685E+00
  0.570846337989E+00
  0.474413624510E+00
  0.473326505979E+00
  0.295248070234E+00
  0.297884398624E+00
  0.109570161059E+00
  0.109338862290E+00
  0.104657209835E+00
  0.106347504390E+00
  0.102291540022E+00
  0.144578983712E+00
  0.142152113217E+00
  0.114628076416E+00
  0.114776815366E+00
  0.719315405698E-01
  0.711937310691E-01
  0.474955461455E-01
  0.475655646452E-01
  0.646197459926E-01
  0.645343058075E-01
  0.443735134936E-01
  0.443523257945E-01
  0.442681013639E-01
  0.442518870802E-01
  0.360516654005E-01
  0.360614276795E-01
  0.502721053605E-01
  0.502681159438E-01
  0.220575695131E-01
  0.216480677219E-01
  0.733660869281E-01
  0.735560923180E-01
  0.673113546574E-01
  0.673749833458E-01
  0.700754472317E-01
  0.701937107960E-01
  0.720367039204E-01
  0.720629723514E-01
  0.739062092124E-01
  0.739130200684E-01
 -0.123120294701E+00
 -0.123253976720E+00
  0.570327136792E+00
  0.568742324524E+00
  0.555101414275E+00
  0.558809687430E+00
  0.324673525356E+00
  0.325313375858E+00
  0.138673585641E+00
  0.138813990648E+00
  0.140710044555E+00
  0.140796899801E+00
  0.139954304279E+00
  0.139512636782E+00
  0.123224181607E+00
  0.102402732836E+00
  0.534756510816E-01
  0.643515234597E-01
  0.687955251716E-01
  0.701208155131E-01
  0.700167066651E-01
  0.696952104051E-01
  0.584836893924E-01
  0.758075467298E-01
  0.643211414115E-01
  0.552991494226E-01
  0.105129341196E+00
  0.104983743055E+00
 -0.245874163331E+00
  0.494401203605E+00
  0.734356217936E+00
  0.348960875015E+00
  0.166099592168E+00
  0.139512581269E+00
  0.123224177066E+00
  0.102402714995E+00
  0.534757214405E-01
  0.643515255121E-01
  0.687955347859E-01
  0.701208165030E-01
  0.700167079118E-01
  0.696952280032E-01
  0.584836898750E-01
  0.758075571432E-01
  0.643211418326E-01
  0.552991456081E-01
  0.105129342746E+00
  0.104983741089E+00
 -0.245874172034E+00
  0.494401200374E+00
  0.734356247744E+00
  0.348960885308E+00
SCALARS phi_sigma float 1
LOOKUP_TABLE default
 -0.794755373650E-14
  0.264102571902E-13
  0.289554149414E-13
  0.310988460356E-13
  0.326865546222E-13
  0.335959977368E-13
  0.337537963823E-13
  0.331470767435E-13
  0.318253979563E-13
  0.298930992925E-13
  0.274936971487E-13
  0.247902102639E-13
  0.219450902592E-13
  0.946632947990E-14
  0.811546219478E-14
  0.686785699228E-14
  0.574934721001E-14
  0.477160991172E-14
 -0.682192525298E-16
 -0.666187312278E-13
  0.369193915541E-04
 -0.613744830181E-06
  0.469873424246E-04
 -0.546559646542E-05
  0.469419757300E-04
 -0.555461227608E-05
  0.469074565473E-04
 -0.562530193443E-05
  0.468842828908E-04
 -0.567652894625E-05
  0.468727847066E-04
 -0.570743835172E-05
  0.468731275821E-04
 -0.571750804865E-05
  0.468853120535E-04
 -0.570657701034E-05
  0.469091752735E-04
 -0.567485221500E-05
  0.469443856206E-04
 -0.562289524923E-05
  0.469904417760E-04
 -0.555158992111E-05
  0.470466726010E-04
 -0.546208868418E-05
  0.375846231800E-04
 -0.148833681487E-04
  0.281303117137E-04
 -0.242898997692E-04
  0.282110211428E-04
 -0.986230934060E-05
  0.282981290714E-04
 -0.971392113808E-05