# vtk DataFile Version 3.0
MachLine results file. Generated by MachLine, USU AeroLab (c) 2022.
ASCII
DATASET POLYDATA
POINTS                1127 float
  0.999999041957E+00  0.000000000000E+00 -0.417491494650E-07
  0.973034383663E+00  0.105263157890E+00 -0.235825883963E-02
  0.999999119618E+00  0.105263157890E+00 -0.383648804671E-07
  0.973034382832E+00  0.000000000000E+00 -0.235824933777E-02
  0.929717675664E+00  0.105263157890E+00 -0.614787723533E-02
  0.929717673943E+00  0.000000000000E+00 -0.614785756087E-02
  0.863184699151E+00  0.105263157890E+00 -0.119686097007E-01
  0.863184696324E+00  0.000000000000E+00 -0.119685773901E-01
  0.767714125425E+00  0.105263157890E+00 -0.203210244768E-01
  0.767714122072E+00  0.000000000000E+00 -0.203209861486E-01
  0.643290413741E+00  0.105263157890E+00 -0.312065343397E-01
  0.643290411360E+00  0.000000000000E+00 -0.312065071268E-01
  0.500000000000E+00  0.105263157890E+00 -0.437427648440E-01
  0.500000000000E+00  0.000000000000E+00 -0.437429617072E-01
  0.356709588640E+00  0.000000000000E+00 -0.312065071268E-01
  0.356709586259E+00  0.105263157890E+00 -0.312065343397E-01
  0.232285877928E+00  0.000000000000E+00 -0.203209861486E-01
  0.232285874575E+00  0.105263157890E+00 -0.203210244768E-01
  0.136815303676E+00  0.000000000000E+00 -0.119685773901E-01
  0.136815300849E+00  0.105263157890E+00 -0.119686097007E-01
  0.702823260562E-01  0.000000000000E+00 -0.614785756087E-02
  0.702823243349E-01  0.105263157890E+00 -0.614787723533E-02
  0.269656171711E-01  0.000000000000E+00 -0.235824933777E-02
  0.269656163398E-01  0.105263157890E+00 -0.235825883963E-02
  0.961695078561E-06  0.000000000000E+00  0.000000000000E+00
  0.883738164913E-06  0.105263157890E+00  0.000000000000E+00
  0.269656163398E-01  0.105263157890E+00  0.235825883963E-02
  0.269656171711E-01  0.000000000000E+00  0.235824933777E-02
  0.702823243349E-01  0.105263157890E+00  0.614787723533E-02
  0.702823260562E-01  0.000000000000E+00  0.614785756087E-02
  0.136815300849E+00  0.105263157890E+00  0.119686097007E-01
  0.136815303676E+00  0.000000000000E+00  0.119685773901E-01
  0.232285874575E+00  0.105263157890E+00  0.203210244768E-01
  0.232285877928E+00  0.000000000000E+00  0.203209861486E-01
  0.356709586259E+00  0.105263157890E+00  0.312065343397E-01
  0.356709588640E+00  0.000000000000E+00  0.312065071268E-01
  0.500000000000E+00  0.105263157890E+00  0.437427648440E-01
  0.500000000000E+00  0.000000000000E+00  0.437429617072E-01
  0.643290411360E+00  0.000000000000E+00  0.312065071268E-01
  0.643290413741E+00  0.105263157890E+00  0.312065343397E-01
  0.767714122072E+00  0.000000000000E+00  0.203209861486E-01
  0.767714125425E+00  0.105263157890E+00  0.203210244768E-01
  0.863184696324E+00  0.000000000000E+00  0.119685773901E-01
  0.863184699151E+00  0.105263157890E+00  0.119686097007E-01
  0.929717673943E+00  0.000000000000E+00  0.614785756087E-02
  0.929717675664E+00  0.105263157890E+00  0.614787723533E-02
  0.973034382832E+00  0.000000000000E+00  0.235824933777E-02
  0.973034383663E+00  0.105263157890E+00  0.235825883963E-02
  0.973034383663E+00  0.210526315790E+00 -0.235825883963E-02
  0.999999119618E+00  0.210526315790E+00 -0.383648804656E-07
  0.929717675664E+00  0.210526315790E+00 -0.614787723533E-02
  0.863184699151E+00  0.210526315790E+00 -0.119686097007E-01
  0.767714125425E+00  0.210526315790E+00 -0.203210244768E-01
  0.643290413741E+00  0.210526315790E+00 -0.312065343397E-01
  0.500000000000E+00  0.210526315790E+00 -0.437427648440E-01
  0.356709586259E+00  0.210526315790E+00 -0.312065343397E-01
  0.232285874575E+00  0.210526315790E+00 -0.203210244768E-01
  0.136815300849E+00  0.210526315790E+00 -0.119686097007E-01
  0.702823243349E-01  0.210526315790E+00 -0.614787723533E-02
  0.269656163398E-01  0.210526315790E+00 -0.235825883963E-02
  0.883738164878E-06  0.210526315790E+00  0.000000000000E+00
  0.269656163398E-01  0.210526315790E+00  0.235825883963E-02
  0.702823243349E-01  0.210526315790E+00  0.614787723533E-02
  0.136815300849E+00  0.210526315790E+00  0.119686097007E-01
  0.232285874575E+00  0.210526315790E+00  0.203210244768E-01
  0.356709586259E+00  0.210526315790E+00  0.312065343397E-01
  0.500000000000E+00  0.210526315790E+00  0.437427648440E-01
  0.643290413741E+00  0.210526315790E+00  0.312065343397E-01
  0.767714125425E+00  0.210526315790E+00  0.203210244768E-01
  0.863184699151E+00  0.210526315790E+00  0.119686097007E-01
  0.929717675664E+00  0.210526315790E+00  0.614787723533E-02
  0.973034383663E+00  0.210526315790E+00  0.235825883963E-02
  0.973034383663E+00  0.315789473680E+00 -0.235825883963E-02
  0.999999119618E+00  0.315789473680E+00 -0.383648804671E-07
  0.929717675664E+00  0.315789473680E+00 -0.614787723533E-02
  0.863184699151E+00  0.315789473680E+00 -0.119686097007E-01
  0.767714125425E+00  0.315789473680E+00 -0.203210244768E-01
  0.643290413741E+00  0.315789473680E+00 -0.312065343397E-01
  0.500000000000E+00  0.315789473680E+00 -0.437427648440E-01
  0.356709586259E+00  0.315789473680E+00 -0.312065343397E-01
  0.232285874575E+00  0.315789473680E+00 -0.203210244768E-01
  0.136815300849E+00  0.315789473680E+00 -0.119686097007E-01
  0.702823243349E-01  0.315789473680E+00 -0.614787723533E-02
  0.269656163398E-01  0.315789473680E+00 -0.235825883963E-02
  0.883738164913E-06  0.315789473680E+00  0.000000000000E+00
  0.269656163398E-01  0.315789473680E+00  0.235825883963E-02
  0.702823243349E-01  0.315789473680E+00  0.614787723533E-02
  0.136815300849E+00  0.315789473680E+00  0.119686097007E-01
  0.232285874575E+00  0.315789473680E+00  0.203210244768E-01
  0.356709586259E+00  0.315789473680E+00  0.312065343397E-01
  0.500000000000E+00  0.315789473680E+00  0.437427648440E-01
  0.643290413741E+00  0.315789473680E+00  0.312065343397E-01
  0.767714125425E+00  0.315789473680E+00  0.203210244768E-01
  0.863184699151E+00  0.315789473680E+00  0.119686097007E-01
  0.929717675664E+00  0.315789473680E+00  0.614787723533E-02
  0.973034383663E+00  0.315789473680E+00  0.235825883963E-02
  0.973034383663E+00  0.421052631580E+00 -0.235825883963E-02
  0.999999119618E+00  0.421052631580E+00 -0.383648804656E-07
  0.929717675664E+00  0.421052631580E+00 -0.614787723533E-02
  0.863184699151E+00  0.421052631580E+00 -0.119686097007E-01
  0.767714125425E+00  0.421052631580E+00 -0.203210244768E-01
  0.643290413741E+00  0.421052631580E+00 -0.312065343397E-01
  0.500000000000E+00  0.421052631580E+00 -0.437427648440E-01
  0.356709586259E+00  0.421052631580E+00 -0.312065343397E-01
  0.232285874575E+00  0.421052631580E+00 -0.203210244768E-01
  0.136815300849E+00  0.421052631580E+00 -0.119686097007E-01
  0.702823243349E-01  0.421052631580E+00 -0.614787723533E-02
  0.269656163398E-01  0.421052631580E+00 -0.235825883963E-02
  0.883738164878E-06  0.421052631580E+00  0.187623218593E-21
  0.269656163398E-01  0.421052631580E+00  0.235825883963E-02
  0.702823243349E-01  0.421052631580E+00  0.614787723533E-02
  0.136815300849E+00  0.421052631580E+00  0.119686097007E-01
  0.232285874575E+00  0.421052631580E+00  0.203210244768E-01
  0.356709586259E+00  0.421052631580E+00  0.312065343397E-01
  0.500000000000E+00  0.421052631580E+00  0.437427648440E-01
  0.643290413741E+00  0.421052631580E+00  0.312065343397E-01
  0.767714125425E+00  0.421052631580E+00  0.203210244768E-01
  0.863184699151E+00  0.421052631580E+00  0.119686097007E-01
  0.929717675664E+00  0.421052631580E+00  0.614787723533E-02
  0.973034383663E+00  0.421052631580E+00  0.235825883963E-02
  0.973034383663E+00  0.526315789470E+00 -0.235825883963E-02
  0.999999119618E+00  0.526315789470E+00 -0.383648804671E-07
  0.929717675664E+00  0.526315789470E+00 -0.614787723533E-02
  0.863184699151E+00  0.526315789470E+00 -0.119686097007E-01
  0.767714125425E+00  0.526315789470E+00 -0.203210244768E-01
  0.643290413741E+00  0.526315789470E+00 -0.312065343397E-01
  0.500000000000E+00  0.526315789470E+00 -0.437427648440E-01
  0.356709586259E+00  0.526315789470E+00 -0.312065343397E-01
  0.232285874575E+00  0.526315789470E+00 -0.203210244768E-01
  0.136815300849E+00  0.526315789470E+00 -0.119686097007E-01
  0.702823243349E-01  0.526315789470E+00 -0.614787723533E-02
  0.269656163398E-01  0.526315789470E+00 -0.235825883963E-02
  0.883738164913E-06  0.526315789470E+00  0.187623218601E-21
  0.269656163398E-01  0.526315789470E+00  0.235825883963E-02
  0.702823243349E-01  0.526315789470E+00  0.614787723533E-02
  0.136815300849E+00  0.526315789470E+00  0.119686097007E-01
  0.232285874575E+00  0.526315789470E+00  0.203210244768E-01
  0.356709586259E+00  0.526315789470E+00  0.312065343397E-01
  0.500000000000E+00  0.526315789470E+00  0.437427648440E-01
  0.643290413741E+00  0.526315789470E+00  0.312065343397E-01
  0.767714125425E+00  0.526315789470E+00  0.203210244768E-01
  0.863184699151E+00  0.526315789470E+00  0.119686097007E-01
  0.929717675664E+00  0.526315789470E+00  0.614787723533E-02
  0.973034383663E+00  0.526315789470E+00  0.235825883963E-02
  0.973034383663E+00  0.631578947370E+00 -0.235825883963E-02
  0.999999119618E+00  0.631578947370E+00 -0.383648804656E-07
  0.929717675664E+00  0.631578947370E+00 -0.614787723533E-02
  0.863184699151E+00  0.631578947370E+00 -0.119686097007E-01
  0.767714125425E+00  0.631578947370E+00 -0.203210244768E-01
  0.643290413741E+00  0.631578947370E+00 -0.312065343397E-01
  0.500000000000E+00  0.631578947370E+00 -0.437427648440E-01
  0.356709586259E+00  0.631578947370E+00 -0.312065343397E-01
  0.232285874575E+00  0.631578947370E+00 -0.203210244768E-01
  0.136815300849E+00  0.631578947370E+00 -0.119686097007E-01
  0.702823243349E-01  0.631578947370E+00 -0.614787723533E-02
  0.269656163398E-01  0.631578947370E+00 -0.235825883963E-02
  0.883738164878E-06  0.631578947370E+00  0.000000000000E+00
  0.269656163398E-01  0.631578947370E+00  0.235825883963E-02
  0.702823243349E-01  0.631578947370E+00  0.614787723533E-02
  0.136815300849E+00  0.631578947370E+00  0.119686097007E-01
  0.232285874575E+00  0.631578947370E+00  0.203210244768E-01
[...]
POINT_DATA                1127
SCALARS phi float 1
LOOKUP_TABLE default
  0.102999206386E-16
  0.260208521397E-16
  0.727770708281E-17
  0.216840434497E-17
  0.867361737988E-18
 -0.607153216592E-17
  0.208166817117E-16
  0.468375338514E-16
  0.607153216592E-16
  0.265759636520E-14
 -0.589805981832E-16
 -0.312250225676E-15
  0.451028103754E-16
  0.225514051877E-15
  0.693889390391E-17
  0.000000000000E+00
  0.832667268469E-15
 -0.173472347598E-17
 -0.173472347598E-17
  0.260208521397E-16
 -0.867361737988E-18
  0.000000000000E+00
 -0.613658429627E-16
  0.000000000000E+00
  0.747771273748E-20
  0.544650920112E-16
  0.182362805412E-15
 -0.149836740237E-15
  0.381639164715E-16
 -0.628837260042E-16
 -0.607153216592E-17
  0.104083408559E-16
 -0.832667268469E-16
  0.407660016855E-15
 -0.728583859910E-16
  0.346944695195E-17
  0.693889390391E-16
  0.100613961607E-15
  0.971445146547E-16
 -0.104083408559E-15
  0.205911676598E-14
 -0.832667268469E-16
 -0.693889390391E-16
  0.173472347598E-16
 -0.111022302463E-15
 -0.433680868994E-16
  0.915066633578E-16
  0.730752264255E-16
  0.678710559976E-16
  0.101915004214E-15
 -0.153523027624E-15
  0.147451495458E-15
 -0.202962646689E-15
 -0.693889390391E-17
  0.242861286637E-16
 -0.902056207508E-16
  0.520417042793E-17
  0.000000000000E+00
  0.867361737988E-18
 -0.109070738552E-15
  0.415310841951E-19
  0.405491612510E-16
 -0.173472347598E-17
 -0.867361737988E-18
 -0.102348685083E-15
 -0.194289029309E-15
  0.104083408559E-16
 -0.624500451352E-16
 -0.277555756156E-16
  0.520417042793E-17
 -0.138777878078E-15
  0.401154803820E-16
  0.271050543121E-16
  0.105059190514E-15
 -0.145716771982E-15
 -0.693889390391E-16
 -0.457966997658E-15
  0.693889390391E-16
  0.000000000000E+00
  0.173472347598E-16
  0.173472347598E-17
  0.173472347598E-17
  0.433680868994E-18
 -0.375133951680E-16
 -0.228035298384E-16
  0.338271077815E-16
  0.390312782095E-17
  0.346944695195E-17
 -0.829197821517E-15
  0.416333634234E-16
  0.832667268469E-16
  0.555111512313E-16
 -0.163064006742E-15
 -0.183880688454E-15
  0.117093834628E-15
  0.149186218934E-15
 -0.101915004214E-16
 -0.150270421106E-15
 -0.157859836314E-15
  0.159594559790E-15
 -0.208166817117E-16
 -0.693889390391E-17
 -0.693889390391E-17
  0.346944695195E-17
  0.346944695195E-17
  0.372965547335E-16
  0.789299181569E-16
 -0.112757025938E-16
 -0.153557808914E-18
  0.231802424477E-15
  0.650521303491E-17
  0.121430643318E-16
 -0.178676518026E-15
 -0.555111512313E-16
  0.589805981832E-16
  0.693889390391E-17
 -0.693889390391E-16
  0.286229373536E-15
 -0.181278603240E-15
 -0.116226472890E-15
 -0.239608680119E-15
  0.301733464603E-15
 -0.379904441239E-15
 -0.936750677027E-16
  0.319189119580E-15
 -0.142247325030E-15
  0.104083408559E-16
 -0.104083408559E-16
 -0.867361737988E-17
  0.000000000000E+00
  0.433680868994E-18
 -0.808814820674E-16
 -0.109816498123E-18
 -0.422838847269E-16
 -0.693889390391E-17
 -0.260208521397E-17
 -0.124900090270E-15
  0.312250225676E-16
 -0.156125112838E-15
 -0.142247325030E-15
  0.624500451352E-16
 -0.166533453694E-15
  0.144849410244E-15
 -0.366026653431E-15
  0.414815751193E-15
  0.220418301666E-15
 -0.729451221648E-15
 -0.338271077815E-15
 -0.294902990916E-16
 -0.128369537222E-15
  0.485722573274E-16
  0.312250225676E-16
  0.867361737988E-17
 -0.346944695195E-17
  0.130104260698E-17
 -0.216840434497E-18
  0.361709538257E-19
 -0.405491612510E-16
  0.146584133720E-15
 -0.867361737988E-18
 -0.657460197395E-15
  0.832667268469E-16
  0.277555756156E-16
 -0.204697370165E-15
 -0.119348975147E-14
 -0.126634813746E-15
 -0.401588484689E-15
  0.111022302463E-15
 -0.500901403688E-16
  0.644558191543E-15
  0.780625564190E-17
  0.149186218934E-15
  0.246330733589E-15
 -0.763278329430E-16
 -0.451028103754E-16
 -0.451028103754E-16
 -0.520417042793E-17
  0.867361737988E-18
 -0.433680868994E-17
  0.216840434497E-18
  0.537998270404E-20
  0.253703308362E-16
 -0.171303943253E-15
  0.173472347598E-17
 -0.711236625150E-16
  0.693889390391E-17
 -0.173472347598E-16
  0.270616862252E-15
 -0.230718222305E-15
  0.353883589099E-15
  0.346077333457E-15
 -0.368628738645E-17
 -0.174990230639E-15
  0.919078181616E-15
  0.678276879107E-15
  0.532560107125E-15
  0.815320033709E-16
 -0.936750677027E-16
  0.208166817117E-16
  0.555111512313E-16
 -0.693889390391E-17
  0.173472347598E-17
 -0.130104260698E-17
 -0.650521303491E-18
 -0.449324508739E-20
 -0.697358837343E-15
  0.121430643318E-16
 -0.234187669257E-16
 -0.797972798949E-16
 -0.208166817117E-16
  0.128369537222E-15
 -0.402455846427E-15
 -0.860422844084E-15
  0.867361737988E-17
  0.265412691824E-15
 -0.145499931548E-15
  0.304227129599E-15
 -0.664832772168E-15
 -0.352148865623E-15
 -0.216840434497E-15
  0.322658566532E-15
  0.163064006742E-15
 -0.312250225676E-16
 -0.232452945781E-15
 -0.260208521397E-16
  0.433680868994E-17
  0.260208521397E-17
  0.000000000000E+00
  0.165502296960E-19
 -0.510659223241E-15
 -0.173906028467E-15
  0.520417042793E-17
 -0.138777878078E-16
 -0.138777878078E-16
 -0.430211422042E-15
  0.308780778724E-15
 -0.170002900646E-15
 -0.159594559790E-15
  0.243728648375E-15
 -0.238524477947E-16
  0.230284541436E-15
  0.325694332615E-15
 -0.247198095327E-15
  0.346944695195E-16
 -0.693889390391E-16
 -0.902056207508E-16
 -0.100613961607E-15
  0.183880688454E-15
  0.242861286637E-16
  0.346944695195E-17
 -0.130104260698E-17
  0.000000000000E+00
 -0.782855173282E-15
  0.581370888930E-14
 -0.698226199081E-16
 -0.156125112838E-16
  0.133920652345E-14
  0.381639164715E-16
 -0.166533453694E-15
  0.693889390391E-17
 -0.137043154602E-15
 -0.398986399475E-16
 -0.557713597527E-15
 -0.563785129692E-16
  0.776288755500E-16
  0.937184357896E-15
  0.501335084557E-15
  0.244596010113E-15
  0.850014503229E-16
 -0.520417042793E-16
  0.797972798949E-16
  0.173472347598E-16
  0.381639164715E-16
 -0.104083408559E-16
  0.000000000000E+00
  0.216840434497E-18
  0.680060730494E-15
 -0.285166855407E-14
 -0.151788304148E-16
 -0.546437894933E-16
  0.106858966120E-14
  0.346944695195E-17
 -0.353883589099E-15
 -0.381639164715E-15
  0.641847686111E-15
  0.211636264069E-15
  0.213197515198E-14
 -0.529958021911E-15
 -0.101741531866E-14
  0.429669320956E-15
 -0.710369263413E-15
  0.468375338514E-16
 -0.135481903474E-14
  0.222044604925E-15
  0.111022302463E-15
  0.451028103754E-15
  0.294902990916E-16
 -0.693889390391E-17
  0.867361737988E-18
 -0.867361737988E-18
  0.224878783784E-15
 -0.534143042297E-14
 -0.150712775593E-13
 -0.260208521397E-16
  0.971445146547E-16
 -0.346944695195E-17
  0.589805981832E-16
  0.138777878078E-15
 -0.203483063732E-14
 -0.104083408559E-15
  0.398986399475E-15
 -0.213587827980E-15
 -0.136457685429E-14
  0.141857012248E-14
 -0.321184051577E-14
  0.622765727876E-15
 -0.163064006742E-15
  0.405925293379E-15
  0.104083408559E-15
 -0.728583859910E-16
 -0.728583859910E-16
 -0.401588484689E-15
 -0.173472347598E-17
 -0.433680868994E-18
 -0.694177889151E-14
 -0.531844533691E-14
 -0.315719672628E-15
 -0.390312782095E-16
 -0.248932818803E-14
  0.589805981832E-16
  0.183880688454E-15
 -0.207125983032E-14
  0.388578058619E-15
  0.520417042793E-15
  0.102261948909E-14
 -0.158163412922E-14
  0.194115556962E-14
  0.751343974016E-14
  0.412864187282E-14
  0.118481613409E-14
  0.117614251671E-14
  0.714706072102E-15
 -0.222738494315E-14
  0.510008701937E-15
 -0.867361737988E-16
 -0.326128013484E-15
  0.138777878078E-16
 -0.498732999343E-17
  0.699286853737E-14
 -0.176898426463E-14
 -0.974914593499E-15
 -0.196891114523E-15
  0.394129173742E-14
 -0.200534033823E-14
 -0.478783679370E-15
 -0.512090370108E-14
  0.447905601497E-14
  0.379904441239E-15
 -0.782967440882E-14
  0.234361141604E-14
  0.564348914822E-14
 -0.761543605954E-15
  0.520417042793E-16
  0.693889390391E-16
  0.545744005542E-14
 -0.148492329544E-14
 -0.475314232418E-15
  0.961036805691E-15
 -0.621031004400E-15
  0.189952220619E-15
 -0.650521303491E-17
  0.229850860567E-16
 -0.239659349564E-13
 -0.234549792782E-13
 -0.360952587264E-14
 -0.223779328401E-15
 -0.927209697910E-14
  0.208166817117E-15
  0.204350425470E-14
  0.137737043993E-14
  0.431078783780E-14
 -0.131752248000E-14
 -0.863458610167E-15
 -0.310862446895E-14
 -0.727109344956E-14
  0.881239525796E-15
 -0.147611957380E-13
 -0.386886703230E-14
  0.928528087751E-13
 -0.594073401583E-13
  0.586336534880E-15
  0.537764277553E-15
  0.242861286637E-16
  0.109287578987E-15
 -0.477048955894E-16
  0.143398747737E-13
  0.286813832887E-15
 -0.598696439646E-14
 -0.398422614345E-14
  0.147711703979E-14
 -0.201227923213E-14
 -0.115255027744E-13
 -0.520417042793E-15
 -0.509106645730E-13
  0.260208521397E-16
 -0.732920668600E-15
 -0.407529912594E-14
  0.667868538251E-15
 -0.364396013364E-13
 -0.306699110553E-14
  0.683047368666E-13
 -0.879396382103E-15
 -0.662065888224E-13
  0.689379109353E-14
  0.206848427275E-13
 -0.143635103811E-14
  0.294729518568E-14
  0.218054740930E-14
  0.606719535723E-15
  0.715573433840E-17
 -0.118584612616E-19
  0.742244807284E-15
 -0.110423822863E-13
  0.859295273825E-14
 -0.942995681541E-14
 -0.502375918643E-14
  0.141969769274E-13
  0.419109191796E-14
 -0.291173335443E-14
  0.577641233457E-14
 -0.418068357710E-15
  0.665092980690E-14
  0.518430784413E-13
  0.527043686471E-13
  0.154988868961E-13
  0.336519007105E-13
  0.144328993201E-14
  0.176126474516E-13
  0.160149671302E-13
  0.153713847206E-13
 -0.514189385514E-13
  0.919403442268E-16
  0.260208521397E-16
 -0.784615428184E-14
 -0.825003473181E-18
 -0.246699362327E-14
  0.290566182226E-16
 -0.965373614381E-14
 -0.501317737323E-13
  0.803523914072E-14
  0.106165076730E-14
 -0.963118473862E-14
 -0.410088629721E-14
  0.371326233650E-13
 -0.198625837999E-15
 -0.307566472291E-14
  0.433045526521E-12
  0.822957153812E-13
 -0.360820314599E-13
 -0.377464986351E-14
 -0.225713545077E-13
 -0.731012472777E-14
  0.280348660953E-13
  0.141570782874E-13
 -0.507406616723E-15
 -0.815320033709E-16
 -0.221827764491E-15
 -0.949219002011E-15
 -0.123469114133E-19
 -0.449727061147E-15
  0.325477492180E-15
 -0.604551131378E-15
 -0.226381413615E-15
 -0.462650751043E-14
  0.408163086663E-13
  0.530218230432E-14
 -0.133944504793E-13
 -0.562945957211E-13
 -0.182341121369E-12
  0.253052787058E-14
  0.409433337928E-12
  0.159472153365E-12
  0.201681661822E-13
 -0.263378728549E-13
 -0.166186508999E-13
  0.581566045321E-13
 -0.435415592470E-15
 -0.556065610224E-14
  0.195590071916E-15
 -0.396384314261E-15
 -0.706520345700E-14
 -0.345101551502E-14
  0.133747179998E-14
  0.490493062832E-15
 -0.963725627079E-14
  0.721644966006E-15
  0.672639027810E-13
 -0.732617091992E-13
 -0.763295676665E-13
 -0.966825937072E-13
  0.916215887881E-14
 -0.852651282912E-13
  0.305008188844E-12
  0.269598254311E-12
  0.514881106500E-13
 -0.147145750445E-12
 -0.334298561055E-13
  0.591245802317E-13
 -0.997812943382E-14
  0.575060832286E-15
  0.103866568124E-14
 -0.146475713503E-14
 -0.512231316391E-14
 -0.501432662753E-14
  0.139428399382E-15
  0.986190296093E-15
  0.887224321788E-14
  0.130104260698E-16
  0.783921538794E-13
  0.348089612690E-13
 -0.220954331220E-12
  0.361536972235E-13
  0.432677981985E-13
  0.190592767263E-12
  0.513537996849E-12
  0.955436630420E-13
  0.720893613901E-13
 -0.591549378925E-13
  0.617006445935E-13
  0.314852310890E-14
 -0.535075456165E-14
  0.205998412772E-13
 -0.104083408559E-15
 -0.966024135685E-15
 -0.640698431809E-14
 -0.272134745294E-16
 -0.375350792114E-15
 -0.304877650903E-15
  0.160713456432E-13
 -0.652256026967E-14
 -0.812492434443E-13
  0.297678548478E-13
 -0.772281544270E-13
  0.859747386131E-13
  0.230274241515E-13
  0.819162446208E-13
 -0.461518843975E-13
 -0.839129384467E-13
  0.346785317476E-13
 -0.970577784809E-15
  0.862955540359E-13
 -0.411112116572E-13
 -0.165926300477E-14
  0.914832445909E-13
  0.519116000186E-15
 -0.577229236631E-15
  0.247740196413E-15
  0.807730618502E-16
  0.411996825544E-16
 -0.433680868994E-17
  0.451028103754E-16
  0.445823933326E-15
  0.520417042793E-16
  0.346944695195E-17
  0.693889390391E-17
 -0.164798730218E-15
 -0.780625564190E-17
  0.303576608296E-17
  0.173472347598E-17
 -0.160671562182E-19
 -0.281892564846E-17
 -0.997465998687E-17
  0.407660016855E-16
  0.173472347598E-17
 -0.832667268469E-16
 -0.527355936697E-15
  0.218575157973E-15
 -0.693889390391E-16
 -0.433680868994E-16
  0.428216490045E-14
 -0.123681447028E-13
  0.400341652190E-14
 -0.114925430283E-16
 -0.308780778724E-15
  0.277555756156E-16
  0.829197821517E-15
 -0.208166817117E-16
  0.350414142147E-15
  0.454497550706E-15
 -0.312250225676E-15
 -0.954097911787E-17
 -0.867361737988E-18
 -0.368628738645E-17
  0.550836113511E-19
  0.867361737988E-18
  0.104083408559E-16
  0.867361737988E-18
  0.126634813746E-15
 -0.489192020225E-15
 -0.346944695195E-16
 -0.138777878078E-15
 -0.121257170971E-14
 -0.185615411930E-15
  0.106598757599E-14
 -0.282976767019E-15
 -0.100180280738E-15
  0.650521303491E-17
  0.531345800692E-14
  0.645317133063E-15
  0.268014777038E-14
  0.228983498829E-15
  0.523886489745E-15
  0.693889390391E-17
  0.589805981832E-16
  0.607153216592E-17
 -0.216840434497E-17
  0.237006594905E-15
 -0.420538623422E-19
  0.216840434497E-18
 -0.823993651089E-17
  0.780625564190E-17
  0.173472347598E-17
 -0.312250225676E-16
  0.312250225676E-16
  0.936750677027E-16
  0.513478148889E-15
 -0.745931094670E-16
  0.147711703979E-14
  0.119695919842E-15
 -0.276796814636E-15
  0.552943107968E-16
 -0.101307850997E-14
  0.456232274182E-15
  0.435415592470E-15
  0.107899800206E-14
 -0.131838984174E-15
  0.312250225676E-16
 -0.624500451352E-16
 -0.867361737988E-18
 -0.433680868994E-18
 -0.151788304148E-17
  0.564997445598E-19
 -0.108420217249E-17
 -0.555111512313E-16
 -0.780625564190E-17
  0.520417042793E-17
  0.208166817117E-16
  0.312250225676E-16
  0.763278329430E-16
  0.260208521397E-16
  0.395516952523E-15
  0.156125112838E-16
 -0.146800974155E-15
  0.462791697325E-15
  0.584168130535E-15
 -0.523886489745E-15
 -0.100093544564E-14
 -0.116920362281E-14
 -0.346944695195E-16
 -0.797972798949E-16
  0.000000000000E+00
  0.832667268469E-16
  0.182145964978E-16
  0.433680868994E-18
 -0.934582272683E-16
 -0.817254445202E-20
  0.867361737988E-18
  0.126634813746E-15
 -0.121430643318E-16
  0.693889390391E-17
  0.346944695195E-17
 -0.381639164715E-16
 -0.832667268469E-16
 -0.693889390391E-16
 -0.416333634234E-16
 -0.342781358853E-14
  0.914416112274E-15
  0.195199759134E-14
 -0.255438031838E-15
 -0.181278603240E-15
 -0.260208521397E-16
  0.156125112838E-16
 -0.902056207508E-16
  0.797972798949E-16
  0.277555756156E-16
  0.121430643318E-16
  0.346944695195E-17
  0.867361737988E-18
 -0.184748050192E-15
  0.228963593555E-20
  0.650521303491E-18
  0.307913416986E-16
  0.867361737988E-18
 -0.346944695195E-17
 -0.693889390391E-17
 -0.555111512313E-16
 -0.242861286637E-16
 -0.242861286637E-15
 -0.797972798949E-16
  0.954097911787E-16
  0.298589278303E-15
  0.207516295814E-15
  0.871698546678E-16
  0.566387214906E-15
 -0.242861286637E-16
 -0.666133814775E-15
  0.451028103754E-16
  0.693889390391E-17
 -0.173472347598E-16
 -0.199493199737E-15
  0.260208521397E-17
  0.228983498829E-15
  0.585902854011E-15
  0.257087734381E-19
 -0.216840434497E-18
  0.216840434497E-17
  0.780625564190E-17
  0.104083408559E-16
 -0.242861286637E-16
 -0.242861286637E-16
 -0.149186218934E-15
 -0.659194920871E-16
 -0.156125112838E-16
  0.428476698566E-15
  0.349113099540E-16
 -0.615826833972E-16
 -0.289048299185E-15
 -0.315719672628E-15
  0.763278329430E-16
  0.728583859910E-16
  0.371230823859E-15
  0.242861286637E-16
  0.104083408559E-15
 -0.468375338514E-16
  0.286229373536E-16
  0.181278603240E-15
 -0.920053963571E-15
 -0.160340689937E-18
 -0.433680868994E-18
  0.867361737988E-18
 -0.693889390391E-17
 -0.173472347598E-17
 -0.104083408559E-16
  0.555111512313E-16
 -0.131838984174E-15
  0.104083408559E-15
  0.105818132035E-15
 -0.471844785466E-15
 -0.221610924056E-15
 -0.536680075380E-16
 -0.200577401910E-15
  0.884708972748E-16
  0.206432093641E-15
 -0.206432093641E-15
  0.797972798949E-16
  0.277555756156E-16
  0.242861286637E-16
 -0.255004350969E-15
 -0.346944695195E-17
  0.109287578987E-15
  0.148969378500E-15
  0.206292227326E-18
  0.520417042793E-17
  0.607153216592E-17
 -0.520417042793E-17
 -0.190819582357E-16
  0.381639164715E-16
 -0.138777878078E-16
  0.797972798949E-16
 -0.222044604925E-15
  0.685215773011E-15
 -0.436282954208E-15
  0.168701858039E-15
 -0.882757408838E-15
 -0.949761103097E-16
  0.163931368480E-15
  0.286229373536E-15
  0.589805981832E-16
 -0.902056207508E-16
  0.797972798949E-16
 -0.190819582357E-15
  0.355618312575E-15
  0.598479599212E-16
 -0.110501885420E-14
 -0.302275565689E-15
  0.208096804550E-16
  0.366460334300E-15
 -0.706899816461E-16
  0.372965547335E-16
  0.312250225676E-16
 -0.728583859910E-16
  0.277555756156E-16
  0.104083408559E-15
  0.347812056933E-14
  0.317454396104E-15
 -0.415206063975E-14
  0.195156391047E-17
 -0.818572640227E-16
 -0.481385764584E-15
 -0.101568059518E-14
 -0.105818132035E-15
 -0.520417042793E-17
 -0.242861286637E-15
  0.140512601554E-14
 -0.381639164715E-15
 -0.407660016855E-15
  0.161329283266E-15
  0.173472347598E-16
 -0.882562252447E-14
 -0.121125711457E-17
 -0.761760446388E-15
 -0.155301119187E-14
  0.143982048506E-15
 -0.138777878078E-15
  0.485722573274E-16
 -0.485722573274E-16
  0.416333634234E-16
 -0.218575157973E-15
  0.190819582357E-14
 -0.177809156288E-14
  0.218575157973E-15
 -0.248271455477E-14
  0.756339435526E-15
 -0.765880414644E-15
  0.742461647718E-15
 -0.122835769334E-13
 -0.652949916358E-14
  0.312250225676E-16
  0.485722573274E-15
 -0.923393306262E-13
 -0.986190296093E-15
  0.574583783330E-14
 -0.216840434497E-18
  0.685332494151E-14
  0.858558016348E-14
 -0.346944695195E-16
 -0.242861286637E-16
 -0.170349845341E-14
  0.426741975090E-15
  0.100613961607E-15
 -0.157512891619E-14
 -0.750788320403E-14
 -0.425354196310E-14
  0.143982048506E-15
  0.704514571681E-15
 -0.208112607009E-14
 -0.752869988574E-15
 -0.654597903660E-14
 -0.221871132577E-14
 -0.539845945724E-14
 -0.206432093641E-14
  0.161329283266E-14
  0.000000000000E+00
  0.639072128550E-14
  0.885576334486E-15
 -0.279004250259E-13
 -0.268997064207E-13
 -0.593431282846E-17
 -0.457533316789E-16
  0.433680868994E-17
 -0.191686944095E-15
  0.184123549740E-13
  0.374700270811E-15
 -0.832667268469E-16
  0.485722573274E-16
 -0.862157567560E-15
 -0.151441359453E-14
 -0.879765010842E-14
 -0.239391839685E-15
  0.603130826532E-14
 -0.815320033709E-15
 -0.142073852683E-14
 -0.156125112838E-15
  0.144120826384E-13
  0.204072869714E-13
  0.818789480661E-15
  0.451028103754E-15
 -0.778769410070E-13
 -0.223605856053E-14
 -0.273956204944E-14
  0.576383558937E-14
 -0.326173753263E-15
 -0.444913203501E-14
  0.346944695195E-16
 -0.528223298435E-15
 -0.242861286637E-16
  0.322658566532E-15
  0.908995101412E-15
  0.603683769640E-15
 -0.509488284894E-14
  0.341393580072E-14
  0.434990585219E-13
 -0.104868370931E-13
 -0.619469753271E-14
 -0.376521730461E-14
 -0.303858500861E-14
  0.554764567617E-14
 -0.592130511290E-13
 -0.538978583986E-13
  0.977690151061E-14
 -0.696318003257E-14
  0.290514140522E-13
  0.155014889813E-13
 -0.639766017940E-14
  0.249583340106E-15
 -0.480651048205E-14
  0.114123120676E-14
  0.231151903174E-15
 -0.114491749414E-15
 -0.541736794313E-13
 -0.603683769640E-15
 -0.124344978758E-13
 -0.235853003794E-13
 -0.367466473916E-13
  0.135065569840E-13
 -0.446242435365E-13
  0.256114573993E-13
  0.162161950534E-13
 -0.605591965464E-14
 -0.241213299335E-14
  0.173472347598E-15
 -0.310515502200E-14
  0.122124532709E-14
  0.629045426859E-13
  0.499184027447E-13
 -0.276566963775E-13
  0.568989300120E-15
  0.224820162487E-14
  0.461870125479E-16
 -0.445539330256E-18
 -0.100499036176E-13
 -0.107986536380E-14
  0.106685493773E-14
  0.117492821028E-13
 -0.140859546249E-14
  0.731359417472E-13
 -0.923150444976E-13
 -0.951617257217E-13
 -0.198153125852E-13
 -0.106655136112E-12
 -0.232834584946E-13
  0.646357967149E-14
 -0.692085277976E-13
  0.441660596984E-13
  0.244487589895E-15
 -0.388404586271E-13
  0.616104389728E-13
 -0.712520320523E-13