# vtk DataFile Version 3.0
TriPan results file. Generated by TriPan, USU AeroLab (c) 2021.
ASCII
DATASET POLYDATA
POINTS                 446 float
  0.190349744366E-02  0.000000000000E+00  0.000000000000E+00
  0.180155439444E-02  0.217527970672E+00  0.000000000000E+00
  0.188619651827E-02  0.448061168194E+00  0.000000000000E+00
  0.195463115218E-02  0.689725637436E+00  0.000000000000E+00
  0.200381935583E-02  0.940178275108E+00  0.000000000000E+00
  0.203146979263E-02  0.119668114185E+01  0.000000000000E+00
  0.203625478170E-02  0.145621216297E+01  0.432309807279E-18
  0.201794494299E-02  0.171560299397E+01  0.000000000000E+00
  0.197742965724E-02  0.197169232368E+01  0.000000000000E+00
  0.191662923716E-02  0.222147774696E+01  0.000000000000E+00
  0.183830664114E-02  0.246225214005E+01  0.000000000000E+00
  0.174581819542E-02  0.269171094894E+01  0.370648277606E-18
  0.164282618113E-02  0.290802383423E+01  0.000000000000E+00
  0.153302818423E-02  0.310986590385E+01  0.000000000000E+00
  0.141992384673E-02  0.329641318321E+01  0.000000000000E+00
  0.130663581474E-02  0.346730756760E+01  0.000000000000E+00
  0.119580047662E-02  0.362259936333E+01  0.000000000000E+00
  0.108952656797E-02  0.376267743111E+01  0.000000000000E+00
  0.989381096661E-03  0.388819599152E+01  0.000000000000E+00
  0.971479789355E-04  0.399949033288E+01 -0.325828402727E-19
  0.342666600534E-01  0.000000000000E+00 -0.119376002534E-02
  0.342666600534E-01  0.000000000000E+00  0.119376002534E-02
  0.342698824337E-01  0.217527970672E+00 -0.115692804277E-02
  0.342698824337E-01  0.217527970672E+00  0.115692804277E-02
  0.342775173423E-01  0.448061168194E+00 -0.106966063919E-02
  0.342775173423E-01  0.448061168194E+00  0.106966063919E-02
  0.342838248119E-01  0.689725637436E+00 -0.997565933343E-03
  0.342838248119E-01  0.689725637436E+00  0.997565933343E-03
  0.342885274612E-01  0.940178275108E+00 -0.943814406113E-03
  0.342885274612E-01  0.940178275108E+00  0.943814406113E-03
  0.342914074361E-01  0.119668114185E+01 -0.910896143339E-03
  0.342914074361E-01  0.119668114185E+01  0.910896143339E-03
  0.342923267137E-01  0.145621216297E+01 -0.900388752406E-03
  0.342923267137E-01  0.145621216297E+01  0.900388752406E-03
  0.342912407103E-01  0.171560299397E+01 -0.912801828255E-03
  0.342912407103E-01  0.171560299397E+01  0.912801828255E-03
  0.342882027576E-01  0.197169232368E+01 -0.947525785931E-03
  0.342882027576E-01  0.197169232368E+01  0.947525785931E-03
  0.342833586936E-01  0.222147774696E+01 -0.100289368959E-02
  0.342833586936E-01  0.222147774696E+01  0.100289368959E-02
  0.342769326198E-01  0.246225214005E+01 -0.107634404818E-02
  0.342769326198E-01  0.246225214005E+01  0.107634404818E-02
  0.342692062149E-01  0.269171094894E+01 -0.116465725981E-02
  0.342692062149E-01  0.269171094894E+01  0.116465725981E-02
  0.342604944343E-01  0.290802383423E+01 -0.126423336595E-02
  0.342604944343E-01  0.290802383423E+01  0.126423336595E-02
  0.342511211565E-01  0.310986590385E+01 -0.137137042041E-02
  0.342511211565E-01  0.310986590385E+01  0.137137042041E-02
  0.342413979750E-01  0.329641318321E+01 -0.148250689126E-02
  0.342413979750E-01  0.329641318321E+01  0.148250689126E-02
  0.342316072375E-01  0.346730756760E+01 -0.159441553133E-02
  0.342316072375E-01  0.346730756760E+01  0.159441553133E-02
  0.342219908292E-01  0.362259936333E+01 -0.170433158034E-02
  0.342219908292E-01  0.362259936333E+01  0.170433158034E-02
  0.342127449763E-01  0.376267743111E+01 -0.181001216133E-02
  0.342127449763E-01  0.376267743111E+01  0.181001216133E-02
  0.342040185398E-01  0.388819599152E+01 -0.190975578472E-02
  0.342040185398E-01  0.388819599152E+01  0.190975578472E-02
  0.341703651092E-01  0.399986265213E+01 -0.229442133769E-02
  0.341703651092E-01  0.399986265213E+01  0.229442133769E-02
  0.341403165739E-01  0.400184427598E+01 -0.188507548451E-02
  0.341403165739E-01  0.400184427598E+01  0.188507548451E-02
  0.341336570292E-01  0.400271379329E+01 -0.122196032094E-19
  0.938944796530E-01  0.000000000000E+00 -0.624850703535E-02
  0.938944796530E-01  0.000000000000E+00  0.624850703535E-02
  0.938964513531E-01  0.217527970672E+00 -0.622597040666E-02
  0.938964513531E-01  0.217527970672E+00  0.622597040666E-02
  0.939039605542E-01  0.448061168194E+00 -0.614013984579E-02
  0.939039605542E-01  0.448061168194E+00  0.614013984579E-02
  0.939101736757E-01  0.689725637436E+00 -0.606912354413E-02
  0.939101736757E-01  0.689725637436E+00  0.606912354413E-02
  0.939148118631E-01  0.940178275108E+00 -0.601610882013E-02
  0.939148118631E-01  0.940178275108E+00  0.601610882013E-02
  0.939176561901E-01  0.119668114185E+01 -0.598359801449E-02
  0.939176561901E-01  0.119668114185E+01  0.598359801449E-02
  0.939185680090E-01  0.145621216297E+01 -0.597317587732E-02
  0.939185680090E-01  0.145621216297E+01  0.597317587732E-02
  0.939175025749E-01  0.171560299397E+01 -0.598535384381E-02
  0.939175025749E-01  0.171560299397E+01  0.598535384381E-02
  0.939145135250E-01  0.197169232368E+01 -0.601951884018E-02
  0.939145135250E-01  0.197169232368E+01  0.601951884018E-02
  0.939097474483E-01  0.222147774696E+01 -0.607399534563E-02
  0.939097474483E-01  0.222147774696E+01  0.607399534563E-02
  0.939034296032E-01  0.246225214005E+01 -0.614620864342E-02
  0.939034296032E-01  0.246225214005E+01  0.614620864342E-02
  0.938958431551E-01  0.269171094894E+01 -0.623292214103E-02
  0.938958431551E-01  0.269171094894E+01  0.623292214103E-02
  0.938873047692E-01  0.290802383423E+01 -0.633051633640E-02
  0.938873047692E-01  0.290802383423E+01  0.633051633640E-02
  0.938781400889E-01  0.310986590385E+01 -0.643526911029E-02
  0.938781400889E-01  0.310986590385E+01  0.643526911029E-02
  0.938686622919E-01  0.329641318321E+01 -0.654360082321E-02
  0.938686622919E-01  0.329641318321E+01  0.654360082321E-02
  0.938591548263E-01  0.346730756760E+01 -0.665227165035E-02
  0.938591548263E-01  0.346730756760E+01  0.665227165035E-02
  0.938498598112E-01  0.362259936333E+01 -0.675851415785E-02
  0.938498598112E-01  0.362259936333E+01  0.675851415785E-02
  0.938409723865E-01  0.376267743111E+01 -0.686009788503E-02
  0.938409723865E-01  0.376267743111E+01  0.686009788503E-02
  0.938326386285E-01  0.388819599152E+01 -0.695535317288E-02
  0.938326386285E-01  0.388819599152E+01  0.695535317288E-02
  0.938020228261E-01  0.399982191417E+01 -0.730529285109E-02
  0.938020228261E-01  0.399982191417E+01  0.730529285109E-02
  0.937759936759E-01  0.400537471243E+01 -0.537478190946E-02
  0.937759936759E-01  0.400537471243E+01  0.537478190946E-02
  0.937700081870E-01  0.400767115840E+01 -0.531059685571E-20
  0.190622368231E+00  0.000000000000E+00 -0.144884656727E-01
  0.190622368231E+00  0.000000000000E+00  0.144884656727E-01
  0.190622942239E+00  0.217527970672E+00 -0.144819047741E-01
  0.190622942239E+00  0.217527970672E+00  0.144819047741E-01
  0.190630235509E+00  0.448061168194E+00 -0.143985423066E-01
  0.190630235509E+00  0.448061168194E+00  0.143985423066E-01
  0.190636283885E+00  0.689725637436E+00 -0.143294090565E-01
  0.190636283885E+00  0.689725637436E+00  0.143294090565E-01
  0.190640807385E+00  0.940178275108E+00 -0.142777052053E-01
  0.190640807385E+00  0.940178275108E+00  0.142777052053E-01
  0.190643586096E+00  0.119668114185E+01 -0.142459443984E-01
  0.190643586096E+00  0.119668114185E+01  0.142459443984E-01
  0.190644480696E+00  0.145621216297E+01 -0.142357190716E-01
  0.190644480696E+00  0.145621216297E+01  0.142357190716E-01
  0.190643446174E+00  0.171560299397E+01 -0.142475437125E-01
  0.190643446174E+00  0.171560299397E+01  0.142475437125E-01
  0.190640536323E+00  0.197169232368E+01 -0.142808034669E-01
  0.190640536323E+00  0.197169232368E+01  0.142808034669E-01
  0.190635898251E+00  0.222147774696E+01 -0.143338168751E-01
  0.190635898251E+00  0.222147774696E+01  0.143338168751E-01
  0.190629757966E+00  0.246225214005E+01 -0.144040006542E-01
  0.190629757966E+00  0.246225214005E+01  0.144040006542E-01
  0.190622399387E+00  0.269171094894E+01 -0.144881095980E-01
  0.190622399387E+00  0.269171094894E+01  0.144881095980E-01
  0.190614139635E+00  0.290802383423E+01 -0.145825190040E-01
  0.190614139635E+00  0.290802383423E+01  0.145825190040E-01
  0.190605304110E+00  0.310986590385E+01 -0.146835095219E-01
  0.190605304110E+00  0.310986590385E+01  0.146835095219E-01
  0.190596204576E+00  0.329641318321E+01 -0.147875176743E-01
  0.190596204576E+00  0.329641318321E+01  0.147875176743E-01
  0.190587121410E+00  0.346730756760E+01 -0.148913387449E-01
  0.190587121410E+00  0.346730756760E+01  0.148913387449E-01
  0.190578291561E+00  0.362259936333E+01 -0.149922643858E-01
  0.190578291561E+00  0.362259936333E+01  0.149922643858E-01
  0.190569902593E+00  0.376267743111E+01 -0.150881507315E-01
  0.190569902593E+00  0.376267743111E+01  0.150881507315E-01
  0.190562090635E+00  0.388819599152E+01 -0.151774418214E-01
  0.190562090635E+00  0.388819599152E+01  0.151774418214E-01
  0.190534290081E+00  0.399976796102E+01 -0.154952050037E-01
  0.190534290081E+00  0.399976796102E+01  0.154952050037E-01
  0.190512351166E+00  0.401113143599E+01 -0.111316370339E-01
  0.190512351166E+00  0.401113143599E+01  0.111316370339E-01
  0.190505425757E+00  0.401582515114E+01 -0.268219081496E-17
  0.330039544037E+00  0.000000000000E+00 -0.264841781860E-01
  0.330039544037E+00  0.000000000000E+00  0.264841781860E-01
  0.330040409116E+00  0.217527970672E+00 -0.264742901773E-01
  0.330040409116E+00  0.217527970672E+00  0.264742901773E-01
  0.330047469038E+00  0.448061168194E+00 -0.263935949007E-01
  0.330047469038E+00  0.448061168194E+00  0.263935949007E-01
  0.330053335330E+00  0.689725637436E+00 -0.263265428815E-01
  0.330053335330E+00  0.689725637436E+00  0.263265428815E-01
  0.330057728574E+00  0.940178275108E+00 -0.262763278701E-01
  0.330057728574E+00  0.940178275108E+00  0.262763278701E-01
  0.330060428946E+00  0.119668114185E+01 -0.262454624787E-01
  0.330060428946E+00  0.119668114185E+01  0.262454624787E-01
[...]
POINT_DATA                 446
SCALARS phi float 1
LOOKUP_TABLE default
 -0.286010554433E-11
 -0.271050543121E-18
 -0.108420217249E-18
  0.108420217249E-18
 -0.108420217249E-18
  0.216840434497E-18
  0.000000000000E+00
  0.108420217249E-18
  0.216840434497E-18
  0.000000000000E+00
 -0.108420217249E-18
  0.813151629364E-19
 -0.406575814682E-19
 -0.542101086243E-19
  0.000000000000E+00
  0.108420217249E-18
 -0.325260651746E-18
  0.108420217249E-18
 -0.542101086243E-18
  0.213659436145E-12
 -0.693889390391E-17
 -0.260208521397E-17
 -0.346944695195E-17
  0.000000000000E+00
  0.173472347598E-17
  0.173472347598E-17
 -0.693889390391E-17
 -0.520417042793E-17
  0.000000000000E+00
 -0.346944695195E-17
  0.000000000000E+00
 -0.173472347598E-17
 -0.867361737988E-17
  0.693889390391E-17
  0.346944695195E-17
  0.173472347598E-17
  0.346944695195E-17
  0.693889390391E-17
 -0.346944695195E-17
  0.520417042793E-17
  0.173472347598E-17
  0.173472347598E-17
  0.346944695195E-17
  0.000000000000E+00
 -0.346944695195E-17
 -0.433680868994E-17
 -0.867361737988E-18
  0.346944695195E-17
 -0.661789199830E-11
  0.657846867258E-11
 -0.420303115228E-11
  0.274712284171E-11
 -0.433680868994E-17
 -0.346944695195E-17
  0.867361737988E-18
 -0.173472347598E-17
 -0.173472347598E-17
  0.433680868994E-17
 -0.650521303491E-18
 -0.108420217249E-17
  0.289821417733E-10
 -0.867361737988E-18
 -0.130104260698E-17
 -0.173472347598E-17
 -0.520417042793E-17
  0.000000000000E+00
  0.173472347598E-17
  0.000000000000E+00
  0.121430643318E-16
  0.000000000000E+00
 -0.867361737988E-17
  0.867361737988E-17
 -0.312851480833E-11
  0.000000000000E+00
  0.173472347598E-17
  0.173472347598E-17
  0.137008460133E-12
 -0.346944695195E-17
 -0.138777878078E-16
  0.693889390391E-17
 -0.120002098536E-11
 -0.195008592607E-11
  0.100929334335E-11
  0.346944695195E-17
 -0.105934705452E-11
 -0.346944695195E-17
  0.173472347598E-17
 -0.173472347598E-17
  0.867361737988E-17
 -0.867361737988E-17
  0.173472347598E-17
  0.607153216592E-17
  0.173472347598E-17
  0.867361737988E-18
 -0.173472347598E-17
  0.346944695195E-17
 -0.866695257229E-11
 -0.230078820579E-10
 -0.804169664886E-11
 -0.420670442924E-16
 -0.122112563117E-11
  0.162630325873E-18
  0.758941520740E-18
 -0.216840434497E-17
 -0.108420217249E-17
  0.000000000000E+00
 -0.105716043558E-11
  0.859402219527E-11
  0.260208521397E-17
  0.156125112838E-16
 -0.607153216592E-17
  0.520417042793E-17
 -0.104083408559E-16
 -0.121430643318E-16
 -0.104083408559E-16
 -0.867361737988E-17
  0.173472347598E-17
 -0.867361737988E-17
  0.000000000000E+00
  0.346944695195E-17
 -0.520417042793E-17
 -0.693889390391E-17
 -0.346944695195E-17
  0.346944695195E-17
  0.520417042793E-17
  0.000000000000E+00
 -0.954097911787E-17
  0.138777878078E-16
 -0.780625564190E-17
  0.121430643318E-16
 -0.867361737988E-18
 -0.260208521397E-17
 -0.867361737988E-18
 -0.104083408559E-16
  0.693889390391E-17
  0.346944695195E-17
  0.303576608296E-17
  0.260208521397E-17
  0.650521303491E-17
  0.216840434497E-17
 -0.209467859724E-15
  0.433680868994E-16
  0.325260651746E-17
  0.153956708493E-16
 -0.286040592254E-11
 -0.650521303491E-18
  0.574627151417E-17
 -0.281350463760E-16
  0.292734586571E-17
  0.867361737988E-17
 -0.520417042793E-17
  0.390312782095E-17
  0.433680868994E-17
 -0.867361737988E-18
  0.867361737988E-18
  0.121430643318E-16
  0.520417042793E-17
 -0.130104260698E-16
  0.867361737988E-17
  0.433680868994E-17
 -0.693889390391E-17
  0.520417042793E-17
 -0.260208521397E-17
 -0.954097911787E-17
 -0.693889390391E-17
 -0.433680868994E-17
 -0.954097911787E-17
 -0.693889390391E-17
  0.867361737988E-18
 -0.164798730218E-16
 -0.164798730218E-16
  0.477048955894E-17
 -0.433680868994E-17
 -0.130104260698E-17
  0.693889390391E-17
 -0.300919861945E-10
  0.000000000000E+00
  0.000000000000E+00
  0.867361737988E-17
  0.260208521397E-17
  0.139795380133E-11
 -0.425007251614E-16
  0.832667268469E-16
 -0.108909712845E-10
  0.607270483899E-11
 -0.137693675906E-16
 -0.303576608296E-17
 -0.136609473733E-16
 -0.364291929955E-16
 -0.737257477290E-17
  0.102999206386E-16
  0.274953670942E-15
 -0.173286289831E-10
  0.843456294392E-11
 -0.780625564190E-17
  0.000000000000E+00
  0.105280541229E-10
  0.152680125487E-11
  0.267800018272E-11
  0.520417042793E-17
  0.392318469378E-11
 -0.107711235764E-11
  0.115860576341E-10
  0.138777878078E-16
 -0.245011476385E-12
 -0.150216575290E-10
  0.406930478897E-11
 -0.346944695195E-17
 -0.152095783884E-11
  0.729374893815E-12
 -0.341732631776E-11
 -0.208166817117E-16
  0.433680868994E-16
 -0.138777878078E-16
  0.663046787613E-11
  0.719459214427E-12
  0.863901051390E-11
  0.870786342339E-11
  0.105407609724E-10
 -0.136244002191E-10
 -0.130104260698E-16
  0.173472347598E-17
  0.121430643318E-16
 -0.936750677027E-16
 -0.823993651089E-17
  0.693889390391E-16
 -0.137229021549E-10
 -0.108420217249E-16
  0.125333771139E-15
 -0.780625564190E-17
 -0.997465998687E-17
 -0.130104260698E-16
  0.327623345120E-11
  0.405743342570E-11
 -0.177009123505E-11
  0.650521303491E-18
 -0.791738636458E-16
  0.693889390391E-17
  0.975781955237E-16
 -0.346944695195E-17
  0.276471553984E-16
  0.542643187329E-16
  0.251534904017E-16
 -0.224429849704E-16
  0.709068220806E-16
  0.867361737988E-18
 -0.350197301713E-16
  0.115467531370E-16
  0.568121938382E-16
  0.355618312575E-16
  0.613658429627E-16
 -0.369636190146E-11
 -0.655291793050E-15
 -0.238247231188E-11
  0.293688684483E-14
 -0.194733552200E-14
 -0.309241564647E-15
 -0.980431014153E-13
  0.149972048669E-12
  0.867361737988E-18
 -0.442621959050E-12
 -0.419153427245E-12
 -0.446023860207E-12
 -0.197699604083E-12
 -0.392481186440E-16
 -0.601898869287E-11
 -0.662985291666E-13
 -0.102782365952E-15
 -0.587682636929E-11
 -0.108116640640E-14
 -0.203396327558E-15
 -0.146757606068E-14
 -0.734984122175E-12
 -0.142874167358E-11
 -0.276575637392E-13
  0.114560084509E-10
 -0.557315478489E-12
  0.137747842646E-11
 -0.650521303491E-16
 -0.148318857196E-15
  0.346944695195E-17
  0.260208521397E-17
 -0.333934269126E-15
 -0.433680868994E-18
  0.448086229579E-12
  0.400829976849E-12
 -0.372575451393E-12
 -0.517795441940E-13
  0.836108526164E-13
 -0.562773352225E-12
  0.876421981863E-12
 -0.368145943418E-12
 -0.233570107699E-12
  0.154747633978E-12
  0.295850800455E-12
  0.568088328115E-13
 -0.798773807514E-12
 -0.610431843961E-13
  0.369748936330E-12
  0.861805852376E-12
 -0.542101086243E-17
 -0.145283091113E-16
 -0.219947410979E-11
  0.298408346644E-11
 -0.129504913737E-12
 -0.192987379549E-11
  0.641847686111E-16
 -0.219355783537E-14
 -0.196085169694E-09
 -0.376699160146E-11
 -0.345087318096E-10
 -0.338275093700E-10
  0.136226689651E-10
  0.255583158804E-10
 -0.134370015115E-10
  0.247331555193E-10
 -0.157432025315E-10
 -0.172865194381E-14
  0.499280434704E-11
 -0.315664595157E-11
  0.250376108735E-11
  0.477048955894E-16
  0.346944695195E-17
  0.000000000000E+00
 -0.199493199737E-16
 -0.140538535670E-11
 -0.914121729700E-11
  0.157328490513E-11
  0.803803204552E-12
 -0.268882138776E-16
 -0.915583581174E-12
 -0.524776402888E-12
  0.841340885849E-16
 -0.556681437058E-13
  0.288145375615E-11
  0.139316509717E-12
  0.607153216592E-17
 -0.333982754647E-11
 -0.374958657873E-11
 -0.949925034466E-12
  0.000000000000E+00
  0.433680868994E-16
 -0.260208521397E-17
 -0.286229373536E-16
 -0.242861286637E-16
 -0.134441069388E-15
 -0.189084858881E-15
  0.635560471439E-10
  0.894627818007E-11
  0.136970556425E-11
  0.122404694887E-10
 -0.293528760326E-10
  0.314836533580E-10
  0.284273750373E-10
  0.351827941780E-13
 -0.560583541392E-10
 -0.206085148946E-14
  0.223085677535E-11
  0.679538001390E-11
  0.797730093788E-10
 -0.482230531548E-10
 -0.502915114067E-11
 -0.553836091571E-10
 -0.862005388944E-10
  0.155064849849E-11
  0.251190561407E-11
  0.224231223867E-11
  0.217376464051E-12
 -0.196023752785E-15
 -0.367480611912E-11
 -0.232452945781E-15
 -0.506971201131E-12
  0.261075883135E-15
  0.125560846442E-11
  0.346944695195E-17
  0.152605254822E-10
 -0.312250225676E-16
  0.268882138776E-16
 -0.199493199737E-16
 -0.354749649795E-11
 -0.208166817117E-16
  0.130104260698E-16
  0.423958958218E-11
 -0.511069832287E-11
  0.622719237287E-11
  0.118433041152E-11
  0.167926020311E-10
 -0.815561507217E-11
  0.247626467942E-10
 -0.121012921905E-10
  0.200103761686E-10
 -0.571029595137E-11
  0.608353124820E-11
 -0.258729131869E-10
 -0.307643528707E-10
  0.799939108009E-11
 -0.405176959692E-10
  0.668666511050E-13
  0.107599185638E-10
 -0.205158169099E-10
  0.222243490972E-10
  0.916243881981E-10
 -0.505679226791E-10
 -0.912430513089E-10
  0.806955691504E-10
  0.523793855511E-11
 -0.113733666582E-10
  0.869377660140E-11
 -0.166273245172E-14
  0.171265457979E-09
 -0.542354377554E-10
 -0.625611194793E-11
  0.311232907068E-09
 -0.163776254277E-09
  0.103926750452E-09
 -0.458148743335E-09
 -0.175301786975E-11
 -0.293575927457E-13
 -0.168818245407E-09
  0.336117198961E-09
 -0.189699349978E-09
  0.137977533240E-08
 -0.879710604926E-09
  0.134002184349E-12
 -0.451487194852E-09
 -0.816174091853E-09
 -0.378573960375E-10
  0.475139337597E-10
  0.390226045921E-14
 -0.182406173499E-14
 -0.730188479126E-14
  0.975955427585E-14
  0.899854626576E-11
  0.187960881234E-09
 -0.108545933093E-09
 -0.133544990604E-09
 -0.142841859868E-09
 -0.575759907633E-09
 -0.308946240986E-10
 -0.525706176291E-09
 -0.732994552641E-10
 -0.191193087837E-09
 -0.128506225474E-08
  0.122521943112E-09
  0.224515503411E-09
 -0.577232786309E-09
SCALARS phi_mu float 1
LOOKUP_TABLE default
  0.279863339379E-03
  0.175138145243E-03
  0.328146769997E-03
  0.457678355707E-03
  0.554292284221E-03
  0.610509844882E-03
  0.621716406199E-03
  0.586757279446E-03
  0.508095291442E-03
  0.391513910436E-03
  0.245410260467E-03
  0.798239421619E-04
 -0.946551009563E-04
 -0.267899223459E-03
 -0.431060639522E-03
 -0.577120428503E-03
 -0.701137178072E-03
 -0.800231362946E-03
 -0.873406569958E-03
  0.111503235555E-04
  0.748822554110E-02
  0.750293299937E-02
  0.801117438664E-02
  0.803062046853E-02
  0.837462565890E-02
  0.839186628546E-02
  0.867357162902E-02
  0.868911231565E-02
  0.889596197927E-02
  0.891029612846E-02
  0.903233725335E-02
  0.904594665490E-02
  0.907669068181E-02
  0.909004767020E-02
  0.902706139693E-02
  0.904063170629E-02
  0.888573688126E-02
  0.889998243548E-02
  0.865902247819E-02
  0.867440355385E-02
  0.835663299317E-02
  0.837360916347E-02
  0.799082596453E-02
  0.800985530987E-02
  0.757542094503E-02
  0.759695704866E-02
  0.712487842493E-02
  0.714936483679E-02
  0.665362058149E-02
  0.668148221001E-02
  0.617575213876E-02
  0.620738314155E-02
  0.570565513374E-02
  0.574140283846E-02
  0.526119643580E-02
  0.530134033673E-02
  0.488094627470E-02
  0.492567213209E-02
  0.151592811185E-02
  0.155284489941E-02
  0.229264588679E-02
  0.231518769479E-02
  0.207593069745E-02
  0.797399995905E-02
  0.807087729342E-02
  0.891413642625E-02
  0.918423281288E-02
  0.930445329580E-02
  0.957098897275E-02
  0.963574888803E-02
  0.989878815968E-02
  0.988593020061E-02
  0.101460035120E-01
  0.100409742322E-01
  0.102989621326E-01
  0.100928334526E-01
  0.103498361988E-01
  0.100390699113E-01
  0.102962702518E-01
  0.988283997269E-02
  0.101413647279E-01
  0.963296797323E-02
  0.989375406199E-02
  0.930447595799E-02
  0.956814586832E-02
  0.892122972523E-02
  0.918798314418E-02
  0.852917075322E-02
  0.879869918468E-02
  0.832369897237E-02
  0.859513145316E-02
  0.690377622275E-02
  0.717566166524E-02
  0.591739554586E-02
  0.618772543325E-02
  0.510588443147E-02
  0.537215557976E-02
  0.436885814422E-02
  0.462817085021E-02
  0.368567834562E-02
  0.393485846963E-02
  0.323686174290E-03
  0.612129060609E-03
  0.169088051793E-02
  0.171316929334E-02
  0.163674891068E-02
  0.726941346954E-02
  0.743419072553E-02
  0.684900495882E-02
  0.737199292868E-02
  0.746622828683E-02
  0.800459895720E-02
  0.798409705324E-02
  0.853372073216E-02
  0.837730215347E-02
  0.893456993389E-02
  0.862224738807E-02
  0.918397302168E-02
  0.870130684566E-02
  0.926459166262E-02
  0.860774475684E-02
  0.916981946113E-02
  0.834804644046E-02
  0.890610667918E-02
  0.793970051654E-02
  0.849075362916E-02
  0.740637471501E-02
  0.794711447316E-02
  0.677365472694E-02
  0.730037717443E-02
  0.606652664682E-02
  0.657509517260E-02
  0.530821706516E-02
  0.579407796320E-02
  0.451982710495E-02
  0.497807256863E-02
  0.372050447750E-02
  0.414597274142E-02
  0.292849908536E-02
  0.331589939687E-02
  0.216455610394E-02
  0.250861029813E-02
  0.146584017336E-02
  0.176143798491E-02
 -0.169483024002E-02
 -0.140619036085E-02
  0.139759223378E-03
  0.156873700574E-04
  0.251388329272E-03
  0.495785149438E-02
  0.518609786701E-02
  0.349191105520E-02
  0.410738613680E-02
  0.411921067760E-02
  0.477955850821E-02
  0.463804421371E-02
  0.533292759086E-02
  0.502351684895E-02
  0.574309135538E-02
  0.525703964608E-02
  0.599192681525E-02
  0.532693094782E-02
  0.606811632246E-02
  0.522919097182E-02
  0.596787631687E-02
  0.496780846395E-02
  0.569524895059E-02
  0.455440016186E-02
  0.526175244165E-02
  0.400735194182E-02
  0.468556084992E-02
  0.335104201903E-02
  0.399078779459E-02
  0.261634979271E-02
  0.320808106535E-02
  0.405773770520E-02
  0.459441351345E-02
  0.622829418795E-02
  0.670166379421E-02
  0.577740513332E-02
  0.615616090341E-02
  0.487192344778E-02
  0.517642858031E-02
  0.439973408672E-02
  0.461986496983E-02
 -0.550800839113E-03
 -0.568710008277E-03
 -0.187958989052E-02
 -0.204436530827E-02
  0.105911620786E-02
  0.111705977194E-03
  0.662761700648E-03
  0.680790966596E-02
  0.736846869267E-02
  0.756577336295E-02
  0.799713915019E-02
  0.771050661129E-02
  0.819278538808E-02
  0.764232754055E-02
  0.836899136440E-02
  0.743046605108E-02
  0.832625132123E-02
  0.761692362661E-02
  0.854051559104E-02
  0.768057226816E-02
  0.861574976895E-02
  0.761970471055E-02
  0.855177487079E-02
  0.742514495338E-02
  0.833938460026E-02
  0.708788118762E-02
  0.796817947629E-02
  0.738056177494E-02
  0.791653905285E-02
  0.726333071910E-02
  0.769483355943E-02
  0.632598388817E-02
  0.694313941264E-02
  0.558498432435E-02
  0.609755477540E-02
  0.510294585761E-02
  0.530444741508E-02
  0.398172760673E-02
  0.327853651710E-02
  0.342861242947E-02
  0.343181226249E-02
 -0.783799311246E-03
 -0.784615149616E-03
 -0.123861384685E-02
 -0.149409534786E-02
 -0.241184626677E-02
 -0.346547943619E-02
  0.833923487559E-03
 -0.145186741948E-02
  0.940156786402E-03
 -0.151786607930E-02
 -0.226546564198E-03
 -0.510551367935E-03
  0.333610385824E-03
 -0.122386858670E-02
 -0.282638266104E-03
 -0.253813871056E-03
  0.762094128226E-03
 -0.339871027491E-03
  0.716866086610E-03
 -0.379897521217E-03
  0.698315890527E-03
 -0.401037280502E-03
  0.683109003053E-03
 -0.419328664279E-03
  0.658350453411E-03
 -0.434658135816E-03
  0.623729406591E-03
 -0.431703414439E-03
  0.590861117985E-03
 -0.708372916004E-03
  0.196486490959E-03
 -0.140759975259E-02
 -0.533505524483E-03
 -0.124075973822E-02
 -0.475160289742E-03
  0.209999258536E-02
  0.271963780587E-02
  0.921658010135E-03
  0.103197935834E-02
  0.342764366610E-02
  0.371627707195E-02
  0.247116748740E-02
  0.262296331741E-02
 -0.158122570646E-02
 -0.172644143303E-02
 -0.265474709932E-02
 -0.338518678049E-02
  0.303757883716E-02
  0.104783526388E-02
 -0.983620303749E-03
 -0.250350238960E-02
 -0.238349677957E-02
  0.535657963855E-02
  0.623145512947E-02
  0.256104320829E-02
  0.319839857080E-02
  0.181837974524E-02
  0.234098692002E-02
 -0.166150578676E-02
 -0.112800687986E-02
 -0.175635740684E-02
 -0.121933682444E-02
 -0.977611288340E-03
 -0.429178848554E-03
 -0.100938111759E-02
 -0.464372504218E-03
 -0.101048127940E-02
 -0.467453395730E-03
 -0.980995778891E-03
 -0.439011593799E-03
 -0.177061573722E-02
 -0.124555914250E-02
  0.137738387849E-02
  0.200556696536E-02
  0.139108387720E-02
  0.186881272779E-02
  0.502896036497E-02
  0.548597889460E-02
  0.509321479392E-02
  0.553773469707E-02
  0.435760323129E-02
  0.371947083105E-02
  0.323833800436E-03
  0.195335662985E-03
 -0.668382526870E-02
 -0.622353876857E-02
 -0.827756059832E-02
 -0.799482341692E-02
  0.112826705589E-03
  0.202543749189E-03
 -0.101110467568E-02
 -0.247440325548E-02
 -0.284790362210E-02
 -0.395997586489E-02
 -0.347996485363E-02
 -0.633646881851E-02
 -0.621094090979E-02
 -0.134493146036E-02
 -0.146992400639E-02
  0.473380127431E-02
  0.436573935495E-02
  0.658166477426E-02
  0.675054285837E-02
  0.604089590063E-02
  0.621078318250E-02
  0.559399876327E-02
  0.576424569911E-02
  0.545549224303E-02
  0.562597052883E-02
  0.556643665475E-02
  0.573686230130E-02
  0.600541150853E-02
  0.617578296636E-02
  0.645600805882E-02
  0.662609062052E-02
  0.429396857570E-02
  0.402789643676E-02
 -0.209037576553E-02
 -0.253487325031E-02
 -0.531204659807E-02
 -0.512894125420E-02
 -0.368165951200E-02
 -0.350887899895E-02
 -0.337377691799E-02
 -0.321023916282E-02
 -0.375577564748E-02
 -0.360422477257E-02
 -0.624921349215E-02
 -0.612778941500E-02
 -0.928458307631E-02
 -0.860991976075E-02
 -0.681087829648E-03
 -0.643356303073E-03
 -0.225432009665E-02
 -0.278102833727E-02
 -0.348078712523E-02
 -0.399594067494E-02
 -0.406485938584E-02
 -0.771949927651E-02
 -0.770336322134E-02
 -0.664571420937E-02
 -0.662760758311E-02
 -0.746134955265E-02
 -0.744295111321E-02
 -0.786375968059E-02
 -0.784641651672E-02
 -0.740101822314E-02
 -0.738562118249E-02
 -0.717066591908E-02
 -0.715685227800E-02
 -0.707028650910E-02
 -0.705464889195E-02
 -0.724034293469E-02
 -0.722163244314E-02
 -0.744031203514E-02
 -0.742025540214E-02
 -0.770251384132E-02
 -0.768183015791E-02
 -0.705215300462E-02
 -0.703081843791E-02
 -0.733724414906E-02
 -0.731579374944E-02
 -0.759158654893E-02
 -0.757180649634E-02
 -0.401923892716E-02
 -0.399711318428E-02
 -0.450364514869E-02
 -0.448154719703E-02
 -0.553657938146E-02
 -0.551776594423E-02
 -0.710469624852E-02
 -0.716098072837E-02
 -0.326331221630E-02
 -0.323814819489E-02
 -0.256293912980E-02
 -0.285843576421E-02
 -0.350003657150E-02
 -0.366181573008E-02
 -0.405326464170E-02
 -0.426567109298E-02
 -0.435193206067E-02
 -0.377092129478E-02
 -0.288561911683E-02
 -0.347602455461E-02
 -0.323335021961E-02
 -0.402722055360E-02
 -0.377695321935E-02
 -0.376899846543E-02
 -0.379501455440E-02
 -0.308728892627E-02
 -0.363998714589E-02
 -0.343468848769E-02
 -0.372082231388E-02
 -0.110809454509E-02
 -0.668475995440E-03
 -0.580599182285E-03
  0.140868593462E-02
 -0.418200351351E-02
  0.499131238757E-02
 -0.320129638931E-02
 -0.398048659190E-02
 -0.377081311199E-02
 -0.291113764231E-02
 -0.350320337971E-02
 -0.326187753845E-02
 -0.405688834346E-02
 -0.380730845217E-02
 -0.379959329062E-02
 -0.382535426938E-02
 -0.311677185974E-02
 -0.366838024839E-02
 -0.346168812658E-02
 -0.374613155361E-02
 -0.113153821122E-02
 -0.689879462925E-03
 -0.600087952080E-03
  0.139139092335E-02
 -0.419808927563E-02
  0.497400088352E-02
 -0.321438796891E-02
SCALARS phi_sigma float 1
LOOKUP_TABLE default
 -0.279863342240E-03
 -0.175138145243E-03
 -0.328146769997E-03
 -0.457678355707E-03
 -0.554292284221E-03
 -0.610509844882E-03
 -0.621716406199E-03
 -0.586757279446E-03
 -0.508095291442E-03
 -0.391513910436E-03
 -0.245410260467E-03
 -0.798239421619E-04
  0.946551009563E-04
  0.267899223459E-03
  0.431060639522E-03
  0.577120428503E-03
  0.701137178072E-03
  0.800231362946E-03
  0.873406569958E-03
 -0.111503233418E-04
 -0.748822554110E-02
 -0.750293299937E-02
 -0.801117438664E-02
 -0.803062046853E-02
 -0.837462565890E-02
 -0.839186628546E-02
 -0.867357162902E-02
 -0.868911231565E-02
 -0.889596197927E-02
 -0.891029612846E-02
 -0.903233725335E-02
 -0.904594665490E-02
 -0.907669068181E-02
 -0.909004767020E-02
 -0.902706139693E-02
 -0.904063170629E-02
 -0.888573688126E-02
 -0.889998243548E-02
 -0.865902247819E-02
 -0.867440355385E-02
 -0.835663299317E-02
 -0.837360916347E-02
 -0.799082596453E-02
 -0.800985530987E-02
 -0.757542094503E-02
 -0.759695704866E-02
 -0.712487842493E-02
 -0.714936483679E-02
 -0.665362058811E-02
 -0.668148220343E-02
 -0.617575214296E-02
 -0.620738313880E-02