# vtk DataFile Version 3.0
TriPan results file. Generated by TriPan, USU AeroLab (c) 2021.
ASCII
DATASET POLYDATA
POINTS                 446 float
  0.000000000000E+00  0.000000000000E+00  0.000000000000E+00
  0.000000000000E+00  0.217527970672E+00  0.000000000000E+00
  0.000000000000E+00  0.448061168194E+00  0.000000000000E+00
  0.000000000000E+00  0.689725637436E+00  0.000000000000E+00
  0.000000000000E+00  0.940178275108E+00  0.000000000000E+00
  0.000000000000E+00  0.119668114185E+01  0.000000000000E+00
  0.000000000000E+00  0.145621216297E+01  0.000000000000E+00
  0.000000000000E+00  0.171560299397E+01  0.000000000000E+00
  0.000000000000E+00  0.197169232368E+01  0.000000000000E+00
  0.000000000000E+00  0.222147774696E+01  0.000000000000E+00
  0.000000000000E+00  0.246225214005E+01  0.000000000000E+00
  0.000000000000E+00  0.269171094894E+01  0.000000000000E+00
  0.000000000000E+00  0.290802383423E+01  0.000000000000E+00
  0.000000000000E+00  0.310986590385E+01  0.000000000000E+00
  0.000000000000E+00  0.329641318321E+01  0.000000000000E+00
  0.000000000000E+00  0.346730756760E+01  0.000000000000E+00
  0.000000000000E+00  0.362259936333E+01  0.000000000000E+00
  0.000000000000E+00  0.376267743111E+01  0.000000000000E+00
  0.000000000000E+00  0.388819599152E+01  0.000000000000E+00
  0.000000000000E+00  0.400000000000E+01  0.000000000000E+00
  0.341100133955E-01  0.000000000000E+00 -0.298423948698E-02
  0.341100133955E-01  0.000000000000E+00  0.298423948698E-02
  0.341100133955E-01  0.217527970672E+00 -0.298423948698E-02
  0.341100133955E-01  0.217527970672E+00  0.298423948698E-02
  0.341100133955E-01  0.448061168194E+00 -0.298423948698E-02
  0.341100133955E-01  0.448061168194E+00  0.298423948698E-02
  0.341100133955E-01  0.689725637436E+00 -0.298423948698E-02
  0.341100133955E-01  0.689725637436E+00  0.298423948698E-02
  0.341100133955E-01  0.940178275108E+00 -0.298423948698E-02
  0.341100133955E-01  0.940178275108E+00  0.298423948698E-02
  0.341100133955E-01  0.119668114185E+01 -0.298423948698E-02
  0.341100133955E-01  0.119668114185E+01  0.298423948698E-02
  0.341100133955E-01  0.145621216297E+01 -0.298423948698E-02
  0.341100133955E-01  0.145621216297E+01  0.298423948698E-02
  0.341100133955E-01  0.171560299397E+01 -0.298423948698E-02
  0.341100133955E-01  0.171560299397E+01  0.298423948698E-02
  0.341100133955E-01  0.197169232368E+01 -0.298423948698E-02
  0.341100133955E-01  0.197169232368E+01  0.298423948698E-02
  0.341100133955E-01  0.222147774696E+01 -0.298423948698E-02
  0.341100133955E-01  0.222147774696E+01  0.298423948698E-02
  0.341100133955E-01  0.246225214005E+01 -0.298423948698E-02
  0.341100133955E-01  0.246225214005E+01  0.298423948698E-02
  0.341100133955E-01  0.269171094894E+01 -0.298423948698E-02
  0.341100133955E-01  0.269171094894E+01  0.298423948698E-02
  0.341100133955E-01  0.290802383423E+01 -0.298423948698E-02
  0.341100133955E-01  0.290802383423E+01  0.298423948698E-02
  0.341100133955E-01  0.310986590385E+01 -0.298423948698E-02
  0.341100133955E-01  0.310986590385E+01  0.298423948698E-02
  0.341100133955E-01  0.329641318321E+01 -0.298423948698E-02
  0.341100133955E-01  0.329641318321E+01  0.298423948698E-02
  0.341100133955E-01  0.346730756760E+01 -0.298423948698E-02
  0.341100133955E-01  0.346730756760E+01  0.298423948698E-02
  0.341100133955E-01  0.362259936333E+01 -0.298423948698E-02
  0.341100133955E-01  0.362259936333E+01  0.298423948698E-02
  0.341100133955E-01  0.376267743111E+01 -0.298423948698E-02
  0.341100133955E-01  0.376267743111E+01  0.298423948698E-02
  0.341100133955E-01  0.388819599152E+01 -0.298423948698E-02
  0.341100133955E-01  0.388819599152E+01  0.298423948698E-02
  0.341100133955E-01  0.400000000000E+01 -0.298423948698E-02
  0.341100133955E-01  0.400000000000E+01  0.298423948698E-02
  0.341100133955E-01  0.400210952759E+01 -0.210976228118E-02
  0.341100133955E-01  0.400210952759E+01  0.210976228118E-02
  0.341100133955E-01  0.400298404694E+01  0.000000000000E+00
  0.937237665057E-01  0.000000000000E+00 -0.819976720959E-02
  0.937237665057E-01  0.000000000000E+00  0.819976720959E-02
  0.937237665057E-01  0.217527970672E+00 -0.819976720959E-02
  0.937237665057E-01  0.217527970672E+00  0.819976720959E-02
  0.937237665057E-01  0.448061168194E+00 -0.819976720959E-02
  0.937237665057E-01  0.448061168194E+00  0.819976720959E-02
  0.937237665057E-01  0.689725637436E+00 -0.819976720959E-02
  0.937237665057E-01  0.689725637436E+00  0.819976720959E-02
  0.937237665057E-01  0.940178275108E+00 -0.819976720959E-02
  0.937237665057E-01  0.940178275108E+00  0.819976720959E-02
  0.937237665057E-01  0.119668114185E+01 -0.819976720959E-02
  0.937237665057E-01  0.119668114185E+01  0.819976720959E-02
  0.937237665057E-01  0.145621216297E+01 -0.819976720959E-02
  0.937237665057E-01  0.145621216297E+01  0.819976720959E-02
  0.937237665057E-01  0.171560299397E+01 -0.819976720959E-02
  0.937237665057E-01  0.171560299397E+01  0.819976720959E-02
  0.937237665057E-01  0.197169232368E+01 -0.819976720959E-02
  0.937237665057E-01  0.197169232368E+01  0.819976720959E-02
  0.937237665057E-01  0.222147774696E+01 -0.819976720959E-02
  0.937237665057E-01  0.222147774696E+01  0.819976720959E-02
  0.937237665057E-01  0.246225214005E+01 -0.819976720959E-02
  0.937237665057E-01  0.246225214005E+01  0.819976720959E-02
  0.937237665057E-01  0.269171094894E+01 -0.819976720959E-02
  0.937237665057E-01  0.269171094894E+01  0.819976720959E-02
  0.937237665057E-01  0.290802383423E+01 -0.819976720959E-02
  0.937237665057E-01  0.290802383423E+01  0.819976720959E-02
  0.937237665057E-01  0.310986590385E+01 -0.819976720959E-02
  0.937237665057E-01  0.310986590385E+01  0.819976720959E-02
  0.937237665057E-01  0.329641318321E+01 -0.819976720959E-02
  0.937237665057E-01  0.329641318321E+01  0.819976720959E-02
  0.937237665057E-01  0.346730756760E+01 -0.819976720959E-02
  0.937237665057E-01  0.346730756760E+01  0.819976720959E-02
  0.937237665057E-01  0.362259936333E+01 -0.819976720959E-02
  0.937237665057E-01  0.362259936333E+01  0.819976720959E-02
  0.937237665057E-01  0.376267743111E+01 -0.819976720959E-02
  0.937237665057E-01  0.376267743111E+01  0.819976720959E-02
  0.937237665057E-01  0.388819599152E+01 -0.819976720959E-02
  0.937237665057E-01  0.388819599152E+01  0.819976720959E-02
  0.937237665057E-01  0.400000000000E+01 -0.819976720959E-02
  0.937237665057E-01  0.400000000000E+01  0.819976720959E-02
  0.937237665057E-01  0.400579690933E+01 -0.579697405919E-02
  0.937237665057E-01  0.400579690933E+01  0.579697405919E-02
  0.937237665057E-01  0.400819969177E+01  0.000000000000E+00
  0.190432325006E+00  0.000000000000E+00 -0.166606698185E-01
  0.190432325006E+00  0.000000000000E+00  0.166606698185E-01
  0.190432325006E+00  0.217527970672E+00 -0.166606698185E-01
  0.190432325006E+00  0.217527970672E+00  0.166606698185E-01
  0.190432325006E+00  0.448061168194E+00 -0.166606698185E-01
  0.190432325006E+00  0.448061168194E+00  0.166606698185E-01
  0.190432325006E+00  0.689725637436E+00 -0.166606698185E-01
  0.190432325006E+00  0.689725637436E+00  0.166606698185E-01
  0.190432325006E+00  0.940178275108E+00 -0.166606698185E-01
  0.190432325006E+00  0.940178275108E+00  0.166606698185E-01
  0.190432325006E+00  0.119668114185E+01 -0.166606698185E-01
  0.190432325006E+00  0.119668114185E+01  0.166606698185E-01
  0.190432325006E+00  0.145621216297E+01 -0.166606698185E-01
  0.190432325006E+00  0.145621216297E+01  0.166606698185E-01
  0.190432325006E+00  0.171560299397E+01 -0.166606698185E-01
  0.190432325006E+00  0.171560299397E+01  0.166606698185E-01
  0.190432325006E+00  0.197169232368E+01 -0.166606698185E-01
  0.190432325006E+00  0.197169232368E+01  0.166606698185E-01
  0.190432325006E+00  0.222147774696E+01 -0.166606698185E-01
  0.190432325006E+00  0.222147774696E+01  0.166606698185E-01
  0.190432325006E+00  0.246225214005E+01 -0.166606698185E-01
  0.190432325006E+00  0.246225214005E+01  0.166606698185E-01
  0.190432325006E+00  0.269171094894E+01 -0.166606698185E-01
  0.190432325006E+00  0.269171094894E+01  0.166606698185E-01
  0.190432325006E+00  0.290802383423E+01 -0.166606698185E-01
  0.190432325006E+00  0.290802383423E+01  0.166606698185E-01
  0.190432325006E+00  0.310986590385E+01 -0.166606698185E-01
  0.190432325006E+00  0.310986590385E+01  0.166606698185E-01
  0.190432325006E+00  0.329641318321E+01 -0.166606698185E-01
  0.190432325006E+00  0.329641318321E+01  0.166606698185E-01
  0.190432325006E+00  0.346730756760E+01 -0.166606698185E-01
  0.190432325006E+00  0.346730756760E+01  0.166606698185E-01
  0.190432325006E+00  0.362259936333E+01 -0.166606698185E-01
  0.190432325006E+00  0.362259936333E+01  0.166606698185E-01
  0.190432325006E+00  0.376267743111E+01 -0.166606698185E-01
  0.190432325006E+00  0.376267743111E+01  0.166606698185E-01
  0.190432325006E+00  0.388819599152E+01 -0.166606698185E-01
  0.190432325006E+00  0.388819599152E+01  0.166606698185E-01
  0.190432325006E+00  0.400000000000E+01 -0.166606698185E-01
  0.190432325006E+00  0.400000000000E+01  0.166606698185E-01
  0.190432325006E+00  0.401177835464E+01 -0.117785623297E-01
  0.190432325006E+00  0.401177835464E+01  0.117785623297E-01
  0.190432325006E+00  0.401666069031E+01 -0.272416755980E-17
  0.329831987619E+00  0.000000000000E+00 -0.288565587252E-01
  0.329831987619E+00  0.000000000000E+00  0.288565587252E-01
  0.329831987619E+00  0.217527970672E+00 -0.288565587252E-01
  0.329831987619E+00  0.217527970672E+00  0.288565587252E-01
  0.329831987619E+00  0.448061168194E+00 -0.288565587252E-01
  0.329831987619E+00  0.448061168194E+00  0.288565587252E-01
  0.329831987619E+00  0.689725637436E+00 -0.288565587252E-01
  0.329831987619E+00  0.689725637436E+00  0.288565587252E-01
  0.329831987619E+00  0.940178275108E+00 -0.288565587252E-01
  0.329831987619E+00  0.940178275108E+00  0.288565587252E-01
  0.329831987619E+00  0.119668114185E+01 -0.288565587252E-01
  0.329831987619E+00  0.119668114185E+01  0.288565587252E-01
[...]
CELL_DATA                 832
SCALARS sigma float 1
LOOKUP_TABLE default
 -0.871557522570E-01
 -0.871557522570E-01
 -0.871557287754E-01
 -0.871557287754E-01
 -0.871557634975E-01
 -0.871557634975E-01
 -0.871557429768E-01
 -0.871557429768E-01
 -0.871557414567E-01
 -0.871557414567E-01
  0.871557566045E-01
  0.871557566045E-01
  0.871557337317E-01
  0.871557337317E-01
  0.871557435062E-01
  0.871557435062E-01
  0.871557449904E-01
  0.871557449904E-01
  0.871557428102E-01
  0.871557428102E-01
  0.871557428102E-01
  0.871557428102E-01
  0.871557449904E-01
  0.871557449904E-01
  0.871557435062E-01
  0.871557435062E-01
  0.871557337317E-01
  0.871557337317E-01
  0.871557566045E-01
  0.871557566045E-01
 -0.871557414567E-01
 -0.871557414567E-01
 -0.871557429768E-01
 -0.871557429768E-01
 -0.871557634975E-01
 -0.871557634975E-01
 -0.871557287754E-01
 -0.871557287754E-01
 -0.871557522570E-01
 -0.871557522570E-01
 -0.871557522570E-01
 -0.871557522570E-01
 -0.871557287754E-01
 -0.871557287754E-01
 -0.871557634975E-01
 -0.871557634975E-01
 -0.871557429768E-01
 -0.871557429768E-01
 -0.871557414567E-01
 -0.871557414567E-01
  0.871557566045E-01
  0.871557566045E-01
  0.871557337317E-01
  0.871557337317E-01
  0.871557435062E-01
  0.871557435062E-01
  0.871557449904E-01
  0.871557449904E-01
  0.871557428102E-01
  0.871557428102E-01
  0.871557428102E-01
  0.871557428102E-01
  0.871557449904E-01
  0.871557449904E-01
  0.871557435062E-01
  0.871557435062E-01
  0.871557337317E-01
  0.871557337317E-01
  0.871557566045E-01
  0.871557566045E-01
 -0.871557414567E-01
 -0.871557414567E-01
 -0.871557429768E-01
 -0.871557429768E-01
 -0.871557634975E-01
 -0.871557634975E-01
 -0.871557287754E-01
 -0.871557287754E-01
 -0.871557522570E-01
 -0.871557522570E-01
 -0.871557522570E-01
 -0.871557522570E-01
 -0.871557287754E-01
 -0.871557287754E-01
 -0.871557634975E-01
 -0.871557634975E-01
 -0.871557429768E-01
 -0.871557429768E-01
 -0.871557414567E-01
 -0.871557414567E-01
  0.871557566045E-01
  0.871557566045E-01
  0.871557337317E-01
  0.871557337317E-01
  0.871557435062E-01
  0.871557435062E-01
  0.871557449904E-01
  0.871557449904E-01
  0.871557428102E-01
  0.871557428102E-01
  0.871557428102E-01
  0.871557428102E-01
  0.871557449904E-01
  0.871557449904E-01
  0.871557435062E-01
  0.871557435062E-01
  0.871557337317E-01
  0.871557337317E-01
  0.871557566045E-01
  0.871557566045E-01
 -0.871557414567E-01
 -0.871557414567E-01
 -0.871557429768E-01
 -0.871557429768E-01
 -0.871557634975E-01
 -0.871557634975E-01
 -0.871557287754E-01
 -0.871557287754E-01
 -0.871557522570E-01
 -0.871557522570E-01
 -0.871557522570E-01
 -0.871557522570E-01
 -0.871557287754E-01
 -0.871557287754E-01
 -0.871557634975E-01
 -0.871557634975E-01
 -0.871557429768E-01
 -0.871557429768E-01
 -0.871557414567E-01
 -0.871557414567E-01
  0.871557566045E-01
  0.871557566045E-01
  0.871557337317E-01
  0.871557337317E-01
  0.871557435062E-01
  0.871557435062E-01
  0.871557449904E-01
  0.871557449904E-01
  0.871557428102E-01
  0.871557428102E-01
  0.871557428102E-01
  0.871557428102E-01
  0.871557449904E-01
  0.871557449904E-01
  0.871557435062E-01
  0.871557435062E-01
  0.871557337317E-01
  0.871557337317E-01
  0.871557566045E-01
  0.871557566045E-01
 -0.871557414567E-01
 -0.871557414567E-01
 -0.871557429768E-01
 -0.871557429768E-01
 -0.871557634975E-01
 -0.871557634975E-01
 -0.871557287754E-01
 -0.871557287754E-01
 -0.871557522570E-01
 -0.871557522570E-01
 -0.871557522570E-01
 -0.871557522570E-01
 -0.871557287754E-01
 -0.871557287754E-01
 -0.871557634975E-01
 -0.871557634975E-01
 -0.871557429768E-01
 -0.871557429768E-01
 -0.871557414567E-01
 -0.871557414567E-01
  0.871557566045E-01
  0.871557566045E-01
  0.871557337317E-01
  0.871557337317E-01
  0.871557435062E-01
  0.871557435062E-01
  0.871557449904E-01
  0.871557449904E-01
  0.871557428102E-01
  0.871557428102E-01
  0.871557428102E-01
  0.871557428102E-01
  0.871557449904E-01
  0.871557449904E-01
  0.871557435062E-01
  0.871557435062E-01
  0.871557337317E-01
  0.871557337317E-01
  0.871557566045E-01
  0.871557566045E-01
 -0.871557414567E-01
 -0.871557414567E-01
 -0.871557429768E-01
 -0.871557429768E-01
 -0.871557634975E-01
 -0.871557634975E-01
 -0.871557287754E-01
 -0.871557287754E-01
 -0.871557522570E-01
 -0.871557522570E-01
 -0.871557522570E-01
 -0.871557522570E-01
 -0.871557287754E-01
 -0.871557287754E-01
 -0.871557634975E-01
 -0.871557634975E-01
 -0.871557429768E-01
 -0.871557429768E-01
 -0.871557414567E-01
 -0.871557414567E-01
  0.871557566045E-01
  0.871557566045E-01
  0.871557337317E-01
  0.871557337317E-01
  0.871557435062E-01
  0.871557435062E-01
  0.871557449904E-01
  0.871557449904E-01
  0.871557428102E-01
  0.871557428102E-01
  0.871557428102E-01
  0.871557428102E-01
  0.871557449904E-01
  0.871557449904E-01
  0.871557435062E-01
  0.871557435062E-01
  0.871557337317E-01
  0.871557337317E-01
  0.871557566045E-01
  0.871557566045E-01
 -0.871557414567E-01
 -0.871557414567E-01
 -0.871557429768E-01
 -0.871557429768E-01
 -0.871557634975E-01
 -0.871557634975E-01
 -0.871557287754E-01
 -0.871557287754E-01
 -0.871557522570E-01
 -0.871557522570E-01
 -0.871557522570E-01
 -0.871557522570E-01
 -0.871557287754E-01
 -0.871557287754E-01
 -0.871557634975E-01
 -0.871557634975E-01
 -0.871557429768E-01
 -0.871557429768E-01
 -0.871557414567E-01
 -0.871557414567E-01
  0.871557566045E-01
  0.871557566045E-01
  0.871557337317E-01
  0.871557337317E-01
  0.871557435062E-01
  0.871557435062E-01
  0.871557449904E-01
  0.871557449904E-01
  0.871557428102E-01
  0.871557428102E-01
  0.871557428102E-01
  0.871557428102E-01
  0.871557449904E-01
  0.871557449904E-01
  0.871557435062E-01
  0.871557435062E-01
  0.871557337317E-01
  0.871557337317E-01
  0.871557566045E-01
  0.871557566045E-01
 -0.871557414567E-01
 -0.871557414567E-01
 -0.871557429768E-01
 -0.871557429768E-01
 -0.871557634975E-01
 -0.871557634975E-01
 -0.871557287754E-01
 -0.871557287754E-01
 -0.871557522570E-01
 -0.871557522570E-01
 -0.871557522570E-01
 -0.871557522570E-01
 -0.871557287754E-01
 -0.871557287754E-01
 -0.871557634975E-01
 -0.871557634975E-01
 -0.871557429768E-01
 -0.871557429768E-01
 -0.871557414567E-01
 -0.871557414567E-01
  0.871557566045E-01
  0.871557566045E-01
  0.871557337317E-01
  0.871557337317E-01
  0.871557435062E-01
  0.871557435062E-01
  0.871557449904E-01
  0.871557449904E-01
  0.871557428102E-01
  0.871557428102E-01
  0.871557428102E-01
  0.871557428102E-01
  0.871557449904E-01
  0.871557449904E-01
  0.871557435062E-01
  0.871557435062E-01
  0.871557337317E-01
  0.871557337317E-01
  0.871557566045E-01
  0.871557566045E-01
 -0.871557414567E-01
 -0.871557414567E-01
 -0.871557429768E-01
 -0.871557429768E-01
 -0.871557634975E-01
 -0.871557634975E-01
 -0.871557287754E-01
 -0.871557287754E-01
 -0.871557522570E-01
 -0.871557522570E-01
 -0.871557522570E-01
 -0.871557522570E-01
 -0.871557287754E-01
 -0.871557287754E-01
 -0.871557634975E-01
 -0.871557634975E-01
 -0.871557429768E-01
 -0.871557429768E-01
 -0.871557414567E-01
 -0.871557414567E-01
  0.871557566045E-01
  0.871557566045E-01
  0.871557337317E-01
  0.871557337317E-01
  0.871557435062E-01
  0.871557435062E-01
  0.871557449904E-01
  0.871557449904E-01
  0.871557428102E-01
  0.871557428102E-01
  0.871557428102E-01
  0.871557428102E-01
  0.871557449904E-01
  0.871557449904E-01
  0.871557435062E-01
  0.871557435062E-01
  0.871557337317E-01
  0.871557337317E-01
  0.871557566045E-01
  0.871557566045E-01
 -0.871557414567E-01
 -0.871557414567E-01
 -0.871557429768E-01
 -0.871557429768E-01
 -0.871557634975E-01
 -0.871557634975E-01
 -0.871557287754E-01
 -0.871557287754E-01
 -0.871557522570E-01
 -0.871557522570E-01
 -0.871557522570E-01
 -0.871557522570E-01
 -0.871557287754E-01
 -0.871557287754E-01
 -0.871557634975E-01
 -0.871557634975E-01
 -0.871557429768E-01
 -0.871557429768E-01
 -0.871557414567E-01
 -0.871557414567E-01
  0.871557566045E-01
  0.871557566045E-01
  0.871557337317E-01
  0.871557337317E-01
  0.871557435062E-01
  0.871557435062E-01
  0.871557449904E-01
  0.871557449904E-01
  0.871557428102E-01
  0.871557428102E-01
  0.871557428102E-01
  0.871557428102E-01
  0.871557449904E-01
  0.871557449904E-01
  0.871557435062E-01
  0.871557435062E-01
  0.871557337317E-01
  0.871557337317E-01
  0.871557566045E-01
  0.871557566045E-01
 -0.871557414567E-01
 -0.871557414567E-01
 -0.871557429768E-01
 -0.871557429768E-01
 -0.871557634975E-01
 -0.871557634975E-01
 -0.871557287754E-01
 -0.871557287754E-01
 -0.871557522570E-01
 -0.871557522570E-01
 -0.871557522570E-01
 -0.871557522570E-01
 -0.871557287754E-01
 -0.871557287754E-01
 -0.871557634975E-01
 -0.871557634975E-01
 -0.871557429768E-01
 -0.871557429768E-01
 -0.871557414567E-01
 -0.871557414567E-01
  0.871557566045E-01
  0.871557566045E-01
  0.871557337317E-01
  0.871557337317E-01
  0.871557435062E-01
  0.871557435062E-01
  0.871557449904E-01
  0.871557449904E-01
  0.871557428102E-01
  0.871557428102E-01
  0.871557428102E-01
  0.871557428102E-01
  0.871557449904E-01
  0.871557449904E-01
  0.871557435062E-01
  0.871557435062E-01
  0.871557337317E-01
  0.871557337317E-01
  0.871557566045E-01
  0.871557566045E-01
 -0.871557414567E-01
 -0.871557414567E-01
 -0.871557429768E-01
 -0.871557429768E-01
 -0.871557634975E-01
 -0.871557634975E-01
 -0.871557287754E-01
 -0.871557287754E-01
 -0.871557522570E-01
 -0.871557522570E-01
 -0.871557522570E-01
 -0.871557522570E-01
 -0.871557287754E-01
 -0.871557287754E-01
 -0.871557634975E-01
 -0.871557634975E-01
 -0.871557429768E-01
 -0.871557429768E-01
 -0.871557414567E-01
 -0.871557414567E-01
  0.871557566045E-01
  0.871557566045E-01
  0.871557337317E-01
  0.871557337317E-01
  0.871557435062E-01
  0.871557435062E-01
  0.871557449904E-01
  0.871557449904E-01
  0.871557428102E-01
  0.871557428102E-01
  0.871557428102E-01
  0.871557428102E-01
  0.871557449904E-01
  0.871557449904E-01
  0.871557435062E-01
  0.871557435062E-01
  0.871557337317E-01
  0.871557337317E-01
  0.871557566045E-01
  0.871557566045E-01
 -0.871557414567E-01
 -0.871557414567E-01
 -0.871557429768E-01
 -0.871557429768E-01
 -0.871557634975E-01
 -0.871557634975E-01
 -0.871557287754E-01
 -0.871557287754E-01
 -0.871557522570E-01
 -0.871557522570E-01
 -0.871557522570E-01
 -0.871557522570E-01
 -0.871557287754E-01
 -0.871557287754E-01
 -0.871557634975E-01
 -0.871557634975E-01
 -0.871557429768E-01
 -0.871557429768E-01
 -0.871557414567E-01
 -0.871557414567E-01
  0.871557566045E-01
  0.871557566045E-01
  0.871557337317E-01
  0.871557337317E-01
  0.871557435062E-01
  0.871557435062E-01
  0.871557449904E-01
  0.871557449904E-01
  0.871557428102E-01
  0.871557428102E-01
  0.871557428102E-01
  0.871557428102E-01
  0.871557449904E-01
  0.871557449904E-01
  0.871557435062E-01
  0.871557435062E-01
  0.871557337317E-01
  0.871557337317E-01
  0.871557566045E-01
  0.871557566045E-01
 -0.871557414567E-01
 -0.871557414567E-01
 -0.871557429768E-01
 -0.871557429768E-01
 -0.871557634975E-01
 -0.871557634975E-01
 -0.871557287754E-01
 -0.871557287754E-01
 -0.871557522570E-01
 -0.871557522570E-01
 -0.871557522570E-01
 -0.871557522570E-01
 -0.871557287754E-01
 -0.871557287754E-01
 -0.871557634975E-01
 -0.871557634975E-01
 -0.871557429768E-01
 -0.871557429768E-01
 -0.871557414567E-01
 -0.871557414567E-01
  0.871557566045E-01
  0.871557566045E-01
  0.871557337317E-01
  0.871557337317E-01
  0.871557435062E-01
  0.871557435062E-01
  0.871557449904E-01
  0.871557449904E-01
  0.871557428102E-01
  0.871557428102E-01
  0.871557428102E-01
  0.871557428102E-01
  0.871557449904E-01
  0.871557449904E-01
  0.871557435062E-01
  0.871557435062E-01
  0.871557337317E-01
  0.871557337317E-01
  0.871557566045E-01
  0.871557566045E-01
 -0.871557414567E-01
 -0.871557414567E-01
 -0.871557429768E-01
 -0.871557429768E-01
 -0.871557634975E-01
 -0.871557634975E-01
 -0.871557287754E-01
 -0.871557287754E-01
 -0.871557522570E-01
 -0.871557522570E-01
 -0.871557522570E-01
 -0.871557522570E-01
 -0.871557287754E-01
 -0.871557287754E-01
 -0.871557634975E-01
 -0.871557634975E-01
 -0.871557429768E-01
 -0.871557429768E-01
 -0.871557414567E-01
 -0.871557414567E-01
  0.871557566045E-01
  0.871557566045E-01
  0.871557337317E-01
  0.871557337317E-01
  0.871557435062E-01
  0.871557435062E-01
  0.871557449904E-01
  0.871557449904E-01
  0.871557428102E-01
  0.871557428102E-01
  0.871557428102E-01
  0.871557428102E-01
  0.871557449904E-01
  0.871557449904E-01
  0.871557435062E-01
  0.871557435062E-01
  0.871557337317E-01
  0.871557337317E-01
  0.871557566045E-01
  0.871557566045E-01
 -0.871557414567E-01
 -0.871557414567E-01
 -0.871557429768E-01
 -0.871557429768E-01
 -0.871557634975E-01
 -0.871557634975E-01
 -0.871557287754E-01
 -0.871557287754E-01
 -0.871557522570E-01
 -0.871557522570E-01
 -0.871557522570E-01
 -0.871557522570E-01
 -0.871557287754E-01
 -0.871557287754E-01
 -0.871557634975E-01
 -0.871557634975E-01
 -0.871557429768E-01
 -0.871557429768E-01
 -0.871557414567E-01
 -0.871557414567E-01
  0.871557566045E-01
  0.871557566045E-01
  0.871557337317E-01
  0.871557337317E-01
  0.871557435062E-01
  0.871557435062E-01
  0.871557449904E-01
  0.871557449904E-01
  0.871557428102E-01
  0.871557428102E-01
  0.871557428102E-01
  0.871557428102E-01
  0.871557449904E-01
  0.871557449904E-01
  0.871557435062E-01
  0.871557435062E-01
  0.871557337317E-01
  0.871557337317E-01
  0.871557566045E-01
  0.871557566045E-01
 -0.871557414567E-01
 -0.871557414567E-01
 -0.871557429768E-01
 -0.871557429768E-01
 -0.871557634975E-01
 -0.871557634975E-01
 -0.871557287754E-01
 -0.871557287754E-01
 -0.871557522570E-01
 -0.871557522570E-01
 -0.871557522570E-01
 -0.871557522570E-01
 -0.871557287754E-01
 -0.871557287754E-01
 -0.871557634975E-01
 -0.871557634975E-01
 -0.871557429768E-01
 -0.871557429768E-01
 -0.871557414567E-01
 -0.871557414567E-01
  0.871557566045E-01
  0.871557566045E-01
  0.871557337317E-01
  0.871557337317E-01
  0.871557435062E-01
  0.871557435062E-01
  0.871557449904E-01
  0.871557449904E-01
  0.871557428102E-01
  0.871557428102E-01
  0.871557428102E-01
  0.871557428102E-01
  0.871557449904E-01
  0.871557449904E-01
  0.871557435062E-01
  0.871557435062E-01
  0.871557337317E-01
  0.871557337317E-01
  0.871557566045E-01
  0.871557566045E-01
 -0.871557414567E-01
 -0.871557414567E-01
 -0.871557429768E-01
 -0.871557429768E-01
 -0.871557634975E-01
 -0.871557634975E-01
 -0.871557287754E-01
 -0.871557287754E-01
 -0.871557522570E-01
 -0.871557522570E-01
 -0.871557522570E-01
 -0.871557522570E-01
 -0.871557287754E-01
 -0.871557287754E-01
 -0.871557634975E-01
 -0.871557634975E-01
 -0.871557429768E-01
 -0.871557429768E-01
 -0.871557414567E-01
 -0.871557414567E-01
  0.871557566045E-01
  0.871557566045E-01
  0.871557337317E-01
  0.871557337317E-01
  0.871557435062E-01
  0.871557435062E-01
  0.871557449904E-01
  0.871557449904E-01
  0.871557428102E-01
  0.871557428102E-01
  0.871557428102E-01
  0.871557428102E-01
  0.871557449904E-01
  0.871557449904E-01
  0.871557435062E-01
  0.871557435062E-01
  0.871557337317E-01
  0.871557337317E-01
  0.871557566045E-01
  0.871557566045E-01
 -0.871557414567E-01
 -0.871557414567E-01
 -0.871557429768E-01
 -0.871557429768E-01
 -0.871557634975E-01
 -0.871557634975E-01
 -0.871557287754E-01
 -0.871557287754E-01
 -0.871557522570E-01
 -0.871557522570E-01
 -0.871557522570E-01
 -0.871557522570E-01
 -0.871557287754E-01
 -0.871557287754E-01
 -0.871557634975E-01
 -0.871557634975E-01
 -0.871557429768E-01
 -0.871557429768E-01
 -0.871557414567E-01
 -0.871557414567E-01
  0.871557566045E-01
  0.871557566045E-01
  0.871557337317E-01
  0.871557337317E-01
  0.871557435062E-01
  0.871557435062E-01
  0.871557449904E-01
  0.871557449904E-01
  0.871557428102E-01
  0.871557428102E-01
  0.871557428102E-01
  0.871557428102E-01
  0.871557449904E-01
  0.871557449904E-01
  0.871557435062E-01
  0.871557435062E-01
  0.871557337317E-01
  0.871557337317E-01
  0.871557566045E-01
  0.871557566045E-01
 -0.871557414567E-01
 -0.871557414567E-01
 -0.871557429768E-01
 -0.871557429768E-01
 -0.871557634975E-01
 -0.871557634975E-01
 -0.871557287754E-01
 -0.871557287754E-01
 -0.871557522570E-01
 -0.871557522570E-01
 -0.805570854206E-01
 -0.805607490770E-01
 -0.805582366092E-01
 -0.805579675070E-01
 -0.805581921972E-01
 -0.805587675784E-01
 -0.805582988966E-01
 -0.805585603312E-01
 -0.805583422474E-01
  0.805583562642E-01
  0.805585743480E-01
  0.805582903418E-01
  0.805587590236E-01
  0.805581736985E-01
  0.805579490084E-01
  0.805582516135E-01
  0.805607640817E-01
  0.805570766793E-01
  0.805570766793E-01
  0.805607640817E-01
  0.805582516135E-01
  0.805579490084E-01
  0.805581736985E-01
  0.805587590236E-01
  0.805582903418E-01
  0.805585743480E-01
  0.805583562642E-01
 -0.805583422474E-01
 -0.805585603312E-01
 -0.805582988966E-01
 -0.805587675784E-01
 -0.805581921972E-01
 -0.805579675070E-01
 -0.805582366092E-01
 -0.805607490770E-01
 -0.805570854206E-01
 -0.805526614465E-01
 -0.805596007597E-01
 -0.805609217743E-01
 -0.805593595294E-01
 -0.805575932169E-01
 -0.805589806506E-01
 -0.805592763996E-01
 -0.805580998396E-01
 -0.805589203269E-01
  0.805589343439E-01
  0.805581138564E-01
  0.805592678448E-01
  0.805589720958E-01
  0.805575747185E-01
  0.805593410305E-01
  0.805609367791E-01
  0.805596157642E-01
  0.805526527056E-01
  0.805526527056E-01
  0.805596157642E-01
  0.805609367791E-01
  0.805593410305E-01
  0.805575747185E-01
  0.805589720958E-01
  0.805592678448E-01
  0.805581138564E-01
  0.805589343439E-01
 -0.805589203269E-01
 -0.805580998396E-01
 -0.805592763996E-01
 -0.805589806506E-01
 -0.805575932169E-01
 -0.805593595294E-01
 -0.805609217743E-01
 -0.805596007597E-01
 -0.805526614465E-01
SCALARS C_p_ise float 1
LOOKUP_TABLE default
  0.757676775750E-02
  0.755993751274E-02
  0.766090329895E-02
  0.767153158551E-02
  0.763287882432E-02
  0.762894223936E-02
  0.765686411684E-02
  0.765748508387E-02
  0.764488737214E-02
  0.764371142318E-02
  0.764620637730E-02
  0.764513087584E-02
  0.764818263767E-02
  0.764820312039E-02
  0.764351724876E-02
  0.764346166930E-02
  0.765028844985E-02
  0.765045588789E-02
  0.763855143852E-02
  0.763836130955E-02
  0.763836130955E-02
  0.763855143852E-02
  0.765045588789E-02
  0.765028844985E-02
  0.764346166930E-02
  0.764351724876E-02
  0.764820312039E-02
  0.764818263767E-02
  0.764513087584E-02
  0.764620637730E-02
  0.764371142318E-02
  0.764488737214E-02
  0.765748508387E-02
  0.765686411684E-02
  0.762894223936E-02
  0.763287882432E-02
  0.767153158551E-02
  0.766090329895E-02
  0.755993751274E-02
  0.757676775750E-02
  0.755836637118E-02
  0.757676775736E-02
  0.767084085334E-02
  0.766090329914E-02
  0.763019895480E-02
  0.763287882484E-02
  0.765706562641E-02
  0.765686411686E-02
  0.764472253410E-02
  0.764488737214E-02
  0.764513087584E-02
  0.764504935874E-02
  0.764820312039E-02
  0.764828810711E-02
  0.764346166930E-02
  0.764332358910E-02
  0.765045588789E-02
  0.765067768672E-02
  0.763836130955E-02
  0.763797348376E-02
  0.763797348376E-02
  0.763836130955E-02
  0.765067768672E-02
  0.765045588789E-02
  0.764332358910E-02
  0.764346166930E-02
  0.764828810711E-02
  0.764820312039E-02
  0.764504935874E-02
  0.764513087584E-02
  0.764488737214E-02
  0.764472253410E-02
  0.765686411686E-02
  0.765706562641E-02
  0.763287882484E-02
  0.763019895480E-02
  0.766090329914E-02
  0.767084085334E-02
  0.757676775736E-02
  0.755836637118E-02
  0.755571947519E-02
  0.755836637163E-02
  0.767147565335E-02
  0.767084085382E-02
  0.762979418745E-02
  0.763019895516E-02
  0.765732714417E-02
  0.765706562641E-02
  0.764473809178E-02
  0.764472253411E-02
  0.764504935874E-02
  0.764494971418E-02
  0.764828810712E-02
  0.764837187376E-02
  0.764332358910E-02
  0.764321206414E-02
  0.765067768672E-02
  0.765086768402E-02
  0.763797348376E-02
  0.763765234473E-02
  0.763765234473E-02
  0.763797348376E-02
  0.765086768402E-02
  0.765067768672E-02
  0.764321206414E-02
  0.764332358910E-02
  0.764837187376E-02
  0.764828810712E-02
  0.764494971418E-02
  0.764504935874E-02
  0.764472253411E-02
  0.764473809178E-02
  0.765706562641E-02
  0.765732714417E-02