# vtk DataFile Version 3.0
TriPan results file. Generated by TriPan, USU AeroLab (c) 2021.
ASCII
DATASET POLYDATA
POINTS                 446 float
  0.190349744366E-05  0.000000000000E+00  0.000000000000E+00
  0.180155439444E-05  0.217527970672E+00  0.000000000000E+00
  0.188619651827E-05  0.448061168194E+00  0.000000000000E+00
  0.195463115218E-05  0.689725637436E+00  0.000000000000E+00
  0.200381935583E-05  0.940178275108E+00  0.000000000000E+00
  0.203146979263E-05  0.119668114185E+01  0.000000000000E+00
  0.203625478170E-05  0.145621216297E+01  0.432309807279E-21
  0.201794494299E-05  0.171560299397E+01  0.000000000000E+00
  0.197742965724E-05  0.197169232368E+01  0.000000000000E+00
  0.191662923716E-05  0.222147774696E+01  0.000000000000E+00
  0.183830664114E-05  0.246225214005E+01  0.000000000000E+00
  0.174581819542E-05  0.269171094894E+01  0.370648277606E-21
  0.164282618113E-05  0.290802383423E+01  0.000000000000E+00
  0.153302818423E-05  0.310986590385E+01  0.000000000000E+00
  0.141992384673E-05  0.329641318321E+01  0.000000000000E+00
  0.130663581474E-05  0.346730756760E+01  0.000000000000E+00
  0.119580047662E-05  0.362259936333E+01  0.000000000000E+00
  0.108952656797E-05  0.376267743111E+01  0.000000000000E+00
  0.989381096661E-06  0.388819599152E+01  0.000000000000E+00
  0.971479789355E-07  0.399999949033E+01 -0.325828402727E-22
  0.341101700422E-01  0.000000000000E+00 -0.298244900752E-02
  0.341101700422E-01  0.000000000000E+00  0.298244900752E-02
  0.341101732645E-01  0.217527970672E+00 -0.298241217554E-02
  0.341101732645E-01  0.217527970672E+00  0.298241217554E-02
  0.341101808994E-01  0.448061168194E+00 -0.298232490813E-02
  0.341101808994E-01  0.448061168194E+00  0.298232490813E-02
  0.341101872069E-01  0.689725637436E+00 -0.298225281343E-02
  0.341101872069E-01  0.689725637436E+00  0.298225281343E-02
  0.341101919096E-01  0.940178275108E+00 -0.298219906190E-02
  0.341101919096E-01  0.940178275108E+00  0.298219906190E-02
  0.341101947895E-01  0.119668114185E+01 -0.298216614364E-02
  0.341101947895E-01  0.119668114185E+01  0.298216614364E-02
  0.341101957088E-01  0.145621216297E+01 -0.298215563625E-02
  0.341101957088E-01  0.145621216297E+01  0.298215563625E-02
  0.341101946228E-01  0.171560299397E+01 -0.298216804932E-02
  0.341101946228E-01  0.171560299397E+01  0.298216804932E-02
  0.341101915849E-01  0.197169232368E+01 -0.298220277328E-02
  0.341101915849E-01  0.197169232368E+01  0.298220277328E-02
  0.341101867408E-01  0.222147774696E+01 -0.298225814118E-02
  0.341101867408E-01  0.222147774696E+01  0.298225814118E-02
  0.341101803147E-01  0.246225214005E+01 -0.298233159154E-02
  0.341101803147E-01  0.246225214005E+01  0.298233159154E-02
  0.341101725883E-01  0.269171094894E+01 -0.298241990475E-02
  0.341101725883E-01  0.269171094894E+01  0.298241990475E-02
  0.341101638765E-01  0.290802383423E+01 -0.298251948086E-02
  0.341101638765E-01  0.290802383423E+01  0.298251948086E-02
  0.341101545033E-01  0.310986590385E+01 -0.298262661791E-02
  0.341101545033E-01  0.310986590385E+01  0.298262661791E-02
  0.341101447801E-01  0.329641318321E+01 -0.298273775438E-02
  0.341101447801E-01  0.329641318321E+01  0.298273775438E-02
  0.341101349893E-01  0.346730756760E+01 -0.298284966302E-02
  0.341101349893E-01  0.346730756760E+01  0.298284966302E-02
  0.341101253729E-01  0.362259936333E+01 -0.298295957907E-02
  0.341101253729E-01  0.362259936333E+01  0.298295957907E-02
  0.341101161271E-01  0.376267743111E+01 -0.298306525965E-02
  0.341101161271E-01  0.376267743111E+01  0.298306525965E-02
  0.341101074006E-01  0.388819599152E+01 -0.298316500328E-02
  0.341101074006E-01  0.388819599152E+01  0.298316500328E-02
  0.341100737472E-01  0.399999986265E+01 -0.298354966883E-02
  0.341100737472E-01  0.399999986265E+01  0.298354966883E-02
  0.341100436987E-01  0.400210926234E+01 -0.210953759438E-02
  0.341100436987E-01  0.400210926234E+01  0.210953759438E-02
  0.341100370391E-01  0.400298377669E+01 -0.122196032094E-22
  0.937239372188E-01  0.000000000000E+00 -0.819781594942E-02
  0.937239372188E-01  0.000000000000E+00  0.819781594942E-02
  0.937239391905E-01  0.217527970672E+00 -0.819779341279E-02
  0.937239391905E-01  0.217527970672E+00  0.819779341279E-02
  0.937239466997E-01  0.448061168194E+00 -0.819770758223E-02
  0.937239466997E-01  0.448061168194E+00  0.819770758223E-02
  0.937239529129E-01  0.689725637436E+00 -0.819763656592E-02
  0.937239529129E-01  0.689725637436E+00  0.819763656592E-02
  0.937239575511E-01  0.940178275108E+00 -0.819758355120E-02
  0.937239575511E-01  0.940178275108E+00  0.819758355120E-02
  0.937239603954E-01  0.119668114185E+01 -0.819755104039E-02
  0.937239603954E-01  0.119668114185E+01  0.819755104039E-02
  0.937239613072E-01  0.145621216297E+01 -0.819754061826E-02
  0.937239613072E-01  0.145621216297E+01  0.819754061826E-02
  0.937239602418E-01  0.171560299397E+01 -0.819755279622E-02
  0.937239602418E-01  0.171560299397E+01  0.819755279622E-02
  0.937239572527E-01  0.197169232368E+01 -0.819758696122E-02
  0.937239572527E-01  0.197169232368E+01  0.819758696122E-02
  0.937239524866E-01  0.222147774696E+01 -0.819764143773E-02
  0.937239524866E-01  0.222147774696E+01  0.819764143773E-02
  0.937239461688E-01  0.246225214005E+01 -0.819771365102E-02
  0.937239461688E-01  0.246225214005E+01  0.819771365102E-02
  0.937239385823E-01  0.269171094894E+01 -0.819780036452E-02
  0.937239385823E-01  0.269171094894E+01  0.819780036452E-02
  0.937239300440E-01  0.290802383423E+01 -0.819789795872E-02
  0.937239300440E-01  0.290802383423E+01  0.819789795872E-02
  0.937239208793E-01  0.310986590385E+01 -0.819800271149E-02
  0.937239208793E-01  0.310986590385E+01  0.819800271149E-02
  0.937239114015E-01  0.329641318321E+01 -0.819811104320E-02
  0.937239114015E-01  0.329641318321E+01  0.819811104320E-02
  0.937239018940E-01  0.346730756760E+01 -0.819821971403E-02
  0.937239018940E-01  0.346730756760E+01  0.819821971403E-02
  0.937238925990E-01  0.362259936333E+01 -0.819832595654E-02
  0.937238925990E-01  0.362259936333E+01  0.819832595654E-02
  0.937238837116E-01  0.376267743111E+01 -0.819842754027E-02
  0.937238837116E-01  0.376267743111E+01  0.819842754027E-02
  0.937238753778E-01  0.388819599152E+01 -0.819852279555E-02
  0.937238753778E-01  0.388819599152E+01  0.819852279555E-02
  0.937238447620E-01  0.399999982191E+01 -0.819887273523E-02
  0.937238447620E-01  0.399999982191E+01  0.819887273523E-02
  0.937238187329E-01  0.400579648713E+01 -0.579655186704E-02
  0.937238187329E-01  0.400579648713E+01  0.579655186704E-02
  0.937238127474E-01  0.400819916324E+01 -0.531059685571E-23
  0.190432515049E+00  0.000000000000E+00 -0.166584976144E-01
  0.190432515049E+00  0.000000000000E+00  0.166584976144E-01
  0.190432515623E+00  0.217527970672E+00 -0.166584910535E-01
  0.190432515623E+00  0.217527970672E+00  0.166584910535E-01
  0.190432522917E+00  0.448061168194E+00 -0.166584076910E-01
  0.190432522917E+00  0.448061168194E+00  0.166584076910E-01
  0.190432528965E+00  0.689725637436E+00 -0.166583385577E-01
  0.190432528965E+00  0.689725637436E+00  0.166583385577E-01
  0.190432533488E+00  0.940178275108E+00 -0.166582868539E-01
  0.190432533488E+00  0.940178275108E+00  0.166582868539E-01
  0.190432536267E+00  0.119668114185E+01 -0.166582550931E-01
  0.190432536267E+00  0.119668114185E+01  0.166582550931E-01
  0.190432537162E+00  0.145621216297E+01 -0.166582448678E-01
  0.190432537162E+00  0.145621216297E+01  0.166582448678E-01
  0.190432536127E+00  0.171560299397E+01 -0.166582566924E-01
  0.190432536127E+00  0.171560299397E+01  0.166582566924E-01
  0.190432533217E+00  0.197169232368E+01 -0.166582899521E-01
  0.190432533217E+00  0.197169232368E+01  0.166582899521E-01
  0.190432528579E+00  0.222147774696E+01 -0.166583429656E-01
  0.190432528579E+00  0.222147774696E+01  0.166583429656E-01
  0.190432522439E+00  0.246225214005E+01 -0.166584131493E-01
  0.190432522439E+00  0.246225214005E+01  0.166584131493E-01
  0.190432515080E+00  0.269171094894E+01 -0.166584972583E-01
  0.190432515080E+00  0.269171094894E+01  0.166584972583E-01
  0.190432506821E+00  0.290802383423E+01 -0.166585916677E-01
  0.190432506821E+00  0.290802383423E+01  0.166585916677E-01
  0.190432497985E+00  0.310986590385E+01 -0.166586926582E-01
  0.190432497985E+00  0.310986590385E+01  0.166586926582E-01
  0.190432488886E+00  0.329641318321E+01 -0.166587966664E-01
  0.190432488886E+00  0.329641318321E+01  0.166587966664E-01
  0.190432479802E+00  0.346730756760E+01 -0.166589004874E-01
  0.190432479802E+00  0.346730756760E+01  0.166589004874E-01
  0.190432470973E+00  0.362259936333E+01 -0.166590014131E-01
  0.190432470973E+00  0.362259936333E+01  0.166590014131E-01
  0.190432462584E+00  0.376267743111E+01 -0.166590972994E-01
  0.190432462584E+00  0.376267743111E+01  0.166590972994E-01
  0.190432454772E+00  0.388819599152E+01 -0.166591865905E-01
  0.190432454772E+00  0.388819599152E+01  0.166591865905E-01
  0.190432426971E+00  0.399999976796E+01 -0.166595043537E-01
  0.190432426971E+00  0.399999976796E+01  0.166595043537E-01
  0.190432405032E+00  0.401177770772E+01 -0.117779154044E-01
  0.190432405032E+00  0.401177770772E+01  0.117779154044E-01
  0.190432398107E+00  0.401665985477E+01 -0.272412558306E-17
  0.329832195175E+00  0.000000000000E+00 -0.288541863447E-01
  0.329832195175E+00  0.000000000000E+00  0.288541863447E-01
  0.329832196040E+00  0.217527970672E+00 -0.288541764567E-01
  0.329832196040E+00  0.217527970672E+00  0.288541764567E-01
  0.329832203100E+00  0.448061168194E+00 -0.288540957614E-01
  0.329832203100E+00  0.448061168194E+00  0.288540957614E-01
  0.329832208967E+00  0.689725637436E+00 -0.288540287094E-01
  0.329832208967E+00  0.689725637436E+00  0.288540287094E-01
  0.329832213360E+00  0.940178275108E+00 -0.288539784943E-01
  0.329832213360E+00  0.940178275108E+00  0.288539784943E-01
  0.329832216060E+00  0.119668114185E+01 -0.288539476290E-01
  0.329832216060E+00  0.119668114185E+01  0.288539476290E-01
[...]
POINT_DATA                 446
SCALARS phi float 1
LOOKUP_TABLE default
 -0.206727343778E-18
  0.554958032846E-14
  0.936694437674E-15
  0.498218625061E-14
 -0.294824629926E-14
  0.133209770146E-13
 -0.107470676729E-13
 -0.865784375430E-14
  0.128924129420E-13
  0.124799717894E-13
  0.971777846778E-14
  0.329932284022E-14
  0.757583834511E-14
 -0.838507321760E-14
 -0.422917022569E-14
 -0.225674152157E-14
  0.642333576440E-14
  0.117124205747E-13
 -0.671977559509E-14
  0.316261020369E-14
  0.336577011921E-15
  0.124954300379E-16
  0.170558554259E-16
  0.968009580913E-15
  0.194275476782E-15
  0.226137468126E-15
  0.158063124221E-15
  0.187768908495E-14
 -0.728041758824E-16
 -0.180701265583E-14
  0.303251347644E-15
 -0.126133370242E-15
 -0.125659031791E-15
 -0.607451372189E-15
 -0.641712160840E-15
  0.142979161497E-14
 -0.401087041184E-15
 -0.126390868257E-15
  0.183526967495E-14
  0.249530485250E-14
 -0.130640940774E-14
  0.284406558634E-14
  0.104217578577E-14
 -0.774703109822E-15
 -0.103716135073E-14
 -0.257866644704E-14
  0.160152923909E-14
  0.207924226881E-14
 -0.138944574162E-14
 -0.219609215795E-14
  0.144876515298E-14
 -0.130856425955E-14
  0.124721196912E-14
  0.189452132367E-14
 -0.478404208609E-17
  0.476056910906E-14
 -0.440646867952E-15
  0.148441507567E-14
  0.649403220001E-15
  0.347054216555E-14
  0.676157263860E-14
 -0.244799298020E-15
  0.110974868617E-14
  0.194289029309E-15
  0.269229083472E-14
 -0.602816407902E-16
  0.250949434843E-14
  0.137259995037E-15
  0.219876200580E-15
  0.565953534037E-15
 -0.608887940068E-15
  0.941087485717E-16
  0.607326688939E-14
  0.485418996665E-14
  0.115532583500E-13
 -0.470110061990E-15
 -0.855175305570E-14
 -0.496564594998E-14
 -0.126799612477E-13
  0.149802045768E-13
  0.172448860747E-13
 -0.789862966699E-14
 -0.424790411180E-14
 -0.994343496430E-14
 -0.197585003914E-13
  0.235271871429E-14
 -0.232843258563E-14
  0.920053963571E-15
  0.877770078844E-15
  0.285795692667E-15
 -0.392025821527E-14
  0.493095148046E-15
  0.449727061147E-15
 -0.211701316200E-14
 -0.607153216592E-15
  0.350197301713E-15
 -0.245918736763E-14
 -0.401588484689E-15
  0.934582272683E-16
  0.198495733739E-14
  0.343692088678E-15
 -0.499817201516E-16
  0.570005739657E-14
 -0.233444990769E-14
  0.878745860800E-16
 -0.979576662841E-16
  0.596744875736E-15
 -0.555805401703E-14
 -0.528483506956E-14
 -0.657460197395E-15
  0.182579645847E-14
 -0.126114396704E-14
  0.125507243487E-14
  0.732053306862E-15
  0.884708972748E-16
  0.143982048506E-14
  0.270616862252E-15
 -0.222911966663E-15
  0.788431819831E-15
  0.549820605711E-14
  0.269489291993E-14
 -0.321270787751E-14
 -0.595183624608E-14
  0.267060679127E-14
  0.212841896885E-13
 -0.250667542279E-15
 -0.343908929112E-14
 -0.489972645790E-14
 -0.712971348626E-15
 -0.433247188125E-14
 -0.125420507313E-14
  0.377996245415E-14
  0.190732846184E-14
  0.493268620394E-14
  0.696838420300E-14
  0.401328276167E-14
 -0.474446870680E-15
 -0.143114686768E-15
  0.140946282423E-14
 -0.182753118194E-13
 -0.107266626137E-13
  0.356138729618E-14
 -0.580351738888E-14
  0.348939627193E-14
 -0.572025066203E-15
 -0.264951905901E-14
  0.560228946567E-14
 -0.850751760706E-14
  0.563568289258E-15
 -0.117406084854E-13
 -0.138777878078E-15
 -0.350067197452E-14
 -0.389271948009E-13
  0.666827704165E-14
  0.120910226276E-14
 -0.168511038456E-13
 -0.382853471148E-14
  0.111022302463E-15
  0.294902990916E-16
  0.119071419391E-13
  0.151285234340E-13
 -0.184401105496E-14
  0.659194920871E-15
  0.677236045021E-14
 -0.106945702294E-13
  0.137372752063E-13
 -0.314782921951E-13
  0.770217223334E-15
 -0.153523027624E-14
 -0.498212582301E-14
 -0.204385119940E-13
 -0.149359691282E-14
  0.292196822294E-13
 -0.171772318591E-13
 -0.227214080883E-13
  0.114075415780E-13
  0.149186218934E-13
  0.857647286523E-14
  0.267286193179E-13
  0.110814135645E-13
 -0.307184833126E-13
  0.153002610581E-14
 -0.289629431549E-13
  0.954097911787E-14
  0.138222766566E-13
 -0.559378932063E-13
 -0.477916317632E-13
 -0.175554015769E-13
  0.719696925753E-13
  0.571678121508E-14
 -0.206106832989E-13
 -0.389879101226E-13
 -0.555111512313E-16
  0.433542091116E-13
 -0.106858966120E-14
  0.242861286637E-14
  0.231967223208E-13
  0.166325286877E-13
  0.192623694772E-13
  0.211636264069E-15
  0.130902233497E-13
  0.201123839805E-13
  0.677270739491E-13
  0.533947885906E-14
  0.122610255282E-13
 -0.128022592527E-13
  0.115289722213E-13
 -0.416715273399E-13
 -0.129722621534E-13
 -0.415084633332E-13
 -0.455538384792E-13
  0.328903571045E-14
 -0.740345285077E-13
 -0.805605582244E-14
 -0.587724313661E-14
  0.542517419877E-13
 -0.767164110016E-13
 -0.305970526693E-13
  0.366720542821E-14
 -0.521388487940E-13
 -0.384622889094E-13
 -0.732053306862E-15
 -0.175796877055E-13
  0.372618602640E-14
 -0.523886489745E-14
  0.746278039365E-14
  0.236324848579E-12
  0.526795621014E-12
  0.155188362161E-12
  0.295874436063E-13
  0.296785165887E-13
 -0.260104437988E-13
  0.177722420114E-13
  0.939873179284E-14
 -0.251933890416E-13
  0.258681964738E-13
  0.881517081552E-13
 -0.170696790036E-14
  0.589805981832E-15
 -0.604585825847E-13
  0.168788594213E-13
  0.553723733532E-13
  0.342850747792E-13
  0.396817995130E-13
  0.216562878741E-13
  0.348159001629E-14
 -0.610272466242E-13
 -0.159989426221E-12
 -0.133573707650E-15
 -0.167799801831E-13
  0.400183358673E-13
  0.106987335657E-12
 -0.173992764640E-13
 -0.117270776423E-12
 -0.614092110496E-13
  0.187592996692E-13
 -0.734412530790E-13
  0.514865927670E-13
  0.132154703847E-12
 -0.193525750980E-13
  0.505255559613E-13
  0.312944115066E-13
 -0.473926453637E-13
  0.106982131487E-12
  0.120162560457E-12
  0.126287869051E-13
 -0.112587890400E-13
 -0.270825029069E-13
 -0.207594358370E-12
 -0.120986554109E-12
 -0.387467835594E-13
  0.993510829161E-13
 -0.128091981466E-13
  0.612947193002E-13
  0.841340885849E-14
 -0.941954847455E-14
  0.829371293865E-13
  0.883113027150E-13
  0.122679644221E-13
 -0.666133814775E-15
  0.182562298612E-13
  0.100253139124E-12
  0.151129109227E-13
  0.530409050015E-13
 -0.704714064881E-13
  0.151857693087E-13
  0.395170007828E-14
  0.111026639271E-12
  0.207137258734E-12
 -0.448681890253E-13
 -0.350986600894E-13
 -0.203435358836E-13
  0.549443303355E-13
  0.166126552618E-12
  0.859403694042E-13
 -0.978297304277E-14
 -0.844055728089E-13
 -0.217972341565E-12
  0.777329589585E-13
 -0.264198385391E-13
  0.898586760556E-15
  0.703569147387E-13
 -0.536723443467E-14
 -0.352795050118E-13
  0.294044302795E-13
  0.110878320414E-12
 -0.208340289465E-13
  0.126414503865E-12
  0.910382880193E-14
  0.663358257214E-14
 -0.222211138379E-12
  0.223154827950E-13
 -0.209832151654E-12
 -0.347832873615E-12
  0.562605517729E-13
  0.168198788231E-13
 -0.141692213518E-13
  0.190999993599E-12
 -0.154459778301E-13
  0.113672959934E-12
 -0.578564973708E-13
 -0.148547840695E-12
 -0.740518757425E-13
 -0.274780198595E-13
  0.853761505937E-13
  0.420150025882E-14
  0.117961196366E-15
  0.736910532595E-13
  0.109554726402E-12
 -0.285882428841E-13
 -0.166727742723E-12
 -0.408006961550E-14
 -0.731706362167E-13
  0.143357548055E-13
 -0.545535838725E-13
 -0.404676292476E-13
 -0.398944766111E-12
 -0.111476800013E-12
 -0.463223209790E-12
  0.116608112055E-12
  0.173222547417E-12
  0.193872695675E-12
  0.308798125959E-12
  0.834610158762E-13
  0.924121890122E-13
  0.396765953425E-13
  0.792560461704E-13
  0.105054853705E-13
  0.692917945244E-13
  0.747457651329E-13
 -0.838912272982E-13
 -0.846545056277E-13
  0.855149284718E-13
 -0.193844940100E-12
  0.178967951570E-12
 -0.398736599294E-12
 -0.374311692752E-12
  0.240557573861E-12
 -0.380251385934E-14
  0.932448562807E-13
  0.937305788540E-13
 -0.157374113741E-13
  0.476146899686E-13
  0.275335310107E-13
  0.752731210696E-13
 -0.121236354289E-12
  0.293515212135E-12
  0.592165205759E-13
  0.689552581701E-13
  0.405057931641E-13
 -0.529506993807E-13
 -0.101585406753E-13
  0.187697080101E-12
  0.902333763264E-13
  0.222495633029E-12
  0.282399104101E-12
 -0.129965482820E-13
  0.345001804902E-13
 -0.518543541439E-13
 -0.101189889801E-12
 -0.104360964315E-13
  0.696664947952E-14
 -0.242153519459E-12
 -0.235991781672E-13
 -0.168962066560E-12
 -0.875272077039E-13
  0.822952817003E-14
 -0.717481629664E-14
  0.308586489695E-12
  0.673766598069E-13
 -0.138777878078E-13
  0.971445146547E-15
 -0.591887650003E-13
 -0.614369666252E-13
  0.143790535034E-11
  0.114774856286E-11
 -0.405231403988E-12
 -0.126298971281E-11
  0.100974784090E-12
 -0.117794662913E-12
  0.235367281221E-12
 -0.592859095150E-13
 -0.674321709582E-13
  0.327099458630E-13
  0.357769369685E-13
 -0.541788836017E-13
  0.218852713729E-13
 -0.216049400592E-12
  0.285604873085E-12
  0.975261538194E-13
 -0.170696790036E-14
  0.617561557448E-14
  0.642402797624E-13
 -0.450195436486E-13
 -0.770078445456E-13
 -0.471150896075E-13
 -0.174499303895E-12
  0.852096171400E-14
  0.202615701994E-13
  0.239669395441E-13
 -0.276306755254E-13
  0.387467835594E-13
  0.135613742458E-12
  0.131117339208E-12
  0.572875080707E-13
 -0.566768854071E-13
  0.992261828259E-13
 -0.245692355350E-12
  0.306699110553E-13
  0.624292284535E-13
 -0.136071709456E-13
  0.141150979793E-12
  0.285327317329E-13
 -0.246747067223E-13
  0.623667784083E-13
 -0.948408018786E-13
 -0.105138120432E-12
 -0.124900090270E-14
  0.119390608511E-12
  0.231481500634E-13
 -0.198729921408E-13
  0.108704711899E-12
  0.808297873078E-12
 -0.606181771445E-13
 -0.301758618093E-12
 -0.335287353437E-13
SCALARS phi_mu float 1
LOOKUP_TABLE default
  0.383523508091E-13
  0.259939639258E-13
  0.233389696458E-13
  0.290323320939E-13
  0.223224216889E-13
  0.392914867309E-13
  0.153466649111E-13
  0.169725344890E-13
  0.375103594019E-13
  0.356156076853E-13
  0.310103505374E-13
  0.225122654893E-13
  0.245966441659E-13
  0.112613098100E-13
  0.126290666377E-13
  0.120200006090E-13
  0.183794562143E-13
  0.216342955107E-13
  0.345826611705E-14
  0.698003327772E-13
 -0.857466957325E-04
 -0.762192832554E-04
 -0.560072840929E-04
 -0.566031509472E-04
 -0.905066765453E-04
 -0.857431688123E-04
 -0.905045067874E-04
 -0.857411133631E-04
 -0.905028891183E-04
 -0.857395809246E-04
 -0.905018984465E-04
 -0.857386424463E-04
 -0.905015822304E-04
 -0.857383428908E-04
 -0.905019557985E-04
 -0.857386967742E-04
 -0.905030008129E-04
 -0.857396867325E-04
 -0.905046671278E-04
 -0.857412652570E-04
 -0.905068776929E-04
 -0.857433593589E-04
 -0.905095356356E-04
 -0.857458772839E-04
 -0.809848974108E-04
 -0.762210811800E-04
 -0.714598081018E-04
 -0.666958220055E-04
 -0.714624490536E-04
 -0.666982867573E-04
 -0.714651084456E-04
 -0.667007687293E-04
 -0.714677205832E-04
 -0.667032066041E-04
 -0.619408676257E-04
 -0.571761861011E-04
 -0.619429221106E-04
 -0.571780824624E-04
 -0.410367678760E-04
 -0.233032394145E-05
 -0.260342866530E-04
 -0.172863958204E-04
 -0.143622410675E-04
  0.152792619282E-01
  0.285060618706E-01
 -0.176730296981E-02
 -0.151674083532E-02
 -0.184187931283E-02
 -0.184744302545E-02
 -0.198051290406E-02
 -0.194986065658E-02
 -0.200098600299E-02
 -0.227063722430E-02
 -0.230492932403E-02
 -0.226970013077E-02
 -0.231405475064E-02
 -0.227872012508E-02
 -0.230328849684E-02
 -0.226785658571E-02
 -0.227315269728E-02
 -0.223763039289E-02
 -0.222507519005E-02
 -0.218946849991E-02
 -0.216124939317E-02
 -0.212556390959E-02
 -0.201247502979E-02
 -0.197671661979E-02
 -0.192574149337E-02
 -0.188991711859E-02
 -0.183225604709E-02
 -0.179637491638E-02
 -0.173505632169E-02
 -0.169913127387E-02
 -0.163688889541E-02
 -0.160093798949E-02
 -0.154009985003E-02
 -0.150414812741E-02
 -0.137462403282E-02
 -0.133870527224E-02
 -0.128581460973E-02
 -0.124997228328E-02
 -0.478166614319E-03
 -0.846668854426E-04
 -0.484330974115E-03
 -0.363814288034E-03
 -0.429268805857E-03
  0.403493321038E-01
  0.534833853926E-01
 -0.524047332777E-02
 -0.510723216862E-02
 -0.435266543543E-02
 -0.438418040771E-02
 -0.441983222630E-02
 -0.429773236250E-02
 -0.449092764254E-02
 -0.436847627088E-02
 -0.451705531371E-02
 -0.439354423406E-02
 -0.453105779539E-02
 -0.440695118409E-02
 -0.451497983726E-02
 -0.439032528230E-02
 -0.551880902935E-02
 -0.537640994307E-02
 -0.544666459884E-02
 -0.530342524369E-02
 -0.535071740952E-02
 -0.520679510962E-02
 -0.493802924788E-02
 -0.479361221240E-02
 -0.480743080906E-02
 -0.466274704644E-02
 -0.466659679259E-02
 -0.452192310771E-02
 -0.481720595321E-02
 -0.467287412050E-02
 -0.466919998033E-02
 -0.452559882520E-02
 -0.452321371731E-02
 -0.438078703522E-02
 -0.467921286537E-02
 -0.453845360277E-02
 -0.454471571548E-02
 -0.440615460910E-02
 -0.159888458583E-02
 -0.365792403933E-03
 -0.165067273545E-02
 -0.123166500070E-02
 -0.132634170146E-02
  0.844287153686E-01
  0.971289062712E-01
 -0.160786445708E-01
 -0.161700644502E-01
 -0.119674548810E-01
 -0.112143196387E-01
 -0.107744738283E-01
 -0.109253586869E-01
 -0.133524821294E-01
 -0.134465440980E-01
 -0.124673872095E-01
 -0.125648764685E-01
 -0.120409844538E-01
 -0.121348963971E-01
 -0.124672132948E-01
 -0.125580697632E-01
 -0.124223488870E-01
 -0.124900807495E-01
 -0.123304735005E-01
 -0.123968700797E-01
 -0.122079423582E-01
 -0.122740266935E-01
 -0.125057274351E-01
 -0.125726691963E-01
 -0.163656365037E-01
 -0.164140939166E-01
 -0.252301609193E-01
 -0.252934223135E-01
 -0.316530264177E-01
 -0.314058414809E-01
 -0.253252867406E-01
 -0.253599174294E-01
 -0.203386435601E-01
 -0.200855754241E-01
 -0.170141519077E-01
 -0.170605064232E-01
  0.219145595549E-01
  0.101251089963E-01
 -0.413115465612E-02
 -0.213626045481E-03
 -0.225343692737E-02
 -0.150815333490E-02
 -0.586206586253E-02
  0.213441140246E+00
  0.456158507411E+00
 -0.381152042656E-01
 -0.514896235998E-01
 -0.426448218684E-01
 -0.405818990967E-01
 -0.278440956551E-01
 -0.274496699016E-01
 -0.281670097888E-01
 -0.277846645303E-01
 -0.265193899046E-01
 -0.260670883241E-01
 -0.348880434534E-01
 -0.344752941285E-01
 -0.200284270676E-01
 -0.286226079959E-01
 -0.283626176534E-01
 -0.368896577391E-01
 -0.270400381865E-01
 -0.355724029264E-01
 -0.272626260656E-01
 -0.360842702851E-01
 -0.254237470959E-01
 -0.211772703777E-01
 -0.228726860222E-01
 -0.225827184598E-01
 -0.212493987199E-01
 -0.208893440489E-01
 -0.325882501028E-01
 -0.220582920137E-01
 -0.285353058970E-01
 -0.199497998929E-01
 -0.258968216958E-01
 -0.252736797905E-01
  0.466022369913E-01
  0.691033745367E-02
  0.617279329227E-01
  0.512509788118E-01
 -0.124497493361E-02
  0.847344663540E-02
 -0.111729404811E-01
 -0.891420947105E-02
 -0.128388467965E-01
  0.321813233726E+00
  0.306037332325E+00
 -0.386192799874E-01
 -0.469531262167E-01
 -0.193664901516E-01
 -0.186586433978E-01
 -0.188126220203E-01
 -0.180956907664E-01
 -0.784579998259E-02
 -0.628293242808E-02
  0.442646207286E-02
 -0.969744493769E-03
  0.101061267189E-02
 -0.786974816821E-02
 -0.960212679777E-02
 -0.924751233506E-02
 -0.983902699217E-02
 -0.949095568586E-02
 -0.102338352889E-01
 -0.994335426231E-02
 -0.169691124540E-01
 -0.152338460798E-01
 -0.164451947908E-01
 -0.168377192984E-01
 -0.315836136033E-01
 -0.198116016773E-01
 -0.213221705646E-01
 -0.286815146709E-01
 -0.108766781954E-01
 -0.121092672624E-01
 -0.116379577162E-01
 -0.263465319099E-02
  0.986972994585E-02
 -0.119405616126E-02
  0.225917545048E+00
  0.207323036369E+00
  0.113194650429E+00
  0.109964314983E+00
  0.281732804129E-01
  0.258043705314E-01
  0.257444009803E-01
  0.248402880407E-01
  0.186685090214E-01
  0.337629331405E+00
  0.315970088349E+00
 -0.640433977442E-02
 -0.132387252753E-01
 -0.697626360057E-01
 -0.733756198894E-01
 -0.147164759575E-01
 -0.143970423270E-01
 -0.467839076563E-02
 -0.435821338247E-02
  0.704110660918E-02
  0.162844120589E-02
  0.126537673911E-01
  0.340924088877E-02
 -0.483295679821E-03
 -0.579308540633E-03
  0.240040485001E-02
  0.270304200651E-02
  0.504339310313E-03
 -0.292284281102E-02
 -0.824364170495E-02
 -0.695917271371E-02
 -0.136562275171E-01
 -0.239387430232E-01
 -0.958977035575E-02
 -0.220825534813E-02
  0.501194826396E-02
  0.259757137924E-02
  0.173694420550E-01
  0.151389380103E-01
  0.298809977263E-01
  0.314794227924E-01
  0.296263030351E+00
  0.272433632731E+00
  0.326300649416E+00
  0.314559025677E+00
  0.205802671875E+00
  0.216929806180E+00
  0.727037174081E-01
  0.789162497319E-01
  0.669748298854E-01
  0.712346506237E-01
  0.681077359356E-01
  0.541002254013E+00
  0.531203954146E+00
  0.814770384650E-01
  0.806191235995E-01
 -0.155852264592E-01
 -0.179846741896E-01
 -0.261540002189E-01
 -0.258568773613E-01
 -0.383608611657E-01
 -0.379222841254E-01
 -0.483968688226E-01
 -0.426316863205E-01
 -0.425154381664E-01
 -0.474078534321E-01
 -0.554824681014E-01
 -0.562054834387E-01
 -0.268336469092E-01
 -0.283810092939E-01
 -0.208168551149E-01
 -0.206283738839E-01
  0.163933742920E-01
  0.219746511669E-01
  0.493888129889E-01
  0.447823812370E-01
  0.660826816303E-01
  0.631433917558E-01
  0.443862217699E-01
  0.473605159301E-01
  0.828341615053E-01
  0.807993293516E-01
  0.731073327092E-01
  0.670706327899E-01
  0.543538418049E+00
  0.531132459922E+00
  0.395670705212E+00
  0.386236658724E+00
  0.227979504905E+00
  0.239270483011E+00
  0.943375860970E-01
  0.998839751795E-01
  0.923056641184E-01
  0.956848753230E-01
  0.921823467412E-01
  0.573122959349E+00
  0.569071543832E+00
  0.120164387276E+00
  0.119022350799E+00
  0.235640440920E-01
  0.223476891396E-01
  0.476003808918E-01
  0.476133781314E-01
  0.647246088736E-01
  0.645821396080E-01
  0.444783930005E-01
  0.444001733259E-01
  0.532495707654E-01
  0.529901356969E-01
  0.485503733018E-01
  0.554060570984E-01
  0.546317485696E-01
  0.555534928755E-01
  0.282284458896E-01
  0.347415304685E-01
  0.752991604821E-01
  0.763311036025E-01
  0.821037431764E-01
  0.800236569284E-01
  0.754743282903E-01
  0.743277765012E-01
  0.646115875603E-01
  0.643831720758E-01
  0.875379081864E-01
  0.872674405408E-01
  0.297339456667E+00
  0.292085892179E+00
  0.542946616525E+00
  0.538542343291E+00
  0.447929760137E+00
  0.448990252517E+00
  0.262159499187E+00
  0.263088077231E+00
  0.116373159369E+00
  0.121121695156E+00
  0.122477972040E+00
  0.119981952144E+00
  0.120622791979E+00
  0.660300451325E+00
  0.129735331788E+00
  0.506032439747E-01
  0.534756510798E-01
  0.643515234642E-01
  0.687955251682E-01
  0.799106226931E-01
  0.871772192633E-01
  0.819618072188E-01
  0.668279700661E-01
  0.780796095306E-01
  0.728579522983E-01
  0.755978678997E-01
  0.989521136588E-01
  0.115259287967E+00
  0.238822503405E+00
  0.613187929889E+00
  0.575777079278E+00
  0.286886199611E+00
  0.143566089695E+00
  0.660300375716E+00
  0.129735302990E+00
  0.506032052299E-01
  0.534757214396E-01
  0.643515255187E-01
  0.687955347842E-01
  0.799106173055E-01
  0.871772412418E-01
  0.819618191772E-01
  0.668279092489E-01
  0.780796425276E-01
  0.728579745824E-01
  0.755978634994E-01
  0.989521095984E-01
  0.115259281337E+00
  0.238822427168E+00
  0.613187838703E+00
  0.575777122709E+00
  0.286886210804E+00
SCALARS phi_sigma float 1
LOOKUP_TABLE default
 -0.383525575364E-13
 -0.204443835973E-13
 -0.224022752081E-13
 -0.240501458433E-13
 -0.252706679881E-13
 -0.259705097163E-13
 -0.260937325840E-13
 -0.256303782433E-13
 -0.246179464599E-13
 -0.231356358959E-13
 -0.212925720696E-13
 -0.192129426491E-13
 -0.170208058208E-13
 -0.196463830276E-13
 -0.168582368634E-13
 -0.142767421306E-13
 -0.119561204500E-13
 -0.992187493593E-14
 -0.101780417121E-13
 -0.666377225735E-13
  0.857466957329E-04
  0.762192832554E-04
  0.560072840930E-04
  0.566031509482E-04
  0.905066765455E-04
  0.857431688125E-04
  0.905045067875E-04
  0.857411133649E-04
  0.905028891182E-04
  0.857395809228E-04
  0.905018984468E-04
  0.857386424462E-04
  0.905015822303E-04
  0.857383428902E-04
  0.905019557979E-04
  0.857386967756E-04
  0.905030008125E-04
  0.857396867323E-04
  0.905046671296E-04
  0.857412652595E-04
  0.905068776916E-04
  0.857433593617E-04
  0.905095356367E-04
  0.857458772832E-04
  0.809848974097E-04
  0.762210811774E-04
  0.714598081034E-04
  0.666958220075E-04
  0.714624490522E-04
  0.666982867551E-04
  0.714651084470E-04
  0.667007687280E-04