# vtk DataFile Version 3.0
MachLine results file. Generated by MachLine, USU AeroLab (c) 2022.
ASCII
DATASET POLYDATA
POINTS                 465 float
  0.000000000000E+00 -0.000000000000E+00  0.000000000000E+00
  0.000000000000E+00 -0.217527970672E+00  0.000000000000E+00
  0.000000000000E+00 -0.448061168194E+00  0.000000000000E+00
  0.000000000000E+00 -0.689725637436E+00  0.000000000000E+00
  0.000000000000E+00 -0.940178275108E+00  0.000000000000E+00
  0.000000000000E+00 -0.119668114185E+01  0.000000000000E+00
  0.000000000000E+00 -0.145621216297E+01  0.000000000000E+00
  0.000000000000E+00 -0.171560299397E+01  0.000000000000E+00
  0.000000000000E+00 -0.197169232368E+01  0.000000000000E+00
  0.000000000000E+00 -0.222147774696E+01  0.000000000000E+00
  0.000000000000E+00 -0.246225214005E+01  0.000000000000E+00
  0.000000000000E+00 -0.269171094894E+01  0.000000000000E+00
  0.000000000000E+00 -0.290802383423E+01  0.000000000000E+00
  0.000000000000E+00 -0.310986590385E+01  0.000000000000E+00
  0.000000000000E+00 -0.329641318321E+01  0.000000000000E+00
  0.000000000000E+00 -0.346730756760E+01  0.000000000000E+00
  0.000000000000E+00 -0.362259936333E+01  0.000000000000E+00
  0.000000000000E+00 -0.376267743111E+01  0.000000000000E+00
  0.000000000000E+00 -0.388819599152E+01  0.000000000000E+00
  0.000000000000E+00 -0.400000000000E+01  0.000000000000E+00
  0.341100133955E-01 -0.000000000000E+00 -0.298423948698E-02
  0.341100133955E-01 -0.000000000000E+00  0.298423948698E-02
  0.341100133955E-01 -0.217527970672E+00 -0.298423948698E-02
  0.341100133955E-01 -0.217527970672E+00  0.298423948698E-02
  0.341100133955E-01 -0.448061168194E+00 -0.298423948698E-02
  0.341100133955E-01 -0.448061168194E+00  0.298423948698E-02
  0.341100133955E-01 -0.689725637436E+00 -0.298423948698E-02
  0.341100133955E-01 -0.689725637436E+00  0.298423948698E-02
  0.341100133955E-01 -0.940178275108E+00 -0.298423948698E-02
  0.341100133955E-01 -0.940178275108E+00  0.298423948698E-02
  0.341100133955E-01 -0.119668114185E+01 -0.298423948698E-02
  0.341100133955E-01 -0.119668114185E+01  0.298423948698E-02
  0.341100133955E-01 -0.145621216297E+01 -0.298423948698E-02
  0.341100133955E-01 -0.145621216297E+01  0.298423948698E-02
  0.341100133955E-01 -0.171560299397E+01 -0.298423948698E-02
  0.341100133955E-01 -0.171560299397E+01  0.298423948698E-02
  0.341100133955E-01 -0.197169232368E+01 -0.298423948698E-02
  0.341100133955E-01 -0.197169232368E+01  0.298423948698E-02
  0.341100133955E-01 -0.222147774696E+01 -0.298423948698E-02
  0.341100133955E-01 -0.222147774696E+01  0.298423948698E-02
  0.341100133955E-01 -0.246225214005E+01 -0.298423948698E-02
  0.341100133955E-01 -0.246225214005E+01  0.298423948698E-02
  0.341100133955E-01 -0.269171094894E+01 -0.298423948698E-02
  0.341100133955E-01 -0.269171094894E+01  0.298423948698E-02
  0.341100133955E-01 -0.290802383423E+01 -0.298423948698E-02
  0.341100133955E-01 -0.290802383423E+01  0.298423948698E-02
  0.341100133955E-01 -0.310986590385E+01 -0.298423948698E-02
  0.341100133955E-01 -0.310986590385E+01  0.298423948698E-02
  0.341100133955E-01 -0.329641318321E+01 -0.298423948698E-02
  0.341100133955E-01 -0.329641318321E+01  0.298423948698E-02
  0.341100133955E-01 -0.346730756760E+01 -0.298423948698E-02
  0.341100133955E-01 -0.346730756760E+01  0.298423948698E-02
  0.341100133955E-01 -0.362259936333E+01 -0.298423948698E-02
  0.341100133955E-01 -0.362259936333E+01  0.298423948698E-02
  0.341100133955E-01 -0.376267743111E+01 -0.298423948698E-02
  0.341100133955E-01 -0.376267743111E+01  0.298423948698E-02
  0.341100133955E-01 -0.388819599152E+01 -0.298423948698E-02
  0.341100133955E-01 -0.388819599152E+01  0.298423948698E-02
  0.341100133955E-01 -0.400000000000E+01 -0.298423948698E-02
  0.341100133955E-01 -0.400000000000E+01  0.298423948698E-02
  0.341100133955E-01 -0.400210952759E+01 -0.210976228118E-02
  0.341100133955E-01 -0.400210952759E+01  0.210976228118E-02
  0.341100133955E-01 -0.400298404694E+01  0.000000000000E+00
  0.937237665057E-01 -0.000000000000E+00 -0.819976720959E-02
  0.937237665057E-01 -0.000000000000E+00  0.819976720959E-02
  0.937237665057E-01 -0.217527970672E+00 -0.819976720959E-02
  0.937237665057E-01 -0.217527970672E+00  0.819976720959E-02
  0.937237665057E-01 -0.448061168194E+00 -0.819976720959E-02
  0.937237665057E-01 -0.448061168194E+00  0.819976720959E-02
  0.937237665057E-01 -0.689725637436E+00 -0.819976720959E-02
  0.937237665057E-01 -0.689725637436E+00  0.819976720959E-02
  0.937237665057E-01 -0.940178275108E+00 -0.819976720959E-02
  0.937237665057E-01 -0.940178275108E+00  0.819976720959E-02
  0.937237665057E-01 -0.119668114185E+01 -0.819976720959E-02
  0.937237665057E-01 -0.119668114185E+01  0.819976720959E-02
  0.937237665057E-01 -0.145621216297E+01 -0.819976720959E-02
  0.937237665057E-01 -0.145621216297E+01  0.819976720959E-02
  0.937237665057E-01 -0.171560299397E+01 -0.819976720959E-02
  0.937237665057E-01 -0.171560299397E+01  0.819976720959E-02
  0.937237665057E-01 -0.197169232368E+01 -0.819976720959E-02
  0.937237665057E-01 -0.197169232368E+01  0.819976720959E-02
  0.937237665057E-01 -0.222147774696E+01 -0.819976720959E-02
  0.937237665057E-01 -0.222147774696E+01  0.819976720959E-02
  0.937237665057E-01 -0.246225214005E+01 -0.819976720959E-02
  0.937237665057E-01 -0.246225214005E+01  0.819976720959E-02
  0.937237665057E-01 -0.269171094894E+01 -0.819976720959E-02
  0.937237665057E-01 -0.269171094894E+01  0.819976720959E-02
  0.937237665057E-01 -0.290802383423E+01 -0.819976720959E-02
  0.937237665057E-01 -0.290802383423E+01  0.819976720959E-02
  0.937237665057E-01 -0.310986590385E+01 -0.819976720959E-02
  0.937237665057E-01 -0.310986590385E+01  0.819976720959E-02
  0.937237665057E-01 -0.329641318321E+01 -0.819976720959E-02
  0.937237665057E-01 -0.329641318321E+01  0.819976720959E-02
  0.937237665057E-01 -0.346730756760E+01 -0.819976720959E-02
  0.937237665057E-01 -0.346730756760E+01  0.819976720959E-02
  0.937237665057E-01 -0.362259936333E+01 -0.819976720959E-02
  0.937237665057E-01 -0.362259936333E+01  0.819976720959E-02
  0.937237665057E-01 -0.376267743111E+01 -0.819976720959E-02
  0.937237665057E-01 -0.376267743111E+01  0.819976720959E-02
  0.937237665057E-01 -0.388819599152E+01 -0.819976720959E-02
  0.937237665057E-01 -0.388819599152E+01  0.819976720959E-02
  0.937237665057E-01 -0.400000000000E+01 -0.819976720959E-02
  0.937237665057E-01 -0.400000000000E+01  0.819976720959E-02
  0.937237665057E-01 -0.400579690933E+01 -0.579697405919E-02
  0.937237665057E-01 -0.400579690933E+01  0.579697405919E-02
  0.937237665057E-01 -0.400819969177E+01  0.000000000000E+00
  0.190432325006E+00 -0.000000000000E+00 -0.166606698185E-01
  0.190432325006E+00 -0.000000000000E+00  0.166606698185E-01
  0.190432325006E+00 -0.217527970672E+00 -0.166606698185E-01
  0.190432325006E+00 -0.217527970672E+00  0.166606698185E-01
  0.190432325006E+00 -0.448061168194E+00 -0.166606698185E-01
  0.190432325006E+00 -0.448061168194E+00  0.166606698185E-01
  0.190432325006E+00 -0.689725637436E+00 -0.166606698185E-01
  0.190432325006E+00 -0.689725637436E+00  0.166606698185E-01
  0.190432325006E+00 -0.940178275108E+00 -0.166606698185E-01
  0.190432325006E+00 -0.940178275108E+00  0.166606698185E-01
  0.190432325006E+00 -0.119668114185E+01 -0.166606698185E-01
  0.190432325006E+00 -0.119668114185E+01  0.166606698185E-01
  0.190432325006E+00 -0.145621216297E+01 -0.166606698185E-01
  0.190432325006E+00 -0.145621216297E+01  0.166606698185E-01
  0.190432325006E+00 -0.171560299397E+01 -0.166606698185E-01
  0.190432325006E+00 -0.171560299397E+01  0.166606698185E-01
  0.190432325006E+00 -0.197169232368E+01 -0.166606698185E-01
  0.190432325006E+00 -0.197169232368E+01  0.166606698185E-01
  0.190432325006E+00 -0.222147774696E+01 -0.166606698185E-01
  0.190432325006E+00 -0.222147774696E+01  0.166606698185E-01
  0.190432325006E+00 -0.246225214005E+01 -0.166606698185E-01
  0.190432325006E+00 -0.246225214005E+01  0.166606698185E-01
  0.190432325006E+00 -0.269171094894E+01 -0.166606698185E-01
  0.190432325006E+00 -0.269171094894E+01  0.166606698185E-01
  0.190432325006E+00 -0.290802383423E+01 -0.166606698185E-01
  0.190432325006E+00 -0.290802383423E+01  0.166606698185E-01
  0.190432325006E+00 -0.310986590385E+01 -0.166606698185E-01
  0.190432325006E+00 -0.310986590385E+01  0.166606698185E-01
  0.190432325006E+00 -0.329641318321E+01 -0.166606698185E-01
  0.190432325006E+00 -0.329641318321E+01  0.166606698185E-01
  0.190432325006E+00 -0.346730756760E+01 -0.166606698185E-01
  0.190432325006E+00 -0.346730756760E+01  0.166606698185E-01
  0.190432325006E+00 -0.362259936333E+01 -0.166606698185E-01
  0.190432325006E+00 -0.362259936333E+01  0.166606698185E-01
  0.190432325006E+00 -0.376267743111E+01 -0.166606698185E-01
  0.190432325006E+00 -0.376267743111E+01  0.166606698185E-01
  0.190432325006E+00 -0.388819599152E+01 -0.166606698185E-01
  0.190432325006E+00 -0.388819599152E+01  0.166606698185E-01
  0.190432325006E+00 -0.400000000000E+01 -0.166606698185E-01
  0.190432325006E+00 -0.400000000000E+01  0.166606698185E-01
  0.190432325006E+00 -0.401177835464E+01 -0.117785623297E-01
  0.190432325006E+00 -0.401177835464E+01  0.117785623297E-01
  0.190432325006E+00 -0.401666069031E+01 -0.272416755980E-17
  0.329831987619E+00 -0.000000000000E+00 -0.288565587252E-01
  0.329831987619E+00 -0.000000000000E+00  0.288565587252E-01
  0.329831987619E+00 -0.217527970672E+00 -0.288565587252E-01
  0.329831987619E+00 -0.217527970672E+00  0.288565587252E-01
  0.329831987619E+00 -0.448061168194E+00 -0.288565587252E-01
  0.329831987619E+00 -0.448061168194E+00  0.288565587252E-01
  0.329831987619E+00 -0.689725637436E+00 -0.288565587252E-01
  0.329831987619E+00 -0.689725637436E+00  0.288565587252E-01
  0.329831987619E+00 -0.940178275108E+00 -0.288565587252E-01
  0.329831987619E+00 -0.940178275108E+00  0.288565587252E-01
  0.329831987619E+00 -0.119668114185E+01 -0.288565587252E-01
  0.329831987619E+00 -0.119668114185E+01  0.288565587252E-01
[...]
CELL_DATA                 832
SCALARS sigma float 1
LOOKUP_TABLE default
  0.123409192283E-01
  0.123409192283E-01
  0.123409426819E-01
  0.123409426819E-01
  0.123409080011E-01
  0.123409080011E-01
  0.123409284975E-01
  0.123409284975E-01
  0.123409300158E-01
  0.123409300158E-01
  0.184935031402E+00
  0.184935031402E+00
  0.184935008953E+00
  0.184935008953E+00
  0.184935018547E+00
  0.184935018547E+00
  0.184935020003E+00
  0.184935020003E+00
  0.184935017863E+00
  0.184935017863E+00
 -0.123409286639E-01
 -0.123409286639E-01
 -0.123409264863E-01
 -0.123409264863E-01
 -0.123409279687E-01
 -0.123409279687E-01
 -0.123409377315E-01
 -0.123409377315E-01
 -0.123409148859E-01
 -0.123409148859E-01
 -0.184935016535E+00
 -0.184935016535E+00
 -0.184935018027E+00
 -0.184935018027E+00
 -0.184935038168E+00
 -0.184935038168E+00
 -0.184935004089E+00
 -0.184935004089E+00
 -0.184935027135E+00
 -0.184935027135E+00
  0.123409192283E-01
  0.123409192283E-01
  0.123409426819E-01
  0.123409426819E-01
  0.123409080011E-01
  0.123409080011E-01
  0.123409284975E-01
  0.123409284975E-01
  0.123409300158E-01
  0.123409300158E-01
  0.184935031402E+00
  0.184935031402E+00
  0.184935008953E+00
  0.184935008953E+00
  0.184935018547E+00
  0.184935018547E+00
  0.184935020003E+00
  0.184935020003E+00
  0.184935017863E+00
  0.184935017863E+00
 -0.123409286639E-01
 -0.123409286639E-01
 -0.123409264863E-01
 -0.123409264863E-01
 -0.123409279687E-01
 -0.123409279687E-01
 -0.123409377315E-01
 -0.123409377315E-01
 -0.123409148859E-01
 -0.123409148859E-01
 -0.184935016535E+00
 -0.184935016535E+00
 -0.184935018027E+00
 -0.184935018027E+00
 -0.184935038168E+00
 -0.184935038168E+00
 -0.184935004089E+00
 -0.184935004089E+00
 -0.184935027135E+00
 -0.184935027135E+00
  0.123409192283E-01
  0.123409192283E-01
  0.123409426819E-01
  0.123409426819E-01
  0.123409080011E-01
  0.123409080011E-01
  0.123409284975E-01
  0.123409284975E-01
  0.123409300158E-01
  0.123409300158E-01
  0.184935031402E+00
  0.184935031402E+00
  0.184935008953E+00
  0.184935008953E+00
  0.184935018547E+00
  0.184935018547E+00
  0.184935020003E+00
  0.184935020003E+00
  0.184935017863E+00
  0.184935017863E+00
 -0.123409286639E-01
 -0.123409286639E-01
 -0.123409264863E-01
 -0.123409264863E-01
 -0.123409279687E-01
 -0.123409279687E-01
 -0.123409377315E-01
 -0.123409377315E-01
 -0.123409148859E-01
 -0.123409148859E-01
 -0.184935016535E+00
 -0.184935016535E+00
 -0.184935018027E+00
 -0.184935018027E+00
 -0.184935038168E+00
 -0.184935038168E+00
 -0.184935004089E+00
 -0.184935004089E+00
 -0.184935027135E+00
 -0.184935027135E+00
  0.123409192283E-01
  0.123409192283E-01
  0.123409426819E-01
  0.123409426819E-01
  0.123409080011E-01
  0.123409080011E-01
  0.123409284975E-01
  0.123409284975E-01
  0.123409300158E-01
  0.123409300158E-01
  0.184935031402E+00
  0.184935031402E+00
  0.184935008953E+00
  0.184935008953E+00
  0.184935018547E+00
  0.184935018547E+00
  0.184935020003E+00
  0.184935020003E+00
  0.184935017863E+00
  0.184935017863E+00
 -0.123409286639E-01
 -0.123409286639E-01
 -0.123409264863E-01
 -0.123409264863E-01
 -0.123409279687E-01
 -0.123409279687E-01
 -0.123409377315E-01
 -0.123409377315E-01
 -0.123409148859E-01
 -0.123409148859E-01
 -0.184935016535E+00
 -0.184935016535E+00
 -0.184935018027E+00
 -0.184935018027E+00
 -0.184935038168E+00
 -0.184935038168E+00
 -0.184935004089E+00
 -0.184935004089E+00
 -0.184935027135E+00
 -0.184935027135E+00
  0.123409192283E-01
  0.123409192283E-01
  0.123409426819E-01
  0.123409426819E-01
  0.123409080011E-01
  0.123409080011E-01
  0.123409284975E-01
  0.123409284975E-01
  0.123409300158E-01
  0.123409300158E-01
  0.184935031402E+00
  0.184935031402E+00
  0.184935008953E+00
  0.184935008953E+00
  0.184935018547E+00
  0.184935018547E+00
  0.184935020003E+00
  0.184935020003E+00
  0.184935017863E+00
  0.184935017863E+00
 -0.123409286639E-01
 -0.123409286639E-01
 -0.123409264863E-01
 -0.123409264863E-01
 -0.123409279687E-01
 -0.123409279687E-01
 -0.123409377315E-01
 -0.123409377315E-01
 -0.123409148859E-01
 -0.123409148859E-01
 -0.184935016535E+00
 -0.184935016535E+00
 -0.184935018027E+00
 -0.184935018027E+00
 -0.184935038168E+00
 -0.184935038168E+00
 -0.184935004089E+00
 -0.184935004089E+00
 -0.184935027135E+00
 -0.184935027135E+00
  0.123409192283E-01
  0.123409192283E-01
  0.123409426819E-01
  0.123409426819E-01
  0.123409080011E-01
  0.123409080011E-01
  0.123409284975E-01
  0.123409284975E-01
  0.123409300158E-01
  0.123409300158E-01
  0.184935031402E+00
  0.184935031402E+00
  0.184935008953E+00
  0.184935008953E+00
  0.184935018547E+00
  0.184935018547E+00
  0.184935020003E+00
  0.184935020003E+00
  0.184935017863E+00
  0.184935017863E+00
 -0.123409286639E-01
 -0.123409286639E-01
 -0.123409264863E-01
 -0.123409264863E-01
 -0.123409279687E-01
 -0.123409279687E-01
 -0.123409377315E-01
 -0.123409377315E-01
 -0.123409148859E-01
 -0.123409148859E-01
 -0.184935016535E+00
 -0.184935016535E+00
 -0.184935018027E+00
 -0.184935018027E+00
 -0.184935038168E+00
 -0.184935038168E+00
 -0.184935004089E+00
 -0.184935004089E+00
 -0.184935027135E+00
 -0.184935027135E+00
  0.123409192283E-01
  0.123409192283E-01
  0.123409426819E-01
  0.123409426819E-01
  0.123409080011E-01
  0.123409080011E-01
  0.123409284975E-01
  0.123409284975E-01
  0.123409300158E-01
  0.123409300158E-01
  0.184935031402E+00
  0.184935031402E+00
  0.184935008953E+00
  0.184935008953E+00
  0.184935018547E+00
  0.184935018547E+00
  0.184935020003E+00
  0.184935020003E+00
  0.184935017863E+00
  0.184935017863E+00
 -0.123409286639E-01
 -0.123409286639E-01
 -0.123409264863E-01
 -0.123409264863E-01
 -0.123409279687E-01
 -0.123409279687E-01
 -0.123409377315E-01
 -0.123409377315E-01
 -0.123409148859E-01
 -0.123409148859E-01
 -0.184935016535E+00
 -0.184935016535E+00
 -0.184935018027E+00
 -0.184935018027E+00
 -0.184935038168E+00
 -0.184935038168E+00
 -0.184935004089E+00
 -0.184935004089E+00
 -0.184935027135E+00
 -0.184935027135E+00
  0.123409192283E-01
  0.123409192283E-01
  0.123409426819E-01
  0.123409426819E-01
  0.123409080011E-01
  0.123409080011E-01
  0.123409284975E-01
  0.123409284975E-01
  0.123409300158E-01
  0.123409300158E-01
  0.184935031402E+00
  0.184935031402E+00
  0.184935008953E+00
  0.184935008953E+00
  0.184935018547E+00
  0.184935018547E+00
  0.184935020003E+00
  0.184935020003E+00
  0.184935017863E+00
  0.184935017863E+00
 -0.123409286639E-01
 -0.123409286639E-01
 -0.123409264863E-01
 -0.123409264863E-01
 -0.123409279687E-01
 -0.123409279687E-01
 -0.123409377315E-01
 -0.123409377315E-01
 -0.123409148859E-01
 -0.123409148859E-01
 -0.184935016535E+00
 -0.184935016535E+00
 -0.184935018027E+00
 -0.184935018027E+00
 -0.184935038168E+00
 -0.184935038168E+00
 -0.184935004089E+00
 -0.184935004089E+00
 -0.184935027135E+00
 -0.184935027135E+00
  0.123409192283E-01
  0.123409192283E-01
  0.123409426819E-01
  0.123409426819E-01
  0.123409080011E-01
  0.123409080011E-01
  0.123409284975E-01
  0.123409284975E-01
  0.123409300158E-01
  0.123409300158E-01
  0.184935031402E+00
  0.184935031402E+00
  0.184935008953E+00
  0.184935008953E+00
  0.184935018547E+00
  0.184935018547E+00
  0.184935020003E+00
  0.184935020003E+00
  0.184935017863E+00
  0.184935017863E+00
 -0.123409286639E-01
 -0.123409286639E-01
 -0.123409264863E-01
 -0.123409264863E-01
 -0.123409279687E-01
 -0.123409279687E-01
 -0.123409377315E-01
 -0.123409377315E-01
 -0.123409148859E-01
 -0.123409148859E-01
 -0.184935016535E+00
 -0.184935016535E+00
 -0.184935018027E+00
 -0.184935018027E+00
 -0.184935038168E+00
 -0.184935038168E+00
 -0.184935004089E+00
 -0.184935004089E+00
 -0.184935027135E+00
 -0.184935027135E+00
  0.123409192283E-01
  0.123409192283E-01
  0.123409426819E-01
  0.123409426819E-01
  0.123409080011E-01
  0.123409080011E-01
  0.123409284975E-01
  0.123409284975E-01
  0.123409300158E-01
  0.123409300158E-01
  0.184935031402E+00
  0.184935031402E+00
  0.184935008953E+00
  0.184935008953E+00
  0.184935018547E+00
  0.184935018547E+00
  0.184935020003E+00
  0.184935020003E+00
  0.184935017863E+00
  0.184935017863E+00
 -0.123409286639E-01
 -0.123409286639E-01
 -0.123409264863E-01
 -0.123409264863E-01
 -0.123409279687E-01
 -0.123409279687E-01
 -0.123409377315E-01
 -0.123409377315E-01
 -0.123409148859E-01
 -0.123409148859E-01
 -0.184935016535E+00
 -0.184935016535E+00
 -0.184935018027E+00
 -0.184935018027E+00
 -0.184935038168E+00
 -0.184935038168E+00
 -0.184935004089E+00
 -0.184935004089E+00
 -0.184935027135E+00
 -0.184935027135E+00
  0.123409192283E-01
  0.123409192283E-01
  0.123409426819E-01
  0.123409426819E-01
  0.123409080011E-01
  0.123409080011E-01
  0.123409284975E-01
  0.123409284975E-01
  0.123409300158E-01
  0.123409300158E-01
  0.184935031402E+00
  0.184935031402E+00
  0.184935008953E+00
  0.184935008953E+00
  0.184935018547E+00
  0.184935018547E+00
  0.184935020003E+00
  0.184935020003E+00
  0.184935017863E+00
  0.184935017863E+00
 -0.123409286639E-01
 -0.123409286639E-01
 -0.123409264863E-01
 -0.123409264863E-01
 -0.123409279687E-01
 -0.123409279687E-01
 -0.123409377315E-01
 -0.123409377315E-01
 -0.123409148859E-01
 -0.123409148859E-01
 -0.184935016535E+00
 -0.184935016535E+00
 -0.184935018027E+00
 -0.184935018027E+00
 -0.184935038168E+00
 -0.184935038168E+00
 -0.184935004089E+00
 -0.184935004089E+00
 -0.184935027135E+00
 -0.184935027135E+00
  0.123409192283E-01
  0.123409192283E-01
  0.123409426819E-01
  0.123409426819E-01
  0.123409080011E-01
  0.123409080011E-01
  0.123409284975E-01
  0.123409284975E-01
  0.123409300158E-01
  0.123409300158E-01
  0.184935031402E+00
  0.184935031402E+00
  0.184935008953E+00
  0.184935008953E+00
  0.184935018547E+00
  0.184935018547E+00
  0.184935020003E+00
  0.184935020003E+00
  0.184935017863E+00
  0.184935017863E+00
 -0.123409286639E-01
 -0.123409286639E-01
 -0.123409264863E-01
 -0.123409264863E-01
 -0.123409279687E-01
 -0.123409279687E-01
 -0.123409377315E-01
 -0.123409377315E-01
 -0.123409148859E-01
 -0.123409148859E-01
 -0.184935016535E+00
 -0.184935016535E+00
 -0.184935018027E+00
 -0.184935018027E+00
 -0.184935038168E+00
 -0.184935038168E+00
 -0.184935004089E+00
 -0.184935004089E+00
 -0.184935027135E+00
 -0.184935027135E+00
  0.123409192283E-01
  0.123409192283E-01
  0.123409426819E-01
  0.123409426819E-01
  0.123409080011E-01
  0.123409080011E-01
  0.123409284975E-01
  0.123409284975E-01
  0.123409300158E-01
  0.123409300158E-01
  0.184935031402E+00
  0.184935031402E+00
  0.184935008953E+00
  0.184935008953E+00
  0.184935018547E+00
  0.184935018547E+00
  0.184935020003E+00
  0.184935020003E+00
  0.184935017863E+00
  0.184935017863E+00
 -0.123409286639E-01
 -0.123409286639E-01
 -0.123409264863E-01
 -0.123409264863E-01
 -0.123409279687E-01
 -0.123409279687E-01
 -0.123409377315E-01
 -0.123409377315E-01
 -0.123409148859E-01
 -0.123409148859E-01
 -0.184935016535E+00
 -0.184935016535E+00
 -0.184935018027E+00
 -0.184935018027E+00
 -0.184935038168E+00
 -0.184935038168E+00
 -0.184935004089E+00
 -0.184935004089E+00
 -0.184935027135E+00
 -0.184935027135E+00
  0.123409192283E-01
  0.123409192283E-01
  0.123409426819E-01
  0.123409426819E-01
  0.123409080011E-01
  0.123409080011E-01
  0.123409284975E-01
  0.123409284975E-01
  0.123409300158E-01
  0.123409300158E-01
  0.184935031402E+00
  0.184935031402E+00
  0.184935008953E+00
  0.184935008953E+00
  0.184935018547E+00
  0.184935018547E+00
  0.184935020003E+00
  0.184935020003E+00
  0.184935017863E+00
  0.184935017863E+00
 -0.123409286639E-01
 -0.123409286639E-01
 -0.123409264863E-01
 -0.123409264863E-01
 -0.123409279687E-01
 -0.123409279687E-01
 -0.123409377315E-01
 -0.123409377315E-01
 -0.123409148859E-01
 -0.123409148859E-01
 -0.184935016535E+00
 -0.184935016535E+00
 -0.184935018027E+00
 -0.184935018027E+00
 -0.184935038168E+00
 -0.184935038168E+00
 -0.184935004089E+00
 -0.184935004089E+00
 -0.184935027135E+00
 -0.184935027135E+00
  0.123409192283E-01
  0.123409192283E-01
  0.123409426819E-01
  0.123409426819E-01
  0.123409080011E-01
  0.123409080011E-01
  0.123409284975E-01
  0.123409284975E-01
  0.123409300158E-01
  0.123409300158E-01
  0.184935031402E+00
  0.184935031402E+00
  0.184935008953E+00
  0.184935008953E+00
  0.184935018547E+00
  0.184935018547E+00
  0.184935020003E+00
  0.184935020003E+00
  0.184935017863E+00
  0.184935017863E+00
 -0.123409286639E-01
 -0.123409286639E-01
 -0.123409264863E-01
 -0.123409264863E-01
 -0.123409279687E-01
 -0.123409279687E-01
 -0.123409377315E-01
 -0.123409377315E-01
 -0.123409148859E-01
 -0.123409148859E-01
 -0.184935016535E+00
 -0.184935016535E+00
 -0.184935018027E+00
 -0.184935018027E+00
 -0.184935038168E+00
 -0.184935038168E+00
 -0.184935004089E+00
 -0.184935004089E+00
 -0.184935027135E+00
 -0.184935027135E+00
  0.123409192283E-01
  0.123409192283E-01
  0.123409426819E-01
  0.123409426819E-01
  0.123409080011E-01
  0.123409080011E-01
  0.123409284975E-01
  0.123409284975E-01
  0.123409300158E-01
  0.123409300158E-01
  0.184935031402E+00
  0.184935031402E+00
  0.184935008953E+00
  0.184935008953E+00
  0.184935018547E+00
  0.184935018547E+00
  0.184935020003E+00
  0.184935020003E+00
  0.184935017863E+00
  0.184935017863E+00
 -0.123409286639E-01
 -0.123409286639E-01
 -0.123409264863E-01
 -0.123409264863E-01
 -0.123409279687E-01
 -0.123409279687E-01
 -0.123409377315E-01
 -0.123409377315E-01
 -0.123409148859E-01
 -0.123409148859E-01
 -0.184935016535E+00
 -0.184935016535E+00
 -0.184935018027E+00
 -0.184935018027E+00
 -0.184935038168E+00
 -0.184935038168E+00
 -0.184935004089E+00
 -0.184935004089E+00
 -0.184935027135E+00
 -0.184935027135E+00
  0.123409192283E-01
  0.123409192283E-01
  0.123409426819E-01
  0.123409426819E-01
  0.123409080011E-01
  0.123409080011E-01
  0.123409284975E-01
  0.123409284975E-01
  0.123409300158E-01
  0.123409300158E-01
  0.184935031402E+00
  0.184935031402E+00
  0.184935008953E+00
  0.184935008953E+00
  0.184935018547E+00
  0.184935018547E+00
  0.184935020003E+00
  0.184935020003E+00
  0.184935017863E+00
  0.184935017863E+00
 -0.123409286639E-01
 -0.123409286639E-01
 -0.123409264863E-01
 -0.123409264863E-01
 -0.123409279687E-01
 -0.123409279687E-01
 -0.123409377315E-01
 -0.123409377315E-01
 -0.123409148859E-01
 -0.123409148859E-01
 -0.184935016535E+00
 -0.184935016535E+00
 -0.184935018027E+00
 -0.184935018027E+00
 -0.184935038168E+00
 -0.184935038168E+00
 -0.184935004089E+00
 -0.184935004089E+00
 -0.184935027135E+00
 -0.184935027135E+00
  0.123409192283E-01
  0.123409192283E-01
  0.123409426819E-01
  0.123409426819E-01
  0.123409080011E-01
  0.123409080011E-01
  0.123409284975E-01
  0.123409284975E-01
  0.123409300158E-01
  0.123409300158E-01
  0.184935031402E+00
  0.184935031402E+00
  0.184935008953E+00
  0.184935008953E+00
  0.184935018547E+00
  0.184935018547E+00
  0.184935020003E+00
  0.184935020003E+00
  0.184935017863E+00
  0.184935017863E+00
 -0.123409286639E-01
 -0.123409286639E-01
 -0.123409264863E-01
 -0.123409264863E-01
 -0.123409279687E-01
 -0.123409279687E-01
 -0.123409377315E-01
 -0.123409377315E-01
 -0.123409148859E-01
 -0.123409148859E-01
 -0.184935016535E+00
 -0.184935016535E+00
 -0.184935018027E+00
 -0.184935018027E+00
 -0.184935038168E+00
 -0.184935038168E+00
 -0.184935004089E+00
 -0.184935004089E+00
 -0.184935027135E+00
 -0.184935027135E+00
  0.123409192283E-01
  0.123409192283E-01
  0.123409426819E-01
  0.123409426819E-01
  0.123409080011E-01
  0.123409080011E-01
  0.123409284975E-01
  0.123409284975E-01
  0.123409300158E-01
  0.123409300158E-01
  0.184935031402E+00
  0.184935031402E+00
  0.184935008953E+00
  0.184935008953E+00
  0.184935018547E+00
  0.184935018547E+00
  0.184935020003E+00
  0.184935020003E+00
  0.184935017863E+00
  0.184935017863E+00
 -0.123409286639E-01
 -0.123409286639E-01
 -0.123409264863E-01
 -0.123409264863E-01
 -0.123409279687E-01
 -0.123409279687E-01
 -0.123409377315E-01
 -0.123409377315E-01
 -0.123409148859E-01
 -0.123409148859E-01
 -0.184935016535E+00
 -0.184935016535E+00
 -0.184935018027E+00
 -0.184935018027E+00
 -0.184935038168E+00
 -0.184935038168E+00
 -0.184935004089E+00
 -0.184935004089E+00
 -0.184935027135E+00
 -0.184935027135E+00
  0.491998993143E-01
  0.491962334431E-01
  0.491968602377E-01
  0.491971295026E-01
  0.491970278399E-01
  0.491964521110E-01
  0.491967188306E-01
  0.491964572380E-01
  0.491966034332E-01
  0.208725906450E+00
  0.208726192126E+00
  0.208725913887E+00
  0.208726575296E+00
  0.208726001858E+00
  0.208725658568E+00
  0.208725955028E+00
  0.208730303661E+00
  0.208726691148E+00
  0.263867438422E-01
  0.263904108740E-01
  0.263833528692E-01
  0.263830519358E-01
  0.263835729306E-01
  0.263841550222E-01
  0.263832003328E-01
  0.263834827701E-01
  0.263830919009E-01
 -0.133146211324E+00
 -0.133146252325E+00
 -0.133145994597E+00
 -0.133145968036E+00
 -0.133145400814E+00
 -0.133145476856E+00
 -0.133145742142E+00
 -0.133143659566E+00
 -0.133140047862E+00
  0.492031353683E-01
  0.491961918632E-01
  0.491938784418E-01
  0.491954416312E-01
  0.491981767305E-01
  0.491967884583E-01
  0.491963649618E-01
  0.491975422330E-01
  0.491964503753E-01
  0.208726898161E+00
  0.208726365211E+00
  0.208727495763E+00
  0.208727333589E+00
  0.208725964591E+00
  0.208726727312E+00
  0.208728290651E+00
  0.208727988074E+00
  0.208721166428E+00
  0.133138554503E+00
  0.133145418821E+00
  0.133149116712E+00
  0.133147543593E+00
  0.133143464433E+00
  0.133144841995E+00
  0.133145441747E+00
  0.133144304123E+00
  0.133145767384E+00
 -0.263846804870E-01
 -0.263845189408E-01
 -0.263856890013E-01
 -0.263857030837E-01
 -0.263843233145E-01
 -0.263837419738E-01
 -0.263852955891E-01
 -0.263863774814E-01
 -0.263794765032E-01
SCALARS C_p_ise float 1
LOOKUP_TABLE default
  0.145860308969E-01
  0.145798464382E-01
  0.145820321933E-01
  0.145801617024E-01
  0.145814322059E-01
  0.145799492869E-01
  0.145805878314E-01
  0.145794911208E-01
  0.145802743782E-01
  0.145791002470E-01
  0.270614563536E+00
  0.270616478320E+00
  0.270614248791E+00
  0.270616433735E+00
  0.270614117800E+00
  0.270616609388E+00
  0.270613943183E+00
  0.270616726682E+00
  0.270613771492E+00
  0.270616801803E+00
 -0.139715532966E-01
 -0.139688220739E-01
 -0.139714934751E-01
 -0.139690127776E-01
 -0.139714117670E-01
 -0.139692298874E-01
 -0.139713036379E-01
 -0.139694465959E-01
 -0.139714139476E-01
 -0.139698196646E-01
 -0.157389703992E+00
 -0.157390469959E+00
 -0.157390088035E+00
 -0.157390923674E+00
 -0.157390277296E+00
 -0.157391354959E+00
 -0.157390498084E+00
 -0.157391805890E+00
 -0.157390214569E+00
 -0.157394756742E+00
  0.145946853107E-01
  0.145858110741E-01
  0.145837551054E-01
  0.145817663745E-01
  0.145829416346E-01
  0.145811905102E-01
  0.145820404342E-01
  0.145803839923E-01
  0.145814880728E-01
  0.145801058344E-01
  0.270615855815E+00
  0.270617497173E+00
  0.270615784676E+00
  0.270617265956E+00
  0.270615929468E+00
  0.270617236777E+00
  0.270616015955E+00
  0.270617157135E+00
  0.270616065458E+00
  0.270617073430E+00
 -0.139719932907E-01
 -0.139711186351E-01
 -0.139720723451E-01
 -0.139710757242E-01
 -0.139721615874E-01
 -0.139710138188E-01
 -0.139722302086E-01
 -0.139709239322E-01
 -0.139725004989E-01
 -0.139710460045E-01
 -0.157390360094E+00
 -0.157391398105E+00
 -0.157390793018E+00
 -0.157391923820E+00
 -0.157391205851E+00
 -0.157392453506E+00
 -0.157391642221E+00
 -0.157393027116E+00
 -0.157394622581E+00
 -0.157401072284E+00
  0.145992405269E-01
  0.145943650160E-01
  0.145853322340E-01
  0.145833511562E-01
  0.145841250180E-01
  0.145825506091E-01
  0.145829648044E-01
  0.145816530625E-01
  0.145821193880E-01
  0.145810731784E-01
  0.270616498638E+00
  0.270617977988E+00
  0.270616284785E+00
  0.270617884342E+00
  0.270616303270E+00
  0.270617984462E+00
  0.270616273669E+00
  0.270618044809E+00
  0.270616229215E+00
  0.270618078675E+00
 -0.139731206298E-01
 -0.139714944440E-01
 -0.139730932132E-01
 -0.139715492706E-01
 -0.139730555377E-01
 -0.139716081748E-01
 -0.139730073687E-01
 -0.139716491373E-01
 -0.139731396282E-01
 -0.139719132827E-01
 -0.157391151533E+00
 -0.157391939647E+00
 -0.157391688078E+00
 -0.157392631887E+00