# vtk DataFile Version 3.0
MachLine results file. Generated by MachLine, USU AeroLab (c) 2022.
ASCII
DATASET POLYDATA
POINTS                  76 float
  0.100000000000E+01  0.217527970672E+00  0.000000000000E+00
  0.100000000000E+01  0.000000000000E+00  0.000000000000E+00
  0.100000000000E+01  0.217527970672E+00  0.000000000000E+00
  0.100000000000E+01  0.000000000000E+00  0.000000000000E+00
  0.100000000000E+01  0.448061168194E+00  0.000000000000E+00
  0.100000000000E+01  0.217527970672E+00  0.000000000000E+00
  0.100000000000E+01  0.448061168194E+00  0.000000000000E+00
  0.100000000000E+01  0.217527970672E+00  0.000000000000E+00
  0.100000000000E+01  0.689725637436E+00  0.000000000000E+00
  0.100000000000E+01  0.448061168194E+00  0.000000000000E+00
  0.100000000000E+01  0.689725637436E+00  0.000000000000E+00
  0.100000000000E+01  0.448061168194E+00  0.000000000000E+00
  0.100000000000E+01  0.940178275108E+00  0.000000000000E+00
  0.100000000000E+01  0.689725637436E+00  0.000000000000E+00
  0.100000000000E+01  0.940178275108E+00  0.000000000000E+00
  0.100000000000E+01  0.689725637436E+00  0.000000000000E+00
  0.100000000000E+01  0.119668114185E+01  0.000000000000E+00
  0.100000000000E+01  0.940178275108E+00  0.000000000000E+00
  0.100000000000E+01  0.119668114185E+01  0.000000000000E+00
  0.100000000000E+01  0.940178275108E+00  0.000000000000E+00
  0.100000000000E+01  0.145621216297E+01  0.000000000000E+00
  0.100000000000E+01  0.119668114185E+01  0.000000000000E+00
  0.100000000000E+01  0.145621216297E+01  0.000000000000E+00
  0.100000000000E+01  0.119668114185E+01  0.000000000000E+00
  0.100000000000E+01  0.171560299397E+01  0.000000000000E+00
  0.100000000000E+01  0.145621216297E+01  0.000000000000E+00
  0.100000000000E+01  0.171560299397E+01  0.000000000000E+00
  0.100000000000E+01  0.145621216297E+01  0.000000000000E+00
  0.100000000000E+01  0.197169232368E+01  0.000000000000E+00
  0.100000000000E+01  0.171560299397E+01  0.000000000000E+00
  0.100000000000E+01  0.197169232368E+01  0.000000000000E+00
  0.100000000000E+01  0.171560299397E+01  0.000000000000E+00
  0.100000000000E+01  0.222147774696E+01  0.000000000000E+00
  0.100000000000E+01  0.197169232368E+01  0.000000000000E+00
  0.100000000000E+01  0.222147774696E+01  0.000000000000E+00
  0.100000000000E+01  0.197169232368E+01  0.000000000000E+00
  0.100000000000E+01  0.246225214005E+01  0.000000000000E+00
  0.100000000000E+01  0.222147774696E+01  0.000000000000E+00
  0.100000000000E+01  0.246225214005E+01  0.000000000000E+00
  0.100000000000E+01  0.222147774696E+01  0.000000000000E+00
  0.100000000000E+01  0.269171094894E+01  0.000000000000E+00
  0.100000000000E+01  0.246225214005E+01  0.000000000000E+00
  0.100000000000E+01  0.269171094894E+01  0.000000000000E+00
  0.100000000000E+01  0.246225214005E+01  0.000000000000E+00
  0.100000000000E+01  0.290802383423E+01  0.000000000000E+00
  0.100000000000E+01  0.269171094894E+01  0.000000000000E+00
  0.100000000000E+01  0.290802383423E+01  0.000000000000E+00
  0.100000000000E+01  0.269171094894E+01  0.000000000000E+00
  0.100000000000E+01  0.310986590385E+01  0.000000000000E+00
  0.100000000000E+01  0.290802383423E+01  0.000000000000E+00
  0.100000000000E+01  0.310986590385E+01  0.000000000000E+00
  0.100000000000E+01  0.290802383423E+01  0.000000000000E+00
  0.100000000000E+01  0.329641318321E+01  0.000000000000E+00
  0.100000000000E+01  0.310986590385E+01  0.000000000000E+00
  0.100000000000E+01  0.329641318321E+01  0.000000000000E+00
  0.100000000000E+01  0.310986590385E+01  0.000000000000E+00
  0.100000000000E+01  0.346730756760E+01  0.000000000000E+00
  0.100000000000E+01  0.329641318321E+01  0.000000000000E+00
  0.100000000000E+01  0.346730756760E+01  0.000000000000E+00
  0.100000000000E+01  0.329641318321E+01  0.000000000000E+00
  0.100000000000E+01  0.362259936333E+01  0.000000000000E+00
  0.100000000000E+01  0.346730756760E+01  0.000000000000E+00
  0.100000000000E+01  0.362259936333E+01  0.000000000000E+00
  0.100000000000E+01  0.346730756760E+01  0.000000000000E+00
  0.100000000000E+01  0.376267743111E+01  0.000000000000E+00
  0.100000000000E+01  0.362259936333E+01  0.000000000000E+00
  0.100000000000E+01  0.376267743111E+01  0.000000000000E+00
  0.100000000000E+01  0.362259936333E+01  0.000000000000E+00
  0.100000000000E+01  0.388819599152E+01  0.000000000000E+00
  0.100000000000E+01  0.376267743111E+01  0.000000000000E+00
  0.100000000000E+01  0.388819599152E+01  0.000000000000E+00
  0.100000000000E+01  0.376267743111E+01  0.000000000000E+00
  0.100000000000E+01  0.400000000000E+01  0.000000000000E+00
  0.100000000000E+01  0.388819599152E+01  0.000000000000E+00
  0.100000000000E+01  0.400000000000E+01  0.000000000000E+00
  0.100000000000E+01  0.388819599152E+01  0.000000000000E+00
POLYGONS                   0                   0
POINT_DATA                  76
SCALARS mu float 1
LOOKUP_TABLE default
 -0.576629899650E-01
 -0.576629673474E-01
 -0.576629899650E-01
 -0.576629673474E-01
 -0.576627974536E-01
 -0.576629899650E-01
 -0.576627974536E-01
 -0.576629899650E-01
 -0.576628632654E-01
 -0.576627974536E-01
 -0.576628632654E-01
 -0.576627974536E-01
 -0.576631807921E-01
 -0.576628632654E-01
 -0.576631807921E-01
 -0.576628632654E-01
 -0.576634616172E-01
 -0.576631807921E-01
 -0.576634616172E-01
 -0.576631807921E-01
 -0.576631659597E-01
 -0.576634616172E-01
 -0.576631659597E-01
 -0.576634616172E-01
 -0.576624274848E-01
 -0.576631659597E-01
 -0.576624274848E-01
 -0.576631659597E-01
 -0.576631168305E-01
 -0.576624274848E-01
 -0.576631168305E-01
 -0.576624274848E-01
 -0.576627944681E-01
 -0.576631168305E-01
 -0.576627944681E-01
 -0.576631168305E-01
 -0.576624478611E-01
 -0.576627944681E-01
 -0.576624478611E-01
 -0.576627944681E-01
 -0.576600752160E-01
 -0.576624478611E-01
 -0.576600752160E-01
 -0.576624478611E-01
 -0.576403505083E-01
 -0.576600752160E-01
 -0.576403505083E-01
 -0.576600752160E-01
 -0.575087584102E-01
 -0.576403505083E-01
 -0.575087584102E-01
 -0.576403505083E-01
 -0.568741681042E-01
 -0.575087584102E-01
 -0.568741681042E-01
 -0.575087584102E-01
 -0.548204069157E-01
 -0.568741681042E-01
 -0.548204069157E-01
 -0.568741681042E-01
 -0.501714270977E-01
 -0.548204069157E-01
 -0.501714270977E-01
 -0.548204069157E-01
 -0.410761366195E-01
 -0.501714270977E-01
 -0.410761366195E-01
 -0.501714270977E-01
 -0.235524440132E-01
 -0.410761366195E-01
 -0.235524440132E-01
 -0.410761366195E-01
  0.000000000000E+00
 -0.235524440132E-01
  0.000000000000E+00
 -0.235524440132E-01
