# vtk DataFile Version 3.0
MachLine results file. Generated by MachLine, USU AeroLab (c) 2022.
ASCII
DATASET POLYDATA
POINTS                 465 float
  0.000000000000E+00  0.000000000000E+00  0.000000000000E+00
  0.000000000000E+00  0.217527970672E+00  0.000000000000E+00
  0.000000000000E+00  0.448061168194E+00  0.000000000000E+00
  0.000000000000E+00  0.689725637436E+00  0.000000000000E+00
  0.000000000000E+00  0.940178275108E+00  0.000000000000E+00
  0.000000000000E+00  0.119668114185E+01  0.000000000000E+00
  0.000000000000E+00  0.145621216297E+01  0.000000000000E+00
  0.000000000000E+00  0.171560299397E+01  0.000000000000E+00
  0.000000000000E+00  0.197169232368E+01  0.000000000000E+00
  0.000000000000E+00  0.222147774696E+01  0.000000000000E+00
  0.000000000000E+00  0.246225214005E+01  0.000000000000E+00
  0.000000000000E+00  0.269171094894E+01  0.000000000000E+00
  0.000000000000E+00  0.290802383423E+01  0.000000000000E+00
  0.000000000000E+00  0.310986590385E+01  0.000000000000E+00
  0.000000000000E+00  0.329641318321E+01  0.000000000000E+00
  0.000000000000E+00  0.346730756760E+01  0.000000000000E+00
  0.000000000000E+00  0.362259936333E+01  0.000000000000E+00
  0.000000000000E+00  0.376267743111E+01  0.000000000000E+00
  0.000000000000E+00  0.388819599152E+01  0.000000000000E+00
  0.000000000000E+00  0.400000000000E+01  0.000000000000E+00
  0.341100133955E-01  0.000000000000E+00 -0.298423948698E-02
  0.341100133955E-01  0.000000000000E+00  0.298423948698E-02
  0.341100133955E-01  0.217527970672E+00 -0.298423948698E-02
  0.341100133955E-01  0.217527970672E+00  0.298423948698E-02
  0.341100133955E-01  0.448061168194E+00 -0.298423948698E-02
  0.341100133955E-01  0.448061168194E+00  0.298423948698E-02
  0.341100133955E-01  0.689725637436E+00 -0.298423948698E-02
  0.341100133955E-01  0.689725637436E+00  0.298423948698E-02
  0.341100133955E-01  0.940178275108E+00 -0.298423948698E-02
  0.341100133955E-01  0.940178275108E+00  0.298423948698E-02
  0.341100133955E-01  0.119668114185E+01 -0.298423948698E-02
  0.341100133955E-01  0.119668114185E+01  0.298423948698E-02
  0.341100133955E-01  0.145621216297E+01 -0.298423948698E-02
  0.341100133955E-01  0.145621216297E+01  0.298423948698E-02
  0.341100133955E-01  0.171560299397E+01 -0.298423948698E-02
  0.341100133955E-01  0.171560299397E+01  0.298423948698E-02
  0.341100133955E-01  0.197169232368E+01 -0.298423948698E-02
  0.341100133955E-01  0.197169232368E+01  0.298423948698E-02
  0.341100133955E-01  0.222147774696E+01 -0.298423948698E-02
  0.341100133955E-01  0.222147774696E+01  0.298423948698E-02
  0.341100133955E-01  0.246225214005E+01 -0.298423948698E-02
  0.341100133955E-01  0.246225214005E+01  0.298423948698E-02
  0.341100133955E-01  0.269171094894E+01 -0.298423948698E-02
  0.341100133955E-01  0.269171094894E+01  0.298423948698E-02
  0.341100133955E-01  0.290802383423E+01 -0.298423948698E-02
  0.341100133955E-01  0.290802383423E+01  0.298423948698E-02
  0.341100133955E-01  0.310986590385E+01 -0.298423948698E-02
  0.341100133955E-01  0.310986590385E+01  0.298423948698E-02
  0.341100133955E-01  0.329641318321E+01 -0.298423948698E-02
  0.341100133955E-01  0.329641318321E+01  0.298423948698E-02
  0.341100133955E-01  0.346730756760E+01 -0.298423948698E-02
  0.341100133955E-01  0.346730756760E+01  0.298423948698E-02
  0.341100133955E-01  0.362259936333E+01 -0.298423948698E-02
  0.341100133955E-01  0.362259936333E+01  0.298423948698E-02
  0.341100133955E-01  0.376267743111E+01 -0.298423948698E-02
  0.341100133955E-01  0.376267743111E+01  0.298423948698E-02
  0.341100133955E-01  0.388819599152E+01 -0.298423948698E-02
  0.341100133955E-01  0.388819599152E+01  0.298423948698E-02
  0.341100133955E-01  0.400000000000E+01 -0.298423948698E-02
  0.341100133955E-01  0.400000000000E+01  0.298423948698E-02
  0.341100133955E-01  0.400210952759E+01 -0.210976228118E-02
  0.341100133955E-01  0.400210952759E+01  0.210976228118E-02
  0.341100133955E-01  0.400298404694E+01  0.000000000000E+00
  0.937237665057E-01  0.000000000000E+00 -0.819976720959E-02
  0.937237665057E-01  0.000000000000E+00  0.819976720959E-02
  0.937237665057E-01  0.217527970672E+00 -0.819976720959E-02
  0.937237665057E-01  0.217527970672E+00  0.819976720959E-02
  0.937237665057E-01  0.448061168194E+00 -0.819976720959E-02
  0.937237665057E-01  0.448061168194E+00  0.819976720959E-02
  0.937237665057E-01  0.689725637436E+00 -0.819976720959E-02
  0.937237665057E-01  0.689725637436E+00  0.819976720959E-02
  0.937237665057E-01  0.940178275108E+00 -0.819976720959E-02
  0.937237665057E-01  0.940178275108E+00  0.819976720959E-02
  0.937237665057E-01  0.119668114185E+01 -0.819976720959E-02
  0.937237665057E-01  0.119668114185E+01  0.819976720959E-02
  0.937237665057E-01  0.145621216297E+01 -0.819976720959E-02
  0.937237665057E-01  0.145621216297E+01  0.819976720959E-02
  0.937237665057E-01  0.171560299397E+01 -0.819976720959E-02
  0.937237665057E-01  0.171560299397E+01  0.819976720959E-02
  0.937237665057E-01  0.197169232368E+01 -0.819976720959E-02
  0.937237665057E-01  0.197169232368E+01  0.819976720959E-02
  0.937237665057E-01  0.222147774696E+01 -0.819976720959E-02
  0.937237665057E-01  0.222147774696E+01  0.819976720959E-02
  0.937237665057E-01  0.246225214005E+01 -0.819976720959E-02
  0.937237665057E-01  0.246225214005E+01  0.819976720959E-02
  0.937237665057E-01  0.269171094894E+01 -0.819976720959E-02
  0.937237665057E-01  0.269171094894E+01  0.819976720959E-02
  0.937237665057E-01  0.290802383423E+01 -0.819976720959E-02
  0.937237665057E-01  0.290802383423E+01  0.819976720959E-02
  0.937237665057E-01  0.310986590385E+01 -0.819976720959E-02
  0.937237665057E-01  0.310986590385E+01  0.819976720959E-02
  0.937237665057E-01  0.329641318321E+01 -0.819976720959E-02
  0.937237665057E-01  0.329641318321E+01  0.819976720959E-02
  0.937237665057E-01  0.346730756760E+01 -0.819976720959E-02
  0.937237665057E-01  0.346730756760E+01  0.819976720959E-02
  0.937237665057E-01  0.362259936333E+01 -0.819976720959E-02
  0.937237665057E-01  0.362259936333E+01  0.819976720959E-02
  0.937237665057E-01  0.376267743111E+01 -0.819976720959E-02
  0.937237665057E-01  0.376267743111E+01  0.819976720959E-02
  0.937237665057E-01  0.388819599152E+01 -0.819976720959E-02
  0.937237665057E-01  0.388819599152E+01  0.819976720959E-02
  0.937237665057E-01  0.400000000000E+01 -0.819976720959E-02
  0.937237665057E-01  0.400000000000E+01  0.819976720959E-02
  0.937237665057E-01  0.400579690933E+01 -0.579697405919E-02
  0.937237665057E-01  0.400579690933E+01  0.579697405919E-02
  0.937237665057E-01  0.400819969177E+01  0.000000000000E+00
  0.190432325006E+00  0.000000000000E+00 -0.166606698185E-01
  0.190432325006E+00  0.000000000000E+00  0.166606698185E-01
  0.190432325006E+00  0.217527970672E+00 -0.166606698185E-01
  0.190432325006E+00  0.217527970672E+00  0.166606698185E-01
  0.190432325006E+00  0.448061168194E+00 -0.166606698185E-01
  0.190432325006E+00  0.448061168194E+00  0.166606698185E-01
  0.190432325006E+00  0.689725637436E+00 -0.166606698185E-01
  0.190432325006E+00  0.689725637436E+00  0.166606698185E-01
  0.190432325006E+00  0.940178275108E+00 -0.166606698185E-01
  0.190432325006E+00  0.940178275108E+00  0.166606698185E-01
  0.190432325006E+00  0.119668114185E+01 -0.166606698185E-01
  0.190432325006E+00  0.119668114185E+01  0.166606698185E-01
  0.190432325006E+00  0.145621216297E+01 -0.166606698185E-01
  0.190432325006E+00  0.145621216297E+01  0.166606698185E-01
  0.190432325006E+00  0.171560299397E+01 -0.166606698185E-01
  0.190432325006E+00  0.171560299397E+01  0.166606698185E-01
  0.190432325006E+00  0.197169232368E+01 -0.166606698185E-01
  0.190432325006E+00  0.197169232368E+01  0.166606698185E-01
  0.190432325006E+00  0.222147774696E+01 -0.166606698185E-01
  0.190432325006E+00  0.222147774696E+01  0.166606698185E-01
  0.190432325006E+00  0.246225214005E+01 -0.166606698185E-01
  0.190432325006E+00  0.246225214005E+01  0.166606698185E-01
  0.190432325006E+00  0.269171094894E+01 -0.166606698185E-01
  0.190432325006E+00  0.269171094894E+01  0.166606698185E-01
  0.190432325006E+00  0.290802383423E+01 -0.166606698185E-01
  0.190432325006E+00  0.290802383423E+01  0.166606698185E-01
  0.190432325006E+00  0.310986590385E+01 -0.166606698185E-01
  0.190432325006E+00  0.310986590385E+01  0.166606698185E-01
  0.190432325006E+00  0.329641318321E+01 -0.166606698185E-01
  0.190432325006E+00  0.329641318321E+01  0.166606698185E-01
  0.190432325006E+00  0.346730756760E+01 -0.166606698185E-01
  0.190432325006E+00  0.346730756760E+01  0.166606698185E-01
  0.190432325006E+00  0.362259936333E+01 -0.166606698185E-01
  0.190432325006E+00  0.362259936333E+01  0.166606698185E-01
  0.190432325006E+00  0.376267743111E+01 -0.166606698185E-01
  0.190432325006E+00  0.376267743111E+01  0.166606698185E-01
  0.190432325006E+00  0.388819599152E+01 -0.166606698185E-01
  0.190432325006E+00  0.388819599152E+01  0.166606698185E-01
  0.190432325006E+00  0.400000000000E+01 -0.166606698185E-01
  0.190432325006E+00  0.400000000000E+01  0.166606698185E-01
  0.190432325006E+00  0.401177835464E+01 -0.117785623297E-01
  0.190432325006E+00  0.401177835464E+01  0.117785623297E-01
  0.190432325006E+00  0.401666069031E+01 -0.272416755980E-17
  0.329831987619E+00  0.000000000000E+00 -0.288565587252E-01
  0.329831987619E+00  0.000000000000E+00  0.288565587252E-01
  0.329831987619E+00  0.217527970672E+00 -0.288565587252E-01
  0.329831987619E+00  0.217527970672E+00  0.288565587252E-01
  0.329831987619E+00  0.448061168194E+00 -0.288565587252E-01
  0.329831987619E+00  0.448061168194E+00  0.288565587252E-01
  0.329831987619E+00  0.689725637436E+00 -0.288565587252E-01
  0.329831987619E+00  0.689725637436E+00  0.288565587252E-01
  0.329831987619E+00  0.940178275108E+00 -0.288565587252E-01
  0.329831987619E+00  0.940178275108E+00  0.288565587252E-01
  0.329831987619E+00  0.119668114185E+01 -0.288565587252E-01
  0.329831987619E+00  0.119668114185E+01  0.288565587252E-01
[...]
CELL_DATA                 832
SCALARS sigma float 1
LOOKUP_TABLE default
  0.123409192283E-01
  0.123409192283E-01
  0.123409426819E-01
  0.123409426819E-01
  0.123409080011E-01
  0.123409080011E-01
  0.123409284975E-01
  0.123409284975E-01
  0.123409300158E-01
  0.123409300158E-01
  0.184935031402E+00
  0.184935031402E+00
  0.184935008953E+00
  0.184935008953E+00
  0.184935018547E+00
  0.184935018547E+00
  0.184935020003E+00
  0.184935020003E+00
  0.184935017863E+00
  0.184935017863E+00
 -0.123409286639E-01
 -0.123409286639E-01
 -0.123409264863E-01
 -0.123409264863E-01
 -0.123409279687E-01
 -0.123409279687E-01
 -0.123409377315E-01
 -0.123409377315E-01
 -0.123409148859E-01
 -0.123409148859E-01
 -0.184935016535E+00
 -0.184935016535E+00
 -0.184935018027E+00
 -0.184935018027E+00
 -0.184935038168E+00
 -0.184935038168E+00
 -0.184935004089E+00
 -0.184935004089E+00
 -0.184935027135E+00
 -0.184935027135E+00
  0.123409192283E-01
  0.123409192283E-01
  0.123409426819E-01
  0.123409426819E-01
  0.123409080011E-01
  0.123409080011E-01
  0.123409284975E-01
  0.123409284975E-01
  0.123409300158E-01
  0.123409300158E-01
  0.184935031402E+00
  0.184935031402E+00
  0.184935008953E+00
  0.184935008953E+00
  0.184935018547E+00
  0.184935018547E+00
  0.184935020003E+00
  0.184935020003E+00
  0.184935017863E+00
  0.184935017863E+00
 -0.123409286639E-01
 -0.123409286639E-01
 -0.123409264863E-01
 -0.123409264863E-01
 -0.123409279687E-01
 -0.123409279687E-01
 -0.123409377315E-01
 -0.123409377315E-01
 -0.123409148859E-01
 -0.123409148859E-01
 -0.184935016535E+00
 -0.184935016535E+00
 -0.184935018027E+00
 -0.184935018027E+00
 -0.184935038168E+00
 -0.184935038168E+00
 -0.184935004089E+00
 -0.184935004089E+00
 -0.184935027135E+00
 -0.184935027135E+00
  0.123409192283E-01
  0.123409192283E-01
  0.123409426819E-01
  0.123409426819E-01
  0.123409080011E-01
  0.123409080011E-01
  0.123409284975E-01
  0.123409284975E-01
  0.123409300158E-01
  0.123409300158E-01
  0.184935031402E+00
  0.184935031402E+00
  0.184935008953E+00
  0.184935008953E+00
  0.184935018547E+00
  0.184935018547E+00
  0.184935020003E+00
  0.184935020003E+00
  0.184935017863E+00
  0.184935017863E+00
 -0.123409286639E-01
 -0.123409286639E-01
 -0.123409264863E-01
 -0.123409264863E-01
 -0.123409279687E-01
 -0.123409279687E-01
 -0.123409377315E-01
 -0.123409377315E-01
 -0.123409148859E-01
 -0.123409148859E-01
 -0.184935016535E+00
 -0.184935016535E+00
 -0.184935018027E+00
 -0.184935018027E+00
 -0.184935038168E+00
 -0.184935038168E+00
 -0.184935004089E+00
 -0.184935004089E+00
 -0.184935027135E+00
 -0.184935027135E+00
  0.123409192283E-01
  0.123409192283E-01
  0.123409426819E-01
  0.123409426819E-01
  0.123409080011E-01
  0.123409080011E-01
  0.123409284975E-01
  0.123409284975E-01
  0.123409300158E-01
  0.123409300158E-01
  0.184935031402E+00
  0.184935031402E+00
  0.184935008953E+00
  0.184935008953E+00
  0.184935018547E+00
  0.184935018547E+00
  0.184935020003E+00
  0.184935020003E+00
  0.184935017863E+00
  0.184935017863E+00
 -0.123409286639E-01
 -0.123409286639E-01
 -0.123409264863E-01
 -0.123409264863E-01
 -0.123409279687E-01
 -0.123409279687E-01
 -0.123409377315E-01
 -0.123409377315E-01
 -0.123409148859E-01
 -0.123409148859E-01
 -0.184935016535E+00
 -0.184935016535E+00
 -0.184935018027E+00
 -0.184935018027E+00
 -0.184935038168E+00
 -0.184935038168E+00
 -0.184935004089E+00
 -0.184935004089E+00
 -0.184935027135E+00
 -0.184935027135E+00
  0.123409192283E-01
  0.123409192283E-01
  0.123409426819E-01
  0.123409426819E-01
  0.123409080011E-01
  0.123409080011E-01
  0.123409284975E-01
  0.123409284975E-01
  0.123409300158E-01
  0.123409300158E-01
  0.184935031402E+00
  0.184935031402E+00
  0.184935008953E+00
  0.184935008953E+00
  0.184935018547E+00
  0.184935018547E+00
  0.184935020003E+00
  0.184935020003E+00
  0.184935017863E+00
  0.184935017863E+00
 -0.123409286639E-01
 -0.123409286639E-01
 -0.123409264863E-01
 -0.123409264863E-01
 -0.123409279687E-01
 -0.123409279687E-01
 -0.123409377315E-01
 -0.123409377315E-01
 -0.123409148859E-01
 -0.123409148859E-01
 -0.184935016535E+00
 -0.184935016535E+00
 -0.184935018027E+00
 -0.184935018027E+00
 -0.184935038168E+00
 -0.184935038168E+00
 -0.184935004089E+00
 -0.184935004089E+00
 -0.184935027135E+00
 -0.184935027135E+00
  0.123409192283E-01
  0.123409192283E-01
  0.123409426819E-01
  0.123409426819E-01
  0.123409080011E-01
  0.123409080011E-01
  0.123409284975E-01
  0.123409284975E-01
  0.123409300158E-01
  0.123409300158E-01
  0.184935031402E+00
  0.184935031402E+00
  0.184935008953E+00
  0.184935008953E+00
  0.184935018547E+00
  0.184935018547E+00
  0.184935020003E+00
  0.184935020003E+00
  0.184935017863E+00
  0.184935017863E+00
 -0.123409286639E-01
 -0.123409286639E-01
 -0.123409264863E-01
 -0.123409264863E-01
 -0.123409279687E-01
 -0.123409279687E-01
 -0.123409377315E-01
 -0.123409377315E-01
 -0.123409148859E-01
 -0.123409148859E-01
 -0.184935016535E+00
 -0.184935016535E+00
 -0.184935018027E+00
 -0.184935018027E+00
 -0.184935038168E+00
 -0.184935038168E+00
 -0.184935004089E+00
 -0.184935004089E+00
 -0.184935027135E+00
 -0.184935027135E+00
  0.123409192283E-01
  0.123409192283E-01
  0.123409426819E-01
  0.123409426819E-01
  0.123409080011E-01
  0.123409080011E-01
  0.123409284975E-01
  0.123409284975E-01
  0.123409300158E-01
  0.123409300158E-01
  0.184935031402E+00
  0.184935031402E+00
  0.184935008953E+00
  0.184935008953E+00
  0.184935018547E+00
  0.184935018547E+00
  0.184935020003E+00
  0.184935020003E+00
  0.184935017863E+00
  0.184935017863E+00
 -0.123409286639E-01
 -0.123409286639E-01
 -0.123409264863E-01
 -0.123409264863E-01
 -0.123409279687E-01
 -0.123409279687E-01
 -0.123409377315E-01
 -0.123409377315E-01
 -0.123409148859E-01
 -0.123409148859E-01
 -0.184935016535E+00
 -0.184935016535E+00
 -0.184935018027E+00
 -0.184935018027E+00
 -0.184935038168E+00
 -0.184935038168E+00
 -0.184935004089E+00
 -0.184935004089E+00
 -0.184935027135E+00
 -0.184935027135E+00
  0.123409192283E-01
  0.123409192283E-01
  0.123409426819E-01
  0.123409426819E-01
  0.123409080011E-01
  0.123409080011E-01
  0.123409284975E-01
  0.123409284975E-01
  0.123409300158E-01
  0.123409300158E-01
  0.184935031402E+00
  0.184935031402E+00
  0.184935008953E+00
  0.184935008953E+00
  0.184935018547E+00
  0.184935018547E+00
  0.184935020003E+00
  0.184935020003E+00
  0.184935017863E+00
  0.184935017863E+00
 -0.123409286639E-01
 -0.123409286639E-01
 -0.123409264863E-01
 -0.123409264863E-01
 -0.123409279687E-01
 -0.123409279687E-01
 -0.123409377315E-01
 -0.123409377315E-01
 -0.123409148859E-01
 -0.123409148859E-01
 -0.184935016535E+00
 -0.184935016535E+00
 -0.184935018027E+00
 -0.184935018027E+00
 -0.184935038168E+00
 -0.184935038168E+00
 -0.184935004089E+00
 -0.184935004089E+00
 -0.184935027135E+00
 -0.184935027135E+00
  0.123409192283E-01
  0.123409192283E-01
  0.123409426819E-01
  0.123409426819E-01
  0.123409080011E-01
  0.123409080011E-01
  0.123409284975E-01
  0.123409284975E-01
  0.123409300158E-01
  0.123409300158E-01
  0.184935031402E+00
  0.184935031402E+00
  0.184935008953E+00
  0.184935008953E+00
  0.184935018547E+00
  0.184935018547E+00
  0.184935020003E+00
  0.184935020003E+00
  0.184935017863E+00
  0.184935017863E+00
 -0.123409286639E-01
 -0.123409286639E-01
 -0.123409264863E-01
 -0.123409264863E-01
 -0.123409279687E-01
 -0.123409279687E-01
 -0.123409377315E-01
 -0.123409377315E-01
 -0.123409148859E-01
 -0.123409148859E-01
 -0.184935016535E+00
 -0.184935016535E+00
 -0.184935018027E+00
 -0.184935018027E+00
 -0.184935038168E+00
 -0.184935038168E+00
 -0.184935004089E+00
 -0.184935004089E+00
 -0.184935027135E+00
 -0.184935027135E+00
  0.123409192283E-01
  0.123409192283E-01
  0.123409426819E-01
  0.123409426819E-01
  0.123409080011E-01
  0.123409080011E-01
  0.123409284975E-01
  0.123409284975E-01
  0.123409300158E-01
  0.123409300158E-01
  0.184935031402E+00
  0.184935031402E+00
  0.184935008953E+00
  0.184935008953E+00
  0.184935018547E+00
  0.184935018547E+00
  0.184935020003E+00
  0.184935020003E+00
  0.184935017863E+00
  0.184935017863E+00
 -0.123409286639E-01
 -0.123409286639E-01
 -0.123409264863E-01
 -0.123409264863E-01
 -0.123409279687E-01
 -0.123409279687E-01
 -0.123409377315E-01
 -0.123409377315E-01
 -0.123409148859E-01
 -0.123409148859E-01
 -0.184935016535E+00
 -0.184935016535E+00
 -0.184935018027E+00
 -0.184935018027E+00
 -0.184935038168E+00
 -0.184935038168E+00
 -0.184935004089E+00
 -0.184935004089E+00
 -0.184935027135E+00
 -0.184935027135E+00
  0.123409192283E-01
  0.123409192283E-01
  0.123409426819E-01
  0.123409426819E-01
  0.123409080011E-01
  0.123409080011E-01
  0.123409284975E-01
  0.123409284975E-01
  0.123409300158E-01
  0.123409300158E-01
  0.184935031402E+00
  0.184935031402E+00
  0.184935008953E+00
  0.184935008953E+00
  0.184935018547E+00
  0.184935018547E+00
  0.184935020003E+00
  0.184935020003E+00
  0.184935017863E+00
  0.184935017863E+00
 -0.123409286639E-01
 -0.123409286639E-01
 -0.123409264863E-01
 -0.123409264863E-01
 -0.123409279687E-01
 -0.123409279687E-01
 -0.123409377315E-01
 -0.123409377315E-01
 -0.123409148859E-01
 -0.123409148859E-01
 -0.184935016535E+00
 -0.184935016535E+00
 -0.184935018027E+00
 -0.184935018027E+00
 -0.184935038168E+00
 -0.184935038168E+00
 -0.184935004089E+00
 -0.184935004089E+00
 -0.184935027135E+00
 -0.184935027135E+00
  0.123409192283E-01
  0.123409192283E-01
  0.123409426819E-01
  0.123409426819E-01
  0.123409080011E-01
  0.123409080011E-01
  0.123409284975E-01
  0.123409284975E-01
  0.123409300158E-01
  0.123409300158E-01
  0.184935031402E+00
  0.184935031402E+00
  0.184935008953E+00
  0.184935008953E+00
  0.184935018547E+00
  0.184935018547E+00
  0.184935020003E+00
  0.184935020003E+00
  0.184935017863E+00
  0.184935017863E+00
 -0.123409286639E-01
 -0.123409286639E-01
 -0.123409264863E-01
 -0.123409264863E-01
 -0.123409279687E-01
 -0.123409279687E-01
 -0.123409377315E-01
 -0.123409377315E-01
 -0.123409148859E-01
 -0.123409148859E-01
 -0.184935016535E+00
 -0.184935016535E+00
 -0.184935018027E+00
 -0.184935018027E+00
 -0.184935038168E+00
 -0.184935038168E+00
 -0.184935004089E+00
 -0.184935004089E+00
 -0.184935027135E+00
 -0.184935027135E+00
  0.123409192283E-01
  0.123409192283E-01
  0.123409426819E-01
  0.123409426819E-01
  0.123409080011E-01
  0.123409080011E-01
  0.123409284975E-01
  0.123409284975E-01
  0.123409300158E-01
  0.123409300158E-01
  0.184935031402E+00
  0.184935031402E+00
  0.184935008953E+00
  0.184935008953E+00
  0.184935018547E+00
  0.184935018547E+00
  0.184935020003E+00
  0.184935020003E+00
  0.184935017863E+00
  0.184935017863E+00
 -0.123409286639E-01
 -0.123409286639E-01
 -0.123409264863E-01
 -0.123409264863E-01
 -0.123409279687E-01
 -0.123409279687E-01
 -0.123409377315E-01
 -0.123409377315E-01
 -0.123409148859E-01
 -0.123409148859E-01
 -0.184935016535E+00
 -0.184935016535E+00
 -0.184935018027E+00
 -0.184935018027E+00
 -0.184935038168E+00
 -0.184935038168E+00
 -0.184935004089E+00
 -0.184935004089E+00
 -0.184935027135E+00
 -0.184935027135E+00
  0.123409192283E-01
  0.123409192283E-01
  0.123409426819E-01
  0.123409426819E-01
  0.123409080011E-01
  0.123409080011E-01
  0.123409284975E-01
  0.123409284975E-01
  0.123409300158E-01
  0.123409300158E-01
  0.184935031402E+00
  0.184935031402E+00
  0.184935008953E+00
  0.184935008953E+00
  0.184935018547E+00
  0.184935018547E+00
  0.184935020003E+00
  0.184935020003E+00
  0.184935017863E+00
  0.184935017863E+00
 -0.123409286639E-01
 -0.123409286639E-01
 -0.123409264863E-01
 -0.123409264863E-01
 -0.123409279687E-01
 -0.123409279687E-01
 -0.123409377315E-01
 -0.123409377315E-01
 -0.123409148859E-01
 -0.123409148859E-01
 -0.184935016535E+00
 -0.184935016535E+00
 -0.184935018027E+00
 -0.184935018027E+00
 -0.184935038168E+00
 -0.184935038168E+00
 -0.184935004089E+00
 -0.184935004089E+00
 -0.184935027135E+00
 -0.184935027135E+00
  0.123409192283E-01
  0.123409192283E-01
  0.123409426819E-01
  0.123409426819E-01
  0.123409080011E-01
  0.123409080011E-01
  0.123409284975E-01
  0.123409284975E-01
  0.123409300158E-01
  0.123409300158E-01
  0.184935031402E+00
  0.184935031402E+00
  0.184935008953E+00
  0.184935008953E+00
  0.184935018547E+00
  0.184935018547E+00
  0.184935020003E+00
  0.184935020003E+00
  0.184935017863E+00
  0.184935017863E+00
 -0.123409286639E-01
 -0.123409286639E-01
 -0.123409264863E-01
 -0.123409264863E-01
 -0.123409279687E-01
 -0.123409279687E-01
 -0.123409377315E-01
 -0.123409377315E-01
 -0.123409148859E-01
 -0.123409148859E-01
 -0.184935016535E+00
 -0.184935016535E+00
 -0.184935018027E+00
 -0.184935018027E+00
 -0.184935038168E+00
 -0.184935038168E+00
 -0.184935004089E+00
 -0.184935004089E+00
 -0.184935027135E+00
 -0.184935027135E+00
  0.123409192283E-01
  0.123409192283E-01
  0.123409426819E-01
  0.123409426819E-01
  0.123409080011E-01
  0.123409080011E-01
  0.123409284975E-01
  0.123409284975E-01
  0.123409300158E-01
  0.123409300158E-01
  0.184935031402E+00
  0.184935031402E+00
  0.184935008953E+00
  0.184935008953E+00
  0.184935018547E+00
  0.184935018547E+00
  0.184935020003E+00
  0.184935020003E+00
  0.184935017863E+00
  0.184935017863E+00
 -0.123409286639E-01
 -0.123409286639E-01
 -0.123409264863E-01
 -0.123409264863E-01
 -0.123409279687E-01
 -0.123409279687E-01
 -0.123409377315E-01
 -0.123409377315E-01
 -0.123409148859E-01
 -0.123409148859E-01
 -0.184935016535E+00
 -0.184935016535E+00
 -0.184935018027E+00
 -0.184935018027E+00
 -0.184935038168E+00
 -0.184935038168E+00
 -0.184935004089E+00
 -0.184935004089E+00
 -0.184935027135E+00
 -0.184935027135E+00
  0.123409192283E-01
  0.123409192283E-01
  0.123409426819E-01
  0.123409426819E-01
  0.123409080011E-01
  0.123409080011E-01
  0.123409284975E-01
  0.123409284975E-01
  0.123409300158E-01
  0.123409300158E-01
  0.184935031402E+00
  0.184935031402E+00
  0.184935008953E+00
  0.184935008953E+00
  0.184935018547E+00
  0.184935018547E+00
  0.184935020003E+00
  0.184935020003E+00
  0.184935017863E+00
  0.184935017863E+00
 -0.123409286639E-01
 -0.123409286639E-01
 -0.123409264863E-01
 -0.123409264863E-01
 -0.123409279687E-01
 -0.123409279687E-01
 -0.123409377315E-01
 -0.123409377315E-01
 -0.123409148859E-01
 -0.123409148859E-01
 -0.184935016535E+00
 -0.184935016535E+00
 -0.184935018027E+00
 -0.184935018027E+00
 -0.184935038168E+00
 -0.184935038168E+00
 -0.184935004089E+00
 -0.184935004089E+00
 -0.184935027135E+00
 -0.184935027135E+00
  0.123409192283E-01
  0.123409192283E-01
  0.123409426819E-01
  0.123409426819E-01
  0.123409080011E-01
  0.123409080011E-01
  0.123409284975E-01
  0.123409284975E-01
  0.123409300158E-01
  0.123409300158E-01
  0.184935031402E+00
  0.184935031402E+00
  0.184935008953E+00
  0.184935008953E+00
  0.184935018547E+00
  0.184935018547E+00
  0.184935020003E+00
  0.184935020003E+00
  0.184935017863E+00
  0.184935017863E+00
 -0.123409286639E-01
 -0.123409286639E-01
 -0.123409264863E-01
 -0.123409264863E-01
 -0.123409279687E-01
 -0.123409279687E-01
 -0.123409377315E-01
 -0.123409377315E-01
 -0.123409148859E-01
 -0.123409148859E-01
 -0.184935016535E+00
 -0.184935016535E+00
 -0.184935018027E+00
 -0.184935018027E+00
 -0.184935038168E+00
 -0.184935038168E+00
 -0.184935004089E+00
 -0.184935004089E+00
 -0.184935027135E+00
 -0.184935027135E+00
  0.123409192283E-01
  0.123409192283E-01
  0.123409426819E-01
  0.123409426819E-01
  0.123409080011E-01
  0.123409080011E-01
  0.123409284975E-01
  0.123409284975E-01
  0.123409300158E-01
  0.123409300158E-01
  0.184935031402E+00
  0.184935031402E+00
  0.184935008953E+00
  0.184935008953E+00
  0.184935018547E+00
  0.184935018547E+00
  0.184935020003E+00
  0.184935020003E+00
  0.184935017863E+00
  0.184935017863E+00
 -0.123409286639E-01
 -0.123409286639E-01
 -0.123409264863E-01
 -0.123409264863E-01
 -0.123409279687E-01
 -0.123409279687E-01
 -0.123409377315E-01
 -0.123409377315E-01
 -0.123409148859E-01
 -0.123409148859E-01
 -0.184935016535E+00
 -0.184935016535E+00
 -0.184935018027E+00
 -0.184935018027E+00
 -0.184935038168E+00
 -0.184935038168E+00
 -0.184935004089E+00
 -0.184935004089E+00
 -0.184935027135E+00
 -0.184935027135E+00
 -0.263867525352E-01
 -0.263903959521E-01
 -0.263833379479E-01
 -0.263830703322E-01
 -0.263835913270E-01
 -0.263841635298E-01
 -0.263832088402E-01
 -0.263834688307E-01
 -0.263830779615E-01
  0.133146225142E+00
  0.133146266143E+00
  0.133145986164E+00
  0.133145959603E+00
  0.133145382578E+00
  0.133145458620E+00
  0.133145756934E+00
  0.133143674358E+00
  0.133140039245E+00
 -0.491999080609E-01
 -0.491962184293E-01
 -0.491968452244E-01
 -0.491971480124E-01
 -0.491970463497E-01
 -0.491964606709E-01
 -0.491967273905E-01
 -0.491964432127E-01
 -0.491965894078E-01
 -0.208725892718E+00
 -0.208726178393E+00
 -0.208725922268E+00
 -0.208726583677E+00
 -0.208726019981E+00
 -0.208725676691E+00
 -0.208725940328E+00
 -0.208730288961E+00
 -0.208726699711E+00
 -0.133138563120E+00
 -0.133145404029E+00
 -0.133149101921E+00
 -0.133147561830E+00
 -0.133143482669E+00
 -0.133144850428E+00
 -0.133145450181E+00
 -0.133144290305E+00
 -0.133145753566E+00
  0.263846944266E-01
  0.263845328802E-01
  0.263856804937E-01
  0.263856945761E-01
  0.263843049182E-01
  0.263837235771E-01
  0.263853105109E-01
  0.263863924030E-01
  0.263794678106E-01
 -0.492031441145E-01
 -0.491961768496E-01
 -0.491938634280E-01
 -0.491954601413E-01
 -0.491981952401E-01
 -0.491967970183E-01
 -0.491963735219E-01
 -0.491975282077E-01
 -0.491964363498E-01
 -0.208726884428E+00
 -0.208726351479E+00
 -0.208727504144E+00
 -0.208727341970E+00
 -0.208725982714E+00
 -0.208726745435E+00
 -0.208728275951E+00
 -0.208727973374E+00
 -0.208721174991E+00
SCALARS C_p_ise float 1
LOOKUP_TABLE default
  0.145769252184E-01
  0.145799772059E-01
  0.145782930686E-01
  0.145802930984E-01
  0.145782588922E-01
  0.145800896249E-01
  0.145782509933E-01
  0.145796400044E-01
  0.145781364647E-01
  0.145792285105E-01
  0.270612535228E+00
  0.270611848285E+00
  0.270612097244E+00
  0.270611964582E+00
  0.270611794425E+00
  0.270612126128E+00
  0.270611453671E+00
  0.270612286969E+00
  0.270611150280E+00
  0.270612417326E+00
 -0.139697516031E-01
 -0.139686027137E-01
 -0.139696162726E-01
 -0.139688796682E-01
 -0.139694584242E-01
 -0.139692008360E-01
 -0.139693173751E-01
 -0.139695151270E-01
 -0.139691443096E-01
 -0.139699363701E-01
 -0.157390279282E+00
 -0.157389593502E+00
 -0.157390670413E+00
 -0.157389612152E+00
 -0.157390847636E+00
 -0.157389670956E+00
 -0.157391063424E+00
 -0.157389646087E+00
 -0.157390775452E+00
 -0.157388680603E+00
  0.145681349022E-01
  0.145769037082E-01
  0.145763581874E-01
  0.145782727034E-01
  0.145766328751E-01
  0.145782503611E-01
  0.145770304158E-01
  0.145782330534E-01
  0.145774494824E-01
  0.145780778448E-01
  0.270611599386E+00
  0.270611020477E+00
  0.270611759156E+00
  0.270610861188E+00
  0.270612006310E+00
  0.270610740926E+00
  0.270612259062E+00
  0.270610640364E+00
  0.270612462814E+00
  0.270610567929E+00
 -0.139680417208E-01
 -0.139697825322E-01
 -0.139681092384E-01
 -0.139695900535E-01
 -0.139682151269E-01
 -0.139693618191E-01
 -0.139683625339E-01
 -0.139691581089E-01
 -0.139684546408E-01
 -0.139689586431E-01
 -0.157389554509E+00
 -0.157389061440E+00
 -0.157389600742E+00
 -0.157388767677E+00
 -0.157389661883E+00
 -0.157388569122E+00
 -0.157389631260E+00
 -0.157388301030E+00
 -0.157388664655E+00
 -0.157382313389E+00
  0.145635162033E-01
  0.145680142261E-01
  0.145748215413E-01
  0.145761408662E-01
  0.145754547218E-01
  0.145764037416E-01
  0.145760706003E-01
  0.145767743919E-01
  0.145767308885E-01
  0.145771523864E-01
  0.270610521922E+00
  0.270610145334E+00
  0.270610328458E+00
  0.270610170668E+00
  0.270610154886E+00
  0.270610093432E+00
  0.270610007347E+00
  0.270610018943E+00
  0.270609901541E+00
  0.270609959873E+00
 -0.139675680157E-01
 -0.139675585455E-01
 -0.139676205025E-01
 -0.139676512281E-01
 -0.139676979381E-01
 -0.139677922111E-01
 -0.139677993892E-01
 -0.139679785415E-01
 -0.139676695301E-01
 -0.139680898543E-01
 -0.157388860553E+00
 -0.157388561096E+00
 -0.157388592491E+00
 -0.157388157413E+00