# vtk DataFile Version 3.0
MachLine results file. Generated by MachLine, USU AeroLab (c) 2022.
ASCII
DATASET POLYDATA
POINTS                 152 float
  0.100000000000E+01  0.217527970672E+00  0.000000000000E+00
  0.100000000000E+01  0.000000000000E+00  0.000000000000E+00
  0.128227403204E+01  0.231641672274E+00  0.141137016020E-01
  0.129850746269E+01  0.149253731343E-01  0.149253731343E-01
  0.100000000000E+01 -0.000000000000E+00  0.000000000000E+00
  0.100000000000E+01 -0.217527970672E+00  0.000000000000E+00
  0.129850746269E+01  0.149253731343E-01  0.149253731343E-01
  0.131474089333E+01 -0.201790926005E+00  0.157370446667E-01
  0.100000000000E+01  0.448061168194E+00  0.000000000000E+00
  0.100000000000E+01  0.217527970672E+00  0.000000000000E+00
  0.126507006208E+01  0.461314671298E+00  0.132535031038E-01
  0.128227403204E+01  0.231641672274E+00  0.141137016020E-01
  0.100000000000E+01 -0.217527970672E+00  0.000000000000E+00
  0.100000000000E+01 -0.448061168194E+00  0.000000000000E+00
  0.131474089333E+01 -0.201790926005E+00  0.157370446667E-01
  0.133194486330E+01 -0.431463925029E+00  0.165972431649E-01
  0.100000000000E+01  0.689725637436E+00  0.000000000000E+00
  0.100000000000E+01  0.448061168194E+00  0.000000000000E+00
  0.124703540019E+01  0.702077407446E+00  0.123517700096E-01
  0.126507006208E+01  0.461314671298E+00  0.132535031038E-01
  0.100000000000E+01 -0.448061168194E+00  0.000000000000E+00
  0.100000000000E+01 -0.689725637436E+00  0.000000000000E+00
  0.133194486330E+01 -0.431463925029E+00  0.165972431649E-01
  0.134997952518E+01 -0.672226661177E+00  0.174989762591E-01
  0.100000000000E+01  0.940178275108E+00  0.000000000000E+00
  0.100000000000E+01  0.689725637436E+00  0.000000000000E+00
  0.122834490484E+01  0.951595520350E+00  0.114172452421E-01
  0.124703540019E+01  0.702077407446E+00  0.123517700096E-01
  0.100000000000E+01 -0.689725637436E+00  0.000000000000E+00
  0.100000000000E+01 -0.940178275108E+00  0.000000000000E+00
  0.134997952518E+01 -0.672226661177E+00  0.174989762591E-01
  0.136867002053E+01 -0.921744774081E+00  0.184335010265E-01
  0.100000000000E+01  0.119668114185E+01  0.000000000000E+00
  0.100000000000E+01  0.940178275108E+00  0.000000000000E+00
  0.120920289986E+01  0.120714128684E+01  0.104601449931E-01
  0.122834490484E+01  0.951595520350E+00  0.114172452421E-01
  0.100000000000E+01 -0.940178275108E+00  0.000000000000E+00
  0.100000000000E+01 -0.119668114185E+01  0.000000000000E+00
  0.136867002053E+01 -0.921744774081E+00  0.184335010265E-01
  0.138781202551E+01 -0.117729054057E+01  0.193906012756E-01
  0.100000000000E+01  0.145621216297E+01  0.000000000000E+00
  0.100000000000E+01  0.119668114185E+01  0.000000000000E+00
  0.118983491321E+01  0.146570390863E+01  0.949174566056E-02
  0.120920289986E+01  0.120714128684E+01  0.104601449931E-01
  0.100000000000E+01 -0.119668114185E+01  0.000000000000E+00
  0.100000000000E+01 -0.145621216297E+01  0.000000000000E+00
  0.138781202551E+01 -0.117729054057E+01  0.193906012756E-01
  0.140718001216E+01 -0.143585316236E+01  0.203590006081E-01
  0.100000000000E+01  0.171560299397E+01  0.000000000000E+00
  0.100000000000E+01  0.145621216297E+01  0.000000000000E+00
  0.117047738851E+01  0.172412686340E+01  0.852386942549E-02
  0.118983491321E+01  0.146570390863E+01  0.949174566056E-02
  0.100000000000E+01 -0.145621216297E+01  0.000000000000E+00
  0.100000000000E+01 -0.171560299397E+01  0.000000000000E+00
  0.140718001216E+01 -0.143585316236E+01  0.203590006081E-01
  0.142653753686E+01 -0.169427611713E+01  0.213268768432E-01
  0.100000000000E+01  0.197169232368E+01  0.000000000000E+00
  0.100000000000E+01  0.171560299397E+01  0.000000000000E+00
  0.115136624450E+01  0.197926063591E+01  0.756831222507E-02
  0.117047738851E+01  0.172412686340E+01  0.852386942549E-02
  0.100000000000E+01 -0.171560299397E+01  0.000000000000E+00
  0.100000000000E+01 -0.197169232368E+01  0.000000000000E+00
  0.142653753686E+01 -0.169427611713E+01  0.213268768432E-01
  0.144564868087E+01 -0.194940988964E+01  0.222824340436E-01
  0.100000000000E+01  0.222147774696E+01  0.000000000000E+00
  0.100000000000E+01  0.197169232368E+01  0.000000000000E+00
  0.113272554127E+01  0.222811402402E+01  0.663627706358E-02
  0.115136624450E+01  0.197926063591E+01  0.756831222507E-02
  0.100000000000E+01 -0.197169232368E+01  0.000000000000E+00
  0.100000000000E+01 -0.222147774696E+01  0.000000000000E+00
  0.144564868087E+01 -0.194940988964E+01  0.222824340436E-01
  0.146428938410E+01 -0.219826327775E+01  0.232144692051E-01
  0.100000000000E+01  0.246225214005E+01  0.000000000000E+00
  0.100000000000E+01  0.222147774696E+01  0.000000000000E+00
  0.111475730298E+01  0.246799000520E+01  0.573786514907E-02
  0.113272554127E+01  0.222811402402E+01  0.663627706358E-02
  0.100000000000E+01 -0.222147774696E+01  0.000000000000E+00
  0.100000000000E+01 -0.246225214005E+01  0.000000000000E+00
  0.146428938410E+01 -0.219826327775E+01  0.232144692051E-01
  0.148225762239E+01 -0.243813925893E+01  0.241128811196E-01
  0.100000000000E+01  0.269171094894E+01  0.000000000000E+00
  0.100000000000E+01  0.246225214005E+01  0.000000000000E+00
  0.109763351127E+01  0.269659262450E+01  0.488167556366E-02
  0.111475730298E+01  0.246799000520E+01  0.573786514907E-02
  0.100000000000E+01 -0.246225214005E+01  0.000000000000E+00
  0.100000000000E+01 -0.269171094894E+01  0.000000000000E+00
  0.148225762239E+01 -0.243813925893E+01  0.241128811196E-01
  0.149938141410E+01 -0.266674187823E+01  0.249690707050E-01
  0.100000000000E+01  0.290802383423E+01  0.000000000000E+00
  0.100000000000E+01  0.269171094894E+01  0.000000000000E+00
  0.108149075864E+01  0.291209837216E+01  0.407453793198E-02
  0.109763351127E+01  0.269659262450E+01  0.488167556366E-02
  0.100000000000E+01 -0.269171094894E+01  0.000000000000E+00
  0.100000000000E+01 -0.290802383423E+01  0.000000000000E+00
  0.149938141410E+01 -0.266674187823E+01  0.249690707050E-01
  0.151552416673E+01 -0.288224762589E+01  0.257762083367E-01
  0.100000000000E+01  0.310986590385E+01  0.000000000000E+00
  0.100000000000E+01  0.290802383423E+01  0.000000000000E+00
  0.106642791762E+01  0.311318729973E+01  0.332139588116E-02
  0.108149075864E+01  0.291209837216E+01  0.407453793198E-02
  0.100000000000E+01 -0.290802383423E+01  0.000000000000E+00
  0.100000000000E+01 -0.310986590385E+01  0.000000000000E+00
  0.151552416673E+01 -0.288224762589E+01  0.257762083367E-01
  0.153058700775E+01 -0.308333655346E+01  0.265293503875E-01
  0.100000000000E+01  0.329641318321E+01  0.000000000000E+00
  0.100000000000E+01  0.310986590385E+01  0.000000000000E+00
  0.105250647886E+01  0.329903850715E+01  0.262532394325E-02
  0.106642791762E+01  0.311318729973E+01  0.332139588116E-02
  0.100000000000E+01 -0.310986590385E+01  0.000000000000E+00
  0.100000000000E+01 -0.329641318321E+01  0.000000000000E+00
  0.153058700775E+01 -0.308333655346E+01  0.265293503875E-01
  0.154450844651E+01 -0.326918776088E+01  0.272254223254E-01
  0.100000000000E+01  0.346730756760E+01  0.000000000000E+00
  0.100000000000E+01  0.329641318321E+01  0.000000000000E+00
  0.103975316660E+01  0.346929522593E+01  0.198765832985E-02
  0.105250647886E+01  0.329903850715E+01  0.262532394325E-02
  0.100000000000E+01 -0.329641318321E+01  0.000000000000E+00
  0.100000000000E+01 -0.346730756760E+01  0.000000000000E+00
  0.154450844651E+01 -0.326918776088E+01  0.272254223254E-01
  0.155726175878E+01 -0.343944447966E+01  0.278630879388E-01
  0.100000000000E+01  0.362259936333E+01  0.000000000000E+00
  0.100000000000E+01  0.346730756760E+01  0.000000000000E+00
  0.102816422662E+01  0.362400757466E+01  0.140821133086E-02
  0.103975316660E+01  0.346929522593E+01  0.198765832985E-02
  0.100000000000E+01 -0.346730756760E+01  0.000000000000E+00
  0.100000000000E+01 -0.362259936333E+01  0.000000000000E+00
  0.155726175878E+01 -0.343944447966E+01  0.278630879388E-01
  0.156885069876E+01 -0.359415682839E+01  0.284425349378E-01
  0.100000000000E+01  0.376267743111E+01  0.000000000000E+00
  0.100000000000E+01  0.362259936333E+01  0.000000000000E+00
  0.101771063947E+01  0.376356296308E+01  0.885531973470E-03
  0.102816422662E+01  0.362400757466E+01  0.140821133086E-02
  0.100000000000E+01 -0.362259936333E+01  0.000000000000E+00
  0.100000000000E+01 -0.376267743111E+01  0.000000000000E+00
  0.156885069876E+01 -0.359415682839E+01  0.284425349378E-01
  0.157930428590E+01 -0.373371221681E+01  0.289652142952E-01
  0.100000000000E+01  0.388819599152E+01  0.000000000000E+00
  0.100000000000E+01  0.376267743111E+01  0.000000000000E+00
  0.100834358272E+01  0.388861317066E+01  0.417179136119E-03
  0.101771063947E+01  0.376356296308E+01  0.885531973470E-03
  0.100000000000E+01 -0.376267743111E+01  0.000000000000E+00
  0.100000000000E+01 -0.388819599152E+01  0.000000000000E+00
  0.157930428590E+01 -0.373371221681E+01  0.289652142952E-01
  0.158867134265E+01 -0.385876242439E+01  0.294335671325E-01
  0.100000000000E+01  0.400000000000E+01  0.000000000000E+00
  0.100000000000E+01  0.388819599152E+01  0.000000000000E+00
  0.100000000000E+01  0.400000000000E+01  0.000000000000E+00
  0.100834358272E+01  0.388861317066E+01  0.417179136119E-03
  0.100000000000E+01 -0.388819599152E+01  0.000000000000E+00
  0.100000000000E+01 -0.400000000000E+01  0.000000000000E+00
  0.158867134265E+01 -0.385876242439E+01  0.294335671325E-01
  0.159701492537E+01 -0.397014925373E+01  0.298507462687E-01
POLYGONS                  75                 300
3                   0                   3                   1
3                   0                   2                   3
3                   4                   7                   5
3                   4                   6                   7
3                   8                  11                   9
3                   8                  10                  11
3                  12                  15                  13
3                  12                  14                  15
3                  16                  19                  17
3                  16                  18                  19
3                  20                  23                  21
3                  20                  22                  23
3                  24                  27                  25
3                  24                  26                  27
3                  28                  31                  29
3                  28                  30                  31
3                  32                  35                  33
3                  32                  34                  35
3                  36                  39                  37
3                  36                  38                  39
3                  40                  43                  41
3                  40                  42                  43
3                  44                  47                  45
3                  44                  46                  47
3                  48                  51                  49
3                  48                  50                  51
3                  52                  55                  53
3                  52                  54                  55
3                  56                  59                  57
3                  56                  58                  59
3                  60                  63                  61
3                  60                  62                  63
3                  64                  67                  65
3                  64                  66                  67
3                  68                  71                  69
3                  68                  70                  71
3                  72                  75                  73
3                  72                  74                  75
3                  76                  79                  77
3                  76                  78                  79
3                  80                  83                  81
3                  80                  82                  83
3                  84                  87                  85
3                  84                  86                  87
3                  88                  91                  89
3                  88                  90                  91
3                  92                  95                  93
3                  92                  94                  95
3                  96                  99                  97
3                  96                  98                  99
3                 100                 103                 101
3                 100                 102                 103
3                 104                 107                 105
3                 104                 106                 107
3                 108                 111                 109
3                 108                 110                 111
3                 112                 115                 113
3                 112                 114                 115
3                 116                 119                 117
3                 116                 118                 119
3                 120                 123                 121
3                 120                 122                 123
3                 124                 127                 125
3                 124                 126                 127
3                 128                 131                 129
3                 128                 130                 131
3                 132                 135                 133
3                 132                 134                 135
3                 136                 139                 137
3                 136                 138                 139
3                 140                 143                 141
3                 140                 142                 143
3                 144                 147                 145
3                 148                 151                 149
3                 148                 150                 151
POINT_DATA                 152
SCALARS mu float 1
LOOKUP_TABLE default
 -0.577037327554E-01
 -0.576935016008E-01
 -0.577037327554E-01
 -0.576935016008E-01
 -0.576935016008E-01
 -0.576653348237E-01
 -0.576935016008E-01
 -0.576653348237E-01
 -0.576905873973E-01
 -0.577037327554E-01
 -0.576905873973E-01
 -0.577037327554E-01
 -0.576653348237E-01
 -0.576817733201E-01
 -0.576653348237E-01
 -0.576817733201E-01
 -0.576975821183E-01
 -0.576905873973E-01
 -0.576975821183E-01
 -0.576905873973E-01
 -0.576817733201E-01
 -0.576756927942E-01
 -0.576817733201E-01
 -0.576756927942E-01
 -0.576991946292E-01
 -0.576975821183E-01
 -0.576991946292E-01
 -0.576975821183E-01
 -0.576756927942E-01
 -0.576752958104E-01
 -0.576756927942E-01
 -0.576752958104E-01
 -0.577182619443E-01
 -0.576991946292E-01
 -0.577182619443E-01
 -0.576991946292E-01
 -0.576752958104E-01
 -0.576563493346E-01
 -0.576752958104E-01
 -0.576563493346E-01
 -0.577031415364E-01
 -0.577182619443E-01
 -0.577031415364E-01
 -0.577182619443E-01
 -0.576563493346E-01
 -0.576711631750E-01
 -0.576563493346E-01
 -0.576711631750E-01
 -0.577181829825E-01
 -0.577031415364E-01
 -0.577181829825E-01
 -0.577031415364E-01
 -0.576711631750E-01
 -0.576538017493E-01
 -0.576711631750E-01
 -0.576538017493E-01
 -0.577297092724E-01
 -0.577181829825E-01
 -0.577297092724E-01
 -0.577181829825E-01
 -0.576538017493E-01
 -0.576445078769E-01
 -0.576538017493E-01
 -0.576445078769E-01
 -0.577445722093E-01
 -0.577297092724E-01
 -0.577445722093E-01
 -0.577297092724E-01
 -0.576445078769E-01
 -0.576289555446E-01
 -0.576445078769E-01
 -0.576289555446E-01
 -0.576944138914E-01
 -0.577445722093E-01
 -0.576944138914E-01
 -0.577445722093E-01
 -0.576289555446E-01
 -0.576784217264E-01
 -0.576289555446E-01
 -0.576784217264E-01
 -0.576879373167E-01
 -0.576944138914E-01
 -0.576879373167E-01
 -0.576944138914E-01
 -0.576784217264E-01
 -0.576649928925E-01
 -0.576784217264E-01
 -0.576649928925E-01
 -0.576776175678E-01
 -0.576879373167E-01
 -0.576776175678E-01
 -0.576879373167E-01
 -0.576649928925E-01
 -0.576184747534E-01
 -0.576649928925E-01
 -0.576184747534E-01
 -0.576093845194E-01
 -0.576776175678E-01
 -0.576093845194E-01
 -0.576776175678E-01
 -0.576184747534E-01
 -0.573865490746E-01
 -0.576184747534E-01
 -0.573865490746E-01
 -0.572217090069E-01
 -0.576093845194E-01
 -0.572217090069E-01
 -0.576093845194E-01
 -0.573865490746E-01
 -0.564065062470E-01
 -0.573865490746E-01
 -0.564065062470E-01
 -0.556966572371E-01
 -0.572217090069E-01
 -0.556966572371E-01
 -0.572217090069E-01
 -0.564065062470E-01
 -0.537796155303E-01
 -0.564065062470E-01
 -0.537796155303E-01
 -0.517456013273E-01
 -0.556966572371E-01
 -0.517456013273E-01
 -0.556966572371E-01
 -0.537796155303E-01
 -0.485305784314E-01
 -0.537796155303E-01
 -0.485305784314E-01
 -0.430856908779E-01
 -0.517456013273E-01
 -0.430856908779E-01
 -0.517456013273E-01
 -0.485305784314E-01
 -0.392452384092E-01
 -0.485305784314E-01
 -0.392452384092E-01
 -0.248892793754E-01
 -0.430856908779E-01
 -0.248892793754E-01
 -0.430856908779E-01
 -0.392452384092E-01
 -0.223737897289E-01
 -0.392452384092E-01
 -0.223737897289E-01
  0.000000000000E+00
 -0.248892793754E-01
  0.000000000000E+00
 -0.248892793754E-01
 -0.223737897289E-01
  0.000000000000E+00
 -0.223737897289E-01
  0.000000000000E+00
