# vtk DataFile Version 3.0
MachLine results file. Generated by MachLine, USU AeroLab (c) 2022.
ASCII
DATASET POLYDATA
POINTS                3847 float
  0.100000000000E+01  0.000000000000E+00  0.000000000000E+00
  0.986936852140E+00  0.512820512820E-01 -0.114287734800E-02
  0.100000000000E+01  0.512820512820E-01  0.000000000000E+00
  0.986936852140E+00  0.000000000000E+00 -0.114287734800E-02
  0.969870673510E+00  0.512820512820E-01 -0.263597450740E-02
  0.969870673510E+00  0.000000000000E+00 -0.263597450740E-02
  0.947785033200E+00  0.512820512820E-01 -0.456821766120E-02
  0.947785033200E+00  0.000000000000E+00 -0.456821766120E-02
  0.919551441300E+00  0.512820512820E-01 -0.703833688330E-02
  0.919551441300E+00  0.000000000000E+00 -0.703833688330E-02
  0.884018106510E+00  0.512820512820E-01 -0.101471008550E-01
  0.884018106510E+00  0.000000000000E+00 -0.101471008550E-01
  0.840166851150E+00  0.512820512820E-01 -0.139835885800E-01
  0.840166851150E+00  0.000000000000E+00 -0.139835885800E-01
  0.787342649140E+00  0.512820512820E-01 -0.186051074160E-01
  0.787342649140E+00  0.000000000000E+00 -0.186051074160E-01
  0.725530751590E+00  0.512820512820E-01 -0.240129477220E-01
  0.725530751590E+00  0.000000000000E+00 -0.240129477220E-01
  0.655612654280E+00  0.512820512820E-01 -0.301299886120E-01
  0.655612654280E+00  0.000000000000E+00 -0.301299886120E-01
  0.579493951800E+00  0.512820512820E-01 -0.367895121620E-01
  0.579493951800E+00  0.000000000000E+00 -0.367895121620E-01
  0.500000000000E+00  0.512820512820E-01 -0.437443317630E-01
  0.500000000000E+00  0.000000000000E+00 -0.437443317630E-01
  0.420506048200E+00  0.000000000000E+00 -0.367895121620E-01
  0.420506048200E+00  0.512820512820E-01 -0.367895121620E-01
  0.344387345720E+00  0.000000000000E+00 -0.301299886120E-01
  0.344387345720E+00  0.512820512820E-01 -0.301299886120E-01
  0.274469248410E+00  0.000000000000E+00 -0.240129477220E-01
  0.274469248410E+00  0.512820512820E-01 -0.240129477220E-01
  0.212657350860E+00  0.000000000000E+00 -0.186051074160E-01
  0.212657350860E+00  0.512820512820E-01 -0.186051074160E-01
  0.159833148850E+00  0.000000000000E+00 -0.139835885800E-01
  0.159833148850E+00  0.512820512820E-01 -0.139835885800E-01
  0.115981893490E+00  0.000000000000E+00 -0.101471008550E-01
  0.115981893490E+00  0.512820512820E-01 -0.101471008550E-01
  0.804485587010E-01  0.000000000000E+00 -0.703833688330E-02
  0.804485587010E-01  0.512820512820E-01 -0.703833688330E-02
  0.522149667970E-01  0.000000000000E+00 -0.456821766120E-02
  0.522149667970E-01  0.512820512820E-01 -0.456821766120E-02
  0.301293264890E-01  0.000000000000E+00 -0.263597450740E-02
  0.301293264890E-01  0.512820512820E-01 -0.263597450740E-02
  0.130631478640E-01  0.000000000000E+00 -0.114287734800E-02
  0.130631478640E-01  0.512820512820E-01 -0.114287734800E-02
  0.000000000000E+00  0.000000000000E+00  0.000000000000E+00
  0.000000000000E+00  0.512820512820E-01  0.000000000000E+00
  0.130631478640E-01  0.512820512820E-01  0.114287734800E-02
  0.130631478640E-01  0.000000000000E+00  0.114287734800E-02
  0.301293264890E-01  0.512820512820E-01  0.263597450740E-02
  0.301293264890E-01  0.000000000000E+00  0.263597450740E-02
  0.522149667970E-01  0.512820512820E-01  0.456821766120E-02
  0.522149667970E-01  0.000000000000E+00  0.456821766120E-02
  0.804485587010E-01  0.512820512820E-01  0.703833688330E-02
  0.804485587010E-01  0.000000000000E+00  0.703833688330E-02
  0.115981893490E+00  0.512820512820E-01  0.101471008550E-01
  0.115981893490E+00  0.000000000000E+00  0.101471008550E-01
  0.159833148850E+00  0.512820512820E-01  0.139835885800E-01
  0.159833148850E+00  0.000000000000E+00  0.139835885800E-01
  0.212657350860E+00  0.512820512820E-01  0.186051074160E-01
  0.212657350860E+00  0.000000000000E+00  0.186051074160E-01
  0.274469248410E+00  0.512820512820E-01  0.240129477220E-01
  0.274469248410E+00  0.000000000000E+00  0.240129477220E-01
  0.344387345720E+00  0.512820512820E-01  0.301299886120E-01
  0.344387345720E+00  0.000000000000E+00  0.301299886120E-01
  0.420506048200E+00  0.512820512820E-01  0.367895121620E-01
  0.420506048200E+00  0.000000000000E+00  0.367895121620E-01
  0.500000000000E+00  0.512820512820E-01  0.437443317630E-01
  0.500000000000E+00  0.000000000000E+00  0.437443317630E-01
  0.579493951800E+00  0.000000000000E+00  0.367895121620E-01
  0.579493951800E+00  0.512820512820E-01  0.367895121620E-01
  0.655612654280E+00  0.000000000000E+00  0.301299886120E-01
  0.655612654280E+00  0.512820512820E-01  0.301299886120E-01
  0.725530751590E+00  0.000000000000E+00  0.240129477220E-01
  0.725530751590E+00  0.512820512820E-01  0.240129477220E-01
  0.787342649140E+00  0.000000000000E+00  0.186051074160E-01
  0.787342649140E+00  0.512820512820E-01  0.186051074160E-01
  0.840166851150E+00  0.000000000000E+00  0.139835885800E-01
  0.840166851150E+00  0.512820512820E-01  0.139835885800E-01
  0.884018106510E+00  0.000000000000E+00  0.101471008550E-01
  0.884018106510E+00  0.512820512820E-01  0.101471008550E-01
  0.919551441300E+00  0.000000000000E+00  0.703833688330E-02
  0.919551441300E+00  0.512820512820E-01  0.703833688330E-02
  0.947785033200E+00  0.000000000000E+00  0.456821766120E-02
  0.947785033200E+00  0.512820512820E-01  0.456821766120E-02
  0.969870673510E+00  0.000000000000E+00  0.263597450740E-02
  0.969870673510E+00  0.512820512820E-01  0.263597450740E-02
  0.986936852140E+00  0.000000000000E+00  0.114287734800E-02
  0.986936852140E+00  0.512820512820E-01  0.114287734800E-02
  0.986936852140E+00  0.102564102560E+00 -0.114287734800E-02
  0.100000000000E+01  0.102564102560E+00  0.000000000000E+00
  0.969870673510E+00  0.102564102560E+00 -0.263597450740E-02
  0.947785033200E+00  0.102564102560E+00 -0.456821766120E-02
  0.919551441300E+00  0.102564102560E+00 -0.703833688330E-02
  0.884018106510E+00  0.102564102560E+00 -0.101471008550E-01
  0.840166851150E+00  0.102564102560E+00 -0.139835885800E-01
  0.787342649140E+00  0.102564102560E+00 -0.186051074160E-01
  0.725530751590E+00  0.102564102560E+00 -0.240129477220E-01
  0.655612654280E+00  0.102564102560E+00 -0.301299886120E-01
  0.579493951800E+00  0.102564102560E+00 -0.367895121620E-01
  0.500000000000E+00  0.102564102560E+00 -0.437443317630E-01
  0.420506048200E+00  0.102564102560E+00 -0.367895121620E-01
  0.344387345720E+00  0.102564102560E+00 -0.301299886120E-01
  0.274469248410E+00  0.102564102560E+00 -0.240129477220E-01
  0.212657350860E+00  0.102564102560E+00 -0.186051074160E-01
  0.159833148850E+00  0.102564102560E+00 -0.139835885800E-01
  0.115981893490E+00  0.102564102560E+00 -0.101471008550E-01
  0.804485587010E-01  0.102564102560E+00 -0.703833688330E-02
  0.522149667970E-01  0.102564102560E+00 -0.456821766120E-02
  0.301293264890E-01  0.102564102560E+00 -0.263597450740E-02
  0.130631478640E-01  0.102564102560E+00 -0.114287734800E-02
  0.000000000000E+00  0.102564102560E+00  0.000000000000E+00
  0.130631478640E-01  0.102564102560E+00  0.114287734800E-02
  0.301293264890E-01  0.102564102560E+00  0.263597450740E-02
  0.522149667970E-01  0.102564102560E+00  0.456821766120E-02
  0.804485587010E-01  0.102564102560E+00  0.703833688330E-02
  0.115981893490E+00  0.102564102560E+00  0.101471008550E-01
  0.159833148850E+00  0.102564102560E+00  0.139835885800E-01
  0.212657350860E+00  0.102564102560E+00  0.186051074160E-01
  0.274469248410E+00  0.102564102560E+00  0.240129477220E-01
  0.344387345720E+00  0.102564102560E+00  0.301299886120E-01
  0.420506048200E+00  0.102564102560E+00  0.367895121620E-01
  0.500000000000E+00  0.102564102560E+00  0.437443317630E-01
  0.579493951800E+00  0.102564102560E+00  0.367895121620E-01
  0.655612654280E+00  0.102564102560E+00  0.301299886120E-01
  0.725530751590E+00  0.102564102560E+00  0.240129477220E-01
  0.787342649140E+00  0.102564102560E+00  0.186051074160E-01
  0.840166851150E+00  0.102564102560E+00  0.139835885800E-01
  0.884018106510E+00  0.102564102560E+00  0.101471008550E-01
  0.919551441300E+00  0.102564102560E+00  0.703833688330E-02
  0.947785033200E+00  0.102564102560E+00  0.456821766120E-02
  0.969870673510E+00  0.102564102560E+00  0.263597450740E-02
  0.986936852140E+00  0.102564102560E+00  0.114287734800E-02
  0.986936852140E+00  0.153846153850E+00 -0.114287734800E-02
  0.100000000000E+01  0.153846153850E+00  0.000000000000E+00
  0.969870673510E+00  0.153846153850E+00 -0.263597450740E-02
  0.947785033200E+00  0.153846153850E+00 -0.456821766120E-02
  0.919551441300E+00  0.153846153850E+00 -0.703833688330E-02
  0.884018106510E+00  0.153846153850E+00 -0.101471008550E-01
  0.840166851150E+00  0.153846153850E+00 -0.139835885800E-01
  0.787342649140E+00  0.153846153850E+00 -0.186051074160E-01
  0.725530751590E+00  0.153846153850E+00 -0.240129477220E-01
  0.655612654280E+00  0.153846153850E+00 -0.301299886120E-01
  0.579493951800E+00  0.153846153850E+00 -0.367895121620E-01
  0.500000000000E+00  0.153846153850E+00 -0.437443317630E-01
  0.420506048200E+00  0.153846153850E+00 -0.367895121620E-01
  0.344387345720E+00  0.153846153850E+00 -0.301299886120E-01
  0.274469248410E+00  0.153846153850E+00 -0.240129477220E-01
  0.212657350860E+00  0.153846153850E+00 -0.186051074160E-01
  0.159833148850E+00  0.153846153850E+00 -0.139835885800E-01
  0.115981893490E+00  0.153846153850E+00 -0.101471008550E-01
  0.804485587010E-01  0.153846153850E+00 -0.703833688330E-02
  0.522149667970E-01  0.153846153850E+00 -0.456821766120E-02
  0.301293264890E-01  0.153846153850E+00 -0.263597450740E-02
  0.130631478640E-01  0.153846153850E+00 -0.114287734800E-02
  0.000000000000E+00  0.153846153850E+00  0.000000000000E+00
  0.130631478640E-01  0.153846153850E+00  0.114287734800E-02
  0.301293264890E-01  0.153846153850E+00  0.263597450740E-02
  0.522149667970E-01  0.153846153850E+00  0.456821766120E-02
  0.804485587010E-01  0.153846153850E+00  0.703833688330E-02
  0.115981893490E+00  0.153846153850E+00  0.101471008550E-01
  0.159833148850E+00  0.153846153850E+00  0.139835885800E-01
[...]
CELL_DATA                7536
SCALARS C_p_ise float 1
LOOKUP_TABLE default
 -0.544411452550E-01
 -0.541282742612E-01
 -0.866637850102E-01
 -0.866637850141E-01
 -0.866637850339E-01
 -0.866637850341E-01
 -0.866637850423E-01
 -0.866637850424E-01
 -0.866637850426E-01
 -0.866637850426E-01
 -0.866637850282E-01
 -0.866637850282E-01
 -0.866637850406E-01
 -0.866637850406E-01
 -0.866637850266E-01
 -0.866637850266E-01
 -0.866637850364E-01
 -0.866637850364E-01
 -0.866637850432E-01
 -0.866637850432E-01
 -0.866637850315E-01
 -0.866637850315E-01
  0.116357274782E+00
  0.116357274782E+00
  0.116357274803E+00
  0.116357274803E+00
  0.116357274791E+00
  0.116357274791E+00
  0.116357274774E+00
  0.116357274774E+00
  0.116357274798E+00
  0.116357274798E+00
  0.116357274776E+00
  0.116357274776E+00
  0.116357274806E+00
  0.116357274806E+00
  0.116357274783E+00
  0.116357274783E+00
  0.116357274799E+00
  0.116357274799E+00
  0.116357274790E+00
  0.116357274790E+00
  0.116357274782E+00
  0.116357274782E+00
  0.116357274782E+00
  0.116357274782E+00
  0.116357274790E+00
  0.116357274790E+00
  0.116357274799E+00
  0.116357274799E+00
  0.116357274783E+00
  0.116357274783E+00
  0.116357274806E+00
  0.116357274806E+00
  0.116357274776E+00
  0.116357274776E+00
  0.116357274798E+00
  0.116357274798E+00
  0.116357274774E+00
  0.116357274774E+00
  0.116357274791E+00
  0.116357274791E+00
  0.116357274803E+00
  0.116357274803E+00
  0.116357274782E+00
  0.116357274782E+00
 -0.866637850315E-01
 -0.866637850315E-01
 -0.866637850432E-01
 -0.866637850432E-01
 -0.866637850364E-01
 -0.866637850364E-01
 -0.866637850267E-01
 -0.866637850267E-01
 -0.866637850406E-01
 -0.866637850406E-01
 -0.866637850282E-01
 -0.866637850282E-01
 -0.866637850427E-01
 -0.866637850427E-01
 -0.866637850424E-01
 -0.866637850425E-01
 -0.866637850342E-01
 -0.866637850343E-01
 -0.866637850142E-01
 -0.866637850178E-01
 -0.117192136432E+00
 -0.116916566573E+00
 -0.520711870374E-01
 -0.544411435638E-01
 -0.866626222991E-01
 -0.866637850102E-01
 -0.866637850175E-01
 -0.866637850339E-01
 -0.866637850418E-01
 -0.866637850423E-01
 -0.866637850425E-01
 -0.866637850426E-01
 -0.866637850282E-01
 -0.866637850282E-01
 -0.866637850406E-01
 -0.866637850406E-01
 -0.866637850266E-01
 -0.866637850266E-01
 -0.866637850364E-01
 -0.866637850364E-01
 -0.866637850432E-01
 -0.866637850432E-01
 -0.866637850315E-01
 -0.866637850315E-01
  0.116357274782E+00
  0.116357274782E+00
  0.116357274803E+00
  0.116357274803E+00
  0.116357274791E+00
  0.116357274791E+00
  0.116357274774E+00
  0.116357274774E+00
  0.116357274798E+00
  0.116357274798E+00
  0.116357274776E+00
  0.116357274776E+00
  0.116357274806E+00
  0.116357274806E+00
  0.116357274783E+00
  0.116357274783E+00
  0.116357274799E+00
  0.116357274799E+00
  0.116357274790E+00
  0.116357274790E+00
  0.116357274782E+00
  0.116357274782E+00
  0.116357274782E+00
  0.116357274782E+00
  0.116357274790E+00
  0.116357274790E+00
  0.116357274799E+00
  0.116357274799E+00
  0.116357274783E+00
  0.116357274783E+00
  0.116357274806E+00
  0.116357274806E+00
  0.116357274776E+00
  0.116357274776E+00
  0.116357274798E+00
  0.116357274798E+00
  0.116357274774E+00
  0.116357274774E+00
  0.116357274791E+00
  0.116357274791E+00
  0.116357274803E+00
  0.116357274803E+00
  0.116357274782E+00
  0.116357274782E+00
 -0.866637850315E-01
 -0.866637850315E-01
 -0.866637850432E-01
 -0.866637850432E-01
 -0.866637850364E-01
 -0.866637850364E-01
 -0.866637850267E-01
 -0.866637850267E-01
 -0.866637850406E-01
 -0.866637850406E-01
 -0.866637850282E-01
 -0.866637850283E-01
 -0.866637850427E-01
 -0.866637850428E-01
 -0.866637850425E-01
 -0.866637850431E-01
 -0.866637850343E-01
 -0.866637850508E-01
 -0.866637850178E-01
 -0.866649477265E-01
 -0.116916565139E+00
 -0.118996176095E+00
 -0.503618777047E-01
 -0.520710896610E-01
 -0.866636585251E-01
 -0.866626222991E-01
 -0.866637850319E-01
 -0.866637850175E-01
 -0.866637850422E-01
 -0.866637850418E-01
 -0.866637850426E-01
 -0.866637850425E-01
 -0.866637850282E-01
 -0.866637850282E-01
 -0.866637850406E-01
 -0.866637850406E-01
 -0.866637850266E-01
 -0.866637850266E-01
 -0.866637850364E-01
 -0.866637850364E-01
 -0.866637850432E-01
 -0.866637850432E-01
 -0.866637850315E-01
 -0.866637850315E-01
  0.116357274782E+00
  0.116357274782E+00
  0.116357274803E+00
  0.116357274803E+00
  0.116357274791E+00
  0.116357274791E+00
  0.116357274774E+00
  0.116357274774E+00
  0.116357274798E+00
  0.116357274798E+00
  0.116357274776E+00
  0.116357274776E+00
  0.116357274806E+00
  0.116357274806E+00
  0.116357274783E+00
  0.116357274783E+00
  0.116357274799E+00
  0.116357274799E+00
  0.116357274790E+00
  0.116357274790E+00
  0.116357274782E+00
  0.116357274782E+00
  0.116357274782E+00
  0.116357274782E+00
  0.116357274790E+00
  0.116357274790E+00
  0.116357274799E+00
  0.116357274799E+00
  0.116357274783E+00
  0.116357274783E+00
  0.116357274806E+00
  0.116357274806E+00
  0.116357274776E+00
  0.116357274776E+00
  0.116357274798E+00
  0.116357274798E+00
  0.116357274774E+00
  0.116357274774E+00
  0.116357274791E+00
  0.116357274791E+00
  0.116357274803E+00
  0.116357274803E+00
  0.116357274782E+00
  0.116357274782E+00
 -0.866637850315E-01
 -0.866637850315E-01
 -0.866637850432E-01
 -0.866637850432E-01
 -0.866637850364E-01
 -0.866637850364E-01
 -0.866637850267E-01
 -0.866637850267E-01
 -0.866637850406E-01
 -0.866637850406E-01
 -0.866637850283E-01
 -0.866637850282E-01
 -0.866637850428E-01
 -0.866637850427E-01
 -0.866637850431E-01
 -0.866637850426E-01
 -0.866637850508E-01
 -0.866637850367E-01
 -0.866649477265E-01
 -0.866639197275E-01
 -0.118996094507E+00
 -0.120484289797E+00
 -0.484978609385E-01
 -0.503618273706E-01
 -0.866627731427E-01
 -0.866636585251E-01
 -0.866637850143E-01
 -0.866637850319E-01
 -0.866637850417E-01
 -0.866637850422E-01
 -0.866637850425E-01
 -0.866637850426E-01
 -0.866637850282E-01
 -0.866637850282E-01
 -0.866637850406E-01
 -0.866637850406E-01
 -0.866637850266E-01
 -0.866637850266E-01
 -0.866637850363E-01
 -0.866637850364E-01
 -0.866637850432E-01
 -0.866637850432E-01
 -0.866637850315E-01
 -0.866637850315E-01
  0.116357274782E+00
  0.116357274782E+00
  0.116357274803E+00
  0.116357274803E+00
  0.116357274791E+00
  0.116357274791E+00
  0.116357274774E+00
  0.116357274774E+00
  0.116357274798E+00
  0.116357274798E+00
  0.116357274776E+00
  0.116357274776E+00
  0.116357274806E+00
  0.116357274806E+00
  0.116357274783E+00
  0.116357274783E+00
  0.116357274799E+00
  0.116357274799E+00
  0.116357274790E+00
  0.116357274790E+00
  0.116357274782E+00
  0.116357274782E+00
  0.116357274782E+00
  0.116357274782E+00
  0.116357274790E+00
  0.116357274790E+00
  0.116357274799E+00
  0.116357274799E+00
  0.116357274783E+00
  0.116357274783E+00
  0.116357274806E+00
  0.116357274806E+00
  0.116357274776E+00
  0.116357274776E+00
  0.116357274798E+00
  0.116357274798E+00
  0.116357274774E+00
  0.116357274774E+00
  0.116357274791E+00
  0.116357274791E+00
  0.116357274803E+00
  0.116357274803E+00
  0.116357274782E+00
  0.116357274782E+00
 -0.866637850315E-01
 -0.866637850315E-01
 -0.866637850432E-01
 -0.866637850432E-01
 -0.866637850364E-01
 -0.866637850364E-01
 -0.866637850267E-01
 -0.866637850267E-01
 -0.866637850406E-01
 -0.866637850406E-01
 -0.866637850282E-01
 -0.866637850283E-01
 -0.866637850427E-01
 -0.866637850428E-01
 -0.866637850426E-01
 -0.866637850431E-01
 -0.866637850367E-01
 -0.866637850540E-01
 -0.866639197275E-01
 -0.866647975272E-01
 -0.120484247979E+00
 -0.122096287743E+00
 -0.480827570313E-01
 -0.484978010076E-01
 -0.866636751379E-01
 -0.866627731427E-01
 -0.866637850316E-01
 -0.866637850143E-01
 -0.866637850422E-01
 -0.866637850417E-01
 -0.866637850426E-01
 -0.866637850425E-01
 -0.866637850282E-01
 -0.866637850282E-01
 -0.866637850406E-01
 -0.866637850406E-01
 -0.866637850266E-01
 -0.866637850266E-01
 -0.866637850364E-01
 -0.866637850363E-01
 -0.866637850432E-01
 -0.866637850432E-01
 -0.866637850315E-01
 -0.866637850315E-01
  0.116357274782E+00
  0.116357274782E+00
  0.116357274803E+00
  0.116357274803E+00
  0.116357274791E+00
  0.116357274791E+00
  0.116357274774E+00
  0.116357274774E+00
  0.116357274798E+00
  0.116357274798E+00
  0.116357274776E+00
  0.116357274776E+00
  0.116357274806E+00
  0.116357274806E+00
  0.116357274783E+00
  0.116357274783E+00
  0.116357274799E+00
  0.116357274799E+00
  0.116357274790E+00
  0.116357274790E+00
  0.116357274782E+00
  0.116357274782E+00
  0.116357274782E+00
  0.116357274782E+00
  0.116357274790E+00
  0.116357274790E+00
  0.116357274799E+00
  0.116357274799E+00
  0.116357274783E+00
  0.116357274783E+00
  0.116357274806E+00
  0.116357274806E+00
  0.116357274776E+00
  0.116357274776E+00
  0.116357274798E+00
  0.116357274798E+00
  0.116357274774E+00
  0.116357274774E+00
  0.116357274791E+00
  0.116357274791E+00
  0.116357274803E+00
  0.116357274803E+00
  0.116357274782E+00
  0.116357274782E+00
 -0.866637850315E-01
 -0.866637850315E-01
 -0.866637850432E-01
 -0.866637850432E-01
 -0.866637850364E-01
 -0.866637850364E-01
 -0.866637850267E-01
 -0.866637850267E-01
 -0.866637850406E-01
 -0.866637850406E-01
 -0.866637850283E-01
 -0.866637850282E-01
 -0.866637850428E-01
 -0.866637850427E-01
 -0.866637850431E-01
 -0.866637850426E-01
 -0.866637850540E-01
 -0.866637850371E-01
 -0.866647975272E-01
 -0.866639019338E-01
 -0.122096238409E+00
 -0.122453604497E+00
 -0.470610828334E-01
 -0.480827540908E-01
 -0.866630169917E-01
 -0.866636751379E-01
 -0.866637850168E-01
 -0.866637850316E-01
 -0.866637850417E-01
 -0.866637850422E-01
 -0.866637850425E-01
 -0.866637850426E-01
 -0.866637850282E-01
 -0.866637850282E-01
 -0.866637850406E-01
 -0.866637850406E-01
 -0.866637850266E-01
 -0.866637850266E-01
 -0.866637850364E-01
 -0.866637850364E-01
 -0.866637850432E-01
 -0.866637850432E-01
 -0.866637850315E-01
 -0.866637850315E-01
  0.116357274782E+00
  0.116357274782E+00
  0.116357274803E+00
  0.116357274803E+00
  0.116357274791E+00
  0.116357274791E+00
  0.116357274774E+00
  0.116357274774E+00
  0.116357274798E+00
  0.116357274798E+00
  0.116357274776E+00
  0.116357274776E+00
  0.116357274806E+00
  0.116357274806E+00
  0.116357274783E+00
  0.116357274783E+00
  0.116357274799E+00
  0.116357274799E+00
  0.116357274790E+00
  0.116357274790E+00
  0.116357274782E+00
  0.116357274782E+00
  0.116357274782E+00
  0.116357274782E+00
  0.116357274790E+00
  0.116357274790E+00
  0.116357274799E+00
  0.116357274799E+00
  0.116357274783E+00
  0.116357274783E+00
  0.116357274806E+00
  0.116357274806E+00
  0.116357274776E+00
  0.116357274776E+00
  0.116357274798E+00
  0.116357274798E+00
  0.116357274774E+00
  0.116357274774E+00
  0.116357274791E+00
  0.116357274791E+00
  0.116357274803E+00
  0.116357274803E+00
  0.116357274782E+00
  0.116357274782E+00
 -0.866637850315E-01
 -0.866637850315E-01
 -0.866637850432E-01
 -0.866637850432E-01
 -0.866637850364E-01
 -0.866637850364E-01
 -0.866637850267E-01
 -0.866637850267E-01
 -0.866637850406E-01
 -0.866637850406E-01
 -0.866637850282E-01
 -0.866637850282E-01
 -0.866637850427E-01
 -0.866637850428E-01
 -0.866637850426E-01
 -0.866637850430E-01
 -0.866637850371E-01
 -0.866637850516E-01
 -0.866639019338E-01
 -0.866645535875E-01
 -0.122453602081E+00
 -0.123330964261E+00
 -0.561417552250E-01
 -0.470610648756E-01
 -0.866637016415E-01
 -0.866630169917E-01
 -0.866637850321E-01
 -0.866637850168E-01
 -0.866637850423E-01
 -0.866637850417E-01
 -0.866637850426E-01
 -0.866637850425E-01
 -0.866637850282E-01
 -0.866637850282E-01
 -0.866637850406E-01
 -0.866637850406E-01
 -0.866637850266E-01
 -0.866637850266E-01
 -0.866637850364E-01
 -0.866637850364E-01
 -0.866637850432E-01
 -0.866637850432E-01
 -0.866637850315E-01
 -0.866637850315E-01
  0.116357274782E+00
  0.116357274782E+00
  0.116357274803E+00
  0.116357274803E+00
  0.116357274791E+00
  0.116357274791E+00
  0.116357274774E+00
  0.116357274774E+00
  0.116357274798E+00
  0.116357274798E+00
  0.116357274776E+00
  0.116357274776E+00
  0.116357274806E+00
  0.116357274806E+00
  0.116357274783E+00
  0.116357274783E+00
  0.116357274799E+00
  0.116357274799E+00
  0.116357274790E+00
  0.116357274790E+00
  0.116357274782E+00
  0.116357274782E+00
  0.116357274782E+00
  0.116357274782E+00
  0.116357274790E+00
  0.116357274790E+00
  0.116357274799E+00
  0.116357274799E+00
  0.116357274783E+00
  0.116357274783E+00
  0.116357274806E+00
  0.116357274806E+00
  0.116357274776E+00
  0.116357274776E+00
  0.116357274798E+00
  0.116357274798E+00
  0.116357274774E+00
  0.116357274774E+00
  0.116357274791E+00
  0.116357274791E+00
  0.116357274803E+00
  0.116357274803E+00
  0.116357274782E+00
  0.116357274782E+00
 -0.866637850315E-01
 -0.866637850315E-01
 -0.866637850432E-01
 -0.866637850432E-01
 -0.866637850364E-01
 -0.866637850364E-01
 -0.866637850267E-01
 -0.866637850267E-01
 -0.866637850406E-01
 -0.866637850406E-01
 -0.866637850282E-01
 -0.866637850282E-01
 -0.866637850428E-01
 -0.866637850427E-01
 -0.866637850430E-01
 -0.866637850425E-01
 -0.866637850516E-01
 -0.866637850366E-01
 -0.866645535875E-01
 -0.866638737209E-01
 -0.123330949583E+00
 -0.115415234418E+00
 -0.561049854742E-01
 -0.561403495457E-01
 -0.866637770185E-01
 -0.866637016415E-01
 -0.866637850339E-01
 -0.866637850321E-01
 -0.866637850424E-01
 -0.866637850423E-01
 -0.866637850427E-01
 -0.866637850426E-01
 -0.866637850282E-01
 -0.866637850282E-01
 -0.866637850406E-01
 -0.866637850406E-01
 -0.866637850266E-01
 -0.866637850266E-01
 -0.866637850364E-01
 -0.866637850364E-01
 -0.866637850432E-01
 -0.866637850432E-01
 -0.866637850315E-01
 -0.866637850315E-01
  0.116357274782E+00
  0.116357274782E+00
  0.116357274803E+00
  0.116357274803E+00
  0.116357274791E+00
  0.116357274791E+00
  0.116357274774E+00
  0.116357274774E+00
  0.116357274798E+00
  0.116357274798E+00
  0.116357274776E+00
  0.116357274776E+00
  0.116357274806E+00
  0.116357274806E+00
  0.116357274783E+00
  0.116357274783E+00
  0.116357274799E+00
  0.116357274799E+00
  0.116357274790E+00
  0.116357274790E+00
  0.116357274782E+00
  0.116357274782E+00
  0.116357274782E+00
  0.116357274782E+00
  0.116357274790E+00
  0.116357274790E+00
  0.116357274799E+00
  0.116357274799E+00
  0.116357274783E+00
  0.116357274783E+00
  0.116357274806E+00
  0.116357274806E+00
  0.116357274776E+00
  0.116357274776E+00
  0.116357274798E+00
  0.116357274798E+00
  0.116357274774E+00
  0.116357274774E+00
  0.116357274791E+00
  0.116357274791E+00
  0.116357274803E+00
  0.116357274803E+00
  0.116357274782E+00
  0.116357274782E+00
 -0.866637850315E-01
 -0.866637850315E-01
 -0.866637850432E-01
 -0.866637850432E-01
 -0.866637850364E-01
 -0.866637850364E-01
 -0.866637850267E-01
 -0.866637850267E-01
 -0.866637850406E-01
 -0.866637850406E-01
 -0.866637850282E-01
 -0.866637850282E-01
 -0.866637850427E-01
 -0.866637850427E-01
 -0.866637850425E-01
 -0.866637850424E-01
 -0.866637850366E-01
 -0.866637850343E-01
 -0.866638737209E-01
 -0.866637929222E-01
 -0.115414032549E+00
 -0.115445389618E+00
 -0.535822039282E-01
 -0.561049854526E-01
 -0.866633191283E-01
 -0.866637770185E-01
 -0.866637850306E-01
 -0.866637850339E-01
 -0.866637850423E-01
 -0.866637850424E-01
 -0.866637850427E-01
 -0.866637850427E-01
 -0.866637850282E-01
 -0.866637850282E-01
 -0.866637850406E-01
 -0.866637850406E-01
 -0.866637850267E-01
 -0.866637850266E-01
 -0.866637850364E-01
 -0.866637850364E-01
 -0.866637850432E-01
 -0.866637850432E-01
 -0.866637850315E-01
 -0.866637850315E-01
  0.116357274782E+00
  0.116357274782E+00
  0.116357274803E+00
  0.116357274803E+00
  0.116357274791E+00
  0.116357274791E+00
  0.116357274774E+00
  0.116357274774E+00
  0.116357274798E+00
  0.116357274798E+00
  0.116357274776E+00
  0.116357274776E+00
  0.116357274806E+00
  0.116357274806E+00
  0.116357274783E+00
  0.116357274783E+00
  0.116357274799E+00
  0.116357274799E+00
  0.116357274790E+00
  0.116357274790E+00
  0.116357274782E+00
  0.116357274782E+00
  0.116357274782E+00
  0.116357274782E+00
  0.116357274790E+00
  0.116357274790E+00
  0.116357274799E+00
  0.116357274799E+00
  0.116357274783E+00
  0.116357274783E+00
  0.116357274806E+00
  0.116357274806E+00
  0.116357274776E+00
  0.116357274776E+00
  0.116357274798E+00
  0.116357274798E+00
  0.116357274774E+00
  0.116357274774E+00
  0.116357274791E+00
  0.116357274791E+00
  0.116357274803E+00
  0.116357274803E+00
  0.116357274782E+00
  0.116357274782E+00
 -0.866637850315E-01
 -0.866637850315E-01
 -0.866637850432E-01
 -0.866637850432E-01
 -0.866637850364E-01
 -0.866637850364E-01
 -0.866637850267E-01
 -0.866637850267E-01
 -0.866637850406E-01
 -0.866637850406E-01
 -0.866637850282E-01
 -0.866637850282E-01
 -0.866637850427E-01
 -0.866637850427E-01
 -0.866637850424E-01
 -0.866637850425E-01
 -0.866637850343E-01
 -0.866637850377E-01
 -0.866637929222E-01
 -0.866642509481E-01
 -0.115445389600E+00
 -0.117672534466E+00
 -0.484634345489E-01
 -0.535820934573E-01
 -0.866637343443E-01
 -0.866633191283E-01
 -0.866637850336E-01
 -0.866637850306E-01
 -0.866637850424E-01
 -0.866637850423E-01
 -0.866637850426E-01
 -0.866637850427E-01
 -0.866637850282E-01
 -0.866637850282E-01
 -0.866637850406E-01
 -0.866637850406E-01
 -0.866637850266E-01
 -0.866637850267E-01
 -0.866637850364E-01
 -0.866637850364E-01
 -0.866637850432E-01
 -0.866637850432E-01
 -0.866637850315E-01
 -0.866637850315E-01
  0.116357274782E+00
  0.116357274782E+00
  0.116357274803E+00
  0.116357274803E+00
  0.116357274791E+00
  0.116357274791E+00
  0.116357274774E+00
  0.116357274774E+00
  0.116357274798E+00
  0.116357274798E+00
  0.116357274776E+00
  0.116357274776E+00
  0.116357274806E+00
  0.116357274806E+00
  0.116357274783E+00
  0.116357274783E+00
  0.116357274799E+00
  0.116357274799E+00
  0.116357274790E+00
  0.116357274790E+00
  0.116357274782E+00
  0.116357274782E+00
  0.116357274782E+00
  0.116357274782E+00
  0.116357274790E+00
  0.116357274790E+00
  0.116357274799E+00
  0.116357274799E+00
  0.116357274783E+00
  0.116357274783E+00
  0.116357274806E+00
  0.116357274806E+00
  0.116357274776E+00
  0.116357274776E+00
  0.116357274798E+00
  0.116357274798E+00
  0.116357274774E+00
  0.116357274774E+00
  0.116357274791E+00
  0.116357274791E+00
  0.116357274803E+00
  0.116357274803E+00
  0.116357274782E+00
  0.116357274782E+00
 -0.866637850315E-01
 -0.866637850315E-01
 -0.866637850432E-01
 -0.866637850432E-01
 -0.866637850364E-01
 -0.866637850364E-01
 -0.866637850267E-01
 -0.866637850267E-01
 -0.866637850406E-01
 -0.866637850406E-01
 -0.866637850282E-01
 -0.866637850282E-01
 -0.866637850427E-01
 -0.866637850427E-01
 -0.866637850425E-01
 -0.866637850424E-01
 -0.866637850377E-01
 -0.866637850347E-01
 -0.866642509481E-01
 -0.866638389725E-01
 -0.117672441209E+00
 -0.122126595086E+00
 -0.461741056363E-01
 -0.484629807104E-01
 -0.866627855172E-01
 -0.866637343443E-01
 -0.866637850272E-01
 -0.866637850336E-01
 -0.866637850421E-01
 -0.866637850424E-01
 -0.866637850426E-01
 -0.866637850426E-01
 -0.866637850282E-01
 -0.866637850282E-01
 -0.866637850406E-01
 -0.866637850406E-01
 -0.866637850266E-01
 -0.866637850266E-01
 -0.866637850364E-01
 -0.866637850364E-01
 -0.866637850432E-01
 -0.866637850432E-01
 -0.866637850315E-01
 -0.866637850315E-01
  0.116357274782E+00
  0.116357274782E+00
  0.116357274803E+00
  0.116357274803E+00
  0.116357274791E+00
  0.116357274791E+00
  0.116357274774E+00
  0.116357274774E+00
  0.116357274798E+00
  0.116357274798E+00
  0.116357274776E+00
  0.116357274776E+00
  0.116357274806E+00
  0.116357274806E+00
  0.116357274783E+00
  0.116357274783E+00
  0.116357274799E+00
  0.116357274799E+00
  0.116357274790E+00
  0.116357274790E+00
  0.116357274782E+00
  0.116357274782E+00
  0.116357274782E+00
  0.116357274782E+00
  0.116357274790E+00
  0.116357274790E+00
  0.116357274799E+00
  0.116357274799E+00
  0.116357274783E+00
  0.116357274783E+00
  0.116357274806E+00
  0.116357274806E+00
  0.116357274776E+00
  0.116357274776E+00
  0.116357274798E+00
  0.116357274798E+00
  0.116357274774E+00
  0.116357274774E+00
  0.116357274791E+00
  0.116357274791E+00
  0.116357274803E+00
  0.116357274803E+00
  0.116357274782E+00
  0.116357274782E+00
 -0.866637850315E-01
 -0.866637850315E-01