# vtk DataFile Version 3.0
MachLine results file. Generated by MachLine, USU AeroLab (c) 2022.
ASCII
DATASET POLYDATA
POINTS                3847 float
  0.999999533566E+00  0.000000000000E+00 -0.203260721043E-07
  0.986936813822E+00  0.512820512820E-01 -0.114243937225E-02
  0.999999571434E+00  0.512820512820E-01 -0.186758399879E-07
  0.986936813641E+00  0.000000000000E+00 -0.114243729785E-02
  0.969870633276E+00  0.512820512820E-01 -0.263551462626E-02
  0.969870632988E+00  0.000000000000E+00 -0.263551133652E-02
  0.947784990451E+00  0.512820512820E-01 -0.456772904277E-02
  0.947784990016E+00  0.000000000000E+00 -0.456772406882E-02
  0.919551395340E+00  0.512820512820E-01 -0.703781156060E-02
  0.919551394721E+00  0.000000000000E+00 -0.703780448438E-02
  0.884018056609E+00  0.512820512820E-01 -0.101465304796E-01
  0.884018055791E+00  0.000000000000E+00 -0.101465211355E-01
  0.840166796670E+00  0.512820512820E-01 -0.139829658665E-01
  0.840166795682E+00  0.000000000000E+00 -0.139829545724E-01
  0.787342589715E+00  0.512820512820E-01 -0.186044281892E-01
  0.787342588640E+00  0.000000000000E+00 -0.186044158978E-01
  0.725530687321E+00  0.512820512820E-01 -0.240122131272E-01
  0.725530686294E+00  0.000000000000E+00 -0.240122013893E-01
  0.655612585875E+00  0.512820512820E-01 -0.301292067376E-01
  0.655612585060E+00  0.000000000000E+00 -0.301291974251E-01
  0.579493880592E+00  0.512820512820E-01 -0.367886982470E-01
  0.579493880139E+00  0.000000000000E+00 -0.367886930746E-01
  0.500000000000E+00  0.512820512820E-01 -0.437435033352E-01
  0.500000000000E+00  0.000000000000E+00 -0.437436108249E-01
  0.420506119861E+00  0.000000000000E+00 -0.367886930746E-01
  0.420506119408E+00  0.512820512820E-01 -0.367886982470E-01
  0.344387414940E+00  0.000000000000E+00 -0.301291974251E-01
  0.344387414125E+00  0.512820512820E-01 -0.301292067376E-01
  0.274469313706E+00  0.000000000000E+00 -0.240122013893E-01
  0.274469312679E+00  0.512820512820E-01 -0.240122131272E-01
  0.212657411360E+00  0.000000000000E+00 -0.186044158978E-01
  0.212657410285E+00  0.512820512820E-01 -0.186044281892E-01
  0.159833204318E+00  0.000000000000E+00 -0.139829545724E-01
  0.159833203330E+00  0.512820512820E-01 -0.139829658665E-01
  0.115981944209E+00  0.000000000000E+00 -0.101465211355E-01
  0.115981943391E+00  0.512820512820E-01 -0.101465304796E-01
  0.804486052799E-01  0.000000000000E+00 -0.703780448438E-02
  0.804486046608E-01  0.512820512820E-01 -0.703781156060E-02
  0.522150099807E-01  0.000000000000E+00 -0.456772406882E-02
  0.522150095456E-01  0.512820512820E-01 -0.456772904277E-02
  0.301293670112E-01  0.000000000000E+00 -0.263551133652E-02
  0.301293667234E-01  0.512820512820E-01 -0.263551462626E-02
  0.130631863634E-01  0.000000000000E+00 -0.114243729785E-02
  0.130631861819E-01  0.512820512820E-01 -0.114243937225E-02
  0.468212736333E-06  0.000000000000E+00  0.000000000000E+00
  0.430199504323E-06  0.512820512820E-01  0.000000000000E+00
  0.130631861819E-01  0.512820512820E-01  0.114243937225E-02
  0.130631863634E-01  0.000000000000E+00  0.114243729785E-02
  0.301293667234E-01  0.512820512820E-01  0.263551462626E-02
  0.301293670112E-01  0.000000000000E+00  0.263551133652E-02
  0.522150095456E-01  0.512820512820E-01  0.456772904277E-02
  0.522150099807E-01  0.000000000000E+00  0.456772406882E-02
  0.804486046608E-01  0.512820512820E-01  0.703781156060E-02
  0.804486052799E-01  0.000000000000E+00  0.703780448438E-02
  0.115981943391E+00  0.512820512820E-01  0.101465304796E-01
  0.115981944209E+00  0.000000000000E+00  0.101465211355E-01
  0.159833203330E+00  0.512820512820E-01  0.139829658665E-01
  0.159833204318E+00  0.000000000000E+00  0.139829545724E-01
  0.212657410285E+00  0.512820512820E-01  0.186044281892E-01
  0.212657411360E+00  0.000000000000E+00  0.186044158978E-01
  0.274469312679E+00  0.512820512820E-01  0.240122131272E-01
  0.274469313706E+00  0.000000000000E+00  0.240122013893E-01
  0.344387414125E+00  0.512820512820E-01  0.301292067376E-01
  0.344387414940E+00  0.000000000000E+00  0.301291974251E-01
  0.420506119408E+00  0.512820512820E-01  0.367886982470E-01
  0.420506119861E+00  0.000000000000E+00  0.367886930746E-01
  0.500000000000E+00  0.512820512820E-01  0.437435033352E-01
  0.500000000000E+00  0.000000000000E+00  0.437436108249E-01
  0.579493880139E+00  0.000000000000E+00  0.367886930746E-01
  0.579493880592E+00  0.512820512820E-01  0.367886982470E-01
  0.655612585060E+00  0.000000000000E+00  0.301291974251E-01
  0.655612585875E+00  0.512820512820E-01  0.301292067376E-01
  0.725530686294E+00  0.000000000000E+00  0.240122013893E-01
  0.725530687321E+00  0.512820512820E-01  0.240122131272E-01
  0.787342588640E+00  0.000000000000E+00  0.186044158978E-01
  0.787342589715E+00  0.512820512820E-01  0.186044281892E-01
  0.840166795682E+00  0.000000000000E+00  0.139829545724E-01
  0.840166796670E+00  0.512820512820E-01  0.139829658665E-01
  0.884018055791E+00  0.000000000000E+00  0.101465211355E-01
  0.884018056609E+00  0.512820512820E-01  0.101465304796E-01
  0.919551394721E+00  0.000000000000E+00  0.703780448438E-02
  0.919551395340E+00  0.512820512820E-01  0.703781156060E-02
  0.947784990016E+00  0.000000000000E+00  0.456772406882E-02
  0.947784990451E+00  0.512820512820E-01  0.456772904277E-02
  0.969870632988E+00  0.000000000000E+00  0.263551133652E-02
  0.969870633276E+00  0.512820512820E-01  0.263551462626E-02
  0.986936813641E+00  0.000000000000E+00  0.114243729785E-02
  0.986936813822E+00  0.512820512820E-01  0.114243937225E-02
  0.986936813822E+00  0.102564102560E+00 -0.114243937225E-02
  0.999999571434E+00  0.102564102560E+00 -0.186758399904E-07
  0.969870633276E+00  0.102564102560E+00 -0.263551462626E-02
  0.947784990451E+00  0.102564102560E+00 -0.456772904277E-02
  0.919551395340E+00  0.102564102560E+00 -0.703781156060E-02
  0.884018056609E+00  0.102564102560E+00 -0.101465304796E-01
  0.840166796670E+00  0.102564102560E+00 -0.139829658665E-01
  0.787342589715E+00  0.102564102560E+00 -0.186044281892E-01
  0.725530687321E+00  0.102564102560E+00 -0.240122131272E-01
  0.655612585875E+00  0.102564102560E+00 -0.301292067376E-01
  0.579493880592E+00  0.102564102560E+00 -0.367886982470E-01
  0.500000000000E+00  0.102564102560E+00 -0.437435033352E-01
  0.420506119408E+00  0.102564102560E+00 -0.367886982470E-01
  0.344387414125E+00  0.102564102560E+00 -0.301292067376E-01
  0.274469312679E+00  0.102564102560E+00 -0.240122131272E-01
  0.212657410285E+00  0.102564102560E+00 -0.186044281892E-01
  0.159833203330E+00  0.102564102560E+00 -0.139829658665E-01
  0.115981943391E+00  0.102564102560E+00 -0.101465304796E-01
  0.804486046608E-01  0.102564102560E+00 -0.703781156060E-02
  0.522150095456E-01  0.102564102560E+00 -0.456772904277E-02
  0.301293667234E-01  0.102564102560E+00 -0.263551462626E-02
  0.130631861819E-01  0.102564102560E+00 -0.114243937225E-02
  0.430199504380E-06  0.102564102560E+00  0.000000000000E+00
  0.130631861819E-01  0.102564102560E+00  0.114243937225E-02
  0.301293667234E-01  0.102564102560E+00  0.263551462626E-02
  0.522150095456E-01  0.102564102560E+00  0.456772904277E-02
  0.804486046608E-01  0.102564102560E+00  0.703781156060E-02
  0.115981943391E+00  0.102564102560E+00  0.101465304796E-01
  0.159833203330E+00  0.102564102560E+00  0.139829658665E-01
  0.212657410285E+00  0.102564102560E+00  0.186044281892E-01
  0.274469312679E+00  0.102564102560E+00  0.240122131272E-01
  0.344387414125E+00  0.102564102560E+00  0.301292067376E-01
  0.420506119408E+00  0.102564102560E+00  0.367886982470E-01
  0.500000000000E+00  0.102564102560E+00  0.437435033352E-01
  0.579493880592E+00  0.102564102560E+00  0.367886982470E-01
  0.655612585875E+00  0.102564102560E+00  0.301292067376E-01
  0.725530687321E+00  0.102564102560E+00  0.240122131272E-01
  0.787342589715E+00  0.102564102560E+00  0.186044281892E-01
  0.840166796670E+00  0.102564102560E+00  0.139829658665E-01
  0.884018056609E+00  0.102564102560E+00  0.101465304796E-01
  0.919551395340E+00  0.102564102560E+00  0.703781156060E-02
  0.947784990451E+00  0.102564102560E+00  0.456772904277E-02
  0.969870633276E+00  0.102564102560E+00  0.263551462626E-02
  0.986936813822E+00  0.102564102560E+00  0.114243937225E-02
  0.986936813822E+00  0.153846153850E+00 -0.114243937225E-02
  0.999999571434E+00  0.153846153850E+00 -0.186758399890E-07
  0.969870633276E+00  0.153846153850E+00 -0.263551462626E-02
  0.947784990451E+00  0.153846153850E+00 -0.456772904277E-02
  0.919551395340E+00  0.153846153850E+00 -0.703781156060E-02
  0.884018056609E+00  0.153846153850E+00 -0.101465304796E-01
  0.840166796670E+00  0.153846153850E+00 -0.139829658665E-01
  0.787342589715E+00  0.153846153850E+00 -0.186044281892E-01
  0.725530687321E+00  0.153846153850E+00 -0.240122131272E-01
  0.655612585875E+00  0.153846153850E+00 -0.301292067376E-01
  0.579493880592E+00  0.153846153850E+00 -0.367886982470E-01
  0.500000000000E+00  0.153846153850E+00 -0.437435033352E-01
  0.420506119408E+00  0.153846153850E+00 -0.367886982470E-01
  0.344387414125E+00  0.153846153850E+00 -0.301292067376E-01
  0.274469312679E+00  0.153846153850E+00 -0.240122131272E-01
  0.212657410285E+00  0.153846153850E+00 -0.186044281892E-01
  0.159833203330E+00  0.153846153850E+00 -0.139829658665E-01
  0.115981943391E+00  0.153846153850E+00 -0.101465304796E-01
  0.804486046608E-01  0.153846153850E+00 -0.703781156060E-02
  0.522150095456E-01  0.153846153850E+00 -0.456772904277E-02
  0.301293667234E-01  0.153846153850E+00 -0.263551462626E-02
  0.130631861819E-01  0.153846153850E+00 -0.114243937225E-02
  0.430199504348E-06  0.153846153850E+00  0.000000000000E+00
  0.130631861819E-01  0.153846153850E+00  0.114243937225E-02
  0.301293667234E-01  0.153846153850E+00  0.263551462626E-02
  0.522150095456E-01  0.153846153850E+00  0.456772904277E-02
  0.804486046608E-01  0.153846153850E+00  0.703781156060E-02
  0.115981943391E+00  0.153846153850E+00  0.101465304796E-01
  0.159833203330E+00  0.153846153850E+00  0.139829658665E-01
[...]
POINT_DATA                3847
SCALARS phi float 1
LOOKUP_TABLE default
 -0.693889390391E-17
 -0.190819582357E-16
  0.693889390391E-17
  0.693889390391E-17
 -0.711236625150E-16
 -0.234187669257E-16
 -0.451028103754E-16
  0.737257477290E-16
  0.550774703623E-16
 -0.867361737988E-17
 -0.235271871429E-16
  0.164798730218E-15
  0.442354486374E-16
  0.152655665886E-15
  0.216840434497E-16
  0.338271077815E-16
 -0.607153216592E-16
 -0.138777878078E-16
  0.201227923213E-15
 -0.208166817117E-16
  0.312250225676E-16
 -0.232452945781E-15
 -0.346944695195E-17
  0.659194920871E-16
 -0.281025203108E-15
  0.000000000000E+00
  0.346944695195E-17
  0.104083408559E-16
  0.346944695195E-17
  0.190819582357E-14
 -0.173472347598E-17
  0.173472347598E-17
  0.815320033709E-16
  0.334801630864E-15
 -0.260208521397E-17
 -0.138777878078E-16
  0.433680868994E-18
  0.433680868994E-18
  0.000000000000E+00
  0.216840434497E-18
  0.000000000000E+00
 -0.216840434497E-18
 -0.108420217249E-18
  0.000000000000E+00
  0.000000000000E+00
 -0.330872245021E-23
  0.542101086243E-19
  0.542101086243E-19
 -0.216840434497E-18
  0.000000000000E+00
  0.216840434497E-18
 -0.216840434497E-18
  0.000000000000E+00
  0.130104260698E-17
  0.867361737988E-18
  0.173472347598E-17
  0.173472347598E-17
  0.173472347598E-17
  0.104083408559E-16
  0.398986399475E-16
  0.688685219963E-15
 -0.612357387020E-15
  0.607153216592E-16
  0.943689570931E-15
 -0.711236625150E-15
 -0.346944695195E-17
  0.346944695195E-17
  0.693889390391E-17
  0.659194920871E-16
  0.104083408559E-16
  0.294902990916E-16
  0.329597460436E-16
  0.641847686111E-16
  0.398986399475E-16
 -0.442354486374E-16
 -0.407660016855E-16
  0.273218947466E-15
  0.754604712050E-16
 -0.758941520740E-18
  0.446691295064E-16
  0.420670442924E-16
 -0.203830008427E-16
  0.780625564190E-17
  0.173472347598E-17
  0.164798730218E-16
 -0.624500451352E-16
 -0.520417042793E-17
  0.173472347598E-16
  0.659194920871E-16
  0.173472347598E-17
  0.172604985860E-15
  0.118828558104E-15
 -0.307913416986E-16
 -0.528006458000E-16
  0.196457433654E-15
 -0.346944695195E-16
  0.693889390391E-16
  0.190819582357E-16
 -0.253269627493E-15
 -0.346944695195E-17
 -0.225514051877E-15
 -0.277555756156E-16
  0.520417042793E-17
 -0.346944695195E-17
 -0.389445420357E-15
  0.260208521397E-17
  0.000000000000E+00
  0.000000000000E+00
  0.216840434497E-18
  0.542101086243E-19
  0.330872245021E-23
  0.000000000000E+00
  0.000000000000E+00
 -0.650521303491E-18
  0.000000000000E+00
  0.260208521397E-17
  0.693889390391E-17
  0.175033598726E-14
  0.346944695195E-17
  0.000000000000E+00
 -0.104083408559E-16
  0.138777878078E-16
 -0.111022302463E-15
  0.225514051877E-16
 -0.468375338514E-16
 -0.451028103754E-16
 -0.143548367637E-15
  0.108420217249E-16
  0.867361737988E-17
 -0.867361737988E-17
 -0.260208521397E-16
  0.104083408559E-16
 -0.294902990916E-16
 -0.867361737988E-17
  0.146584133720E-15
 -0.125767452008E-15
  0.594142790522E-16
 -0.236464493819E-15
  0.884708972748E-16
  0.277555756156E-16
  0.298372437868E-15
  0.398986399475E-16
  0.104083408559E-16
 -0.208166817117E-16
 -0.242861286637E-16
  0.433680868994E-16
 -0.520417042793E-17
 -0.456232274182E-15
  0.867361737988E-18
 -0.395516952523E-15
  0.433680868994E-18
  0.216840434497E-18
  0.216840434497E-18
  0.000000000000E+00
  0.330872245021E-23
  0.000000000000E+00
  0.216840434497E-18
  0.867361737988E-18
  0.433680868994E-18
  0.867361737988E-18
 -0.867361737988E-18
 -0.421537804662E-15
  0.520417042793E-17
 -0.485722573274E-16
  0.208166817117E-16
 -0.520417042793E-16
 -0.104083408559E-15
  0.000000000000E+00
 -0.902056207508E-16
 -0.146584133720E-15
  0.806646416329E-16
  0.145066250679E-15
  0.120996962449E-15
  0.303576608296E-16
  0.980118763927E-16
  0.867361737988E-17
 -0.711236625150E-16
  0.346944695195E-17
 -0.139645239816E-15
 -0.128369537222E-15
 -0.163931368480E-15
 -0.599563801384E-16
 -0.200360561475E-15
  0.503069808033E-16
 -0.884708972748E-16
 -0.260208521397E-16
  0.242861286637E-16
 -0.624500451352E-16
  0.152655665886E-15
 -0.346944695195E-17
  0.346944695195E-17
 -0.360822483003E-15
  0.693889390391E-17
 -0.329597460436E-16
 -0.433680868994E-18
 -0.650521303491E-18
 -0.216840434497E-18
 -0.108420217249E-18
  0.330872245021E-23
  0.542101086243E-19
  0.000000000000E+00
  0.216840434497E-18
  0.867361737988E-18
  0.000000000000E+00
 -0.173472347598E-16
 -0.105124242644E-14
  0.312250225676E-16
  0.138777878078E-16
 -0.173472347598E-16
  0.208166817117E-16
  0.485722573274E-16
 -0.227248775353E-15
 -0.693889390391E-17
  0.135308431126E-15
  0.127068494615E-15
  0.995297594342E-16
  0.520417042793E-17
  0.867361737988E-18
  0.355618312575E-16
  0.104083408559E-16
 -0.138777878078E-16
  0.346944695195E-16
  0.139645239816E-15
 -0.150053580672E-15
 -0.897719398818E-16
 -0.138777878078E-16
 -0.169569219777E-15
 -0.745931094670E-16
  0.114491749414E-15
 -0.555111512313E-16
 -0.124900090270E-15
  0.242861286637E-16
 -0.346944695195E-17
 -0.867361737988E-17
  0.000000000000E+00
 -0.104083408559E-16
  0.141379963292E-15
 -0.433680868994E-17
  0.433680868994E-18
 -0.433680868994E-18
  0.000000000000E+00
 -0.542101086243E-19
  0.330872245021E-23
 -0.542101086243E-19
  0.000000000000E+00
  0.433680868994E-18
 -0.433680868994E-18
 -0.867361737988E-18
  0.607153216592E-17
  0.237657116209E-15
 -0.121430643318E-16
  0.451028103754E-16
 -0.131838984174E-15
  0.485722573274E-16
  0.232452945781E-15
  0.936750677027E-16
 -0.607153216592E-16
 -0.928077059648E-16
  0.420670442924E-16
  0.269966340949E-16
  0.299239799606E-16
  0.145716771982E-15
  0.106685493773E-15
  0.190819582357E-16
  0.659194920871E-16
 -0.398986399475E-16
  0.346944695195E-16
  0.255004350969E-15
  0.496130914129E-15
  0.129236898960E-15
  0.715573433840E-16
  0.511743425413E-16
  0.745931094670E-16
 -0.178676518026E-15
 -0.659194920871E-16
  0.145716771982E-15
 -0.451028103754E-15
  0.624500451352E-16
 -0.346944695195E-17
  0.718175519054E-15
 -0.260208521397E-17
 -0.954097911787E-17
 -0.433680868994E-18
 -0.216840434497E-18
  0.433680868994E-18
  0.000000000000E+00
  0.661744490042E-23
  0.000000000000E+00
  0.000000000000E+00
 -0.216840434497E-18
  0.000000000000E+00
  0.173472347598E-17
  0.000000000000E+00
 -0.589805981832E-16
 -0.173472347598E-17
 -0.173472347598E-16
  0.381639164715E-16
 -0.589805981832E-16
 -0.763278329430E-16
  0.152655665886E-15
 -0.763278329430E-16
 -0.124032728532E-15
 -0.359087759527E-15
  0.124683249836E-16
  0.446691295064E-16
  0.122298005056E-15
  0.563785129692E-16
 -0.208166817117E-16
 -0.624500451352E-16
  0.277555756156E-16
  0.910729824888E-16
 -0.352148865623E-15
  0.341306843898E-15
 -0.207299455379E-15
 -0.385975973405E-16
  0.355618312575E-15
 -0.178676518026E-15
  0.225514051877E-16
  0.555111512313E-16
 -0.114491749414E-15
 -0.208166817117E-16
 -0.190819582357E-16
 -0.138777878078E-16
  0.130798150089E-14
 -0.867361737988E-18
  0.928077059648E-16
  0.910729824888E-17
  0.195156391047E-17
 -0.216840434497E-18
  0.216840434497E-18
  0.125200227793E-15
  0.000000000000E+00
  0.000000000000E+00
  0.433680868994E-18
 -0.433680868994E-18
 -0.433680868994E-17
  0.867361737988E-18
 -0.173472347598E-14
  0.126634813746E-15
 -0.121430643318E-16
 -0.277555756156E-16
  0.659194920871E-16
 -0.170002900646E-15
 -0.398986399475E-16
  0.815320033709E-16
  0.300107161344E-15
 -0.339138439553E-15
 -0.150162000889E-15
 -0.275821032680E-15
 -0.244596010113E-15
 -0.216840434497E-15
 -0.503069808033E-16
 -0.693889390391E-17
 -0.117961196366E-15
  0.919403442268E-16
  0.667868538251E-16
  0.166533453694E-15
  0.135525271561E-16
 -0.390312782095E-15
 -0.298372437868E-15
 -0.112757025938E-15
  0.612357387020E-15
 -0.346944695195E-17
  0.138777878078E-16
  0.000000000000E+00
  0.693889390391E-17
  0.520417042793E-17
  0.919403442268E-16
  0.685215773011E-16
 -0.138777878078E-16
 -0.125767452008E-16
 -0.160461921528E-16
 -0.823993651089E-17
  0.325260651746E-18
  0.339441568161E-15
 -0.281892564846E-17
 -0.411996825544E-17
 -0.455364912444E-17
 -0.390312782095E-17
  0.520417042793E-17
 -0.216840434497E-16
  0.862157567560E-15
  0.173472347598E-16
  0.398986399475E-16
 -0.138777878078E-16
 -0.242861286637E-15
 -0.131838984174E-15
 -0.287964097012E-15
 -0.555111512313E-16
  0.130971622436E-15
  0.359955121265E-15
 -0.768699340292E-16
 -0.167400815432E-15
 -0.184748050192E-15
 -0.520417042793E-17
 -0.867361737988E-17
 -0.693889390391E-17
  0.168268177170E-15
  0.737257477290E-16
  0.319189119580E-15
 -0.325694332615E-15
 -0.199493199737E-15
 -0.101481323345E-15
 -0.806646416329E-16
  0.348679418671E-15
 -0.147451495458E-15
 -0.163064006742E-15
 -0.100613961607E-15
 -0.527355936697E-15
 -0.364291929955E-16
 -0.173472347598E-17
 -0.173472347598E-17
  0.719910242530E-16
 -0.216840434497E-16
  0.607153216592E-17
 -0.121430643318E-16
 -0.477048955894E-17
  0.178893358460E-17
 -0.279505278585E-15
 -0.596311194867E-18
 -0.108420217249E-17
 -0.145283091113E-16
  0.151788304148E-16
  0.520417042793E-17
  0.000000000000E+00
 -0.312250225676E-15
  0.572458747072E-16
  0.381639164715E-16
  0.832667268469E-16
  0.763278329430E-16
  0.936750677027E-16
  0.641847686111E-16
 -0.745931094670E-16
 -0.572458747072E-16
 -0.160461921528E-16
  0.478675259152E-15
  0.563785129692E-16
  0.198625837999E-15
  0.187350135405E-15
 -0.520417042793E-17
  0.346944695195E-16
  0.260208521397E-16
 -0.277555756156E-15
 -0.195156391047E-15
  0.114491749414E-15
 -0.233211887302E-15
 -0.171737624122E-15
 -0.667868538251E-16
 -0.138777878078E-16
 -0.156125112838E-16
  0.451028103754E-16
  0.111022302463E-15
 -0.242861286637E-16
  0.607153216592E-16
 -0.589805981832E-16
 -0.346944695195E-16
  0.118828558104E-15
  0.112757025938E-16
 -0.433680868994E-17
 -0.954097911787E-17
 -0.195156391047E-17
 -0.401154803820E-17
  0.330872245021E-22
 -0.249366499672E-17
 -0.650521303491E-17
 -0.997465998687E-17
 -0.780625564190E-17
 -0.780625564190E-17
  0.000000000000E+00
 -0.189084858881E-15
 -0.208166817117E-16
  0.190819582357E-16
 -0.346944695195E-16
  0.728583859910E-16
 -0.555111512313E-16
  0.138777878078E-16
  0.156125112838E-16
 -0.156992474576E-15
 -0.257606436183E-15
 -0.778457159845E-16
  0.212503625807E-16
  0.174339709336E-15
  0.702563007771E-16
 -0.173472347598E-17
 -0.260208521397E-16
  0.142247325030E-15
  0.433680868994E-17
  0.263677968348E-15
 -0.533427468863E-16
  0.393240127960E-15
  0.550774703623E-16
 -0.511743425413E-16
  0.000000000000E+00
  0.242861286637E-16
  0.346944695195E-15
 -0.589805981832E-16
  0.208166817117E-16
 -0.641847686111E-15
  0.520417042793E-17
  0.225514051877E-16
 -0.233320307519E-15
 -0.121430643318E-16
 -0.173472347598E-17
  0.867361737988E-18
 -0.433680868994E-18
 -0.216840434497E-18
 -0.330872245021E-23
  0.000000000000E+00
 -0.650521303491E-18
 -0.216840434497E-18
 -0.260208521397E-17
  0.173472347598E-17
 -0.228983498829E-15
  0.867361737988E-17
 -0.470110061990E-15
  0.867361737988E-17
  0.249800180541E-15
  0.104083408559E-15
 -0.173472347598E-15
  0.104083408559E-15
  0.206432093641E-15
  0.954097911787E-16
  0.275387351811E-15
 -0.136284213081E-15
  0.190819582357E-15
 -0.163931368480E-15
 -0.208166817117E-16
  0.135308431126E-15
  0.589805981832E-16
  0.988792381307E-16
  0.214238349283E-15
  0.158727198052E-15
  0.184314369323E-15
  0.339030019336E-15
 -0.724247051220E-16
  0.329597460436E-16
 -0.520417042793E-17
  0.386843335143E-15
 -0.107552855511E-15
 -0.180411241502E-15
 -0.728583859910E-16
 -0.780625564190E-16
 -0.346944695195E-16
 -0.520417042793E-17
 -0.262810606610E-15
 -0.607153216592E-17
  0.433680868994E-18
  0.238524477947E-17
 -0.650521303491E-18
 -0.813151629364E-18
 -0.198523347013E-22
 -0.867361737988E-18
 -0.867361737988E-18
  0.216840434497E-17
  0.433680868994E-17
 -0.260208521397E-17
  0.780625564190E-17
 -0.541233724505E-15
 -0.138777878078E-16
  0.246330733589E-15
 -0.114491749414E-15
  0.565519853168E-15
  0.149186218934E-15
 -0.268882138776E-15
  0.884708972748E-16
 -0.214238349283E-15
  0.624500451352E-16
  0.520417042793E-17
 -0.182145964978E-15
  0.352148865623E-15
 -0.219442519711E-15
  0.589805981832E-16
 -0.728583859910E-16
  0.693889390391E-17
 -0.173472347598E-16
 -0.425007251614E-16
 -0.620163642662E-16
 -0.108420217249E-15
  0.555111512313E-16
  0.147451495458E-15
  0.121430643318E-15
  0.520417042793E-17
 -0.381639164715E-16
 -0.371230823859E-15
  0.277555756156E-16
 -0.173472347598E-17
  0.242861286637E-16
 -0.513478148889E-15
  0.260208521397E-17
 -0.988792381307E-16
 -0.433680868994E-17
  0.303576608296E-17
  0.000000000000E+00
  0.216840434497E-18
  0.330872245021E-23
  0.000000000000E+00
  0.000000000000E+00
  0.260208521397E-17
 -0.260208521397E-17
 -0.260208521397E-17
  0.173472347598E-17
  0.289698820488E-15
 -0.329597460436E-16
  0.260208521397E-16
  0.149186218934E-15
 -0.971445146547E-16
  0.520417042793E-16
  0.135308431126E-15
 -0.381639164715E-16
  0.101481323345E-15
  0.472278466335E-15
 -0.153848288276E-15
 -0.503069808033E-16
 -0.211636264069E-15
 -0.158727198052E-15
  0.503069808033E-16
 -0.124900090270E-15
  0.936750677027E-16
 -0.771951946810E-16
 -0.693889390391E-16
 -0.242861286637E-16
  0.578963960107E-16
  0.160895602397E-15
 -0.112757025938E-16
 -0.346944695195E-17
 -0.395516952523E-15
  0.000000000000E+00
 -0.173472347598E-16
  0.149186218934E-15
  0.225514051877E-16
  0.867361737988E-17
  0.551642065361E-15
 -0.130104260698E-16
 -0.112757025938E-16
  0.173472347598E-17
  0.216840434497E-18
  0.216840434497E-18
 -0.108420217249E-18
 -0.330872245021E-23
  0.000000000000E+00
 -0.216840434497E-18
  0.216840434497E-18
  0.130104260698E-17
 -0.346944695195E-17
 -0.159594559790E-15
 -0.121430643318E-16
 -0.532560107125E-15
  0.173472347598E-17
  0.159594559790E-15
  0.222044604925E-15
 -0.128369537222E-15
 -0.121430643318E-15
  0.109287578987E-15
 -0.650521303491E-16
 -0.262376925741E-15
 -0.565953534037E-16
 -0.203830008427E-16
 -0.520417042793E-17
 -0.451028103754E-16
  0.109287578987E-15
 -0.173472347598E-17
  0.138430933383E-14
  0.112757025938E-15
 -0.676542155631E-16
 -0.411996825544E-16
  0.802309607639E-16
  0.945424294407E-16
  0.124900090270E-15
 -0.190819582357E-15
  0.249800180541E-15
  0.346944695195E-16
  0.485722573274E-16
 -0.346944695195E-16
 -0.100613961607E-15
  0.173472347598E-16
 -0.589805981832E-16
  0.173472347598E-17
 -0.533427468863E-15
  0.000000000000E+00
  0.433680868994E-18
  0.216840434497E-18
  0.000000000000E+00
 -0.330872245021E-23
  0.000000000000E+00
  0.000000000000E+00
  0.433680868994E-18
 -0.433680868994E-18
  0.433680868994E-17
  0.260208521397E-17
 -0.346944695195E-16
  0.173472347598E-16
 -0.381639164715E-16
 -0.149186218934E-15
  0.388578058619E-15
  0.693889390391E-17
 -0.334801630864E-15
  0.433680868994E-16
 -0.563785129692E-16
  0.954097911787E-17
 -0.193530087789E-15
 -0.185181731061E-15
 -0.980118763927E-16
 -0.823993651089E-16
 -0.971445146547E-16
 -0.676542155631E-16
  0.110050857316E-13
 -0.431946145518E-15
  0.176074432812E-15
  0.105818132035E-15
  0.183772268236E-15
 -0.536029554077E-15
  0.221177243187E-15
 -0.249800180541E-15
 -0.170002900646E-15
 -0.235922392733E-15
  0.277555756156E-16
 -0.173472347598E-15
  0.346944695195E-17
  0.693889390391E-17
 -0.950628464835E-15
 -0.121430643318E-16
 -0.346944695195E-16
  0.433680868994E-18
  0.000000000000E+00
  0.216840434497E-18
  0.000000000000E+00
  0.000000000000E+00
  0.000000000000E+00
  0.000000000000E+00
  0.000000000000E+00
 -0.433680868994E-18
  0.173472347598E-17
 -0.104083408559E-16
 -0.407660016855E-15
 -0.607153216592E-16
  0.135308431126E-15
  0.728583859910E-16
  0.763278329430E-16
  0.138777878078E-15
  0.867361737988E-16
 -0.235922392733E-15
  0.841340885849E-16
 -0.630571983518E-15
 -0.301733464603E-15
  0.784962372880E-16
  0.902056207508E-16
 -0.130971622436E-15
 -0.152655665886E-15
 -0.213370987545E-15
  0.437167663181E-13
 -0.763278329430E-16
 -0.433680868994E-15
 -0.111889664201E-15
  0.236139233167E-15
 -0.129670579829E-15
  0.286229373536E-15
 -0.850014503229E-16
 -0.166533453694E-15
 -0.346944695195E-16
 -0.232452945781E-15
 -0.187350135405E-15
  0.867361737988E-17
 -0.346944695195E-17
  0.190819582357E-15
 -0.693889390391E-17
  0.112757025938E-16
  0.867361737988E-18
  0.433680868994E-18
 -0.216840434497E-18
  0.542101086243E-19
  0.330872245021E-23
  0.000000000000E+00
 -0.216840434497E-18
  0.650521303491E-18
 -0.433680868994E-18
 -0.173472347598E-17
  0.693889390391E-17
 -0.889913143176E-15
  0.294902990916E-16
 -0.693889390391E-16
  0.197758476261E-15
  0.173472347598E-15
  0.000000000000E+00
 -0.135308431126E-15
  0.154390389362E-15
  0.113624387676E-15
  0.810983225019E-16
  0.162521905656E-15
 -0.370797142990E-15
 -0.340873163029E-15
  0.364291929955E-16
  0.607153216592E-16
 -0.867361737988E-16
  0.877804773314E-13
  0.131838984174E-15
 -0.198625837999E-15
 -0.160461921528E-16
 -0.878203759713E-17
  0.667868538251E-16
  0.286229373536E-15
 -0.919403442268E-16
 -0.346944695195E-16
 -0.222044604925E-15
 -0.124900090270E-15
  0.166533453694E-15
  0.190819582357E-16
  0.520417042793E-17
  0.867361737988E-17
 -0.158727198052E-14
 -0.867361737988E-18
  0.433680868994E-18
  0.216840434497E-18
  0.000000000000E+00
  0.000000000000E+00
  0.661744490042E-23
 -0.542101086243E-19
  0.000000000000E+00
  0.000000000000E+00
 -0.433680868994E-18
 -0.433680868994E-17
  0.000000000000E+00
  0.187350135405E-15
  0.173472347598E-16
  0.867361737988E-17
 -0.166533453694E-15
  0.208166817117E-15
  0.624500451352E-16
  0.300107161344E-15
  0.138777878078E-16
 -0.572458747072E-16
 -0.478783679370E-15
 -0.243511807940E-15
  0.130104260698E-17
 -0.442354486374E-16
  0.425007251614E-15
 -0.116226472890E-15
  0.206432093641E-15
  0.129216082279E-12
 -0.607153216592E-17
  0.376434994287E-15
 -0.823993651089E-16
 -0.103758147907E-15
 -0.494396190653E-15
 -0.303576608296E-15
 -0.327862736960E-15
  0.164798730218E-15
  0.239391839685E-15
  0.322658566532E-15
 -0.312250225676E-16
  0.364291929955E-16
 -0.173472347598E-17
 -0.867361737988E-17
  0.102791039569E-13
  0.104083408559E-16
  0.433680868994E-18
  0.216840434497E-18
 -0.216840434497E-18
  0.542101086243E-19
  0.000000000000E+00
  0.000000000000E+00
  0.216840434497E-18
  0.650521303491E-18
  0.433680868994E-18
  0.260208521397E-17
  0.867361737988E-18
  0.262637134263E-14
  0.520417042793E-17
 -0.346944695195E-17
  0.346944695195E-16
 -0.395516952523E-15
 -0.131838984174E-15
 -0.159594559790E-15
  0.142247325030E-15
  0.533427468863E-15
 -0.167400815432E-15
 -0.515646553234E-15
  0.121864324187E-15
 -0.693889390391E-16
  0.106685493773E-15
  0.641847686111E-16
  0.175207071074E-15
 -0.520417042793E-17
  0.184748050192E-15
 -0.575060832286E-15
 -0.249366499672E-15
 -0.222261445360E-15
 -0.367327696038E-15
  0.962771529167E-16
 -0.150920942410E-15
  0.170002900646E-15
  0.832667268469E-16
  0.322658566532E-15
  0.416333634234E-16
  0.161329283266E-15
 -0.346944695195E-17
 -0.140287087502E-13
  0.000000000000E+00
 -0.867361737988E-18
  0.000000000000E+00
 -0.216840434497E-18
  0.216840434497E-18
  0.542101086243E-19
  0.330872245021E-23
  0.000000000000E+00
  0.000000000000E+00
  0.000000000000E+00
  0.000000000000E+00
  0.173472347598E-17
  0.235722899533E-13
 -0.121430643318E-16
 -0.173472347598E-17
  0.693889390391E-17
 -0.451028103754E-16
  0.451028103754E-16
 -0.131838984174E-15
 -0.196023752785E-15
  0.242861286637E-16
 -0.962771529167E-16
 -0.389879101226E-15
  0.280916782891E-15
  0.184314369323E-15
 -0.367761376907E-15
 -0.401588484689E-15
 -0.138777878078E-16
 -0.104083408559E-16
 -0.398413940728E-12
  0.789299181569E-16
 -0.195156391047E-15
 -0.194722710178E-15
 -0.330247981739E-15
 -0.137043154602E-15
  0.111889664201E-15
  0.676542155631E-16
 -0.234187669257E-15
  0.343475248243E-15
 -0.249800180541E-15
  0.277555756156E-16
 -0.416333634234E-16
  0.867361737988E-17
  0.151229723189E-12
  0.867361737988E-18
 -0.823993651089E-16
  0.000000000000E+00
  0.867361737988E-18
  0.000000000000E+00
 -0.542101086243E-19
  0.330872245021E-23
 -0.542101086243E-19