# vtk DataFile Version 3.0
MachLine results file. Generated by MachLine, USU AeroLab (c) 2022.
ASCII
DATASET POLYDATA
POINTS                1127 float
  0.999999041957E+00  0.000000000000E+00 -0.417491494650E-07
  0.973034383663E+00  0.105263157890E+00 -0.235825883963E-02
  0.999999119618E+00  0.105263157890E+00 -0.383648804671E-07
  0.973034382832E+00  0.000000000000E+00 -0.235824933777E-02
  0.929717675664E+00  0.105263157890E+00 -0.614787723533E-02
  0.929717673943E+00  0.000000000000E+00 -0.614785756087E-02
  0.863184699151E+00  0.105263157890E+00 -0.119686097007E-01
  0.863184696324E+00  0.000000000000E+00 -0.119685773901E-01
  0.767714125425E+00  0.105263157890E+00 -0.203210244768E-01
  0.767714122072E+00  0.000000000000E+00 -0.203209861486E-01
  0.643290413741E+00  0.105263157890E+00 -0.312065343397E-01
  0.643290411360E+00  0.000000000000E+00 -0.312065071268E-01
  0.500000000000E+00  0.105263157890E+00 -0.437427648440E-01
  0.500000000000E+00  0.000000000000E+00 -0.437429617072E-01
  0.356709588640E+00  0.000000000000E+00 -0.312065071268E-01
  0.356709586259E+00  0.105263157890E+00 -0.312065343397E-01
  0.232285877928E+00  0.000000000000E+00 -0.203209861486E-01
  0.232285874575E+00  0.105263157890E+00 -0.203210244768E-01
  0.136815303676E+00  0.000000000000E+00 -0.119685773901E-01
  0.136815300849E+00  0.105263157890E+00 -0.119686097007E-01
  0.702823260562E-01  0.000000000000E+00 -0.614785756087E-02
  0.702823243349E-01  0.105263157890E+00 -0.614787723533E-02
  0.269656171711E-01  0.000000000000E+00 -0.235824933777E-02
  0.269656163398E-01  0.105263157890E+00 -0.235825883963E-02
  0.961695078561E-06  0.000000000000E+00  0.000000000000E+00
  0.883738164913E-06  0.105263157890E+00  0.000000000000E+00
  0.269656163398E-01  0.105263157890E+00  0.235825883963E-02
  0.269656171711E-01  0.000000000000E+00  0.235824933777E-02
  0.702823243349E-01  0.105263157890E+00  0.614787723533E-02
  0.702823260562E-01  0.000000000000E+00  0.614785756087E-02
  0.136815300849E+00  0.105263157890E+00  0.119686097007E-01
  0.136815303676E+00  0.000000000000E+00  0.119685773901E-01
  0.232285874575E+00  0.105263157890E+00  0.203210244768E-01
  0.232285877928E+00  0.000000000000E+00  0.203209861486E-01
  0.356709586259E+00  0.105263157890E+00  0.312065343397E-01
  0.356709588640E+00  0.000000000000E+00  0.312065071268E-01
  0.500000000000E+00  0.105263157890E+00  0.437427648440E-01
  0.500000000000E+00  0.000000000000E+00  0.437429617072E-01
  0.643290411360E+00  0.000000000000E+00  0.312065071268E-01
  0.643290413741E+00  0.105263157890E+00  0.312065343397E-01
  0.767714122072E+00  0.000000000000E+00  0.203209861486E-01
  0.767714125425E+00  0.105263157890E+00  0.203210244768E-01
  0.863184696324E+00  0.000000000000E+00  0.119685773901E-01
  0.863184699151E+00  0.105263157890E+00  0.119686097007E-01
  0.929717673943E+00  0.000000000000E+00  0.614785756087E-02
  0.929717675664E+00  0.105263157890E+00  0.614787723533E-02
  0.973034382832E+00  0.000000000000E+00  0.235824933777E-02
  0.973034383663E+00  0.105263157890E+00  0.235825883963E-02
  0.973034383663E+00  0.210526315790E+00 -0.235825883963E-02
  0.999999119618E+00  0.210526315790E+00 -0.383648804656E-07
  0.929717675664E+00  0.210526315790E+00 -0.614787723533E-02
  0.863184699151E+00  0.210526315790E+00 -0.119686097007E-01
  0.767714125425E+00  0.210526315790E+00 -0.203210244768E-01
  0.643290413741E+00  0.210526315790E+00 -0.312065343397E-01
  0.500000000000E+00  0.210526315790E+00 -0.437427648440E-01
  0.356709586259E+00  0.210526315790E+00 -0.312065343397E-01
  0.232285874575E+00  0.210526315790E+00 -0.203210244768E-01
  0.136815300849E+00  0.210526315790E+00 -0.119686097007E-01
  0.702823243349E-01  0.210526315790E+00 -0.614787723533E-02
  0.269656163398E-01  0.210526315790E+00 -0.235825883963E-02
  0.883738164878E-06  0.210526315790E+00  0.000000000000E+00
  0.269656163398E-01  0.210526315790E+00  0.235825883963E-02
  0.702823243349E-01  0.210526315790E+00  0.614787723533E-02
  0.136815300849E+00  0.210526315790E+00  0.119686097007E-01
  0.232285874575E+00  0.210526315790E+00  0.203210244768E-01
  0.356709586259E+00  0.210526315790E+00  0.312065343397E-01
  0.500000000000E+00  0.210526315790E+00  0.437427648440E-01
  0.643290413741E+00  0.210526315790E+00  0.312065343397E-01
  0.767714125425E+00  0.210526315790E+00  0.203210244768E-01
  0.863184699151E+00  0.210526315790E+00  0.119686097007E-01
  0.929717675664E+00  0.210526315790E+00  0.614787723533E-02
  0.973034383663E+00  0.210526315790E+00  0.235825883963E-02
  0.973034383663E+00  0.315789473680E+00 -0.235825883963E-02
  0.999999119618E+00  0.315789473680E+00 -0.383648804671E-07
  0.929717675664E+00  0.315789473680E+00 -0.614787723533E-02
  0.863184699151E+00  0.315789473680E+00 -0.119686097007E-01
  0.767714125425E+00  0.315789473680E+00 -0.203210244768E-01
  0.643290413741E+00  0.315789473680E+00 -0.312065343397E-01
  0.500000000000E+00  0.315789473680E+00 -0.437427648440E-01
  0.356709586259E+00  0.315789473680E+00 -0.312065343397E-01
  0.232285874575E+00  0.315789473680E+00 -0.203210244768E-01
  0.136815300849E+00  0.315789473680E+00 -0.119686097007E-01
  0.702823243349E-01  0.315789473680E+00 -0.614787723533E-02
  0.269656163398E-01  0.315789473680E+00 -0.235825883963E-02
  0.883738164913E-06  0.315789473680E+00  0.000000000000E+00
  0.269656163398E-01  0.315789473680E+00  0.235825883963E-02
  0.702823243349E-01  0.315789473680E+00  0.614787723533E-02
  0.136815300849E+00  0.315789473680E+00  0.119686097007E-01
  0.232285874575E+00  0.315789473680E+00  0.203210244768E-01
  0.356709586259E+00  0.315789473680E+00  0.312065343397E-01
  0.500000000000E+00  0.315789473680E+00  0.437427648440E-01
  0.643290413741E+00  0.315789473680E+00  0.312065343397E-01
  0.767714125425E+00  0.315789473680E+00  0.203210244768E-01
  0.863184699151E+00  0.315789473680E+00  0.119686097007E-01
  0.929717675664E+00  0.315789473680E+00  0.614787723533E-02
  0.973034383663E+00  0.315789473680E+00  0.235825883963E-02
  0.973034383663E+00  0.421052631580E+00 -0.235825883963E-02
  0.999999119618E+00  0.421052631580E+00 -0.383648804656E-07
  0.929717675664E+00  0.421052631580E+00 -0.614787723533E-02
  0.863184699151E+00  0.421052631580E+00 -0.119686097007E-01
  0.767714125425E+00  0.421052631580E+00 -0.203210244768E-01
  0.643290413741E+00  0.421052631580E+00 -0.312065343397E-01
  0.500000000000E+00  0.421052631580E+00 -0.437427648440E-01
  0.356709586259E+00  0.421052631580E+00 -0.312065343397E-01
  0.232285874575E+00  0.421052631580E+00 -0.203210244768E-01
  0.136815300849E+00  0.421052631580E+00 -0.119686097007E-01
  0.702823243349E-01  0.421052631580E+00 -0.614787723533E-02
  0.269656163398E-01  0.421052631580E+00 -0.235825883963E-02
  0.883738164878E-06  0.421052631580E+00  0.187623218593E-21
  0.269656163398E-01  0.421052631580E+00  0.235825883963E-02
  0.702823243349E-01  0.421052631580E+00  0.614787723533E-02
  0.136815300849E+00  0.421052631580E+00  0.119686097007E-01
  0.232285874575E+00  0.421052631580E+00  0.203210244768E-01
  0.356709586259E+00  0.421052631580E+00  0.312065343397E-01
  0.500000000000E+00  0.421052631580E+00  0.437427648440E-01
  0.643290413741E+00  0.421052631580E+00  0.312065343397E-01
  0.767714125425E+00  0.421052631580E+00  0.203210244768E-01
  0.863184699151E+00  0.421052631580E+00  0.119686097007E-01
  0.929717675664E+00  0.421052631580E+00  0.614787723533E-02
  0.973034383663E+00  0.421052631580E+00  0.235825883963E-02
  0.973034383663E+00  0.526315789470E+00 -0.235825883963E-02
  0.999999119618E+00  0.526315789470E+00 -0.383648804671E-07
  0.929717675664E+00  0.526315789470E+00 -0.614787723533E-02
  0.863184699151E+00  0.526315789470E+00 -0.119686097007E-01
  0.767714125425E+00  0.526315789470E+00 -0.203210244768E-01
  0.643290413741E+00  0.526315789470E+00 -0.312065343397E-01
  0.500000000000E+00  0.526315789470E+00 -0.437427648440E-01
  0.356709586259E+00  0.526315789470E+00 -0.312065343397E-01
  0.232285874575E+00  0.526315789470E+00 -0.203210244768E-01
  0.136815300849E+00  0.526315789470E+00 -0.119686097007E-01
  0.702823243349E-01  0.526315789470E+00 -0.614787723533E-02
  0.269656163398E-01  0.526315789470E+00 -0.235825883963E-02
  0.883738164913E-06  0.526315789470E+00  0.187623218601E-21
  0.269656163398E-01  0.526315789470E+00  0.235825883963E-02
  0.702823243349E-01  0.526315789470E+00  0.614787723533E-02
  0.136815300849E+00  0.526315789470E+00  0.119686097007E-01
  0.232285874575E+00  0.526315789470E+00  0.203210244768E-01
  0.356709586259E+00  0.526315789470E+00  0.312065343397E-01
  0.500000000000E+00  0.526315789470E+00  0.437427648440E-01
  0.643290413741E+00  0.526315789470E+00  0.312065343397E-01
  0.767714125425E+00  0.526315789470E+00  0.203210244768E-01
  0.863184699151E+00  0.526315789470E+00  0.119686097007E-01
  0.929717675664E+00  0.526315789470E+00  0.614787723533E-02
  0.973034383663E+00  0.526315789470E+00  0.235825883963E-02
  0.973034383663E+00  0.631578947370E+00 -0.235825883963E-02
  0.999999119618E+00  0.631578947370E+00 -0.383648804656E-07
  0.929717675664E+00  0.631578947370E+00 -0.614787723533E-02
  0.863184699151E+00  0.631578947370E+00 -0.119686097007E-01
  0.767714125425E+00  0.631578947370E+00 -0.203210244768E-01
  0.643290413741E+00  0.631578947370E+00 -0.312065343397E-01
  0.500000000000E+00  0.631578947370E+00 -0.437427648440E-01
  0.356709586259E+00  0.631578947370E+00 -0.312065343397E-01
  0.232285874575E+00  0.631578947370E+00 -0.203210244768E-01
  0.136815300849E+00  0.631578947370E+00 -0.119686097007E-01
  0.702823243349E-01  0.631578947370E+00 -0.614787723533E-02
  0.269656163398E-01  0.631578947370E+00 -0.235825883963E-02
  0.883738164878E-06  0.631578947370E+00  0.000000000000E+00
  0.269656163398E-01  0.631578947370E+00  0.235825883963E-02
  0.702823243349E-01  0.631578947370E+00  0.614787723533E-02
  0.136815300849E+00  0.631578947370E+00  0.119686097007E-01
  0.232285874575E+00  0.631578947370E+00  0.203210244768E-01
[...]
POINT_DATA                1127
SCALARS phi float 1
LOOKUP_TABLE default
  0.120225738951E-18
  0.433680868994E-18
  0.449152455171E-18
  0.108420217249E-17
  0.867361737988E-18
  0.173472347598E-17
 -0.173472347598E-17
  0.173472347598E-17
 -0.173472347598E-17
  0.173472347598E-17
 -0.346944695195E-17
 -0.346944695195E-17
  0.208166817117E-16
  0.000000000000E+00
  0.000000000000E+00
  0.000000000000E+00
  0.173472347598E-17
 -0.173472347598E-17
  0.867361737988E-18
  0.867361737988E-18
  0.433680868994E-18
  0.433680868994E-18
  0.000000000000E+00
  0.216840434497E-18
  0.000000000000E+00
 -0.661744490042E-23
  0.216840434497E-18
 -0.216840434497E-18
  0.433680868994E-18
  0.433680868994E-18
  0.173472347598E-17
  0.867361737988E-18
  0.173472347598E-17
  0.520417042793E-17
  0.138777878078E-16
 -0.346944695195E-17
  0.693889390391E-17
 -0.104083408559E-16
 -0.346944695195E-17
  0.346944695195E-17
 -0.867361737988E-17
 -0.346944695195E-17
  0.520417042793E-17
  0.173472347598E-17
  0.867361737988E-18
  0.000000000000E+00
 -0.433680868994E-18
  0.433680868994E-18
  0.216840434497E-18
 -0.625977200356E-18
 -0.433680868994E-17
 -0.520417042793E-17
  0.867361737988E-17
  0.104083408559E-16
  0.381639164715E-16
  0.000000000000E+00
  0.520417042793E-17
 -0.173472347598E-17
  0.000000000000E+00
  0.000000000000E+00
  0.000000000000E+00
  0.000000000000E+00
  0.433680868994E-18
  0.000000000000E+00
 -0.346944695195E-17
  0.346944695195E-17
  0.138777878078E-16
  0.346944695195E-17
 -0.346944695195E-17
  0.173472347598E-17
 -0.173472347598E-17
  0.216840434497E-18
  0.216840434497E-18
  0.102438047059E-19
  0.173472347598E-17
 -0.346944695195E-17
  0.138777878078E-16
  0.346944695195E-17
  0.346944695195E-17
 -0.693889390391E-17
  0.000000000000E+00
 -0.867361737988E-18
  0.433680868994E-18
  0.000000000000E+00
 -0.661744490042E-23
  0.000000000000E+00
  0.000000000000E+00
  0.000000000000E+00
  0.173472347598E-17
  0.000000000000E+00
 -0.693889390391E-17
  0.346944695195E-17
 -0.346944695195E-17
  0.693889390391E-17
 -0.260208521397E-17
  0.000000000000E+00
  0.238524477947E-17
 -0.112258335291E-17
  0.260208521397E-17
  0.520417042793E-17
  0.156125112838E-16
 -0.138777878078E-16
  0.173472347598E-16
  0.000000000000E+00
 -0.346944695195E-17
  0.173472347598E-17
 -0.433680868994E-18
 -0.216840434497E-18
 -0.661744490042E-23
  0.000000000000E+00
 -0.433680868994E-18
  0.000000000000E+00
 -0.173472347598E-17
  0.000000000000E+00
  0.104083408559E-16
  0.138777878078E-16
  0.190819582357E-16
  0.520417042793E-17
  0.173472347598E-17
  0.108420217249E-17
  0.000000000000E+00
  0.547123726922E-18
  0.867361737988E-18
 -0.867361737988E-17
 -0.520417042793E-17
 -0.693889390391E-17
  0.104083408559E-16
  0.693889390391E-17
 -0.520417042793E-17
  0.867361737988E-18
  0.433680868994E-18
  0.000000000000E+00
 -0.661744490042E-23
 -0.216840434497E-18
  0.433680868994E-18
  0.173472347598E-17
  0.000000000000E+00
  0.346944695195E-17
  0.693889390391E-17
  0.104083408559E-16
  0.104083408559E-16
 -0.346944695195E-17
  0.867361737988E-18
 -0.433680868994E-18
  0.108420217249E-17
 -0.125744687998E-18
 -0.173472347598E-17
 -0.173472347598E-17
 -0.173472347598E-17
 -0.104083408559E-16
  0.173472347598E-16
  0.346944695195E-17
 -0.173472347598E-17
  0.173472347598E-17
 -0.867361737988E-18
 -0.216840434497E-18
  0.000000000000E+00
  0.000000000000E+00
 -0.433680868994E-18
  0.867361737988E-18
  0.346944695195E-17
  0.000000000000E+00
  0.173472347598E-16
  0.138777878078E-16
  0.173472347598E-17
  0.520417042793E-17
  0.173472347598E-17
  0.216840434497E-18
 -0.216840434497E-18
  0.213412598039E-18
 -0.260208521397E-17
 -0.346944695195E-17
  0.173472347598E-17
 -0.104083408559E-16
 -0.346944695195E-17
  0.346944695195E-17
 -0.346944695195E-17
  0.000000000000E+00
  0.867361737988E-18
 -0.216840434497E-18
  0.000000000000E+00
  0.000000000000E+00
  0.000000000000E+00
  0.173472347598E-17
  0.173472347598E-17
 -0.346944695195E-17
  0.346944695195E-17
 -0.346944695195E-17
  0.173472347598E-17
  0.000000000000E+00
  0.000000000000E+00
 -0.650521303491E-18
  0.867361737988E-18
 -0.305937712636E-18
  0.000000000000E+00
 -0.693889390391E-17
 -0.173472347598E-17
  0.000000000000E+00
  0.693889390391E-17
  0.346944695195E-17
 -0.173472347598E-17
  0.000000000000E+00
 -0.867361737988E-18
 -0.216840434497E-18
 -0.661744490042E-23
 -0.216840434497E-18
 -0.130104260698E-17
  0.867361737988E-18
  0.173472347598E-17
 -0.693889390391E-17
  0.104083408559E-16
  0.000000000000E+00
 -0.173472347598E-17
  0.520417042793E-17
 -0.260208521397E-17
 -0.867361737988E-18
 -0.433680868994E-18
  0.540380550569E-19
  0.346944695195E-17
  0.173472347598E-17
  0.520417042793E-17
  0.000000000000E+00
 -0.346944695195E-17
 -0.346944695195E-17
  0.173472347598E-17
 -0.867361737988E-18
  0.000000000000E+00
 -0.216840434497E-18
  0.661744490042E-23
 -0.216840434497E-18
  0.000000000000E+00
  0.000000000000E+00
  0.346944695195E-17
  0.346944695195E-17
  0.346944695195E-17
 -0.346944695195E-17
  0.104083408559E-16
  0.000000000000E+00
  0.173472347598E-17
  0.216840434497E-18
 -0.130104260698E-17
  0.183402485415E-18
 -0.867361737988E-18
  0.173472347598E-17
 -0.867361737988E-17
  0.346944695195E-17
  0.138777878078E-16
  0.346944695195E-17
 -0.520417042793E-17
  0.000000000000E+00
 -0.433680868994E-18
  0.000000000000E+00
  0.000000000000E+00
  0.216840434497E-18
 -0.433680868994E-18
  0.867361737988E-18
  0.000000000000E+00
  0.346944695195E-17
  0.693889390391E-17
  0.693889390391E-17
 -0.346944695195E-17
  0.173472347598E-17
  0.173472347598E-17
 -0.650521303491E-18
  0.650521303491E-18
  0.111813642993E-17
 -0.433680868994E-17
 -0.520417042793E-17
 -0.520417042793E-17
 -0.693889390391E-17
 -0.104083408559E-16
 -0.693889390391E-17
  0.173472347598E-17
  0.867361737988E-18
  0.433680868994E-18
  0.000000000000E+00
  0.661744490042E-23
 -0.216840434497E-18
 -0.433680868994E-18
 -0.867361737988E-18
  0.346944695195E-17
  0.000000000000E+00
 -0.346944695195E-17
  0.138777878078E-16
  0.000000000000E+00
  0.520417042793E-17
  0.346944695195E-17
 -0.130104260698E-17
 -0.130104260698E-17
 -0.561026978658E-18
  0.000000000000E+00
  0.000000000000E+00
 -0.173472347598E-17
  0.104083408559E-16
 -0.693889390391E-17
 -0.346944695195E-17
 -0.346944695195E-17
  0.867361737988E-18
  0.000000000000E+00
  0.000000000000E+00
 -0.661744490042E-23
 -0.216840434497E-18
 -0.433680868994E-18
  0.867361737988E-18
  0.346944695195E-17
  0.000000000000E+00
 -0.104083408559E-16
  0.104083408559E-16
 -0.173472347598E-17
 -0.173472347598E-17
 -0.867361737988E-18
 -0.433680868994E-18
 -0.650521303491E-18
 -0.157548128189E-18
  0.000000000000E+00
 -0.173472347598E-17
 -0.104083408559E-16
  0.346944695195E-17
 -0.693889390391E-17
  0.693889390391E-17
  0.000000000000E+00
  0.000000000000E+00
  0.000000000000E+00
  0.216840434497E-18
  0.661744490042E-23
  0.000000000000E+00
  0.000000000000E+00
  0.000000000000E+00
  0.000000000000E+00
  0.000000000000E+00
 -0.242861286637E-16
 -0.104083408559E-16
  0.346944695195E-17
  0.346944695195E-17
 -0.173472347598E-17
  0.650521303491E-18
  0.130104260698E-17
  0.162630325873E-18
 -0.433680868994E-17
  0.000000000000E+00
 -0.867361737988E-17
 -0.346944695195E-17
 -0.138777878078E-16
  0.000000000000E+00
 -0.173472347598E-17
  0.000000000000E+00
  0.000000000000E+00
  0.000000000000E+00
  0.661744490042E-23
 -0.216840434497E-18
 -0.433680868994E-18
  0.000000000000E+00
  0.173472347598E-17
  0.000000000000E+00
 -0.346944695195E-17
  0.346944695195E-17
  0.520417042793E-17
  0.000000000000E+00
  0.260208521397E-17
  0.867361737988E-18
  0.203287907341E-19
  0.650521303491E-18
  0.867361737988E-18
  0.173472347598E-17
  0.173472347598E-17
  0.208166817117E-16
 -0.104083408559E-16
  0.346944695195E-17
 -0.173472347598E-17
  0.000000000000E+00
 -0.433680868994E-18
 -0.216840434497E-18
  0.000000000000E+00
 -0.433680868994E-18
 -0.433680868994E-18
  0.000000000000E+00
  0.000000000000E+00
  0.346944695195E-17
  0.000000000000E+00
 -0.346944695195E-17
  0.121430643318E-16
  0.173472347598E-17
  0.260208521397E-17
 -0.298155597434E-18
  0.390312782095E-17
 -0.346944695195E-17
  0.000000000000E+00
  0.433680868994E-17
  0.693889390391E-17
 -0.693889390391E-17
  0.346944695195E-17
  0.000000000000E+00
 -0.693889390391E-17
  0.173472347598E-17
  0.433680868994E-18
  0.000000000000E+00
  0.000000000000E+00
 -0.216840434497E-18
  0.000000000000E+00
  0.173472347598E-17
 -0.346944695195E-17
 -0.693889390391E-17
  0.346944695195E-17
  0.000000000000E+00
  0.867361737988E-17
  0.607153216592E-17
  0.292734586571E-17
  0.260208521397E-17
  0.000000000000E+00
 -0.867361737988E-18
 -0.433680868994E-18
  0.867361737988E-18
 -0.520417042793E-17
  0.173472347598E-16
 -0.693889390391E-17
  0.346944695195E-17
  0.520417042793E-17
  0.173472347598E-17
  0.000000000000E+00
 -0.216840434497E-18
  0.000000000000E+00
 -0.216840434497E-18
 -0.433680868994E-18
  0.260208521397E-17
  0.000000000000E+00
 -0.693889390391E-17
  0.693889390391E-17
  0.000000000000E+00
  0.520417042793E-17
  0.867361737988E-18
  0.000000000000E+00
 -0.346944695195E-17
 -0.433680868994E-17
 -0.520417042793E-17
 -0.216840434497E-17
 -0.325260651746E-18
  0.260208521397E-17
 -0.693889390391E-17
  0.000000000000E+00
  0.346944695195E-17
 -0.346944695195E-17
  0.867361737988E-18
  0.000000000000E+00
 -0.216840434497E-18
  0.000000000000E+00
 -0.216840434497E-18
 -0.867361737988E-18
  0.867361737988E-18
  0.520417042793E-17
  0.693889390391E-17
 -0.104083408559E-16
 -0.173472347598E-17
  0.520417042793E-17
  0.325260651746E-18
  0.173472347598E-17
 -0.867361737988E-18
 -0.433680868994E-18
  0.000000000000E+00
  0.338813178902E-18
  0.433680868994E-18
  0.173472347598E-17
 -0.346944695195E-17
  0.867361737988E-17
 -0.346944695195E-17
  0.867361737988E-18
  0.867361737988E-18
  0.433680868994E-18
 -0.216840434497E-18
 -0.723783035984E-24
  0.000000000000E+00
  0.000000000000E+00
 -0.130104260698E-17
 -0.260208521397E-17
  0.173472347598E-17
  0.190819582357E-16
  0.346944695195E-17
 -0.260208521397E-17
  0.650521303491E-18
  0.569206140555E-18
 -0.227682456222E-17
 -0.173472347598E-17
 -0.542101086243E-19
  0.000000000000E+00
 -0.260208521397E-17
 -0.346944695195E-17
  0.346944695195E-17
  0.173472347598E-17
  0.260208521397E-17
 -0.433680868994E-18
 -0.650521303491E-18
  0.000000000000E+00
 -0.216840434497E-18
 -0.433680868994E-18
  0.433680868994E-18
  0.000000000000E+00
  0.346944695195E-17
  0.346944695195E-17
  0.173472347598E-17
 -0.433680868994E-17
  0.000000000000E+00
 -0.108420217249E-18
 -0.542101086243E-18
 -0.108420217249E-18
 -0.542101086243E-18
  0.000000000000E+00
  0.346944695195E-17
  0.520417042793E-17
 -0.173472347598E-17
 -0.346944695195E-17
 -0.867361737988E-18
  0.000000000000E+00
  0.650521303491E-18
 -0.108420217249E-18
  0.108420217249E-18
  0.216840434497E-18
  0.433680868994E-18
  0.346944695195E-17
  0.173472347598E-17
 -0.520417042793E-17
  0.000000000000E+00
 -0.867361737988E-18
  0.216840434497E-17
 -0.108420217249E-18
 -0.975781955237E-18
  0.108420217249E-18
  0.650521303491E-18
  0.867361737988E-18
 -0.173472347598E-17
 -0.520417042793E-17
  0.000000000000E+00
  0.346944695195E-17
 -0.173472347598E-17
  0.433680868994E-18
  0.433680868994E-18
  0.000000000000E+00
  0.000000000000E+00
  0.216840434497E-18
 -0.433680868994E-18
  0.000000000000E+00
  0.173472347598E-17
  0.346944695195E-17
 -0.173472347598E-17
 -0.173472347598E-17
  0.216840434497E-17
 -0.650521303491E-18
  0.325260651746E-18
  0.108420217249E-18
 -0.216840434497E-18
 -0.130104260698E-17
  0.260208521397E-17
  0.000000000000E+00
 -0.693889390391E-17
 -0.173472347598E-17
 -0.867361737988E-18
 -0.433680868994E-18
 -0.433680868994E-18
  0.108420217249E-18
 -0.346780582562E-18
 -0.433680868994E-18
  0.520417042793E-17
  0.000000000000E+00
  0.000000000000E+00
 -0.104083408559E-16
 -0.346944695195E-17
 -0.693889390391E-17
  0.346944695195E-17
 -0.173472347598E-17
  0.867361737988E-18
  0.000000000000E+00
  0.000000000000E+00
  0.000000000000E+00
  0.173472347598E-17
  0.173472347598E-17
  0.000000000000E+00
  0.346944695195E-17
  0.693889390391E-17
 -0.693889390391E-17
 -0.104083408559E-16
 -0.346944695195E-17
 -0.867361737988E-18
  0.195156391047E-17
 -0.806732707811E-19
 -0.173472347598E-17
  0.173472347598E-17
  0.173472347598E-17
  0.520417042793E-17
 -0.346944695195E-17
 -0.346944695195E-17
 -0.693889390391E-17
  0.346944695195E-17
  0.867361737988E-18
  0.867361737988E-18
 -0.216840434497E-18
  0.000000000000E+00
 -0.216840434497E-18
  0.000000000000E+00
  0.867361737988E-18
  0.000000000000E+00
  0.693889390391E-17
 -0.138777878078E-16
  0.693889390391E-17
 -0.346944695195E-17
  0.173472347598E-17
 -0.173472347598E-17
  0.130104260698E-17
  0.178942327552E-18
  0.000000000000E+00
  0.867361737988E-18
 -0.520417042793E-17
  0.000000000000E+00
  0.693889390391E-17
  0.104083408559E-16
 -0.693889390391E-17
  0.173472347598E-17
  0.000000000000E+00
  0.000000000000E+00
  0.000000000000E+00
 -0.661744490042E-23
  0.000000000000E+00
  0.433680868994E-18
  0.000000000000E+00
 -0.173472347598E-17
 -0.346944695195E-17
  0.346944695195E-17
 -0.346944695195E-17
 -0.173472347598E-17
  0.000000000000E+00
  0.346944695195E-17
  0.216840434497E-18
  0.243250657095E-18
 -0.433680868994E-18
  0.346944695195E-17
  0.520417042793E-17
  0.520417042793E-17
 -0.346944695195E-17
  0.138777878078E-16
  0.000000000000E+00
 -0.346944695195E-17
  0.173472347598E-17
 -0.433680868994E-18
 -0.216840434497E-18
  0.000000000000E+00
 -0.216840434497E-18
 -0.433680868994E-18
 -0.867361737988E-18
  0.173472347598E-17
  0.000000000000E+00
 -0.346944695195E-17
  0.346944695195E-17
  0.867361737988E-17
  0.693889390391E-17
  0.000000000000E+00
 -0.216840434497E-18
  0.733080546069E-19
  0.108420217249E-17
  0.867361737988E-18
 -0.520417042793E-17
 -0.138777878078E-16
 -0.693889390391E-17
  0.208166817117E-16
  0.000000000000E+00
  0.000000000000E+00
  0.000000000000E+00
  0.433680868994E-18
 -0.216840434497E-18
 -0.661744490042E-23
 -0.216840434497E-18
  0.433680868994E-18
 -0.867361737988E-18
  0.173472347598E-17
  0.000000000000E+00
  0.138777878078E-16
  0.346944695195E-16
  0.173472347598E-17
 -0.346944695195E-17
 -0.520417042793E-17
  0.000000000000E+00
 -0.193891135582E-20
 -0.216840434497E-18
 -0.260208521397E-17
  0.693889390391E-17
  0.867361737988E-17
 -0.138777878078E-16
  0.138777878078E-16
  0.346944695195E-17
 -0.173472347598E-17
  0.867361737988E-18
 -0.433680868994E-18
 -0.216840434497E-18
  0.000000000000E+00
 -0.216840434497E-18
 -0.433680868994E-18
  0.867361737988E-18
  0.173472347598E-17
 -0.346944695195E-17
  0.173472347598E-16
  0.173472347598E-16
 -0.173472347598E-17
  0.173472347598E-17
  0.867361737988E-18
  0.216840434497E-18
 -0.937241956137E-18
  0.000000000000E+00
  0.867361737988E-18
  0.173472347598E-17
  0.520417042793E-17
  0.104083408559E-16
  0.173472347598E-16
  0.000000000000E+00
 -0.173472347598E-17
 -0.867361737988E-18
  0.433680868994E-18
 -0.216840434497E-18
  0.000000000000E+00
  0.216840434497E-18
  0.000000000000E+00
  0.000000000000E+00
  0.346944695195E-17
 -0.346944695195E-17
  0.104083408559E-16
  0.173472347598E-16
 -0.121430643318E-16
 -0.173472347598E-17
 -0.433680868994E-17
  0.650521303491E-18
  0.888696380347E-18
 -0.867361737988E-18
  0.867361737988E-18
 -0.173472347598E-17
 -0.121430643318E-16
 -0.346944695195E-17
  0.346944695195E-17
  0.000000000000E+00
  0.000000000000E+00
  0.867361737988E-18
 -0.433680868994E-18
 -0.216840434497E-18
  0.000000000000E+00
 -0.216840434497E-18
 -0.433680868994E-18
  0.000000000000E+00
  0.346944695195E-17
  0.000000000000E+00
  0.346944695195E-17
  0.346944695195E-17
 -0.520417042793E-17
 -0.693889390391E-17
 -0.867361737988E-18
 -0.867361737988E-18
 -0.579052898567E-18
 -0.151788304148E-17
 -0.173472347598E-17
 -0.346944695195E-17
  0.520417042793E-17
  0.693889390391E-17
  0.000000000000E+00
  0.000000000000E+00
 -0.173472347598E-17
  0.000000000000E+00
  0.000000000000E+00
 -0.216840434497E-18
  0.000000000000E+00
 -0.216840434497E-18
 -0.867361737988E-18
  0.173472347598E-17
  0.346944695195E-17
  0.000000000000E+00
 -0.693889390391E-17
 -0.346944695195E-17
  0.173472347598E-16
  0.000000000000E+00
 -0.173472347598E-17
 -0.108420217249E-17
 -0.759616500120E-19
 -0.867361737988E-18
 -0.433680868994E-17
 -0.346944695195E-17
 -0.693889390391E-17
  0.693889390391E-17
  0.104083408559E-16
  0.346944695195E-17
 -0.346944695195E-17
 -0.867361737988E-18
 -0.433680868994E-18
  0.000000000000E+00
  0.000000000000E+00
  0.000000000000E+00
  0.000000000000E+00
 -0.173472347598E-17
 -0.346944695195E-17
  0.346944695195E-17
  0.693889390391E-17
  0.346944695195E-17
  0.346944695195E-17
 -0.346944695195E-17
 -0.346944695195E-17
  0.650521303491E-18
  0.297176215588E-18
 -0.216840434497E-18
 -0.867361737988E-18
  0.000000000000E+00
 -0.693889390391E-17
  0.693889390391E-17
 -0.346944695195E-17
 -0.693889390391E-17
  0.000000000000E+00
  0.867361737988E-18
  0.000000000000E+00
 -0.216840434497E-18
  0.661744490042E-23
 -0.216840434497E-18
  0.000000000000E+00
  0.867361737988E-18
  0.520417042793E-17
 -0.346944695195E-17
 -0.346944695195E-17
  0.208166817117E-16
  0.520417042793E-17
 -0.520417042793E-17
 -0.433680868994E-17
 -0.108420217249E-17
 -0.944216743062E-18
 -0.867361737988E-18
  0.867361737988E-18
  0.000000000000E+00
 -0.520417042793E-17
 -0.346944695195E-17
 -0.346944695195E-17
 -0.693889390391E-17
  0.000000000000E+00
  0.000000000000E+00
  0.867361737988E-18
  0.000000000000E+00
  0.000000000000E+00
  0.000000000000E+00
 -0.433680868994E-18
  0.173472347598E-17
  0.173472347598E-17
  0.346944695195E-17
 -0.104083408559E-16
  0.104083408559E-16
 -0.104083408559E-16
  0.346944695195E-17
  0.867361737988E-18
 -0.650521303491E-18
 -0.510760867194E-18
  0.650521303491E-18
 -0.173472347598E-17
  0.346944695195E-17
 -0.867361737988E-17
  0.104083408559E-16
  0.138777878078E-16
 -0.346944695195E-17
  0.346944695195E-17
  0.867361737988E-18
  0.000000000000E+00
  0.000000000000E+00
 -0.661744490042E-23
  0.000000000000E+00
  0.000000000000E+00
  0.000000000000E+00
  0.173472347598E-17
  0.000000000000E+00
 -0.104083408559E-16
  0.208166817117E-16
 -0.173472347598E-17
  0.346944695195E-17
 -0.867361737988E-18
 -0.130104260698E-17
  0.271050543121E-18
 -0.650521303491E-18
  0.867361737988E-18
 -0.346944695195E-17
 -0.104083408559E-16
 -0.693889390391E-17
 -0.693889390391E-17
 -0.346944695195E-17
 -0.173472347598E-17
  0.000000000000E+00
 -0.433680868994E-18
 -0.216840434497E-18
  0.000000000000E+00
  0.000000000000E+00
  0.000000000000E+00
  0.173472347598E-17
  0.000000000000E+00
  0.693889390391E-17
 -0.346944695195E-17
  0.346944695195E-17
 -0.520417042793E-17
  0.000000000000E+00
 -0.867361737988E-18
  0.000000000000E+00
 -0.433680868994E-18
 -0.745388993584E-19
  0.433680868994E-17
  0.000000000000E+00
 -0.693889390391E-17
  0.693889390391E-17
 -0.138777878078E-16
  0.000000000000E+00
  0.000000000000E+00
  0.000000000000E+00
 -0.433680868994E-18
 -0.216840434497E-18
 -0.661744490042E-23
 -0.216840434497E-18
 -0.867361737988E-18
  0.867361737988E-18
  0.000000000000E+00
  0.000000000000E+00
  0.000000000000E+00
  0.346944695195E-17
  0.000000000000E+00
  0.520417042793E-17
  0.260208521397E-17
 -0.109097843606E-17
  0.000000000000E+00
  0.867361737988E-18
  0.216840434497E-18
  0.000000000000E+00
  0.520417042793E-17
 -0.138777878078E-16
  0.000000000000E+00
  0.346944695195E-17
 -0.520417042793E-17
  0.867361737988E-18
  0.000000000000E+00
  0.000000000000E+00
  0.000000000000E+00
  0.000000000000E+00
  0.867361737988E-18
 -0.867361737988E-18
 -0.173472347598E-17
 -0.693889390391E-17
  0.000000000000E+00
 -0.138777878078E-16
  0.520417042793E-17
 -0.173472347598E-17
 -0.433680868994E-18
  0.867361737988E-18
 -0.693889390391E-17
 -0.260208521397E-17
 -0.173472347598E-17
  0.303576608296E-17
 -0.346944695195E-17
 -0.138777878078E-16
  0.138777878078E-16