# vtk DataFile Version 3.0
MachLine results file. Generated by MachLine, USU AeroLab (c) 2022.
ASCII
DATASET POLYDATA
POINTS                1696 float
  0.905931499022E-07  0.000000000000E+00  0.000000000000E+00
  0.839810924757E-07  0.104252345860E+00  0.000000000000E+00
  0.862789702725E-07  0.211780935526E+00  0.000000000000E+00
  0.884360792927E-07  0.322413772345E+00  0.000000000000E+00
  0.904316388270E-07  0.435950160027E+00  0.000000000000E+00
  0.922457449923E-07  0.552161276340E+00  0.000000000000E+00
  0.938595427314E-07  0.670791566372E+00  0.000000000000E+00
  0.952557720842E-07  0.791560173035E+00  0.000000000000E+00
  0.964192270663E-07  0.914163351059E+00  0.000000000000E+00
  0.973367516934E-07  0.103827738762E+01  0.000000000000E+00
  0.979980238874E-07  0.116356134415E+01  0.000000000000E+00
  0.983952093554E-07  0.128966128826E+01  0.000000000000E+00
  0.985238640739E-07  0.141621339321E+01  0.000000000000E+00
  0.983824575753E-07  0.154284906387E+01  0.000000000000E+00
  0.979725457925E-07  0.166919851303E+01  0.000000000000E+00
  0.972990544157E-07  0.179489517212E+01  0.000000000000E+00
  0.963696041919E-07  0.191958034039E+01  0.000000000000E+00
  0.951949225995E-07  0.204290652275E+01  0.000000000000E+00
  0.937881478154E-07  0.216454195976E+01  0.000000000000E+00
  0.921645870834E-07  0.228417348862E+01  0.000000000000E+00
  0.903417373379E-07  0.240150952339E+01  0.000000000000E+00
  0.883383054067E-07  0.251628303528E+01  0.000000000000E+00
  0.861744006556E-07  0.262825274467E+01  0.000000000000E+00
  0.838709256811E-07  0.273720526695E+01  0.000000000000E+00
  0.814486612462E-07  0.284295582771E+01  0.000000000000E+00
  0.789290885829E-07  0.294534778595E+01  0.000000000000E+00
  0.763329137445E-07  0.304425406456E+01  0.000000000000E+00
  0.736803663106E-07  0.313957524300E+01  0.000000000000E+00
  0.709908530805E-07  0.323123931885E+01  0.000000000000E+00
  0.682826086384E-07  0.331920027733E+01  0.000000000000E+00
  0.655727805612E-07  0.340343642235E+01  0.000000000000E+00
  0.628768234502E-07  0.348394894600E+01  0.000000000000E+00
  0.602089290102E-07  0.356075930595E+01  0.000000000000E+00
  0.575819839183E-07  0.363390779495E+01  0.000000000000E+00
  0.550069653110E-07  0.370345163345E+01  0.000000000000E+00
  0.524936713185E-07  0.376946210861E+01  0.000000000000E+00
  0.500503805820E-07  0.383202338219E+01  0.000000000000E+00
  0.476838929625E-07  0.389123010635E+01  0.000000000000E+00
  0.453998738652E-07  0.394718551636E+01  0.000000000000E+00
  0.432402153180E-08  0.399999997732E+01  0.000000000000E+00
  0.145739790096E-01  0.000000000000E+00 -0.127497424018E-02
  0.145739790096E-01  0.000000000000E+00  0.127497424018E-02
  0.145739791006E-01  0.104252345860E+00 -0.127497320084E-02
  0.145739791006E-01  0.104252345860E+00  0.127497320084E-02
  0.145739793032E-01  0.211780935526E+00 -0.127497088481E-02
  0.145739793032E-01  0.211780935526E+00  0.127497088481E-02
  0.145739794941E-01  0.322413772345E+00 -0.127496870330E-02
  0.145739794941E-01  0.322413772345E+00  0.127496870330E-02
  0.145739796713E-01  0.435950160027E+00 -0.127496667715E-02
  0.145739796713E-01  0.435950160027E+00  0.127496667715E-02
  0.145739798332E-01  0.552161276340E+00 -0.127496482644E-02
  0.145739798332E-01  0.552161276340E+00  0.127496482644E-02
  0.145739799781E-01  0.670791566372E+00 -0.127496317025E-02
  0.145739799781E-01  0.670791566372E+00  0.127496317025E-02
  0.145739801045E-01  0.791560173035E+00 -0.127496172622E-02
  0.145739801045E-01  0.791560173035E+00  0.127496172622E-02
  0.145739802109E-01  0.914163351059E+00 -0.127496051005E-02
  0.145739802109E-01  0.914163351059E+00  0.127496051005E-02
  0.145739802962E-01  0.103827738762E+01 -0.127495953535E-02
  0.145739802962E-01  0.103827738762E+01  0.127495953535E-02
  0.145739803593E-01  0.116356134415E+01 -0.127495881319E-02
  0.145739803593E-01  0.116356134415E+01  0.127495881319E-02
  0.145739803997E-01  0.128966128826E+01 -0.127495835195E-02
  0.145739803997E-01  0.128966128826E+01  0.127495835195E-02
  0.145739804167E-01  0.141621339321E+01 -0.127495815699E-02
  0.145739804167E-01  0.141621339321E+01  0.127495815699E-02
  0.145739804103E-01  0.154284906387E+01 -0.127495823050E-02
  0.145739804103E-01  0.154284906387E+01  0.127495823050E-02
  0.145739803805E-01  0.166919851303E+01 -0.127495857173E-02
  0.145739803805E-01  0.166919851303E+01  0.127495857173E-02
  0.145739803275E-01  0.179489517212E+01 -0.127495917662E-02
  0.145739803275E-01  0.179489517212E+01  0.127495917662E-02
  0.145739802522E-01  0.191958034039E+01 -0.127496003820E-02
  0.145739802522E-01  0.191958034039E+01  0.127496003820E-02
  0.145739801552E-01  0.204290652275E+01 -0.127496114658E-02
  0.145739801552E-01  0.204290652275E+01  0.127496114658E-02
  0.145739800377E-01  0.216454195976E+01 -0.127496248921E-02
  0.145739800377E-01  0.216454195976E+01  0.127496248921E-02
  0.145739799011E-01  0.228417348862E+01 -0.127496405137E-02
  0.145739799011E-01  0.228417348862E+01  0.127496405137E-02
  0.145739797467E-01  0.240150952339E+01 -0.127496581616E-02
  0.145739797467E-01  0.240150952339E+01  0.127496581616E-02
  0.145739795761E-01  0.251628303528E+01 -0.127496776516E-02
  0.145739795761E-01  0.251628303528E+01  0.127496776516E-02
  0.145739793912E-01  0.262825274467E+01 -0.127496987870E-02
  0.145739793912E-01  0.262825274467E+01  0.127496987870E-02
  0.145739791937E-01  0.273720526695E+01 -0.127497213609E-02
  0.145739791937E-01  0.273720526695E+01  0.127497213609E-02
  0.145739789855E-01  0.284295582771E+01 -0.127497451650E-02
  0.145739789855E-01  0.284295582771E+01  0.127497451650E-02
  0.145739787683E-01  0.294534778595E+01 -0.127497699880E-02
  0.145739787683E-01  0.294534778595E+01  0.127497699880E-02
  0.145739785441E-01  0.304425406456E+01 -0.127497956197E-02
  0.145739785441E-01  0.304425406456E+01  0.127497956197E-02
  0.145739783145E-01  0.313957524300E+01 -0.127498218580E-02
  0.145739783145E-01  0.313957524300E+01  0.127498218580E-02
  0.145739780814E-01  0.323123931885E+01 -0.127498485067E-02
  0.145739780814E-01  0.323123931885E+01  0.127498485067E-02
  0.145739778462E-01  0.331920027733E+01 -0.127498753808E-02
  0.145739778462E-01  0.331920027733E+01  0.127498753808E-02
  0.145739776107E-01  0.340343642235E+01 -0.127499023067E-02
  0.145739776107E-01  0.340343642235E+01  0.127499023067E-02
  0.145739773760E-01  0.348394894600E+01 -0.127499291252E-02
  0.145739773760E-01  0.348394894600E+01  0.127499291252E-02
  0.145739771436E-01  0.356075930595E+01 -0.127499556921E-02
  0.145739771436E-01  0.356075930595E+01  0.127499556921E-02
  0.145739769145E-01  0.363390779495E+01 -0.127499818752E-02
  0.145739769145E-01  0.363390779495E+01  0.127499818752E-02
  0.145739766898E-01  0.370345163345E+01 -0.127500075597E-02
  0.145739766898E-01  0.370345163345E+01  0.127500075597E-02
  0.145739764703E-01  0.376946210861E+01 -0.127500326453E-02
  0.145739764703E-01  0.376946210861E+01  0.127500326453E-02
  0.145739762569E-01  0.383202338219E+01 -0.127500570451E-02
  0.145739762569E-01  0.383202338219E+01  0.127500570451E-02
  0.145739760500E-01  0.389123010635E+01 -0.127500806875E-02
  0.145739760500E-01  0.389123010635E+01  0.127500806875E-02
  0.145739758503E-01  0.394718551636E+01 -0.127501035132E-02
  0.145739758503E-01  0.394718551636E+01  0.127501035132E-02
  0.145739742878E-01  0.399999999420E+01 -0.127502821112E-02
  0.145739742878E-01  0.399999999420E+01  0.127502821112E-02
  0.145739728080E-01  0.400090121289E+01 -0.901416994502E-03
  0.145739728080E-01  0.400090121289E+01  0.901416994502E-03
  0.145739726083E-01  0.400127505265E+01 -0.149446732060E-24
  0.341100208890E-01  0.000000000000E+00 -0.298415383635E-02
  0.341100208890E-01  0.000000000000E+00  0.298415383635E-02
  0.341100209704E-01  0.104252345860E+00 -0.298415290503E-02
  0.341100209704E-01  0.104252345860E+00  0.298415290503E-02
  0.341100211721E-01  0.211780935526E+00 -0.298415059985E-02
  0.341100211721E-01  0.211780935526E+00  0.298415059985E-02
  0.341100213621E-01  0.322413772345E+00 -0.298414842802E-02
  0.341100213621E-01  0.322413772345E+00  0.298414842802E-02
  0.341100215386E-01  0.435950160027E+00 -0.298414641040E-02
  0.341100215386E-01  0.435950160027E+00  0.298414641040E-02
  0.341100216999E-01  0.552161276340E+00 -0.298414456714E-02
  0.341100216999E-01  0.552161276340E+00  0.298414456714E-02
  0.341100218442E-01  0.670791566372E+00 -0.298414291734E-02
  0.341100218442E-01  0.670791566372E+00  0.298414291734E-02
  0.341100219701E-01  0.791560173035E+00 -0.298414147868E-02
  0.341100219701E-01  0.791560173035E+00  0.298414147868E-02
  0.341100220761E-01  0.914163351059E+00 -0.298414026688E-02
  0.341100220761E-01  0.914163351059E+00  0.298414026688E-02
  0.341100221611E-01  0.103827738762E+01 -0.298413929558E-02
  0.341100221611E-01  0.103827738762E+01  0.298413929558E-02
  0.341100222241E-01  0.116356134415E+01 -0.298413857586E-02
  0.341100222241E-01  0.116356134415E+01  0.298413857586E-02
  0.341100222643E-01  0.128966128826E+01 -0.298413811612E-02
  0.341100222643E-01  0.128966128826E+01  0.298413811612E-02
  0.341100222813E-01  0.141621339321E+01 -0.298413792172E-02
  0.341100222813E-01  0.141621339321E+01  0.298413792172E-02
  0.341100222749E-01  0.154284906387E+01 -0.298413799485E-02
  0.341100222749E-01  0.154284906387E+01  0.298413799485E-02
  0.341100222452E-01  0.166919851303E+01 -0.298413833478E-02
  0.341100222452E-01  0.166919851303E+01  0.298413833478E-02
  0.341100221924E-01  0.179489517212E+01 -0.298413893742E-02
  0.341100221924E-01  0.179489517212E+01  0.298413893742E-02
  0.341100221173E-01  0.191958034039E+01 -0.298413979579E-02
  0.341100221173E-01  0.191958034039E+01  0.298413979579E-02
  0.341100220207E-01  0.204290652275E+01 -0.298414090000E-02
  0.341100220207E-01  0.204290652275E+01  0.298414090000E-02
  0.341100219037E-01  0.216454195976E+01 -0.298414223747E-02
  0.341100219037E-01  0.216454195976E+01  0.298414223747E-02
[...]
POINT_DATA                1696
SCALARS phi float 1
LOOKUP_TABLE default
  0.536078384203E-18
 -0.602166020602E-17
 -0.138271498787E-15
 -0.210385116997E-19
 -0.254829531309E-19
  0.126194674251E-19
  0.982276977407E-20
 -0.119693034636E-20
 -0.267377861202E-19
 -0.442235570889E-19
 -0.507144433556E-20
 -0.404433416896E-19
 -0.230336713372E-19
  0.309903216493E-19
  0.314452709862E-19
 -0.143863252135E-19
 -0.110188729398E-19
  0.764918727846E-19
  0.343693544516E-19
 -0.231792551250E-19
  0.230485605882E-19
  0.727993385302E-19
 -0.269272104804E-19
 -0.568595681263E-19
  0.349442449773E-20
  0.960398050205E-20
  0.402501950165E-19
 -0.105599531360E-18
 -0.184502635630E-19
 -0.309994206360E-19
  0.171121748451E-18
  0.301548692306E-20
  0.118854687086E-18
 -0.384473548715E-19
  0.128345343844E-19
  0.673420144389E-19
 -0.272642865801E-19
  0.756254010930E-19
  0.461856295019E-20
 -0.703056991761E-19
 -0.325260651746E-18
 -0.216840434497E-18
  0.000000000000E+00
 -0.108420217249E-18
  0.108420217249E-18
  0.108420217249E-18
  0.108420217249E-18
 -0.108420217249E-18
  0.108420217249E-18
  0.216840434497E-18
  0.000000000000E+00
 -0.108420217249E-18
 -0.216840434497E-18
  0.000000000000E+00
 -0.108420217249E-18
  0.000000000000E+00
  0.108420217249E-18
  0.216840434497E-18
 -0.108420217249E-18
 -0.108420217249E-18
 -0.216840434497E-18
  0.108420217249E-18
  0.000000000000E+00
  0.325260651746E-18
  0.000000000000E+00
  0.000000000000E+00
 -0.216840434497E-18
 -0.325260651746E-18
  0.216840434497E-18
  0.325260651746E-18
  0.108420217249E-18
  0.216840434497E-18
  0.000000000000E+00
 -0.216840434497E-18
  0.108420217249E-18
 -0.108420217249E-18
  0.325260651746E-18
  0.650521303491E-18
  0.108420217249E-18
  0.000000000000E+00
  0.108420217249E-18
  0.000000000000E+00
  0.216840434497E-18
  0.433680868994E-18
 -0.108420217249E-18
  0.108420217249E-18
 -0.108420217249E-18
  0.000000000000E+00
  0.000000000000E+00
  0.000000000000E+00
  0.216840434497E-18
 -0.108420217249E-18
  0.216840434497E-18
  0.108420217249E-18
  0.433680868994E-18
  0.325260651746E-18
  0.542101086243E-18
  0.216840434497E-18
  0.000000000000E+00
  0.000000000000E+00
  0.000000000000E+00
  0.216840434497E-18
  0.108420217249E-18
 -0.108420217249E-18
  0.325260651746E-18
  0.433680868994E-18
 -0.108420217249E-18
 -0.108420217249E-18
 -0.216840434497E-18
  0.000000000000E+00
 -0.108420217249E-18
  0.108420217249E-18
  0.108420217249E-18
 -0.325260651746E-18
  0.325260651746E-18
  0.108420217249E-18
  0.000000000000E+00
  0.000000000000E+00
  0.108420217249E-18
  0.542101086243E-19
  0.000000000000E+00
  0.542101086243E-19
  0.542101086243E-19
 -0.433680868994E-18
  0.000000000000E+00
  0.000000000000E+00
  0.216840434497E-18
  0.000000000000E+00
 -0.650521303491E-18
 -0.108420217249E-17
 -0.216840434497E-18
 -0.216840434497E-18
 -0.216840434497E-18
 -0.216840434497E-18
  0.650521303491E-18
 -0.867361737988E-18
  0.000000000000E+00
  0.650521303491E-18
  0.216840434497E-18
  0.000000000000E+00
  0.650521303491E-18
 -0.867361737988E-18
 -0.867361737988E-18
  0.000000000000E+00
  0.000000000000E+00
 -0.433680868994E-18
 -0.867361737988E-18
  0.000000000000E+00
  0.000000000000E+00
  0.000000000000E+00
  0.433680868994E-18
  0.216840434497E-18
  0.000000000000E+00
 -0.650521303491E-18
  0.433680868994E-18
  0.000000000000E+00
  0.216840434497E-18
  0.216840434497E-18
 -0.433680868994E-18
  0.216840434497E-18
  0.867361737988E-18
 -0.216840434497E-18
  0.216840434497E-18
  0.867361737988E-18
  0.650521303491E-18
 -0.216840434497E-18
 -0.216840434497E-18
 -0.650521303491E-18
 -0.650521303491E-18
  0.650521303491E-18
  0.433680868994E-18
 -0.433680868994E-18
 -0.433680868994E-18
  0.000000000000E+00
 -0.433680868994E-18
 -0.216840434497E-18
  0.000000000000E+00
 -0.433680868994E-18
 -0.650521303491E-18
 -0.650521303491E-18
 -0.867361737988E-18
 -0.216840434497E-18
  0.000000000000E+00
 -0.216840434497E-18
  0.000000000000E+00
  0.650521303491E-18
  0.216840434497E-18
 -0.650521303491E-18
 -0.650521303491E-18
  0.108420217249E-17
  0.000000000000E+00
  0.216840434497E-18
  0.000000000000E+00
  0.216840434497E-18
 -0.216840434497E-18
 -0.130104260698E-17
 -0.867361737988E-18
  0.216840434497E-18
  0.433680868994E-18
  0.000000000000E+00
 -0.650521303491E-18
 -0.325260651746E-18
 -0.542101086243E-18
  0.000000000000E+00
  0.000000000000E+00
 -0.433680868994E-18
  0.433680868994E-18
 -0.433680868994E-18
  0.867361737988E-18
  0.000000000000E+00
  0.130104260698E-17
  0.000000000000E+00
  0.867361737988E-18
  0.173472347598E-17
  0.433680868994E-18
  0.000000000000E+00
 -0.433680868994E-18
  0.433680868994E-18
 -0.433680868994E-18
  0.433680868994E-18
  0.867361737988E-18
  0.433680868994E-18
  0.867361737988E-18
  0.867361737988E-18
  0.130104260698E-17
  0.433680868994E-18
 -0.867361737988E-18
  0.433680868994E-18
  0.433680868994E-18
  0.433680868994E-18
 -0.433680868994E-18
  0.433680868994E-18
 -0.173472347598E-17
  0.867361737988E-18
  0.433680868994E-18
  0.867361737988E-18
 -0.173472347598E-17
  0.867361737988E-18
  0.000000000000E+00
 -0.433680868994E-18
 -0.867361737988E-18
 -0.433680868994E-18
 -0.867361737988E-18
 -0.130104260698E-17
 -0.173472347598E-17
  0.000000000000E+00
  0.216840434497E-17
  0.130104260698E-17
  0.433680868994E-18
  0.433680868994E-18
  0.433680868994E-18
  0.000000000000E+00
  0.000000000000E+00
  0.000000000000E+00
 -0.130104260698E-17
 -0.130104260698E-17
 -0.130104260698E-17
  0.130104260698E-17
  0.173472347598E-17
 -0.130104260698E-17
  0.000000000000E+00
  0.433680868994E-18
  0.433680868994E-18
  0.433680868994E-18
  0.433680868994E-18
  0.000000000000E+00
  0.000000000000E+00
  0.000000000000E+00
 -0.867361737988E-18
 -0.867361737988E-18
  0.000000000000E+00
 -0.433680868994E-18
 -0.867361737988E-18
  0.000000000000E+00
 -0.433680868994E-18
  0.000000000000E+00
 -0.867361737988E-18
  0.433680868994E-18
 -0.130104260698E-17
 -0.173472347598E-17
  0.433680868994E-18
 -0.173472347598E-17
  0.867361737988E-18
  0.000000000000E+00
  0.108420217249E-17
  0.108420217249E-17
 -0.867361737988E-18
  0.000000000000E+00
 -0.216840434497E-18
  0.000000000000E+00
 -0.867361737988E-18
 -0.173472347598E-17
  0.173472347598E-17
 -0.867361737988E-18
  0.000000000000E+00
  0.173472347598E-17
 -0.867361737988E-18
 -0.867361737988E-18
  0.867361737988E-18
 -0.867361737988E-18
 -0.867361737988E-18
  0.867361737988E-18
  0.000000000000E+00
 -0.260208521397E-17
 -0.867361737988E-18
  0.173472347598E-17
 -0.260208521397E-17
  0.867361737988E-18
  0.173472347598E-17
  0.867361737988E-18
  0.000000000000E+00
  0.260208521397E-17
  0.173472347598E-17
 -0.693889390391E-17
 -0.260208521397E-17
  0.260208521397E-17
  0.000000000000E+00
 -0.173472347598E-17
 -0.867361737988E-18
  0.173472347598E-17
  0.000000000000E+00
 -0.867361737988E-18
 -0.346944695195E-17
 -0.867361737988E-18
 -0.867361737988E-18
 -0.867361737988E-18
  0.000000000000E+00
  0.260208521397E-17
 -0.867361737988E-18
 -0.867361737988E-18
  0.000000000000E+00
  0.000000000000E+00
  0.867361737988E-18
 -0.867361737988E-18
  0.000000000000E+00
 -0.173472347598E-17
  0.867361737988E-18
  0.867361737988E-18
  0.433680868994E-17
 -0.260208521397E-17
 -0.867361737988E-18
  0.260208521397E-17
  0.173472347598E-17
 -0.173472347598E-17
 -0.173472347598E-17
 -0.173472347598E-17
  0.173472347598E-17
  0.867361737988E-18
  0.346944695195E-17
 -0.867361737988E-18
 -0.260208521397E-17
  0.867361737988E-18
  0.173472347598E-17
  0.173472347598E-17
  0.000000000000E+00
  0.000000000000E+00
  0.346944695195E-17
 -0.867361737988E-18
  0.000000000000E+00
  0.867361737988E-18
 -0.173472347598E-17
 -0.173472347598E-17
  0.000000000000E+00
 -0.867361737988E-18
 -0.173472347598E-17
  0.000000000000E+00
 -0.867361737988E-18
  0.000000000000E+00
  0.130104260698E-17
  0.433680868994E-18
  0.000000000000E+00
  0.130104260698E-17
 -0.867361737988E-18
  0.260208521397E-17
  0.260208521397E-17
  0.867361737988E-18
 -0.867361737988E-18
  0.000000000000E+00
  0.000000000000E+00
  0.260208521397E-17
  0.000000000000E+00
 -0.867361737988E-18
  0.000000000000E+00
 -0.173472347598E-17
 -0.433680868994E-17
  0.000000000000E+00
  0.867361737988E-18
 -0.260208521397E-17
  0.867361737988E-18
  0.260208521397E-17
  0.173472347598E-17
  0.867361737988E-18
  0.000000000000E+00
 -0.173472347598E-17
  0.173472347598E-17
  0.173472347598E-17
  0.000000000000E+00
  0.867361737988E-18
  0.000000000000E+00
 -0.693889390391E-17
 -0.867361737988E-18
 -0.173472347598E-17
  0.173472347598E-17
  0.173472347598E-17
  0.867361737988E-18
  0.867361737988E-18
 -0.260208521397E-17
  0.867361737988E-18
  0.260208521397E-17
 -0.867361737988E-18
  0.000000000000E+00
  0.000000000000E+00
 -0.260208521397E-17
  0.346944695195E-17
  0.346944695195E-17
  0.433680868994E-17
  0.346944695195E-17
 -0.433680868994E-17
  0.346944695195E-17
  0.000000000000E+00
 -0.260208521397E-17
 -0.867361737988E-18
  0.867361737988E-18
  0.173472347598E-17
 -0.867361737988E-18
  0.173472347598E-17
 -0.346944695195E-17
 -0.173472347598E-17
  0.000000000000E+00
 -0.173472347598E-17
  0.867361737988E-18
  0.867361737988E-18
 -0.607153216592E-17
 -0.867361737988E-18
  0.000000000000E+00
 -0.173472347598E-17
  0.260208521397E-17
  0.520417042793E-17
 -0.260208521397E-17
 -0.173472347598E-17
  0.000000000000E+00
  0.173472347598E-17
  0.173472347598E-17
 -0.173472347598E-17
  0.000000000000E+00
  0.520417042793E-17
 -0.173472347598E-17
 -0.346944695195E-17
  0.867361737988E-18
  0.000000000000E+00
  0.433680868994E-18
  0.216840434497E-17
  0.130104260698E-17
 -0.867361737988E-18
  0.433680868994E-18
  0.693889390391E-17
  0.000000000000E+00
  0.346944695195E-17
 -0.520417042793E-17
  0.693889390391E-17
 -0.346944695195E-17
  0.520417042793E-17
  0.693889390391E-17
 -0.346944695195E-17
 -0.346944695195E-17
  0.346944695195E-17
  0.173472347598E-17
 -0.346944695195E-17
 -0.173472347598E-17
 -0.346944695195E-17
  0.520417042793E-17
  0.000000000000E+00
 -0.346944695195E-17
 -0.693889390391E-17
  0.000000000000E+00
 -0.173472347598E-17
 -0.520417042793E-17
 -0.121430643318E-16
 -0.173472347598E-17
 -0.346944695195E-17
  0.520417042793E-17
  0.346944695195E-17
  0.173472347598E-17
 -0.693889390391E-17
  0.000000000000E+00
  0.867361737988E-17
 -0.520417042793E-17
  0.520417042793E-17
 -0.346944695195E-17
  0.104083408559E-16
  0.000000000000E+00
  0.520417042793E-17
 -0.520417042793E-17
  0.520417042793E-17
 -0.346944695195E-17
  0.000000000000E+00
  0.000000000000E+00
 -0.173472347598E-17
  0.000000000000E+00
  0.000000000000E+00
  0.000000000000E+00
  0.173472347598E-17
 -0.173472347598E-17
 -0.173472347598E-17
  0.173472347598E-17
 -0.346944695195E-17
 -0.693889390391E-17
  0.520417042793E-17
  0.346944695195E-17
  0.520417042793E-17
 -0.346944695195E-17
  0.520417042793E-17
  0.173472347598E-17
  0.693889390391E-17
 -0.173472347598E-17
  0.346944695195E-17
 -0.173472347598E-17
 -0.520417042793E-17
 -0.520417042793E-17
 -0.346944695195E-17
  0.000000000000E+00
  0.173472347598E-17
  0.000000000000E+00
  0.693889390391E-17
 -0.346944695195E-17
  0.173472347598E-17
  0.346944695195E-17
  0.346944695195E-17
 -0.520417042793E-17
 -0.693889390391E-17
 -0.173472347598E-17
 -0.607153216592E-17
 -0.260208521397E-17
 -0.260208521397E-17
  0.867361737988E-18
  0.260208521397E-17
  0.867361737988E-18
 -0.260208521397E-17
  0.173472347598E-17
  0.693889390391E-17
 -0.520417042793E-17
 -0.346944695195E-17
  0.693889390391E-17
  0.000000000000E+00
 -0.173472347598E-17
 -0.173472347598E-17
 -0.346944695195E-17
  0.121430643318E-16
  0.173472347598E-17
  0.346944695195E-17
  0.000000000000E+00
  0.173472347598E-17
 -0.173472347598E-17
 -0.520417042793E-17
 -0.346944695195E-17
 -0.173472347598E-17
  0.346944695195E-17
 -0.173472347598E-17
  0.173472347598E-17
  0.693889390391E-17
 -0.693889390391E-17
  0.000000000000E+00
  0.693889390391E-17
  0.693889390391E-17
 -0.520417042793E-17
 -0.867361737988E-17
 -0.346944695195E-17
  0.173472347598E-17
  0.520417042793E-17
  0.000000000000E+00
 -0.346944695195E-17
  0.000000000000E+00
  0.173472347598E-17
 -0.693889390391E-17
  0.000000000000E+00
  0.520417042793E-17
 -0.346944695195E-17
 -0.520417042793E-17
  0.173472347598E-17
 -0.173472347598E-17
  0.173472347598E-17
  0.104083408559E-16
  0.138777878078E-16
  0.000000000000E+00
 -0.346944695195E-17
 -0.520417042793E-17
 -0.520417042793E-17
  0.173472347598E-17
 -0.173472347598E-17
 -0.173472347598E-17
  0.000000000000E+00
  0.520417042793E-17
  0.000000000000E+00
 -0.346944695195E-17
  0.173472347598E-17
 -0.520417042793E-17
  0.346944695195E-17
  0.173472347598E-17
 -0.520417042793E-17
 -0.346944695195E-17
 -0.867361737988E-17
 -0.520417042793E-17
  0.346944695195E-17
  0.000000000000E+00
  0.000000000000E+00
  0.000000000000E+00
 -0.520417042793E-17
  0.346944695195E-17
 -0.867361737988E-17
 -0.867361737988E-17
  0.346944695195E-17
 -0.173472347598E-17
  0.000000000000E+00
 -0.104083408559E-16
 -0.346944695195E-17
 -0.173472347598E-17
  0.173472347598E-17
 -0.867361737988E-18
  0.173472347598E-17
  0.867361737988E-18
 -0.173472347598E-17
  0.520417042793E-17
  0.346944695195E-17
 -0.520417042793E-17
  0.693889390391E-17
 -0.693889390391E-17
 -0.693889390391E-17
  0.346944695195E-17
  0.867361737988E-17
 -0.867361737988E-17
 -0.693889390391E-17
  0.346944695195E-17
 -0.173472347598E-17
 -0.867361737988E-17
 -0.121430643318E-16
  0.173472347598E-17
 -0.693889390391E-17
 -0.693889390391E-17
  0.346944695195E-17
 -0.173472347598E-17
 -0.867361737988E-17
 -0.346944695195E-17
  0.346944695195E-17
  0.346944695195E-17
  0.693889390391E-17
  0.520417042793E-17
 -0.346944695195E-17
  0.138777878078E-16
  0.867361737988E-17
 -0.520417042793E-17
 -0.867361737988E-17
  0.121430643318E-16
  0.693889390391E-17
  0.693889390391E-17
  0.104083408559E-16
 -0.173472347598E-17
 -0.867361737988E-17
  0.000000000000E+00
 -0.520417042793E-17
 -0.693889390391E-17
  0.346944695195E-17
 -0.693889390391E-17
  0.000000000000E+00
 -0.173472347598E-17
  0.173472347598E-17
 -0.520417042793E-17
  0.346944695195E-17
 -0.138777878078E-16
 -0.693889390391E-17
 -0.867361737988E-17
 -0.138777878078E-16
 -0.520417042793E-17
 -0.346944695195E-17
  0.346944695195E-17
 -0.173472347598E-17
  0.346944695195E-17
  0.693889390391E-17
  0.173472347598E-17
  0.173472347598E-17
  0.346944695195E-17
  0.693889390391E-17
  0.693889390391E-17
 -0.867361737988E-17
  0.173472347598E-17
 -0.173472347598E-17
  0.346944695195E-17
  0.346944695195E-17
 -0.693889390391E-17
 -0.121430643318E-16
 -0.346944695195E-17
 -0.346944695195E-17
 -0.346944695195E-17
 -0.520417042793E-17
  0.104083408559E-16
  0.693889390391E-17
  0.000000000000E+00
  0.000000000000E+00
 -0.173472347598E-17
 -0.173472347598E-17
  0.520417042793E-17
  0.520417042793E-17
  0.000000000000E+00
 -0.173472347598E-17
 -0.433680868994E-17
  0.346944695195E-17
  0.346944695195E-17
  0.242861286637E-16
  0.000000000000E+00
  0.346944695195E-17
  0.138777878078E-16
  0.104083408559E-16
  0.208166817117E-16
  0.104083408559E-16
 -0.693889390391E-17
  0.693889390391E-17
  0.693889390391E-17
  0.104083408559E-16
  0.208166817117E-16
  0.000000000000E+00
  0.346944695195E-17
  0.138777878078E-16
  0.693889390391E-17
  0.104083408559E-16
 -0.693889390391E-17
  0.104083408559E-16
  0.138777878078E-16
  0.346944695195E-17
 -0.346944695195E-17
 -0.138777878078E-16
 -0.138777878078E-16
  0.000000000000E+00
 -0.173472347598E-16
  0.000000000000E+00
 -0.693889390391E-17
 -0.138777878078E-16
 -0.346944695195E-17
 -0.173472347598E-16
 -0.104083408559E-16
 -0.138777878078E-16
  0.693889390391E-17
  0.000000000000E+00
 -0.346944695195E-17
  0.000000000000E+00
  0.693889390391E-17
 -0.138777878078E-16
 -0.693889390391E-17
  0.000000000000E+00
  0.693889390391E-17
  0.693889390391E-17
  0.346944695195E-17
 -0.138777878078E-16
 -0.693889390391E-17
 -0.104083408559E-16
 -0.242861286637E-16
  0.000000000000E+00
 -0.104083408559E-16
  0.693889390391E-17
 -0.104083408559E-16
 -0.346944695195E-17
 -0.173472347598E-16
 -0.208166817117E-16
 -0.693889390391E-17
  0.693889390391E-17
  0.346944695195E-17
  0.346944695195E-17
 -0.693889390391E-17
 -0.346944695195E-17
 -0.138777878078E-16
  0.104083408559E-16
 -0.104083408559E-16
  0.693889390391E-17
  0.104083408559E-16
 -0.346944695195E-17
  0.000000000000E+00
 -0.693889390391E-17
  0.000000000000E+00
 -0.138777878078E-16
  0.104083408559E-16
 -0.173472347598E-16
  0.000000000000E+00
  0.173472347598E-17
  0.693889390391E-17
  0.173472347598E-17
  0.346944695195E-17
  0.000000000000E+00
  0.693889390391E-17
 -0.520417042793E-17
  0.346944695195E-17
  0.173472347598E-16
 -0.138777878078E-16
 -0.138777878078E-16
  0.208166817117E-16
 -0.104083408559E-16
  0.104083408559E-16
  0.208166817117E-16
  0.346944695195E-17
  0.104083408559E-16
 -0.693889390391E-17
  0.104083408559E-16
  0.138777878078E-16
  0.104083408559E-16
  0.346944695195E-17
  0.346944695195E-17
  0.000000000000E+00
  0.346944695195E-17
  0.000000000000E+00
 -0.173472347598E-16
 -0.312250225676E-16
 -0.277555756156E-16
  0.000000000000E+00
 -0.346944695195E-17
 -0.138777878078E-16
 -0.346944695195E-17
 -0.208166817117E-16
 -0.346944695195E-17
  0.000000000000E+00
  0.104083408559E-16
 -0.138777878078E-16
 -0.104083408559E-16
  0.693889390391E-17
  0.104083408559E-16
 -0.242861286637E-16
  0.693889390391E-17
  0.693889390391E-17
  0.208166817117E-16
  0.173472347598E-16
  0.346944695195E-17
  0.693889390391E-17
  0.104083408559E-16
 -0.208166817117E-16
 -0.208166817117E-16
 -0.312250225676E-16
  0.000000000000E+00
  0.173472347598E-16
  0.346944695195E-17
  0.104083408559E-16
  0.000000000000E+00
  0.173472347598E-16
  0.104083408559E-16
  0.000000000000E+00
  0.000000000000E+00
 -0.104083408559E-16
 -0.173472347598E-16
  0.104083408559E-16
  0.346944695195E-17
 -0.346944695195E-17
 -0.173472347598E-16
 -0.104083408559E-16
  0.000000000000E+00
 -0.277555756156E-16
 -0.277555756156E-16
 -0.173472347598E-16
 -0.138777878078E-16
  0.346944695195E-17
  0.693889390391E-17
  0.138777878078E-16
  0.346944695195E-17
 -0.346944695195E-17
 -0.104083408559E-16
  0.346944695195E-17
  0.312250225676E-16
 -0.173472347598E-16
  0.346944695195E-17
  0.346944695195E-17
 -0.138777878078E-16
  0.138777878078E-16
  0.346944695195E-17
 -0.346944695195E-17
 -0.173472347598E-17
 -0.346944695195E-17
  0.346944695195E-17
  0.346944695195E-17
  0.693889390391E-17
  0.104083408559E-16
  0.000000000000E+00
  0.000000000000E+00
 -0.138777878078E-16
 -0.104083408559E-16
  0.693889390391E-17
  0.104083408559E-16
 -0.277555756156E-16
 -0.346944695195E-17
 -0.138777878078E-16
  0.693889390391E-17
 -0.346944695195E-17
  0.000000000000E+00
 -0.173472347598E-16
 -0.346944695195E-17
  0.346944695195E-17
  0.277555756156E-16
 -0.693889390391E-17
  0.000000000000E+00
  0.138777878078E-16
  0.104083408559E-16
  0.208166817117E-16
  0.346944695195E-17
 -0.208166817117E-16
  0.693889390391E-17
  0.104083408559E-16
  0.242861286637E-16
  0.242861286637E-16
 -0.693889390391E-17
  0.104083408559E-16
  0.000000000000E+00
 -0.208166817117E-16
 -0.104083408559E-16
  0.000000000000E+00
  0.000000000000E+00
  0.000000000000E+00
 -0.138777878078E-16
 -0.346944695195E-17
 -0.693889390391E-17
  0.104083408559E-16
  0.000000000000E+00
  0.104083408559E-16
  0.138777878078E-16
 -0.208166817117E-16
  0.000000000000E+00
  0.104083408559E-16
 -0.173472347598E-16
 -0.693889390391E-17
 -0.312250225676E-16
  0.000000000000E+00
  0.104083408559E-16
  0.242861286637E-16
 -0.208166817117E-16
  0.000000000000E+00
 -0.173472347598E-16
  0.138777878078E-16
  0.693889390391E-17
  0.693889390391E-17
  0.000000000000E+00
  0.277555756156E-16
  0.138777878078E-16
 -0.104083408559E-16
 -0.346944695195E-17
 -0.242861286637E-16
  0.000000000000E+00
 -0.104083408559E-16
  0.173472347598E-16
  0.693889390391E-17
 -0.173472347598E-16
  0.173472347598E-16
 -0.104083408559E-16
  0.000000000000E+00
 -0.242861286637E-16
  0.173472347598E-17
  0.520417042793E-17