# vtk DataFile Version 3.0
TriPan results file. Generated by TriPan, USU AeroLab (c) 2021.
ASCII
DATASET POLYDATA
POINTS                 446 float
  0.000000000000E+00  0.000000000000E+00  0.000000000000E+00
  0.000000000000E+00  0.217527970672E+00  0.000000000000E+00
  0.000000000000E+00  0.448061168194E+00  0.000000000000E+00
  0.000000000000E+00  0.689725637436E+00  0.000000000000E+00
  0.000000000000E+00  0.940178275108E+00  0.000000000000E+00
  0.000000000000E+00  0.119668114185E+01  0.000000000000E+00
  0.000000000000E+00  0.145621216297E+01  0.000000000000E+00
  0.000000000000E+00  0.171560299397E+01  0.000000000000E+00
  0.000000000000E+00  0.197169232368E+01  0.000000000000E+00
  0.000000000000E+00  0.222147774696E+01  0.000000000000E+00
  0.000000000000E+00  0.246225214005E+01  0.000000000000E+00
  0.000000000000E+00  0.269171094894E+01  0.000000000000E+00
  0.000000000000E+00  0.290802383423E+01  0.000000000000E+00
  0.000000000000E+00  0.310986590385E+01  0.000000000000E+00
  0.000000000000E+00  0.329641318321E+01  0.000000000000E+00
  0.000000000000E+00  0.346730756760E+01  0.000000000000E+00
  0.000000000000E+00  0.362259936333E+01  0.000000000000E+00
  0.000000000000E+00  0.376267743111E+01  0.000000000000E+00
  0.000000000000E+00  0.388819599152E+01  0.000000000000E+00
  0.000000000000E+00  0.400000000000E+01  0.000000000000E+00
  0.341100133955E-01  0.000000000000E+00 -0.298423948698E-02
  0.341100133955E-01  0.000000000000E+00  0.298423948698E-02
  0.341100133955E-01  0.217527970672E+00 -0.298423948698E-02
  0.341100133955E-01  0.217527970672E+00  0.298423948698E-02
  0.341100133955E-01  0.448061168194E+00 -0.298423948698E-02
  0.341100133955E-01  0.448061168194E+00  0.298423948698E-02
  0.341100133955E-01  0.689725637436E+00 -0.298423948698E-02
  0.341100133955E-01  0.689725637436E+00  0.298423948698E-02
  0.341100133955E-01  0.940178275108E+00 -0.298423948698E-02
  0.341100133955E-01  0.940178275108E+00  0.298423948698E-02
  0.341100133955E-01  0.119668114185E+01 -0.298423948698E-02
  0.341100133955E-01  0.119668114185E+01  0.298423948698E-02
  0.341100133955E-01  0.145621216297E+01 -0.298423948698E-02
  0.341100133955E-01  0.145621216297E+01  0.298423948698E-02
  0.341100133955E-01  0.171560299397E+01 -0.298423948698E-02
  0.341100133955E-01  0.171560299397E+01  0.298423948698E-02
  0.341100133955E-01  0.197169232368E+01 -0.298423948698E-02
  0.341100133955E-01  0.197169232368E+01  0.298423948698E-02
  0.341100133955E-01  0.222147774696E+01 -0.298423948698E-02
  0.341100133955E-01  0.222147774696E+01  0.298423948698E-02
  0.341100133955E-01  0.246225214005E+01 -0.298423948698E-02
  0.341100133955E-01  0.246225214005E+01  0.298423948698E-02
  0.341100133955E-01  0.269171094894E+01 -0.298423948698E-02
  0.341100133955E-01  0.269171094894E+01  0.298423948698E-02
  0.341100133955E-01  0.290802383423E+01 -0.298423948698E-02
  0.341100133955E-01  0.290802383423E+01  0.298423948698E-02
  0.341100133955E-01  0.310986590385E+01 -0.298423948698E-02
  0.341100133955E-01  0.310986590385E+01  0.298423948698E-02
  0.341100133955E-01  0.329641318321E+01 -0.298423948698E-02
  0.341100133955E-01  0.329641318321E+01  0.298423948698E-02
  0.341100133955E-01  0.346730756760E+01 -0.298423948698E-02
  0.341100133955E-01  0.346730756760E+01  0.298423948698E-02
  0.341100133955E-01  0.362259936333E+01 -0.298423948698E-02
  0.341100133955E-01  0.362259936333E+01  0.298423948698E-02
  0.341100133955E-01  0.376267743111E+01 -0.298423948698E-02
  0.341100133955E-01  0.376267743111E+01  0.298423948698E-02
  0.341100133955E-01  0.388819599152E+01 -0.298423948698E-02
  0.341100133955E-01  0.388819599152E+01  0.298423948698E-02
  0.341100133955E-01  0.400000000000E+01 -0.298423948698E-02
  0.341100133955E-01  0.400000000000E+01  0.298423948698E-02
  0.341100133955E-01  0.400210952759E+01 -0.210976228118E-02
  0.341100133955E-01  0.400210952759E+01  0.210976228118E-02
  0.341100133955E-01  0.400298404694E+01  0.000000000000E+00
  0.937237665057E-01  0.000000000000E+00 -0.819976720959E-02
  0.937237665057E-01  0.000000000000E+00  0.819976720959E-02
  0.937237665057E-01  0.217527970672E+00 -0.819976720959E-02
  0.937237665057E-01  0.217527970672E+00  0.819976720959E-02
  0.937237665057E-01  0.448061168194E+00 -0.819976720959E-02
  0.937237665057E-01  0.448061168194E+00  0.819976720959E-02
  0.937237665057E-01  0.689725637436E+00 -0.819976720959E-02
  0.937237665057E-01  0.689725637436E+00  0.819976720959E-02
  0.937237665057E-01  0.940178275108E+00 -0.819976720959E-02
  0.937237665057E-01  0.940178275108E+00  0.819976720959E-02
  0.937237665057E-01  0.119668114185E+01 -0.819976720959E-02
  0.937237665057E-01  0.119668114185E+01  0.819976720959E-02
  0.937237665057E-01  0.145621216297E+01 -0.819976720959E-02
  0.937237665057E-01  0.145621216297E+01  0.819976720959E-02
  0.937237665057E-01  0.171560299397E+01 -0.819976720959E-02
  0.937237665057E-01  0.171560299397E+01  0.819976720959E-02
  0.937237665057E-01  0.197169232368E+01 -0.819976720959E-02
  0.937237665057E-01  0.197169232368E+01  0.819976720959E-02
  0.937237665057E-01  0.222147774696E+01 -0.819976720959E-02
  0.937237665057E-01  0.222147774696E+01  0.819976720959E-02
  0.937237665057E-01  0.246225214005E+01 -0.819976720959E-02
  0.937237665057E-01  0.246225214005E+01  0.819976720959E-02
  0.937237665057E-01  0.269171094894E+01 -0.819976720959E-02
  0.937237665057E-01  0.269171094894E+01  0.819976720959E-02
  0.937237665057E-01  0.290802383423E+01 -0.819976720959E-02
  0.937237665057E-01  0.290802383423E+01  0.819976720959E-02
  0.937237665057E-01  0.310986590385E+01 -0.819976720959E-02
  0.937237665057E-01  0.310986590385E+01  0.819976720959E-02
  0.937237665057E-01  0.329641318321E+01 -0.819976720959E-02
  0.937237665057E-01  0.329641318321E+01  0.819976720959E-02
  0.937237665057E-01  0.346730756760E+01 -0.819976720959E-02
  0.937237665057E-01  0.346730756760E+01  0.819976720959E-02
  0.937237665057E-01  0.362259936333E+01 -0.819976720959E-02
  0.937237665057E-01  0.362259936333E+01  0.819976720959E-02
  0.937237665057E-01  0.376267743111E+01 -0.819976720959E-02
  0.937237665057E-01  0.376267743111E+01  0.819976720959E-02
  0.937237665057E-01  0.388819599152E+01 -0.819976720959E-02
  0.937237665057E-01  0.388819599152E+01  0.819976720959E-02
  0.937237665057E-01  0.400000000000E+01 -0.819976720959E-02
  0.937237665057E-01  0.400000000000E+01  0.819976720959E-02
  0.937237665057E-01  0.400579690933E+01 -0.579697405919E-02
  0.937237665057E-01  0.400579690933E+01  0.579697405919E-02
  0.937237665057E-01  0.400819969177E+01  0.000000000000E+00
  0.190432325006E+00  0.000000000000E+00 -0.166606698185E-01
  0.190432325006E+00  0.000000000000E+00  0.166606698185E-01
  0.190432325006E+00  0.217527970672E+00 -0.166606698185E-01
  0.190432325006E+00  0.217527970672E+00  0.166606698185E-01
  0.190432325006E+00  0.448061168194E+00 -0.166606698185E-01
  0.190432325006E+00  0.448061168194E+00  0.166606698185E-01
  0.190432325006E+00  0.689725637436E+00 -0.166606698185E-01
  0.190432325006E+00  0.689725637436E+00  0.166606698185E-01
  0.190432325006E+00  0.940178275108E+00 -0.166606698185E-01
  0.190432325006E+00  0.940178275108E+00  0.166606698185E-01
  0.190432325006E+00  0.119668114185E+01 -0.166606698185E-01
  0.190432325006E+00  0.119668114185E+01  0.166606698185E-01
  0.190432325006E+00  0.145621216297E+01 -0.166606698185E-01
  0.190432325006E+00  0.145621216297E+01  0.166606698185E-01
  0.190432325006E+00  0.171560299397E+01 -0.166606698185E-01
  0.190432325006E+00  0.171560299397E+01  0.166606698185E-01
  0.190432325006E+00  0.197169232368E+01 -0.166606698185E-01
  0.190432325006E+00  0.197169232368E+01  0.166606698185E-01
  0.190432325006E+00  0.222147774696E+01 -0.166606698185E-01
  0.190432325006E+00  0.222147774696E+01  0.166606698185E-01
  0.190432325006E+00  0.246225214005E+01 -0.166606698185E-01
  0.190432325006E+00  0.246225214005E+01  0.166606698185E-01
  0.190432325006E+00  0.269171094894E+01 -0.166606698185E-01
  0.190432325006E+00  0.269171094894E+01  0.166606698185E-01
  0.190432325006E+00  0.290802383423E+01 -0.166606698185E-01
  0.190432325006E+00  0.290802383423E+01  0.166606698185E-01
  0.190432325006E+00  0.310986590385E+01 -0.166606698185E-01
  0.190432325006E+00  0.310986590385E+01  0.166606698185E-01
  0.190432325006E+00  0.329641318321E+01 -0.166606698185E-01
  0.190432325006E+00  0.329641318321E+01  0.166606698185E-01
  0.190432325006E+00  0.346730756760E+01 -0.166606698185E-01
  0.190432325006E+00  0.346730756760E+01  0.166606698185E-01
  0.190432325006E+00  0.362259936333E+01 -0.166606698185E-01
  0.190432325006E+00  0.362259936333E+01  0.166606698185E-01
  0.190432325006E+00  0.376267743111E+01 -0.166606698185E-01
  0.190432325006E+00  0.376267743111E+01  0.166606698185E-01
  0.190432325006E+00  0.388819599152E+01 -0.166606698185E-01
  0.190432325006E+00  0.388819599152E+01  0.166606698185E-01
  0.190432325006E+00  0.400000000000E+01 -0.166606698185E-01
  0.190432325006E+00  0.400000000000E+01  0.166606698185E-01
  0.190432325006E+00  0.401177835464E+01 -0.117785623297E-01
  0.190432325006E+00  0.401177835464E+01  0.117785623297E-01
  0.190432325006E+00  0.401666069031E+01 -0.272416755980E-17
  0.329831987619E+00  0.000000000000E+00 -0.288565587252E-01
  0.329831987619E+00  0.000000000000E+00  0.288565587252E-01
  0.329831987619E+00  0.217527970672E+00 -0.288565587252E-01
  0.329831987619E+00  0.217527970672E+00  0.288565587252E-01
  0.329831987619E+00  0.448061168194E+00 -0.288565587252E-01
  0.329831987619E+00  0.448061168194E+00  0.288565587252E-01
  0.329831987619E+00  0.689725637436E+00 -0.288565587252E-01
  0.329831987619E+00  0.689725637436E+00  0.288565587252E-01
  0.329831987619E+00  0.940178275108E+00 -0.288565587252E-01
  0.329831987619E+00  0.940178275108E+00  0.288565587252E-01
  0.329831987619E+00  0.119668114185E+01 -0.288565587252E-01
  0.329831987619E+00  0.119668114185E+01  0.288565587252E-01
[...]
CELL_DATA                 832
SCALARS sigma float 1
LOOKUP_TABLE default
 -0.871557522570E-01
 -0.871557522570E-01
 -0.871557287754E-01
 -0.871557287754E-01
 -0.871557634975E-01
 -0.871557634975E-01
 -0.871557429768E-01
 -0.871557429768E-01
 -0.871557414567E-01
 -0.871557414567E-01
  0.871557566045E-01
  0.871557566045E-01
  0.871557337317E-01
  0.871557337317E-01
  0.871557435062E-01
  0.871557435062E-01
  0.871557449904E-01
  0.871557449904E-01
  0.871557428102E-01
  0.871557428102E-01
  0.871557428102E-01
  0.871557428102E-01
  0.871557449904E-01
  0.871557449904E-01
  0.871557435062E-01
  0.871557435062E-01
  0.871557337317E-01
  0.871557337317E-01
  0.871557566045E-01
  0.871557566045E-01
 -0.871557414567E-01
 -0.871557414567E-01
 -0.871557429768E-01
 -0.871557429768E-01
 -0.871557634975E-01
 -0.871557634975E-01
 -0.871557287754E-01
 -0.871557287754E-01
 -0.871557522570E-01
 -0.871557522570E-01
 -0.871557522570E-01
 -0.871557522570E-01
 -0.871557287754E-01
 -0.871557287754E-01
 -0.871557634975E-01
 -0.871557634975E-01
 -0.871557429768E-01
 -0.871557429768E-01
 -0.871557414567E-01
 -0.871557414567E-01
  0.871557566045E-01
  0.871557566045E-01
  0.871557337317E-01
  0.871557337317E-01
  0.871557435062E-01
  0.871557435062E-01
  0.871557449904E-01
  0.871557449904E-01
  0.871557428102E-01
  0.871557428102E-01
  0.871557428102E-01
  0.871557428102E-01
  0.871557449904E-01
  0.871557449904E-01
  0.871557435062E-01
  0.871557435062E-01
  0.871557337317E-01
  0.871557337317E-01
  0.871557566045E-01
  0.871557566045E-01
 -0.871557414567E-01
 -0.871557414567E-01
 -0.871557429768E-01
 -0.871557429768E-01
 -0.871557634975E-01
 -0.871557634975E-01
 -0.871557287754E-01
 -0.871557287754E-01
 -0.871557522570E-01
 -0.871557522570E-01
 -0.871557522570E-01
 -0.871557522570E-01
 -0.871557287754E-01
 -0.871557287754E-01
 -0.871557634975E-01
 -0.871557634975E-01
 -0.871557429768E-01
 -0.871557429768E-01
 -0.871557414567E-01
 -0.871557414567E-01
  0.871557566045E-01
  0.871557566045E-01
  0.871557337317E-01
  0.871557337317E-01
  0.871557435062E-01
  0.871557435062E-01
  0.871557449904E-01
  0.871557449904E-01
  0.871557428102E-01
  0.871557428102E-01
  0.871557428102E-01
  0.871557428102E-01
  0.871557449904E-01
  0.871557449904E-01
  0.871557435062E-01
  0.871557435062E-01
  0.871557337317E-01
  0.871557337317E-01
  0.871557566045E-01
  0.871557566045E-01
 -0.871557414567E-01
 -0.871557414567E-01
 -0.871557429768E-01
 -0.871557429768E-01
 -0.871557634975E-01
 -0.871557634975E-01
 -0.871557287754E-01
 -0.871557287754E-01
 -0.871557522570E-01
 -0.871557522570E-01
 -0.871557522570E-01
 -0.871557522570E-01
 -0.871557287754E-01
 -0.871557287754E-01
 -0.871557634975E-01
 -0.871557634975E-01
 -0.871557429768E-01
 -0.871557429768E-01
 -0.871557414567E-01
 -0.871557414567E-01
  0.871557566045E-01
  0.871557566045E-01
  0.871557337317E-01
  0.871557337317E-01
  0.871557435062E-01
  0.871557435062E-01
  0.871557449904E-01
  0.871557449904E-01
  0.871557428102E-01
  0.871557428102E-01
  0.871557428102E-01
  0.871557428102E-01
  0.871557449904E-01
  0.871557449904E-01
  0.871557435062E-01
  0.871557435062E-01
  0.871557337317E-01
  0.871557337317E-01
  0.871557566045E-01
  0.871557566045E-01
 -0.871557414567E-01
 -0.871557414567E-01
 -0.871557429768E-01
 -0.871557429768E-01
 -0.871557634975E-01
 -0.871557634975E-01
 -0.871557287754E-01
 -0.871557287754E-01
 -0.871557522570E-01
 -0.871557522570E-01
 -0.871557522570E-01
 -0.871557522570E-01
 -0.871557287754E-01
 -0.871557287754E-01
 -0.871557634975E-01
 -0.871557634975E-01
 -0.871557429768E-01
 -0.871557429768E-01
 -0.871557414567E-01
 -0.871557414567E-01
  0.871557566045E-01
  0.871557566045E-01
  0.871557337317E-01
  0.871557337317E-01
  0.871557435062E-01
  0.871557435062E-01
  0.871557449904E-01
  0.871557449904E-01
  0.871557428102E-01
  0.871557428102E-01
  0.871557428102E-01
  0.871557428102E-01
  0.871557449904E-01
  0.871557449904E-01
  0.871557435062E-01
  0.871557435062E-01
  0.871557337317E-01
  0.871557337317E-01
  0.871557566045E-01
  0.871557566045E-01
 -0.871557414567E-01
 -0.871557414567E-01
 -0.871557429768E-01
 -0.871557429768E-01
 -0.871557634975E-01
 -0.871557634975E-01
 -0.871557287754E-01
 -0.871557287754E-01
 -0.871557522570E-01
 -0.871557522570E-01
 -0.871557522570E-01
 -0.871557522570E-01
 -0.871557287754E-01
 -0.871557287754E-01
 -0.871557634975E-01
 -0.871557634975E-01
 -0.871557429768E-01
 -0.871557429768E-01
 -0.871557414567E-01
 -0.871557414567E-01
  0.871557566045E-01
  0.871557566045E-01
  0.871557337317E-01
  0.871557337317E-01
  0.871557435062E-01
  0.871557435062E-01
  0.871557449904E-01
  0.871557449904E-01
  0.871557428102E-01
  0.871557428102E-01
  0.871557428102E-01
  0.871557428102E-01
  0.871557449904E-01
  0.871557449904E-01
  0.871557435062E-01
  0.871557435062E-01
  0.871557337317E-01
  0.871557337317E-01
  0.871557566045E-01
  0.871557566045E-01
 -0.871557414567E-01
 -0.871557414567E-01
 -0.871557429768E-01
 -0.871557429768E-01
 -0.871557634975E-01
 -0.871557634975E-01
 -0.871557287754E-01
 -0.871557287754E-01
 -0.871557522570E-01
 -0.871557522570E-01
 -0.871557522570E-01
 -0.871557522570E-01
 -0.871557287754E-01
 -0.871557287754E-01
 -0.871557634975E-01
 -0.871557634975E-01
 -0.871557429768E-01
 -0.871557429768E-01
 -0.871557414567E-01
 -0.871557414567E-01
  0.871557566045E-01
  0.871557566045E-01
  0.871557337317E-01
  0.871557337317E-01
  0.871557435062E-01
  0.871557435062E-01
  0.871557449904E-01
  0.871557449904E-01
  0.871557428102E-01
  0.871557428102E-01
  0.871557428102E-01
  0.871557428102E-01
  0.871557449904E-01
  0.871557449904E-01
  0.871557435062E-01
  0.871557435062E-01
  0.871557337317E-01
  0.871557337317E-01
  0.871557566045E-01
  0.871557566045E-01
 -0.871557414567E-01
 -0.871557414567E-01
 -0.871557429768E-01
 -0.871557429768E-01
 -0.871557634975E-01
 -0.871557634975E-01
 -0.871557287754E-01
 -0.871557287754E-01
 -0.871557522570E-01
 -0.871557522570E-01
 -0.871557522570E-01
 -0.871557522570E-01
 -0.871557287754E-01
 -0.871557287754E-01
 -0.871557634975E-01
 -0.871557634975E-01
 -0.871557429768E-01
 -0.871557429768E-01
 -0.871557414567E-01
 -0.871557414567E-01
  0.871557566045E-01
  0.871557566045E-01
  0.871557337317E-01
  0.871557337317E-01
  0.871557435062E-01
  0.871557435062E-01
  0.871557449904E-01
  0.871557449904E-01
  0.871557428102E-01
  0.871557428102E-01
  0.871557428102E-01
  0.871557428102E-01
  0.871557449904E-01
  0.871557449904E-01
  0.871557435062E-01
  0.871557435062E-01
  0.871557337317E-01
  0.871557337317E-01
  0.871557566045E-01
  0.871557566045E-01
 -0.871557414567E-01
 -0.871557414567E-01
 -0.871557429768E-01
 -0.871557429768E-01
 -0.871557634975E-01
 -0.871557634975E-01
 -0.871557287754E-01
 -0.871557287754E-01
 -0.871557522570E-01
 -0.871557522570E-01
 -0.871557522570E-01
 -0.871557522570E-01
 -0.871557287754E-01
 -0.871557287754E-01
 -0.871557634975E-01
 -0.871557634975E-01
 -0.871557429768E-01
 -0.871557429768E-01
 -0.871557414567E-01
 -0.871557414567E-01
  0.871557566045E-01
  0.871557566045E-01
  0.871557337317E-01
  0.871557337317E-01
  0.871557435062E-01
  0.871557435062E-01
  0.871557449904E-01
  0.871557449904E-01
  0.871557428102E-01
  0.871557428102E-01
  0.871557428102E-01
  0.871557428102E-01
  0.871557449904E-01
  0.871557449904E-01
  0.871557435062E-01
  0.871557435062E-01
  0.871557337317E-01
  0.871557337317E-01
  0.871557566045E-01
  0.871557566045E-01
 -0.871557414567E-01
 -0.871557414567E-01
 -0.871557429768E-01
 -0.871557429768E-01
 -0.871557634975E-01
 -0.871557634975E-01
 -0.871557287754E-01
 -0.871557287754E-01
 -0.871557522570E-01
 -0.871557522570E-01
 -0.871557522570E-01
 -0.871557522570E-01
 -0.871557287754E-01
 -0.871557287754E-01
 -0.871557634975E-01
 -0.871557634975E-01
 -0.871557429768E-01
 -0.871557429768E-01
 -0.871557414567E-01
 -0.871557414567E-01
  0.871557566045E-01
  0.871557566045E-01
  0.871557337317E-01
  0.871557337317E-01
  0.871557435062E-01
  0.871557435062E-01
  0.871557449904E-01
  0.871557449904E-01
  0.871557428102E-01
  0.871557428102E-01
  0.871557428102E-01
  0.871557428102E-01
  0.871557449904E-01
  0.871557449904E-01
  0.871557435062E-01
  0.871557435062E-01
  0.871557337317E-01
  0.871557337317E-01
  0.871557566045E-01
  0.871557566045E-01
 -0.871557414567E-01
 -0.871557414567E-01
 -0.871557429768E-01
 -0.871557429768E-01
 -0.871557634975E-01
 -0.871557634975E-01
 -0.871557287754E-01
 -0.871557287754E-01
 -0.871557522570E-01
 -0.871557522570E-01
 -0.871557522570E-01
 -0.871557522570E-01
 -0.871557287754E-01
 -0.871557287754E-01
 -0.871557634975E-01
 -0.871557634975E-01
 -0.871557429768E-01
 -0.871557429768E-01
 -0.871557414567E-01
 -0.871557414567E-01
  0.871557566045E-01
  0.871557566045E-01
  0.871557337317E-01
  0.871557337317E-01
  0.871557435062E-01
  0.871557435062E-01
  0.871557449904E-01
  0.871557449904E-01
  0.871557428102E-01
  0.871557428102E-01
  0.871557428102E-01
  0.871557428102E-01
  0.871557449904E-01
  0.871557449904E-01
  0.871557435062E-01
  0.871557435062E-01
  0.871557337317E-01
  0.871557337317E-01
  0.871557566045E-01
  0.871557566045E-01
 -0.871557414567E-01
 -0.871557414567E-01
 -0.871557429768E-01
 -0.871557429768E-01
 -0.871557634975E-01
 -0.871557634975E-01
 -0.871557287754E-01
 -0.871557287754E-01
 -0.871557522570E-01
 -0.871557522570E-01
 -0.871557522570E-01
 -0.871557522570E-01
 -0.871557287754E-01
 -0.871557287754E-01
 -0.871557634975E-01
 -0.871557634975E-01
 -0.871557429768E-01
 -0.871557429768E-01
 -0.871557414567E-01
 -0.871557414567E-01
  0.871557566045E-01
  0.871557566045E-01
  0.871557337317E-01
  0.871557337317E-01
  0.871557435062E-01
  0.871557435062E-01
  0.871557449904E-01
  0.871557449904E-01
  0.871557428102E-01
  0.871557428102E-01
  0.871557428102E-01
  0.871557428102E-01
  0.871557449904E-01
  0.871557449904E-01
  0.871557435062E-01
  0.871557435062E-01
  0.871557337317E-01
  0.871557337317E-01
  0.871557566045E-01
  0.871557566045E-01
 -0.871557414567E-01
 -0.871557414567E-01
 -0.871557429768E-01
 -0.871557429768E-01
 -0.871557634975E-01
 -0.871557634975E-01
 -0.871557287754E-01
 -0.871557287754E-01
 -0.871557522570E-01
 -0.871557522570E-01
 -0.871557522570E-01
 -0.871557522570E-01
 -0.871557287754E-01
 -0.871557287754E-01
 -0.871557634975E-01
 -0.871557634975E-01
 -0.871557429768E-01
 -0.871557429768E-01
 -0.871557414567E-01
 -0.871557414567E-01
  0.871557566045E-01
  0.871557566045E-01
  0.871557337317E-01
  0.871557337317E-01
  0.871557435062E-01
  0.871557435062E-01
  0.871557449904E-01
  0.871557449904E-01
  0.871557428102E-01
  0.871557428102E-01
  0.871557428102E-01
  0.871557428102E-01
  0.871557449904E-01
  0.871557449904E-01
  0.871557435062E-01
  0.871557435062E-01
  0.871557337317E-01
  0.871557337317E-01
  0.871557566045E-01
  0.871557566045E-01
 -0.871557414567E-01
 -0.871557414567E-01
 -0.871557429768E-01
 -0.871557429768E-01
 -0.871557634975E-01
 -0.871557634975E-01
 -0.871557287754E-01
 -0.871557287754E-01
 -0.871557522570E-01
 -0.871557522570E-01
 -0.871557522570E-01
 -0.871557522570E-01
 -0.871557287754E-01
 -0.871557287754E-01
 -0.871557634975E-01
 -0.871557634975E-01
 -0.871557429768E-01
 -0.871557429768E-01
 -0.871557414567E-01
 -0.871557414567E-01
  0.871557566045E-01
  0.871557566045E-01
  0.871557337317E-01
  0.871557337317E-01
  0.871557435062E-01
  0.871557435062E-01
  0.871557449904E-01
  0.871557449904E-01
  0.871557428102E-01
  0.871557428102E-01
  0.871557428102E-01
  0.871557428102E-01
  0.871557449904E-01
  0.871557449904E-01
  0.871557435062E-01
  0.871557435062E-01
  0.871557337317E-01
  0.871557337317E-01
  0.871557566045E-01
  0.871557566045E-01
 -0.871557414567E-01
 -0.871557414567E-01
 -0.871557429768E-01
 -0.871557429768E-01
 -0.871557634975E-01
 -0.871557634975E-01
 -0.871557287754E-01
 -0.871557287754E-01
 -0.871557522570E-01
 -0.871557522570E-01
 -0.871557522570E-01
 -0.871557522570E-01
 -0.871557287754E-01
 -0.871557287754E-01
 -0.871557634975E-01
 -0.871557634975E-01
 -0.871557429768E-01
 -0.871557429768E-01
 -0.871557414567E-01
 -0.871557414567E-01
  0.871557566045E-01
  0.871557566045E-01
  0.871557337317E-01
  0.871557337317E-01
  0.871557435062E-01
  0.871557435062E-01
  0.871557449904E-01
  0.871557449904E-01
  0.871557428102E-01
  0.871557428102E-01
  0.871557428102E-01
  0.871557428102E-01
  0.871557449904E-01
  0.871557449904E-01
  0.871557435062E-01
  0.871557435062E-01
  0.871557337317E-01
  0.871557337317E-01
  0.871557566045E-01
  0.871557566045E-01
 -0.871557414567E-01
 -0.871557414567E-01
 -0.871557429768E-01
 -0.871557429768E-01
 -0.871557634975E-01
 -0.871557634975E-01
 -0.871557287754E-01
 -0.871557287754E-01
 -0.871557522570E-01
 -0.871557522570E-01
 -0.871557522570E-01
 -0.871557522570E-01
 -0.871557287754E-01
 -0.871557287754E-01
 -0.871557634975E-01
 -0.871557634975E-01
 -0.871557429768E-01
 -0.871557429768E-01
 -0.871557414567E-01
 -0.871557414567E-01
  0.871557566045E-01
  0.871557566045E-01
  0.871557337317E-01
  0.871557337317E-01
  0.871557435062E-01
  0.871557435062E-01
  0.871557449904E-01
  0.871557449904E-01
  0.871557428102E-01
  0.871557428102E-01
  0.871557428102E-01
  0.871557428102E-01
  0.871557449904E-01
  0.871557449904E-01
  0.871557435062E-01
  0.871557435062E-01
  0.871557337317E-01
  0.871557337317E-01
  0.871557566045E-01
  0.871557566045E-01
 -0.871557414567E-01
 -0.871557414567E-01
 -0.871557429768E-01
 -0.871557429768E-01
 -0.871557634975E-01
 -0.871557634975E-01
 -0.871557287754E-01
 -0.871557287754E-01
 -0.871557522570E-01
 -0.871557522570E-01
 -0.871557522570E-01
 -0.871557522570E-01
 -0.871557287754E-01
 -0.871557287754E-01
 -0.871557634975E-01
 -0.871557634975E-01
 -0.871557429768E-01
 -0.871557429768E-01
 -0.871557414567E-01
 -0.871557414567E-01
  0.871557566045E-01
  0.871557566045E-01
  0.871557337317E-01
  0.871557337317E-01
  0.871557435062E-01
  0.871557435062E-01
  0.871557449904E-01
  0.871557449904E-01
  0.871557428102E-01
  0.871557428102E-01
  0.871557428102E-01
  0.871557428102E-01
  0.871557449904E-01
  0.871557449904E-01
  0.871557435062E-01
  0.871557435062E-01
  0.871557337317E-01
  0.871557337317E-01
  0.871557566045E-01
  0.871557566045E-01
 -0.871557414567E-01
 -0.871557414567E-01
 -0.871557429768E-01
 -0.871557429768E-01
 -0.871557634975E-01
 -0.871557634975E-01
 -0.871557287754E-01
 -0.871557287754E-01
 -0.871557522570E-01
 -0.871557522570E-01
 -0.871557522570E-01
 -0.871557522570E-01
 -0.871557287754E-01
 -0.871557287754E-01
 -0.871557634975E-01
 -0.871557634975E-01
 -0.871557429768E-01
 -0.871557429768E-01
 -0.871557414567E-01
 -0.871557414567E-01
  0.871557566045E-01
  0.871557566045E-01
  0.871557337317E-01
  0.871557337317E-01
  0.871557435062E-01
  0.871557435062E-01
  0.871557449904E-01
  0.871557449904E-01
  0.871557428102E-01
  0.871557428102E-01
  0.871557428102E-01
  0.871557428102E-01
  0.871557449904E-01
  0.871557449904E-01
  0.871557435062E-01
  0.871557435062E-01
  0.871557337317E-01
  0.871557337317E-01
  0.871557566045E-01
  0.871557566045E-01
 -0.871557414567E-01
 -0.871557414567E-01
 -0.871557429768E-01
 -0.871557429768E-01
 -0.871557634975E-01
 -0.871557634975E-01
 -0.871557287754E-01
 -0.871557287754E-01
 -0.871557522570E-01
 -0.871557522570E-01
 -0.871557522570E-01
 -0.871557522570E-01
 -0.871557287754E-01
 -0.871557287754E-01
 -0.871557634975E-01
 -0.871557634975E-01
 -0.871557429768E-01
 -0.871557429768E-01
 -0.871557414567E-01
 -0.871557414567E-01
  0.871557566045E-01
  0.871557566045E-01
  0.871557337317E-01
  0.871557337317E-01
  0.871557435062E-01
  0.871557435062E-01
  0.871557449904E-01
  0.871557449904E-01
  0.871557428102E-01
  0.871557428102E-01
  0.871557428102E-01
  0.871557428102E-01
  0.871557449904E-01
  0.871557449904E-01
  0.871557435062E-01
  0.871557435062E-01
  0.871557337317E-01
  0.871557337317E-01
  0.871557566045E-01
  0.871557566045E-01
 -0.871557414567E-01
 -0.871557414567E-01
 -0.871557429768E-01
 -0.871557429768E-01
 -0.871557634975E-01
 -0.871557634975E-01
 -0.871557287754E-01
 -0.871557287754E-01
 -0.871557522570E-01
 -0.871557522570E-01
 -0.805570854206E-01
 -0.805607490770E-01
 -0.805582366092E-01
 -0.805579675070E-01
 -0.805581921972E-01
 -0.805587675784E-01
 -0.805582988966E-01
 -0.805585603312E-01
 -0.805583422474E-01
  0.805583562642E-01
  0.805585743480E-01
  0.805582903418E-01
  0.805587590236E-01
  0.805581736985E-01
  0.805579490084E-01
  0.805582516135E-01
  0.805607640817E-01
  0.805570766793E-01
  0.805570766793E-01
  0.805607640817E-01
  0.805582516135E-01
  0.805579490084E-01
  0.805581736985E-01
  0.805587590236E-01
  0.805582903418E-01
  0.805585743480E-01
  0.805583562642E-01
 -0.805583422474E-01
 -0.805585603312E-01
 -0.805582988966E-01
 -0.805587675784E-01
 -0.805581921972E-01
 -0.805579675070E-01
 -0.805582366092E-01
 -0.805607490770E-01
 -0.805570854206E-01
 -0.805526614465E-01
 -0.805596007597E-01
 -0.805609217743E-01
 -0.805593595294E-01
 -0.805575932169E-01
 -0.805589806506E-01
 -0.805592763996E-01
 -0.805580998396E-01
 -0.805589203269E-01
  0.805589343439E-01
  0.805581138564E-01
  0.805592678448E-01
  0.805589720958E-01
  0.805575747185E-01
  0.805593410305E-01
  0.805609367791E-01
  0.805596157642E-01
  0.805526527056E-01
  0.805526527056E-01
  0.805596157642E-01
  0.805609367791E-01
  0.805593410305E-01
  0.805575747185E-01
  0.805589720958E-01
  0.805592678448E-01
  0.805581138564E-01
  0.805589343439E-01
 -0.805589203269E-01
 -0.805580998396E-01
 -0.805592763996E-01
 -0.805589806506E-01
 -0.805575932169E-01
 -0.805593595294E-01
 -0.805609217743E-01
 -0.805596007597E-01
 -0.805526614465E-01
SCALARS C_p_ise float 1
LOOKUP_TABLE default
  0.752674664768E-02
  0.752592104236E-02
  0.767317671605E-02
  0.771917021191E-02
  0.766189291561E-02
  0.772285848861E-02
  0.765014899209E-02
  0.765083548410E-02
  0.766666121496E-02
  0.767580762558E-02
  0.763176388757E-02
  0.763661451911E-02
  0.764391761229E-02
  0.764539062990E-02
  0.764475409641E-02
  0.764579954525E-02
  0.764496218271E-02
  0.764589747293E-02
  0.763636342489E-02
  0.763921620415E-02
  0.763941118387E-02
  0.764257024771E-02
  0.764694056332E-02
  0.764707959963E-02
  0.764721656199E-02
  0.764741033406E-02
  0.764792404915E-02
  0.764795678307E-02
  0.764991119482E-02
  0.764973638732E-02
  0.764847737061E-02
  0.764919568753E-02
  0.764938011462E-02
  0.765038177002E-02
  0.762502857645E-02
  0.764050102361E-02
  0.764072928949E-02
  0.764236331325E-02
  0.767370107180E-02
  0.764469744221E-02
  0.774650494585E-02
  0.761185999647E-02
  0.764357300695E-02
  0.767317776632E-02
  0.762067297775E-02
  0.766189355595E-02
  0.764891778100E-02
  0.765014899367E-02
  0.765687849507E-02
  0.766666118513E-02
  0.763661449155E-02
  0.764476505333E-02
  0.764539063088E-02
  0.764579781823E-02
  0.764579954563E-02
  0.764595627649E-02
  0.764589747308E-02
  0.764610519077E-02
  0.763921620415E-02
  0.763885994849E-02
  0.763901122875E-02
  0.763941118387E-02
  0.764676203377E-02
  0.764694056350E-02
  0.764716232465E-02
  0.764721656220E-02
  0.764775445049E-02
  0.764792404940E-02
  0.764907773553E-02
  0.764991119458E-02
  0.764919568697E-02
  0.765041430339E-02
  0.765038177040E-02
  0.765054942852E-02
  0.764050106813E-02
  0.765966014887E-02
  0.764236331122E-02
  0.764883210496E-02
  0.764469737621E-02
  0.761812159234E-02
  0.769212120462E-02
  0.752603478584E-02
  0.764370450860E-02
  0.764357349271E-02
  0.764491175464E-02
  0.762067325508E-02
  0.764783462842E-02
  0.764891778307E-02
  0.765657240825E-02
  0.765687849568E-02
  0.764476505340E-02
  0.764491426876E-02
  0.764579781823E-02
  0.764583678267E-02
  0.764595627649E-02
  0.764597334722E-02
  0.764610519077E-02
  0.764610623194E-02
  0.763885994849E-02
  0.763857273404E-02
  0.763867427530E-02
  0.763901122875E-02
  0.764674104799E-02
  0.764676203377E-02
  0.764711800187E-02
  0.764716232465E-02
  0.764768236187E-02
  0.764775445049E-02
  0.764913498700E-02
  0.764907773557E-02
  0.765041430339E-02
  0.765053630529E-02
  0.765054942854E-02
  0.765065227555E-02