# vtk DataFile Version 3.0
MachLine results file. Generated by MachLine, USU AeroLab (c) 2023.
ASCII
DATASET POLYDATA
POINTS                 152 float
  0.100000000000E+01  0.105263157890E+00  0.000000000000E+00
  0.100000000000E+01  0.000000000000E+00  0.000000000000E+00
  0.295000000000E+02  0.105263157890E+00  0.000000000000E+00
  0.295000000000E+02  0.000000000000E+00  0.000000000000E+00
  0.100000000000E+01  0.210526315790E+00  0.000000000000E+00
  0.100000000000E+01  0.105263157890E+00  0.000000000000E+00
  0.295000000000E+02  0.210526315790E+00  0.000000000000E+00
  0.295000000000E+02  0.105263157890E+00  0.000000000000E+00
  0.100000000000E+01  0.315789473680E+00  0.000000000000E+00
  0.100000000000E+01  0.210526315790E+00  0.000000000000E+00
  0.295000000000E+02  0.315789473680E+00  0.000000000000E+00
  0.295000000000E+02  0.210526315790E+00  0.000000000000E+00
  0.100000000000E+01  0.421052631580E+00  0.000000000000E+00
  0.100000000000E+01  0.315789473680E+00  0.000000000000E+00
  0.295000000000E+02  0.421052631580E+00  0.000000000000E+00
  0.295000000000E+02  0.315789473680E+00  0.000000000000E+00
  0.100000000000E+01  0.526315789470E+00  0.000000000000E+00
  0.100000000000E+01  0.421052631580E+00  0.000000000000E+00
  0.295000000000E+02  0.526315789470E+00  0.000000000000E+00
  0.295000000000E+02  0.421052631580E+00  0.000000000000E+00
  0.100000000000E+01  0.631578947370E+00  0.000000000000E+00
  0.100000000000E+01  0.526315789470E+00  0.000000000000E+00
  0.295000000000E+02  0.631578947370E+00  0.000000000000E+00
  0.295000000000E+02  0.526315789470E+00  0.000000000000E+00
  0.100000000000E+01  0.736842105260E+00  0.000000000000E+00
  0.100000000000E+01  0.631578947370E+00  0.000000000000E+00
  0.295000000000E+02  0.736842105260E+00  0.000000000000E+00
  0.295000000000E+02  0.631578947370E+00  0.000000000000E+00
  0.100000000000E+01  0.842105263160E+00  0.000000000000E+00
  0.100000000000E+01  0.736842105260E+00  0.000000000000E+00
  0.295000000000E+02  0.842105263160E+00  0.000000000000E+00
  0.295000000000E+02  0.736842105260E+00  0.000000000000E+00
  0.100000000000E+01  0.947368421050E+00  0.000000000000E+00
  0.100000000000E+01  0.842105263160E+00  0.000000000000E+00
  0.295000000000E+02  0.947368421050E+00  0.000000000000E+00
  0.295000000000E+02  0.842105263160E+00  0.000000000000E+00
  0.100000000000E+01  0.105263157890E+01  0.000000000000E+00
  0.100000000000E+01  0.947368421050E+00  0.000000000000E+00
  0.295000000000E+02  0.105263157890E+01  0.000000000000E+00
  0.295000000000E+02  0.947368421050E+00  0.000000000000E+00
  0.100000000000E+01  0.115789473680E+01  0.000000000000E+00
  0.100000000000E+01  0.105263157890E+01  0.000000000000E+00
  0.295000000000E+02  0.115789473680E+01  0.000000000000E+00
  0.295000000000E+02  0.105263157890E+01  0.000000000000E+00
  0.100000000000E+01  0.126315789470E+01  0.000000000000E+00
  0.100000000000E+01  0.115789473680E+01  0.000000000000E+00
  0.295000000000E+02  0.126315789470E+01  0.000000000000E+00
  0.295000000000E+02  0.115789473680E+01  0.000000000000E+00
  0.100000000000E+01  0.136842105260E+01  0.000000000000E+00
  0.100000000000E+01  0.126315789470E+01  0.000000000000E+00
  0.295000000000E+02  0.136842105260E+01  0.000000000000E+00
  0.295000000000E+02  0.126315789470E+01  0.000000000000E+00
  0.100000000000E+01  0.147368421050E+01  0.000000000000E+00
  0.100000000000E+01  0.136842105260E+01  0.000000000000E+00
  0.295000000000E+02  0.147368421050E+01  0.000000000000E+00
  0.295000000000E+02  0.136842105260E+01  0.000000000000E+00
  0.100000000000E+01  0.157894736840E+01  0.000000000000E+00
  0.100000000000E+01  0.147368421050E+01  0.000000000000E+00
  0.295000000000E+02  0.157894736840E+01  0.000000000000E+00
  0.295000000000E+02  0.147368421050E+01  0.000000000000E+00
  0.100000000000E+01  0.168421052630E+01  0.000000000000E+00
  0.100000000000E+01  0.157894736840E+01  0.000000000000E+00
  0.295000000000E+02  0.168421052630E+01  0.000000000000E+00
  0.295000000000E+02  0.157894736840E+01  0.000000000000E+00
  0.100000000000E+01  0.178947368420E+01  0.000000000000E+00
  0.100000000000E+01  0.168421052630E+01  0.000000000000E+00
  0.295000000000E+02  0.178947368420E+01  0.000000000000E+00
  0.295000000000E+02  0.168421052630E+01  0.000000000000E+00
  0.100000000000E+01  0.189473684210E+01  0.000000000000E+00
  0.100000000000E+01  0.178947368420E+01  0.000000000000E+00
  0.295000000000E+02  0.189473684210E+01  0.000000000000E+00
  0.295000000000E+02  0.178947368420E+01  0.000000000000E+00
  0.100000000000E+01  0.200000000000E+01  0.000000000000E+00
  0.100000000000E+01  0.189473684210E+01  0.000000000000E+00
  0.295000000000E+02  0.200000000000E+01  0.000000000000E+00
  0.295000000000E+02  0.189473684210E+01  0.000000000000E+00
  0.100000000000E+01  0.000000000000E+00  0.000000000000E+00
  0.100000000000E+01 -0.105263157890E+00  0.000000000000E+00
  0.295000000000E+02  0.000000000000E+00  0.000000000000E+00
  0.295000000000E+02 -0.105263157890E+00  0.000000000000E+00
  0.100000000000E+01 -0.105263157890E+00  0.000000000000E+00
  0.100000000000E+01 -0.210526315790E+00  0.000000000000E+00
  0.295000000000E+02 -0.105263157890E+00  0.000000000000E+00
  0.295000000000E+02 -0.210526315790E+00  0.000000000000E+00
  0.100000000000E+01 -0.210526315790E+00  0.000000000000E+00
  0.100000000000E+01 -0.315789473680E+00  0.000000000000E+00
  0.295000000000E+02 -0.210526315790E+00  0.000000000000E+00
  0.295000000000E+02 -0.315789473680E+00  0.000000000000E+00
  0.100000000000E+01 -0.315789473680E+00  0.000000000000E+00
  0.100000000000E+01 -0.421052631580E+00  0.000000000000E+00
  0.295000000000E+02 -0.315789473680E+00  0.000000000000E+00
  0.295000000000E+02 -0.421052631580E+00  0.000000000000E+00
  0.100000000000E+01 -0.421052631580E+00  0.000000000000E+00
  0.100000000000E+01 -0.526315789470E+00  0.000000000000E+00
  0.295000000000E+02 -0.421052631580E+00  0.000000000000E+00
  0.295000000000E+02 -0.526315789470E+00  0.000000000000E+00
  0.100000000000E+01 -0.526315789470E+00  0.000000000000E+00
  0.100000000000E+01 -0.631578947370E+00  0.000000000000E+00
  0.295000000000E+02 -0.526315789470E+00  0.000000000000E+00
  0.295000000000E+02 -0.631578947370E+00  0.000000000000E+00
  0.100000000000E+01 -0.631578947370E+00  0.000000000000E+00
  0.100000000000E+01 -0.736842105260E+00  0.000000000000E+00
  0.295000000000E+02 -0.631578947370E+00  0.000000000000E+00
  0.295000000000E+02 -0.736842105260E+00  0.000000000000E+00
  0.100000000000E+01 -0.736842105260E+00  0.000000000000E+00
  0.100000000000E+01 -0.842105263160E+00  0.000000000000E+00
  0.295000000000E+02 -0.736842105260E+00  0.000000000000E+00
  0.295000000000E+02 -0.842105263160E+00  0.000000000000E+00
  0.100000000000E+01 -0.842105263160E+00  0.000000000000E+00
  0.100000000000E+01 -0.947368421050E+00  0.000000000000E+00
  0.295000000000E+02 -0.842105263160E+00  0.000000000000E+00
  0.295000000000E+02 -0.947368421050E+00  0.000000000000E+00
  0.100000000000E+01 -0.947368421050E+00  0.000000000000E+00
  0.100000000000E+01 -0.105263157890E+01  0.000000000000E+00
  0.295000000000E+02 -0.947368421050E+00  0.000000000000E+00
  0.295000000000E+02 -0.105263157890E+01  0.000000000000E+00
  0.100000000000E+01 -0.105263157890E+01  0.000000000000E+00
  0.100000000000E+01 -0.115789473680E+01  0.000000000000E+00
  0.295000000000E+02 -0.105263157890E+01  0.000000000000E+00
  0.295000000000E+02 -0.115789473680E+01  0.000000000000E+00
  0.100000000000E+01 -0.115789473680E+01  0.000000000000E+00
  0.100000000000E+01 -0.126315789470E+01  0.000000000000E+00
  0.295000000000E+02 -0.115789473680E+01  0.000000000000E+00
  0.295000000000E+02 -0.126315789470E+01  0.000000000000E+00
  0.100000000000E+01 -0.126315789470E+01  0.000000000000E+00
  0.100000000000E+01 -0.136842105260E+01  0.000000000000E+00
  0.295000000000E+02 -0.126315789470E+01  0.000000000000E+00
  0.295000000000E+02 -0.136842105260E+01  0.000000000000E+00
  0.100000000000E+01 -0.136842105260E+01  0.000000000000E+00
  0.100000000000E+01 -0.147368421050E+01  0.000000000000E+00
  0.295000000000E+02 -0.136842105260E+01  0.000000000000E+00
  0.295000000000E+02 -0.147368421050E+01  0.000000000000E+00
  0.100000000000E+01 -0.147368421050E+01  0.000000000000E+00
  0.100000000000E+01 -0.157894736840E+01  0.000000000000E+00
  0.295000000000E+02 -0.147368421050E+01  0.000000000000E+00
  0.295000000000E+02 -0.157894736840E+01  0.000000000000E+00
  0.100000000000E+01 -0.157894736840E+01  0.000000000000E+00
  0.100000000000E+01 -0.168421052630E+01  0.000000000000E+00
  0.295000000000E+02 -0.157894736840E+01  0.000000000000E+00
  0.295000000000E+02 -0.168421052630E+01  0.000000000000E+00
  0.100000000000E+01 -0.168421052630E+01  0.000000000000E+00
  0.100000000000E+01 -0.178947368420E+01  0.000000000000E+00
  0.295000000000E+02 -0.168421052630E+01  0.000000000000E+00
  0.295000000000E+02 -0.178947368420E+01  0.000000000000E+00
  0.100000000000E+01 -0.178947368420E+01  0.000000000000E+00
  0.100000000000E+01 -0.189473684210E+01  0.000000000000E+00
  0.295000000000E+02 -0.178947368420E+01  0.000000000000E+00
  0.295000000000E+02 -0.189473684210E+01  0.000000000000E+00
  0.100000000000E+01 -0.189473684210E+01  0.000000000000E+00
  0.100000000000E+01 -0.200000000000E+01  0.000000000000E+00
  0.295000000000E+02 -0.189473684210E+01  0.000000000000E+00
  0.295000000000E+02 -0.200000000000E+01  0.000000000000E+00
POLYGONS                  76                 304
3                   0                   3                   1
3                   0                   2                   3
3                   4                   7                   5
3                   4                   6                   7
3                   8                  11                   9
3                   8                  10                  11
3                  12                  15                  13
3                  12                  14                  15
3                  16                  19                  17
3                  16                  18                  19
3                  20                  23                  21
3                  20                  22                  23
3                  24                  27                  25
3                  24                  26                  27
3                  28                  31                  29
3                  28                  30                  31
3                  32                  35                  33
3                  32                  34                  35
3                  36                  39                  37
3                  36                  38                  39
3                  40                  43                  41
3                  40                  42                  43
3                  44                  47                  45
3                  44                  46                  47
3                  48                  51                  49
3                  48                  50                  51
3                  52                  55                  53
3                  52                  54                  55
3                  56                  59                  57
3                  56                  58                  59
3                  60                  63                  61
3                  60                  62                  63
3                  64                  67                  65
3                  64                  66                  67
3                  68                  71                  69
3                  68                  70                  71
3                  72                  75                  73
3                  72                  74                  75
3                  76                  79                  77
3                  76                  78                  79
3                  80                  83                  81
3                  80                  82                  83
3                  84                  87                  85
3                  84                  86                  87
3                  88                  91                  89
3                  88                  90                  91
3                  92                  95                  93
3                  92                  94                  95
3                  96                  99                  97
3                  96                  98                  99
3                 100                 103                 101
3                 100                 102                 103
3                 104                 107                 105
3                 104                 106                 107
3                 108                 111                 109
3                 108                 110                 111
3                 112                 115                 113
3                 112                 114                 115
3                 116                 119                 117
3                 116                 118                 119
3                 120                 123                 121
3                 120                 122                 123
3                 124                 127                 125
3                 124                 126                 127
3                 128                 131                 129
3                 128                 130                 131
3                 132                 135                 133
3                 132                 134                 135
3                 136                 139                 137
3                 136                 138                 139
3                 140                 143                 141
3                 140                 142                 143
3                 144                 147                 145
3                 144                 146                 147
3                 148                 151                 149
3                 148                 150                 151
POINT_DATA                 152
SCALARS mu float 1
LOOKUP_TABLE default
 -0.351869564245E-08
 -0.727191843746E-08
 -0.351869564245E-08
 -0.727191843746E-08
 -0.170227798823E-08
 -0.351869564245E-08
 -0.170227798823E-08
 -0.351869564245E-08
 -0.847320964411E-09
 -0.170227798823E-08
 -0.847320964411E-09
 -0.170227798823E-08
 -0.227929756042E-09
 -0.847320964411E-09
 -0.227929756042E-09
 -0.847320964411E-09
 -0.478981806651E-10
 -0.227929756042E-09
 -0.478981806651E-10
 -0.227929756042E-09
  0.277093335177E-10
 -0.478981806651E-10
  0.277093335177E-10
 -0.478981806651E-10
  0.358508030066E-10
  0.277093335177E-10
  0.358508030066E-10
  0.277093335177E-10
 -0.491113599230E-10
  0.358508030066E-10
 -0.491113599230E-10
  0.358508030066E-10
 -0.792031754664E-10
 -0.491113599230E-10
 -0.792031754664E-10
 -0.491113599230E-10
 -0.470393845488E-10
 -0.792031754664E-10
 -0.470393845488E-10
 -0.792031754664E-10
  0.141005345773E-09
 -0.470393845488E-10
  0.141005345773E-09
 -0.470393845488E-10
  0.489514136691E-10
  0.141005345773E-09
  0.489514136691E-10
  0.141005345773E-09
 -0.594302562891E-10
  0.489514136691E-10
 -0.594302562891E-10
  0.489514136691E-10
  0.838023261895E-10
 -0.594302562891E-10
  0.838023261895E-10
 -0.594302562891E-10
 -0.188411092283E-10
  0.838023261895E-10
 -0.188411092283E-10
  0.838023261895E-10
 -0.183002852455E-09
 -0.188411092283E-10
 -0.183002852455E-09
 -0.188411092283E-10
 -0.574149391225E-10
 -0.183002852455E-09
 -0.574149391225E-10
 -0.183002852455E-09
 -0.193008040106E-10
 -0.574149391225E-10
 -0.193008040106E-10
 -0.574149391225E-10
  0.000000000000E+00
 -0.193008040106E-10
  0.000000000000E+00
 -0.193008040106E-10
 -0.727191843746E-08
 -0.740650577167E-08
 -0.727191843746E-08
 -0.740650577167E-08
 -0.740650577167E-08
 -0.116338303100E-07
 -0.740650577167E-08
 -0.116338303100E-07
 -0.116338303100E-07
 -0.220057572829E-07
 -0.116338303100E-07
 -0.220057572829E-07
 -0.220057572829E-07
 -0.446603188382E-07
 -0.220057572829E-07
 -0.446603188382E-07
 -0.446603188382E-07
 -0.910311817524E-07
 -0.446603188382E-07
 -0.910311817524E-07
 -0.910311817524E-07
 -0.186270676364E-06
 -0.910311817524E-07
 -0.186270676364E-06
 -0.186270676364E-06
 -0.381326820321E-06
 -0.186270676364E-06
 -0.381326820321E-06
 -0.381326820321E-06
 -0.781773091078E-06
 -0.381326820321E-06
 -0.781773091078E-06
 -0.781773091078E-06
 -0.160282803135E-05
 -0.781773091078E-06
 -0.160282803135E-05
 -0.160282803135E-05
 -0.328684971319E-05
 -0.160282803135E-05
 -0.328684971319E-05
 -0.328684971319E-05
  0.386628059175E-05
 -0.328684971319E-05
  0.386628059175E-05
  0.386628059175E-05
  0.109081862478E-05
  0.386628059175E-05
  0.109081862478E-05
  0.109081862478E-05
  0.573997111460E-06
  0.109081862478E-05
  0.573997111460E-06
  0.573997111460E-06
  0.437345384551E-06
  0.573997111460E-06
  0.437345384551E-06
  0.437345384551E-06
  0.322744792331E-06
  0.437345384551E-06
  0.322744792331E-06
  0.322744792331E-06
  0.285761486616E-06
  0.322744792331E-06
  0.285761486616E-06
  0.285761486616E-06
  0.224493335376E-06
  0.285761486616E-06
  0.224493335376E-06
  0.224493335376E-06
  0.187157442653E-06
  0.224493335376E-06
  0.187157442653E-06
  0.187157442653E-06
  0.000000000000E+00
  0.187157442653E-06
  0.000000000000E+00
