# vtk DataFile Version 3.0
MachLine results file. Generated by MachLine, USU AeroLab (c) 2022.
ASCII
DATASET POLYDATA
POINTS                1127 float
  0.979463808399E-05  0.000000000000E+00  0.000000000000E+00
  0.907223102979E-05  0.105263157890E+00  0.000000000000E+00
  0.146815849535E-04  0.210526315790E+00  0.000000000000E+00
  0.160288625560E-04  0.315789473680E+00  0.000000000000E+00
  0.108515546632E-04  0.421052631580E+00  0.000000000000E+00
  0.930068942207E-05  0.526315789470E+00  0.000000000000E+00
  0.795128609358E-05  0.631578947370E+00  0.000000000000E+00
  0.162356684344E-04  0.736842105260E+00  0.000000000000E+00
  0.136035635301E-04  0.842105263160E+00  0.000000000000E+00
  0.101789748682E-04  0.947368421050E+00  0.000000000000E+00
  0.113217323195E-04  0.105263157890E+01  0.000000000000E+00
  0.217075266569E-04  0.115789473680E+01  0.000000000000E+00
  0.183447491575E-04  0.126315789470E+01  0.000000000000E+00
  0.113145091946E-04  0.136842105260E+01  0.000000000000E+00
  0.147302196475E-04  0.147368421050E+01  0.000000000000E+00
  0.273831128764E-04  0.157894736840E+01  0.000000000000E+00
  0.231587571267E-04  0.168421052630E+01  0.000000000000E+00
  0.131583260234E-04  0.178947368420E+01  0.000000000000E+00
  0.187373755155E-04  0.189473684210E+01  0.000000000000E+00
  0.374726029139E-05  0.199997767111E+01 -0.605911178381E-21
  0.921256780568E-05 -0.105263157890E+00  0.000000000000E+00
  0.138963360154E-04 -0.210526315790E+00  0.000000000000E+00
  0.113207121364E-04 -0.315789473680E+00  0.000000000000E+00
  0.128792375080E-04 -0.421052631580E+00  0.000000000000E+00
  0.118077829168E-04 -0.526315789470E+00  0.000000000000E+00
  0.189578663175E-04 -0.631578947370E+00  0.000000000000E+00
  0.156566992265E-04 -0.736842105260E+00  0.000000000000E+00
  0.141993840015E-04 -0.842105263160E+00  0.000000000000E+00
  0.149761887947E-04 -0.947368421050E+00  0.000000000000E+00
  0.244056525139E-04 -0.105263157890E+01  0.000000000000E+00
  0.200138902512E-04 -0.115789473680E+01  0.000000000000E+00
  0.156333688353E-04 -0.126315789470E+01  0.000000000000E+00
  0.183774376303E-04 -0.136842105260E+01  0.000000000000E+00
  0.299681777328E-04 -0.147368421050E+01  0.000000000000E+00
  0.243572135352E-04 -0.157894736840E+01  0.000000000000E+00
  0.168466697769E-04 -0.168421052630E+01  0.000000000000E+00
  0.217258465950E-04 -0.178947368420E+01  0.000000000000E+00
  0.346355878443E-04 -0.189473684210E+01  0.000000000000E+00
  0.451756253310E-05 -0.199997308109E+01  0.000000000000E+00
  0.269661543899E-01  0.000000000000E+00 -0.235210889864E-02
  0.269661586837E-01  0.105263157890E+00 -0.235205982105E-02
  0.269664107697E-01  0.105263157890E+00  0.234917846510E-02
  0.269665204866E-01  0.000000000000E+00  0.234792439495E-02
  0.269665962746E-01  0.210526315790E+00 -0.234705813332E-02
  0.269664446317E-01  0.210526315790E+00  0.234879142015E-02
  0.269667811269E-01  0.315789473680E+00 -0.234494526255E-02
  0.269666463067E-01  0.315789473680E+00  0.234648626383E-02
  0.269670174118E-01  0.421052631580E+00 -0.234224451350E-02
  0.269667147907E-01  0.421052631580E+00  0.234570348911E-02
  0.269667816952E-01  0.526315789470E+00 -0.234493876678E-02
  0.269665292355E-01  0.526315789470E+00  0.234782439431E-02
  0.269661428489E-01  0.631578947370E+00 -0.235224081360E-02
  0.269662100132E-01  0.631578947370E+00  0.235147312199E-02
  0.269666638376E-01  0.736842105260E+00 -0.234628588556E-02
  0.269667646690E-01  0.736842105260E+00  0.234513337707E-02
  0.269668172743E-01  0.842105263160E+00 -0.234453209525E-02
  0.269668014191E-01  0.842105263160E+00  0.234471332134E-02
  0.269667198298E-01  0.947368421050E+00 -0.234564589101E-02
  0.269667360811E-01  0.947368421050E+00  0.234546013786E-02
  0.269663690564E-01  0.105263157890E+01 -0.234965524985E-02
  0.269664351432E-01  0.105263157890E+01  0.234889987380E-02
  0.269670071502E-01  0.115789473680E+01 -0.234236180374E-02
  0.269671072326E-01  0.115789473680E+01  0.234121785741E-02
  0.269672776702E-01  0.126315789470E+01 -0.233926974601E-02
  0.269672791441E-01  0.126315789470E+01  0.233925290012E-02
  0.269669289451E-01  0.136842105260E+01 -0.234325569258E-02
  0.269669553238E-01  0.136842105260E+01  0.234295418272E-02
  0.269666053629E-01  0.147368421050E+01 -0.234695425379E-02
  0.269666622628E-01  0.147368421050E+01  0.234630388571E-02
  0.269673810956E-01  0.157894736840E+01 -0.233808758871E-02
  0.269674750540E-01  0.157894736840E+01  0.233701363926E-02
  0.269677596968E-01  0.168421052630E+01 -0.233376015672E-02
  0.269677620002E-01  0.168421052630E+01  0.233373382947E-02
  0.269672078555E-01  0.178947368420E+01 -0.234006773183E-02
  0.269672092378E-01  0.178947368420E+01  0.234005193214E-02
  0.269669093187E-01  0.189473684210E+01 -0.234348002371E-02
  0.269669430462E-01  0.189473684210E+01  0.234309451576E-02
  0.269677993054E-01  0.199999741161E+01 -0.233330742852E-02
  0.269678485747E-01  0.199999735527E+01  0.233274427788E-02
  0.269679176999E-01  0.200090642029E+01 -0.214897284378E-02
  0.269679222014E-01  0.200090639853E+01  0.214892618715E-02
  0.269673305973E-01  0.200165279169E+01 -0.165391993168E-02
  0.269672988587E-01  0.200165305824E+01  0.165416652517E-02
  0.269674678092E-01  0.200215295022E+01 -0.910218128291E-03
  0.269674424327E-01  0.200215322225E+01  0.910319436547E-03
  0.269670804118E-01  0.200234152443E+01  0.250873310282E-21
  0.269662259160E-01 -0.105263157890E+00 -0.235129135161E-02
  0.269663516409E-01 -0.105263157890E+00  0.234985430942E-02
  0.269666304517E-01 -0.210526315790E+00 -0.234666748803E-02
  0.269667014169E-01 -0.210526315790E+00  0.234585635137E-02
  0.269665190879E-01 -0.315789473680E+00 -0.234794038166E-02
  0.269665522618E-01 -0.315789473680E+00  0.234756120275E-02
  0.269667155480E-01 -0.421052631580E+00 -0.234569483226E-02
  0.269667642613E-01 -0.421052631580E+00  0.234513803666E-02
  0.269664388554E-01 -0.526315789470E+00 -0.234885744341E-02
  0.269664978454E-01 -0.526315789470E+00  0.234818318455E-02
  0.269669541499E-01 -0.631578947370E+00 -0.234296760071E-02
  0.269670422709E-01 -0.631578947370E+00  0.234196037233E-02
  0.269669596684E-01 -0.736842105260E+00 -0.234290452416E-02
  0.269669865157E-01 -0.736842105260E+00  0.234259765812E-02
  0.269669565894E-01 -0.842105263160E+00 -0.234293971723E-02
  0.269669942349E-01 -0.842105263160E+00  0.234250942679E-02
  0.269666614082E-01 -0.947368421050E+00 -0.234631365330E-02
  0.269667197265E-01 -0.947368421050E+00  0.234564707238E-02
  0.269673177961E-01 -0.105263157890E+01 -0.233881110484E-02
  0.269674073028E-01 -0.105263157890E+01  0.233778803914E-02
  0.269674100849E-01 -0.115789473680E+01 -0.233775623971E-02
  0.269674312930E-01 -0.115789473680E+01  0.233751383004E-02
  0.269672020489E-01 -0.126315789470E+01 -0.234013410183E-02
  0.269672288758E-01 -0.126315789470E+01  0.233982746927E-02
  0.269669008079E-01 -0.136842105260E+01 -0.234357730224E-02
  0.269669542986E-01 -0.136842105260E+01  0.234296590097E-02
  0.269676970679E-01 -0.147368421050E+01 -0.233447600931E-02
  0.269677693843E-01 -0.147368421050E+01  0.233364942839E-02
  0.269678612691E-01 -0.157894736840E+01 -0.233259918078E-02
  0.269678621873E-01 -0.157894736840E+01  0.233258868591E-02
  0.269674438769E-01 -0.168421052630E+01 -0.233736999467E-02
  0.269674376232E-01 -0.168421052630E+01  0.233744147544E-02
  0.269671440688E-01 -0.178947368420E+01 -0.234079681791E-02
  0.269671800365E-01 -0.178947368420E+01  0.234038570513E-02
  0.269680488568E-01 -0.189473684210E+01 -0.233045504285E-02
  0.269680811201E-01 -0.189473684210E+01  0.233008627239E-02
  0.269682618422E-01 -0.199999688267E+01 -0.232802060857E-02
  0.269682536381E-01 -0.199999689205E+01  0.232811438272E-02
  0.269677461112E-01 -0.200090724951E+01 -0.215075132466E-02
  0.269677315953E-01 -0.200090731966E+01  0.215090177905E-02
  0.269682175053E-01 -0.200164534328E+01 -0.164702908080E-02
  0.269682809049E-01 -0.200164481084E+01  0.164653649601E-02
  0.269675903551E-01 -0.200215163657E+01 -0.909728901407E-03
  0.269676489050E-01 -0.200215100893E+01  0.909495158622E-03
  0.269686087196E-01 -0.200232405579E+01  0.000000000000E+00
  0.702833398127E-01  0.000000000000E+00 -0.613627027044E-02
  0.702829959403E-01  0.105263157890E+00 -0.614020074958E-02
  0.702832627764E-01  0.105263157890E+00  0.613715079977E-02
  0.702833839580E-01  0.000000000000E+00  0.613576568736E-02
  0.702832299649E-01  0.210526315790E+00 -0.613752583712E-02
  0.702829938789E-01  0.210526315790E+00  0.614022431193E-02
  0.702834474262E-01  0.315789473680E+00 -0.613504024259E-02
  0.702833800585E-01  0.315789473680E+00  0.613581025880E-02
  0.702840028726E-01  0.421052631580E+00 -0.612869146162E-02
  0.702832283116E-01  0.421052631580E+00  0.613754473416E-02
  0.702834633940E-01  0.526315789470E+00 -0.613485772939E-02
  0.702832275288E-01  0.526315789470E+00  0.613755368162E-02
  0.702832791895E-01  0.631578947370E+00 -0.613696319654E-02
  0.702829750618E-01  0.631578947370E+00  0.614043939264E-02
  0.702833797210E-01  0.736842105260E+00 -0.613581411717E-02
  0.702834964480E-01  0.736842105260E+00  0.613447992045E-02
  0.702834805929E-01  0.842105263160E+00 -0.613466114537E-02
  0.702834980048E-01  0.842105263160E+00  0.613446212696E-02
  0.702833645430E-01  0.947368421050E+00 -0.613598760149E-02
  0.702834315459E-01  0.947368421050E+00  0.613522175560E-02
  0.702830792365E-01  0.105263157890E+01 -0.613924867009E-02
  0.702831628147E-01  0.105263157890E+01  0.613829336732E-02
  0.702836346641E-01  0.115789473680E+01 -0.613290010317E-02
  0.702838352385E-01  0.115789473680E+01  0.613060752769E-02
  0.702839389396E-01  0.126315789470E+01 -0.612942221918E-02
  0.702839742181E-01  0.126315789470E+01  0.612901898410E-02
  0.702835860454E-01  0.136842105260E+01 -0.613345581753E-02
  0.702836454748E-01  0.136842105260E+01  0.613277653671E-02
  0.702832899854E-01  0.147368421050E+01 -0.613683979977E-02
  0.702833796062E-01  0.147368421050E+01  0.613581542891E-02
[...]
POINT_DATA                1127
SCALARS phi float 1
LOOKUP_TABLE default
 -0.326487936133E-05
 -0.302407700993E-05
 -0.489386165117E-05
 -0.534295418532E-05
 -0.361718488774E-05
 -0.310022980736E-05
 -0.265042869786E-05
 -0.541188947815E-05
 -0.453452117672E-05
 -0.339299162274E-05
 -0.377391077316E-05
 -0.723584221897E-05
 -0.611491638585E-05
 -0.377150306487E-05
 -0.491007321582E-05
 -0.912770429213E-05
 -0.771958570891E-05
 -0.438610867446E-05
 -0.624579183851E-05
 -0.124908676380E-05
 -0.307085593523E-05
 -0.463211200513E-05
 -0.377357071215E-05
 -0.429307916935E-05
 -0.393592763893E-05
 -0.631928877252E-05
 -0.521889974216E-05
 -0.473312800050E-05
 -0.499206293157E-05
 -0.813521750464E-05
 -0.667129675040E-05
 -0.521112294511E-05
 -0.612581254344E-05
 -0.998939257761E-05
 -0.811907117841E-05
 -0.561555659231E-05
 -0.724194886500E-05
 -0.115451959481E-04
 -0.150585417770E-05
 -0.898871812998E-02
 -0.898871956122E-02
 -0.898880358988E-02
 -0.898884016219E-02
 -0.898886542488E-02
 -0.898881487723E-02
 -0.898892704230E-02
 -0.898888210225E-02
 -0.898900580394E-02
 -0.898890493022E-02
 -0.898892723173E-02
 -0.898884307850E-02
 -0.898871428296E-02
 -0.898873667106E-02
 -0.898888794586E-02
 -0.898892155633E-02
 -0.898893909145E-02
 -0.898893380637E-02
 -0.898890660995E-02
 -0.898891202704E-02
 -0.898878968546E-02
 -0.898881171441E-02
 -0.898900238341E-02
 -0.898903574419E-02
 -0.898909255675E-02
 -0.898909304802E-02
 -0.898897631504E-02
 -0.898898510793E-02
 -0.898886845431E-02
 -0.898888742092E-02
 -0.898912703187E-02
 -0.898915835134E-02
 -0.898925323228E-02
 -0.898925400006E-02
 -0.898906928518E-02
 -0.898906974594E-02
 -0.898896977289E-02
 -0.898898101542E-02
 -0.898926643514E-02
 -0.898928285824E-02
 -0.898930589998E-02
 -0.898930740047E-02
 -0.898911019910E-02
 -0.898909961958E-02
 -0.898915593641E-02
 -0.898914747755E-02
 -0.898902680392E-02
 -0.898874197201E-02
 -0.898878388031E-02
 -0.898887681723E-02
 -0.898890047231E-02
 -0.898883969597E-02
 -0.898885075392E-02
 -0.898890518268E-02
 -0.898892142045E-02
 -0.898881295180E-02
 -0.898883261514E-02
 -0.898898471663E-02
 -0.898901409031E-02
 -0.898898655612E-02
 -0.898899550522E-02
 -0.898898552979E-02
 -0.898899807830E-02
 -0.898888713607E-02
 -0.898890657549E-02
 -0.898910593205E-02
 -0.898913576760E-02
 -0.898913669496E-02
 -0.898914376433E-02
 -0.898906734964E-02
 -0.898907629193E-02
 -0.898896693597E-02
 -0.898898476620E-02
 -0.898923235595E-02
 -0.898925646144E-02
 -0.898928708969E-02
 -0.898928739575E-02
 -0.898914795898E-02
 -0.898914587440E-02
 -0.898904802292E-02
 -0.898906001216E-02
 -0.898934961895E-02
 -0.898936037336E-02
 -0.898942061408E-02
 -0.898941787936E-02
 -0.898924870373E-02
 -0.898924386509E-02
 -0.898940583509E-02
 -0.898942696830E-02
 -0.898919678502E-02
 -0.898921630167E-02
 -0.898953623987E-02
 -0.234277799376E-01
 -0.234276653134E-01
 -0.234277542588E-01
 -0.234277946527E-01
 -0.234277433216E-01
 -0.234276646263E-01
 -0.234278158087E-01
 -0.234277933528E-01
 -0.234280009575E-01
 -0.234277427705E-01
 -0.234278211313E-01
 -0.234277425096E-01
 -0.234277597298E-01
 -0.234276583539E-01
 -0.234277932403E-01
 -0.234278321493E-01
 -0.234278268643E-01
 -0.234278326683E-01
 -0.234277881810E-01
 -0.234278105153E-01
 -0.234276930788E-01
 -0.234277209382E-01
 -0.234278782214E-01
 -0.234279450795E-01
 -0.234279796465E-01
 -0.234279914060E-01
 -0.234278620151E-01
 -0.234278818249E-01
 -0.234277633285E-01
 -0.234277932021E-01
 -0.234280037050E-01
 -0.234280633821E-01
 -0.234281397174E-01
 -0.234281519312E-01
 -0.234279565350E-01
 -0.234279593778E-01
 -0.234278631943E-01
 -0.234278760296E-01
 -0.234281469547E-01
 -0.234281769234E-01
 -0.234282855062E-01
 -0.234282871761E-01
 -0.234280466093E-01
 -0.234280239620E-01
 -0.234278931960E-01
 -0.234278748956E-01
 -0.234277898400E-01
 -0.234276919342E-01
 -0.234277190076E-01
 -0.234278238106E-01
 -0.234278056077E-01
 -0.234277232646E-01
 -0.234277475295E-01
 -0.234277865947E-01
 -0.234278215943E-01
 -0.234277018810E-01
 -0.234277348079E-01
 -0.234278589351E-01
 -0.234279172037E-01
 -0.234278653968E-01
 -0.234278903365E-01
 -0.234278673337E-01
 -0.234278950052E-01
 -0.234277761700E-01
 -0.234278076093E-01
 -0.234279798628E-01
 -0.234280381374E-01
 -0.234280167886E-01
 -0.234280388874E-01
 -0.234279498153E-01
 -0.234279670604E-01
 -0.234278561831E-01
 -0.234278804458E-01
 -0.234281068841E-01
 -0.234281523608E-01
 -0.234281682268E-01
 -0.234281827430E-01
 -0.234280334886E-01
 -0.234280296020E-01
 -0.234279375206E-01
 -0.234279518780E-01
 -0.234282315132E-01
 -0.234282530648E-01
 -0.234283137628E-01
 -0.234283133829E-01
 -0.234280973340E-01
 -0.234280808110E-01
 -0.234280446923E-01
 -0.234280798713E-01
 -0.234280031048E-01
 -0.234280357520E-01
 -0.234283337062E-01
 -0.456054918092E-01
 -0.456053684305E-01
 -0.456054608167E-01
 -0.456054986643E-01
 -0.456054503279E-01
 -0.456053497172E-01
 -0.456054606642E-01
 -0.456053994494E-01
 -0.456056563830E-01
 -0.456053436202E-01
 -0.456055720967E-01
 -0.456054149889E-01
 -0.456055445743E-01
 -0.456053139065E-01
 -0.456054374579E-01
 -0.456055097930E-01
 -0.456054873629E-01
 -0.456054982383E-01
 -0.456054419957E-01
 -0.456054755797E-01
 -0.456053354623E-01
 -0.456053745779E-01
 -0.456055203920E-01
 -0.456056212827E-01
 -0.456056329684E-01
 -0.456056556992E-01
 -0.456055128584E-01
 -0.456055443351E-01
 -0.456054052098E-01
 -0.456054439588E-01
 -0.456056433126E-01
 -0.456057304903E-01
 -0.456057919696E-01
 -0.456058101019E-01
 -0.456056090966E-01
 -0.456056125865E-01
 -0.456055135857E-01
 -0.456055218893E-01
 -0.456057920716E-01
 -0.456058350909E-01
 -0.456059264143E-01
 -0.456059405651E-01
 -0.456056917674E-01
 -0.456056695526E-01
 -0.456055401064E-01
 -0.456055095131E-01
 -0.456054227398E-01
 -0.456055036997E-01
 -0.456053916896E-01
 -0.456054610241E-01
 -0.456054677964E-01
 -0.456055237727E-01
 -0.456054028624E-01
 -0.456055230716E-01
 -0.456054747176E-01
 -0.456053278778E-01
 -0.456053786248E-01
 -0.456054885319E-01
 -0.456055824186E-01
 -0.456055065740E-01
 -0.456055468206E-01
 -0.456055070948E-01
 -0.456055473343E-01
 -0.456054079144E-01
 -0.456054511444E-01
 -0.456056145811E-01
 -0.456057033074E-01
 -0.456056597213E-01
 -0.456056960373E-01
 -0.456055909939E-01
 -0.456056144447E-01
 -0.456054904050E-01
 -0.456055234031E-01
 -0.456057427083E-01
 -0.456058078688E-01
 -0.456058125903E-01
 -0.456058297971E-01
 -0.456056763745E-01
 -0.456056706743E-01
 -0.456055763692E-01
 -0.456055939578E-01
 -0.456058752337E-01
 -0.456059078062E-01
 -0.456059594835E-01
 -0.456059608833E-01
 -0.456057392858E-01
 -0.456057222648E-01
 -0.456056802708E-01
 -0.456056160379E-01
 -0.456056344136E-01
 -0.456055764493E-01
 -0.456059814000E-01
 -0.774290636927E-01
 -0.774290293894E-01
 -0.774290343389E-01
 -0.774290686778E-01
 -0.774290348511E-01
 -0.774289142795E-01
 -0.774289738683E-01
 -0.774289358480E-01
 -0.774291673762E-01
 -0.774288731128E-01
 -0.774290841501E-01
 -0.774289353237E-01
 -0.774290678067E-01
 -0.774288440970E-01
 -0.774289730717E-01
 -0.774290434975E-01
 -0.774290148657E-01
 -0.774290204574E-01
 -0.774289528430E-01
 -0.774289972262E-01
 -0.774288463395E-01
 -0.774289070850E-01
 -0.774290211816E-01
 -0.774291532848E-01
 -0.774291412436E-01
 -0.774291748104E-01
 -0.774290178925E-01
 -0.774290625191E-01
 -0.774289164501E-01
 -0.774289727148E-01
 -0.774291411137E-01
 -0.774292537737E-01
 -0.774292983902E-01
 -0.774293272453E-01
 -0.774291142466E-01
 -0.774291139178E-01
 -0.774290232198E-01
 -0.774290320825E-01
 -0.774292924268E-01
 -0.774293441849E-01
 -0.774294435497E-01
 -0.774294574831E-01
 -0.774292133097E-01
 -0.774291668667E-01
 -0.774290593006E-01
 -0.774290048369E-01
 -0.774289278319E-01
 -0.774291073913E-01
 -0.774289394483E-01
 -0.774290293275E-01
 -0.774289857890E-01
 -0.774291831038E-01
 -0.774289098201E-01
 -0.774290192776E-01
 -0.774289893855E-01
 -0.774289298117E-01
 -0.774288931170E-01
 -0.774289786049E-01
 -0.774291010425E-01
 -0.774289934145E-01
 -0.774290539318E-01
 -0.774290002519E-01
 -0.774290569482E-01
 -0.774289078149E-01
 -0.774289644321E-01
 -0.774291002727E-01
 -0.774292208652E-01
 -0.774291534974E-01
 -0.774292036380E-01
 -0.774290842879E-01
 -0.774291160959E-01
 -0.774289901238E-01
 -0.774290264483E-01
 -0.774292290050E-01
 -0.774293143685E-01
 -0.774293081501E-01
 -0.774293381258E-01
 -0.774291705850E-01
 -0.774291639244E-01
 -0.774290763383E-01
 -0.774290952636E-01
 -0.774293630152E-01
 -0.774293044887E-01
 -0.774294623555E-01
 -0.774293623859E-01
 -0.774292512079E-01
 -0.774292150609E-01
 -0.774291767113E-01
 -0.774289991105E-01
 -0.774291263246E-01
 -0.774290788851E-01
 -0.774293789615E-01
 -0.118903582684E+00
 -0.118903550547E+00
 -0.118903657717E+00
 -0.118903687595E+00
 -0.118903578297E+00
 -0.118903519701E+00
 -0.118903539946E+00
 -0.118903534424E+00
 -0.118903739563E+00
 -0.118903470778E+00
 -0.118903648833E+00
 -0.118903525633E+00
 -0.118903633921E+00
 -0.118903423457E+00
 -0.118903539938E+00
 -0.118903639110E+00
 -0.118903699025E+00
 -0.118903607297E+00
 -0.118903624931E+00
 -0.118903582201E+00
 -0.118903415956E+00
 -0.118903480932E+00
 -0.118903590190E+00
 -0.118903747099E+00
 -0.118903715938E+00
 -0.118903755496E+00
 -0.118903600985E+00
 -0.118903642892E+00
 -0.118903494365E+00
 -0.118903541813E+00
 -0.118903714046E+00
 -0.118903839904E+00
 -0.118903864491E+00
 -0.118903893698E+00
 -0.118903685210E+00
 -0.118903676864E+00
 -0.118903595535E+00
 -0.118903590992E+00
 -0.118903854989E+00
 -0.118903911332E+00
 -0.118903997545E+00
 -0.118904023032E+00
 -0.118903773161E+00
 -0.118903719501E+00
 -0.118903619195E+00
 -0.118903545241E+00
 -0.118903469437E+00
 -0.118903638243E+00
 -0.118903524641E+00
 -0.118903576033E+00
 -0.118903560630E+00
 -0.118903742134E+00
 -0.118903473681E+00
 -0.118903669707E+00
 -0.118903547505E+00
 -0.118903580782E+00
 -0.118903441792E+00
 -0.118903517466E+00
 -0.118903676876E+00
 -0.118903540464E+00
 -0.118903615458E+00
 -0.118903546798E+00
 -0.118903613602E+00
 -0.118903443469E+00
 -0.118903512016E+00
 -0.118903639209E+00
 -0.118903790137E+00
 -0.118903703464E+00
 -0.118903760151E+00
 -0.118903630347E+00
 -0.118903666436E+00
 -0.118903527550E+00
 -0.118903572185E+00
 -0.118903768393E+00
 -0.118903876171E+00
 -0.118903860051E+00
 -0.118903890133E+00
 -0.118903717555E+00
 -0.118903772114E+00
 -0.118903617186E+00
 -0.118903711955E+00
 -0.118903904294E+00
 -0.118903752855E+00
 -0.118904016162E+00
 -0.118903914881E+00
 -0.118903791473E+00
 -0.118903728058E+00
 -0.118903715939E+00
 -0.118903605656E+00
 -0.118903662623E+00
 -0.118903510037E+00
 -0.118903810029E+00
 -0.166666666667E+00
 -0.166666666667E+00
 -0.166666666667E+00
 -0.166666666667E+00
 -0.166666666667E+00
 -0.166666666667E+00
 -0.166666666667E+00
 -0.166666666667E+00
 -0.166666666667E+00
 -0.166666666667E+00
 -0.166666666667E+00
 -0.166666666667E+00
 -0.166666666667E+00
 -0.166666666667E+00
 -0.166666666667E+00
 -0.166666666667E+00
 -0.166666666667E+00
 -0.166666666667E+00
 -0.166666666667E+00
 -0.166666666667E+00
 -0.166666666667E+00
 -0.166666666667E+00
 -0.166666666667E+00
 -0.166666666667E+00
 -0.166666666667E+00
 -0.166666666667E+00
 -0.166666666667E+00
 -0.166666666667E+00
 -0.166666666667E+00
 -0.166666666667E+00
 -0.166666666667E+00
 -0.166666666667E+00
 -0.166666666667E+00
 -0.166666666667E+00
 -0.166666666667E+00
 -0.166666666667E+00
 -0.166666666667E+00
 -0.166666666667E+00
 -0.166666666667E+00
 -0.166666666667E+00
 -0.166666666667E+00
 -0.166666666667E+00
 -0.166666666667E+00
 -0.166666666667E+00
 -0.166666666667E+00
 -0.166666666667E+00
 -0.166666666667E+00
 -0.166666666667E+00
 -0.166666666667E+00
 -0.166666666667E+00
 -0.166666666667E+00
 -0.166666666667E+00
 -0.166666666667E+00
 -0.166666666667E+00
 -0.166666666667E+00
 -0.166666666667E+00
 -0.166666666667E+00
 -0.166666666667E+00
 -0.166666666667E+00
 -0.166666666667E+00
 -0.166666666667E+00
 -0.166666666667E+00
 -0.166666666667E+00
 -0.166666666667E+00
 -0.166666666667E+00
 -0.166666666667E+00
 -0.166666666667E+00
 -0.166666666667E+00
 -0.166666666667E+00
 -0.166666666667E+00
 -0.166666666667E+00
 -0.166666666667E+00
 -0.166666666667E+00
 -0.166666666667E+00
 -0.166666666667E+00
 -0.166666666667E+00
 -0.166666666667E+00
 -0.166666666667E+00
 -0.166666666667E+00
 -0.166666666667E+00
 -0.166666666667E+00
 -0.166666666667E+00
 -0.166666666667E+00
 -0.166666666667E+00
 -0.166666666667E+00
 -0.166666666667E+00
 -0.166666666667E+00
 -0.166666666667E+00
 -0.166666666667E+00
 -0.166666666667E+00
 -0.166666666667E+00
 -0.166666666667E+00
 -0.214429842684E+00
 -0.214429796595E+00
 -0.214429732962E+00
 -0.214429737217E+00
 -0.214429792484E+00
 -0.214429882406E+00
 -0.214429774324E+00
 -0.214429731364E+00
 -0.214429585140E+00
 -0.214429784861E+00
 -0.214429668748E+00
 -0.214429746260E+00
 -0.214429667633E+00
 -0.214429856022E+00
 -0.214429764330E+00
 -0.214429634730E+00
 -0.214429517912E+00
 -0.214429664852E+00
 -0.214429580977E+00
 -0.214429701749E+00
 -0.214429670320E+00
 -0.214429813258E+00
 -0.214429732621E+00
 -0.214429531217E+00
 -0.214429669031E+00
 -0.214429537319E+00
 -0.214429705277E+00
 -0.214429662096E+00
 -0.214429791696E+00
 -0.214429768168E+00
 -0.214429594535E+00
 -0.214429454703E+00
 -0.214429481270E+00
 -0.214429416474E+00
 -0.214429627525E+00
 -0.214429644662E+00
 -0.214429700643E+00
 -0.214429726529E+00
 -0.214429467016E+00
 -0.214429381034E+00
 -0.214429355251E+00
 -0.214429296107E+00
 -0.214429559288E+00
 -0.214429623207E+00
 -0.214429692349E+00
 -0.214429810611E+00
 -0.214429859596E+00
 -0.214429748788E+00
 -0.214429820739E+00
 -0.214429783975E+00
 -0.214429748729E+00
 -0.214429609360E+00
 -0.214429850300E+00
 -0.214429696546E+00
 -0.214429783454E+00
 -0.214429733647E+00
 -0.214429905229E+00
 -0.214429819956E+00
 -0.214429636631E+00
 -0.214429767271E+00
 -0.214429727579E+00
 -0.214429717884E+00
 -0.214429744283E+00
 -0.214429816144E+00
 -0.214429858405E+00
 -0.214429760046E+00
 -0.214429543596E+00
 -0.214429681985E+00
 -0.214429594335E+00
 -0.214429749991E+00
 -0.214429712792E+00
 -0.214429844423E+00
 -0.214429808500E+00
 -0.214429625861E+00
 -0.214429471355E+00
 -0.214429517855E+00
 -0.214429461003E+00
 -0.214429667418E+00
 -0.214429539898E+00
 -0.214429751635E+00
 -0.214429591250E+00
 -0.214429480809E+00
 -0.214429444571E+00
 -0.214429358960E+00
 -0.214429549411E+00
 -0.214429589316E+00
 -0.214429681048E+00
 -0.214429653813E+00
 -0.214429693689E+00
 -0.214429732584E+00
 -0.214429694977E+00
 -0.214429605939E+00
 -0.255904419250E+00
 -0.255904387296E+00
 -0.255904333087E+00
 -0.255904422886E+00
 -0.255904353156E+00
 -0.255904407234E+00
 -0.255904324581E+00
 -0.255904267031E+00
 -0.255904150988E+00
 -0.255904321437E+00
 -0.255904222142E+00
 -0.255904280600E+00
 -0.255904212913E+00
 -0.255904383182E+00
 -0.255904313932E+00
 -0.255904174532E+00
 -0.255904081324E+00
 -0.255904207711E+00
 -0.255904134662E+00
 -0.255904241629E+00
 -0.255904223674E+00
 -0.255904345551E+00
 -0.255904299936E+00
 -0.255904078634E+00
 -0.255904235583E+00
 -0.255904086690E+00
 -0.255904255860E+00
 -0.255904216889E+00
 -0.255904337962E+00
 -0.255904313042E+00
 -0.255904157621E+00
 -0.255904006567E+00
 -0.255904050018E+00
 -0.255903971954E+00
 -0.255904180256E+00
 -0.255904202093E+00
 -0.255904253481E+00
 -0.255904272918E+00
 -0.255904034551E+00
 -0.255903931532E+00
 -0.255903917961E+00
 -0.255903972104E+00
 -0.255904109293E+00
 -0.255904298548E+00
 -0.255904243617E+00
 -0.255904372572E+00
 -0.255904403968E+00
 -0.255904322348E+00
 -0.255904427364E+00
 -0.255904355081E+00
 -0.255904300578E+00
 -0.255904185056E+00
 -0.255904401531E+00
 -0.255904272574E+00
 -0.255904322660E+00
 -0.255904252592E+00
 -0.255904444676E+00
 -0.255904360583E+00
 -0.255904191985E+00
 -0.255904232677E+00
 -0.255904293166E+00
 -0.255904298074E+00
 -0.255904312565E+00
 -0.255904285361E+00
 -0.255904430063E+00
 -0.255904348780E+00
 -0.255904111855E+00
 -0.255904264330E+00
 -0.255904170633E+00
 -0.255904335786E+00
 -0.255904298529E+00
 -0.255904423787E+00
 -0.255904384341E+00
 -0.255904225771E+00
 -0.255904043178E+00
 -0.255904100463E+00
 -0.255904147697E+00
 -0.255904256116E+00
 -0.255904242652E+00
 -0.255904334279E+00
 -0.255904165347E+00
 -0.255904073017E+00
 -0.255904015675E+00
 -0.255903941214E+00
 -0.255904134180E+00
 -0.255904162337E+00
 -0.255904262170E+00
 -0.255904234326E+00
 -0.255904276612E+00
 -0.255904314543E+00
 -0.255904263536E+00
 -0.255904196264E+00
 -0.287727944349E+00
 -0.287727926017E+00
 -0.287727896410E+00
 -0.287727911217E+00
 -0.287727870867E+00
 -0.287727899965E+00
 -0.287727840502E+00
 -0.287727752267E+00
 -0.287727661819E+00
 -0.287727805246E+00
 -0.287727731325E+00
 -0.287727771104E+00
 -0.287727717990E+00
 -0.287727878117E+00
 -0.287727819912E+00
 -0.287727660602E+00
 -0.287727589068E+00
 -0.287727695586E+00
 -0.287727644499E+00
 -0.287727733245E+00
 -0.287727724798E+00
 -0.287727843775E+00
 -0.287727804583E+00
 -0.287727571044E+00
 -0.287727736102E+00
 -0.287727589774E+00
 -0.287727659584E+00
 -0.287727719272E+00
 -0.287727732668E+00
 -0.287727813914E+00
 -0.287727665704E+00
 -0.287727502630E+00
 -0.287727561432E+00
 -0.287727480158E+00
 -0.287727672991E+00
 -0.287727705371E+00
 -0.287727747783E+00
 -0.287727693312E+00
 -0.287727545558E+00
 -0.287727452264E+00
 -0.287727444427E+00
 -0.287727480565E+00
 -0.287727623157E+00
 -0.287727912565E+00
 -0.287727757546E+00
 -0.287727889533E+00
 -0.287727915039E+00
 -0.287727855833E+00
 -0.287727925222E+00
 -0.287727878533E+00
 -0.287727792698E+00
 -0.287727701958E+00
 -0.287727891899E+00
 -0.287727798413E+00
 -0.287727823830E+00
 -0.287727778075E+00
 -0.287727946367E+00
 -0.287727885545E+00
 -0.287727687187E+00
 -0.287727637583E+00
 -0.287727792051E+00
 -0.287727713979E+00
 -0.287727826147E+00
 -0.287727820000E+00
 -0.287727941059E+00
 -0.287727877014E+00
 -0.287727619425E+00
 -0.287727773758E+00
 -0.287727692957E+00
 -0.287727857765E+00
 -0.287727821960E+00
 -0.287727957208E+00
 -0.287727862633E+00
 -0.287727756592E+00
 -0.287727609911E+00
 -0.287727621973E+00
 -0.287727671368E+00
 -0.287727783093E+00
 -0.287727873510E+00
 -0.287727855729E+00
 -0.287727682940E+00
 -0.287727598572E+00
 -0.287727520568E+00
 -0.287727462894E+00
 -0.287727657372E+00
 -0.287727690677E+00
 -0.287727781495E+00
 -0.287727768030E+00
 -0.287727808077E+00
 -0.287727839561E+00
 -0.287727779004E+00
 -0.287727734026E+00
 -0.309905601408E+00
 -0.309905596067E+00
 -0.309905526245E+00
 -0.309905540451E+00
 -0.309905519989E+00
 -0.309905523781E+00
 -0.309905491985E+00
 -0.309905384971E+00
 -0.309905324361E+00
 -0.309905440860E+00
 -0.309905384373E+00
 -0.309905402260E+00
 -0.309905365457E+00
 -0.309905504157E+00
 -0.309905470074E+00
 -0.309905295327E+00
 -0.309905249314E+00
 -0.309905334032E+00
 -0.309905292902E+00
 -0.309905367931E+00
 -0.309905365176E+00
 -0.309905476722E+00
 -0.309905447930E+00
 -0.309905216359E+00
 -0.309905283487E+00
 -0.309905231530E+00
 -0.309905301868E+00
 -0.309905366686E+00
 -0.309905274829E+00
 -0.309905452958E+00
 -0.309905368042E+00
 -0.309905148076E+00
 -0.309905271074E+00
 -0.309905231522E+00
 -0.309905325615E+00
 -0.309905389766E+00
 -0.309905389503E+00
 -0.309905336871E+00
 -0.309905200739E+00
 -0.309905122239E+00
 -0.309905095438E+00
 -0.309905249038E+00
 -0.309905256926E+00
 -0.309905566508E+00
 -0.309905392198E+00
 -0.309905544212E+00
 -0.309905553857E+00
 -0.309905513348E+00
 -0.309905547899E+00
 -0.309905535933E+00
 -0.309905431563E+00
 -0.309905364895E+00
 -0.309905529945E+00
 -0.309905459813E+00
 -0.309905452126E+00
 -0.309905428490E+00
 -0.309905578064E+00
 -0.309905544304E+00
 -0.309905338434E+00
 -0.309905301512E+00
 -0.309905431726E+00
 -0.309905376676E+00
 -0.309905466912E+00
 -0.309905465629E+00
 -0.309905579857E+00
 -0.309905545747E+00
 -0.309905272490E+00
 -0.309905448400E+00
 -0.309905341362E+00
 -0.309905521657E+00
 -0.309905449524E+00
 -0.309905608535E+00
 -0.309905521145E+00
 -0.309905420565E+00
 -0.309905327382E+00
 -0.309905288136E+00
 -0.309905445100E+00
 -0.309905445087E+00
 -0.309905534741E+00
 -0.309905512356E+00
 -0.309905332900E+00