# vtk DataFile Version 3.0
MachLine results file. Generated by MachLine, USU AeroLab (c) 2022.
ASCII
DATASET POLYDATA
POINTS                1127 float
  0.000000000000E+00  0.000000000000E+00  0.000000000000E+00
  0.000000000000E+00  0.105263157890E+00  0.000000000000E+00
  0.000000000000E+00  0.210526315790E+00  0.000000000000E+00
  0.000000000000E+00  0.315789473680E+00  0.000000000000E+00
  0.000000000000E+00  0.421052631580E+00  0.000000000000E+00
  0.000000000000E+00  0.526315789470E+00  0.000000000000E+00
  0.000000000000E+00  0.631578947370E+00  0.000000000000E+00
  0.000000000000E+00  0.736842105260E+00  0.000000000000E+00
  0.000000000000E+00  0.842105263160E+00  0.000000000000E+00
  0.000000000000E+00  0.947368421050E+00  0.000000000000E+00
  0.000000000000E+00  0.105263157890E+01  0.000000000000E+00
  0.000000000000E+00  0.115789473680E+01  0.000000000000E+00
  0.000000000000E+00  0.126315789470E+01  0.000000000000E+00
  0.000000000000E+00  0.136842105260E+01  0.000000000000E+00
  0.000000000000E+00  0.147368421050E+01  0.000000000000E+00
  0.000000000000E+00  0.157894736840E+01  0.000000000000E+00
  0.000000000000E+00  0.168421052630E+01  0.000000000000E+00
  0.000000000000E+00  0.178947368420E+01  0.000000000000E+00
  0.000000000000E+00  0.189473684210E+01  0.000000000000E+00
  0.000000000000E+00  0.200000000000E+01  0.000000000000E+00
  0.000000000000E+00 -0.105263157890E+00  0.000000000000E+00
  0.000000000000E+00 -0.210526315790E+00  0.000000000000E+00
  0.000000000000E+00 -0.315789473680E+00  0.000000000000E+00
  0.000000000000E+00 -0.421052631580E+00  0.000000000000E+00
  0.000000000000E+00 -0.526315789470E+00  0.000000000000E+00
  0.000000000000E+00 -0.631578947370E+00  0.000000000000E+00
  0.000000000000E+00 -0.736842105260E+00  0.000000000000E+00
  0.000000000000E+00 -0.842105263160E+00  0.000000000000E+00
  0.000000000000E+00 -0.947368421050E+00  0.000000000000E+00
  0.000000000000E+00 -0.105263157890E+01  0.000000000000E+00
  0.000000000000E+00 -0.115789473680E+01  0.000000000000E+00
  0.000000000000E+00 -0.126315789470E+01  0.000000000000E+00
  0.000000000000E+00 -0.136842105260E+01  0.000000000000E+00
  0.000000000000E+00 -0.147368421050E+01  0.000000000000E+00
  0.000000000000E+00 -0.157894736840E+01  0.000000000000E+00
  0.000000000000E+00 -0.168421052630E+01  0.000000000000E+00
  0.000000000000E+00 -0.178947368420E+01  0.000000000000E+00
  0.000000000000E+00 -0.189473684210E+01  0.000000000000E+00
  0.000000000000E+00 -0.200000000000E+01  0.000000000000E+00
  0.269655358630E-01  0.000000000000E+00 -0.235917869390E-02
  0.269655358630E-01  0.105263157890E+00 -0.235917869390E-02
  0.269655358630E-01  0.105263157890E+00  0.235917869390E-02
  0.269655358630E-01  0.000000000000E+00  0.235917869390E-02
  0.269655358630E-01  0.210526315790E+00 -0.235917869390E-02
  0.269655358630E-01  0.210526315790E+00  0.235917869390E-02
  0.269655358630E-01  0.315789473680E+00 -0.235917869390E-02
  0.269655358630E-01  0.315789473680E+00  0.235917869390E-02
  0.269655358630E-01  0.421052631580E+00 -0.235917869390E-02
  0.269655358630E-01  0.421052631580E+00  0.235917869390E-02
  0.269655358630E-01  0.526315789470E+00 -0.235917869390E-02
  0.269655358630E-01  0.526315789470E+00  0.235917869390E-02
  0.269655358630E-01  0.631578947370E+00 -0.235917869390E-02
  0.269655358630E-01  0.631578947370E+00  0.235917869390E-02
  0.269655358630E-01  0.736842105260E+00 -0.235917869390E-02
  0.269655358630E-01  0.736842105260E+00  0.235917869390E-02
  0.269655358630E-01  0.842105263160E+00 -0.235917869390E-02
  0.269655358630E-01  0.842105263160E+00  0.235917869390E-02
  0.269655358630E-01  0.947368421050E+00 -0.235917869390E-02
  0.269655358630E-01  0.947368421050E+00  0.235917869390E-02
  0.269655358630E-01  0.105263157890E+01 -0.235917869390E-02
  0.269655358630E-01  0.105263157890E+01  0.235917869390E-02
  0.269655358630E-01  0.115789473680E+01 -0.235917869390E-02
  0.269655358630E-01  0.115789473680E+01  0.235917869390E-02
  0.269655358630E-01  0.126315789470E+01 -0.235917869390E-02
  0.269655358630E-01  0.126315789470E+01  0.235917869390E-02
  0.269655358630E-01  0.136842105260E+01 -0.235917869390E-02
  0.269655358630E-01  0.136842105260E+01  0.235917869390E-02
  0.269655358630E-01  0.147368421050E+01 -0.235917869390E-02
  0.269655358630E-01  0.147368421050E+01  0.235917869390E-02
  0.269655358630E-01  0.157894736840E+01 -0.235917869390E-02
  0.269655358630E-01  0.157894736840E+01  0.235917869390E-02
  0.269655358630E-01  0.168421052630E+01 -0.235917869390E-02
  0.269655358630E-01  0.168421052630E+01  0.235917869390E-02
  0.269655358630E-01  0.178947368420E+01 -0.235917869390E-02
  0.269655358630E-01  0.178947368420E+01  0.235917869390E-02
  0.269655358630E-01  0.189473684210E+01 -0.235917869390E-02
  0.269655358630E-01  0.189473684210E+01  0.235917869390E-02
  0.269655358630E-01  0.200000000000E+01 -0.235917869390E-02
  0.269655358630E-01  0.200000000000E+01  0.235917869390E-02
  0.269655358630E-01  0.200091793080E+01 -0.217366007760E-02
  0.269655358630E-01  0.200091793080E+01  0.217366007760E-02
  0.269655358630E-01  0.200166786420E+01 -0.166786415940E-02
  0.269655358630E-01  0.200166786420E+01  0.166786415940E-02
  0.269655358630E-01  0.200217366010E+01 -0.917930834960E-03
  0.269655358630E-01  0.200217366010E+01  0.917930834960E-03
  0.269655358630E-01  0.200235917870E+01  0.000000000000E+00
  0.269655358630E-01 -0.105263157890E+00 -0.235917869390E-02
  0.269655358630E-01 -0.105263157890E+00  0.235917869390E-02
  0.269655358630E-01 -0.210526315790E+00 -0.235917869390E-02
  0.269655358630E-01 -0.210526315790E+00  0.235917869390E-02
  0.269655358630E-01 -0.315789473680E+00 -0.235917869390E-02
  0.269655358630E-01 -0.315789473680E+00  0.235917869390E-02
  0.269655358630E-01 -0.421052631580E+00 -0.235917869390E-02
  0.269655358630E-01 -0.421052631580E+00  0.235917869390E-02
  0.269655358630E-01 -0.526315789470E+00 -0.235917869390E-02
  0.269655358630E-01 -0.526315789470E+00  0.235917869390E-02
  0.269655358630E-01 -0.631578947370E+00 -0.235917869390E-02
  0.269655358630E-01 -0.631578947370E+00  0.235917869390E-02
  0.269655358630E-01 -0.736842105260E+00 -0.235917869390E-02
  0.269655358630E-01 -0.736842105260E+00  0.235917869390E-02
  0.269655358630E-01 -0.842105263160E+00 -0.235917869390E-02
  0.269655358630E-01 -0.842105263160E+00  0.235917869390E-02
  0.269655358630E-01 -0.947368421050E+00 -0.235917869390E-02
  0.269655358630E-01 -0.947368421050E+00  0.235917869390E-02
  0.269655358630E-01 -0.105263157890E+01 -0.235917869390E-02
  0.269655358630E-01 -0.105263157890E+01  0.235917869390E-02
  0.269655358630E-01 -0.115789473680E+01 -0.235917869390E-02
  0.269655358630E-01 -0.115789473680E+01  0.235917869390E-02
  0.269655358630E-01 -0.126315789470E+01 -0.235917869390E-02
  0.269655358630E-01 -0.126315789470E+01  0.235917869390E-02
  0.269655358630E-01 -0.136842105260E+01 -0.235917869390E-02
  0.269655358630E-01 -0.136842105260E+01  0.235917869390E-02
  0.269655358630E-01 -0.147368421050E+01 -0.235917869390E-02
  0.269655358630E-01 -0.147368421050E+01  0.235917869390E-02
  0.269655358630E-01 -0.157894736840E+01 -0.235917869390E-02
  0.269655358630E-01 -0.157894736840E+01  0.235917869390E-02
  0.269655358630E-01 -0.168421052630E+01 -0.235917869390E-02
  0.269655358630E-01 -0.168421052630E+01  0.235917869390E-02
  0.269655358630E-01 -0.178947368420E+01 -0.235917869390E-02
  0.269655358630E-01 -0.178947368420E+01  0.235917869390E-02
  0.269655358630E-01 -0.189473684210E+01 -0.235917869390E-02
  0.269655358630E-01 -0.189473684210E+01  0.235917869390E-02
  0.269655358630E-01 -0.200000000000E+01 -0.235917869390E-02
  0.269655358630E-01 -0.200000000000E+01  0.235917869390E-02
  0.269655358630E-01 -0.200091793080E+01 -0.217366007760E-02
  0.269655358630E-01 -0.200091793080E+01  0.217366007760E-02
  0.269655358630E-01 -0.200166786420E+01 -0.166786415940E-02
  0.269655358630E-01 -0.200166786420E+01  0.166786415940E-02
  0.269655358630E-01 -0.200217366010E+01 -0.917930834960E-03
  0.269655358630E-01 -0.200217366010E+01  0.917930834960E-03
  0.269655358630E-01 -0.200235917870E+01  0.000000000000E+00
  0.702822349590E-01  0.000000000000E+00 -0.614889880620E-02
  0.702822349590E-01  0.105263157890E+00 -0.614889880620E-02
  0.702822349590E-01  0.105263157890E+00  0.614889880620E-02
  0.702822349590E-01  0.000000000000E+00  0.614889880620E-02
  0.702822349590E-01  0.210526315790E+00 -0.614889880620E-02
  0.702822349590E-01  0.210526315790E+00  0.614889880620E-02
  0.702822349590E-01  0.315789473680E+00 -0.614889880620E-02
  0.702822349590E-01  0.315789473680E+00  0.614889880620E-02
  0.702822349590E-01  0.421052631580E+00 -0.614889880620E-02
  0.702822349590E-01  0.421052631580E+00  0.614889880620E-02
  0.702822349590E-01  0.526315789470E+00 -0.614889880620E-02
  0.702822349590E-01  0.526315789470E+00  0.614889880620E-02
  0.702822349590E-01  0.631578947370E+00 -0.614889880620E-02
  0.702822349590E-01  0.631578947370E+00  0.614889880620E-02
  0.702822349590E-01  0.736842105260E+00 -0.614889880620E-02
  0.702822349590E-01  0.736842105260E+00  0.614889880620E-02
  0.702822349590E-01  0.842105263160E+00 -0.614889880620E-02
  0.702822349590E-01  0.842105263160E+00  0.614889880620E-02
  0.702822349590E-01  0.947368421050E+00 -0.614889880620E-02
  0.702822349590E-01  0.947368421050E+00  0.614889880620E-02
  0.702822349590E-01  0.105263157890E+01 -0.614889880620E-02
  0.702822349590E-01  0.105263157890E+01  0.614889880620E-02
  0.702822349590E-01  0.115789473680E+01 -0.614889880620E-02
  0.702822349590E-01  0.115789473680E+01  0.614889880620E-02
  0.702822349590E-01  0.126315789470E+01 -0.614889880620E-02
  0.702822349590E-01  0.126315789470E+01  0.614889880620E-02
  0.702822349590E-01  0.136842105260E+01 -0.614889880620E-02
  0.702822349590E-01  0.136842105260E+01  0.614889880620E-02
  0.702822349590E-01  0.147368421050E+01 -0.614889880620E-02
  0.702822349590E-01  0.147368421050E+01  0.614889880620E-02
[...]
CELL_DATA                2176
SCALARS C_p_ise float 1
LOOKUP_TABLE default
 -0.866637833528E-01
 -0.866637813439E-01
 -0.866637850294E-01
 -0.866637850293E-01
 -0.866637850357E-01
 -0.866637850357E-01
 -0.866637850334E-01
 -0.866637850334E-01
 -0.866637850391E-01
 -0.866637850391E-01
 -0.866637850343E-01
 -0.866637850343E-01
  0.116357274787E+00
  0.116357274787E+00
  0.116357274796E+00
  0.116357274796E+00
  0.116357274786E+00
  0.116357274786E+00
  0.116357274788E+00
  0.116357274788E+00
  0.116357274791E+00
  0.116357274791E+00
  0.116357274789E+00
  0.116357274789E+00
  0.116357274789E+00
  0.116357274789E+00
  0.116357274791E+00
  0.116357274791E+00
  0.116357274788E+00
  0.116357274788E+00
  0.116357274786E+00
  0.116357274786E+00
  0.116357274796E+00
  0.116357274796E+00
  0.116357274787E+00
  0.116357274787E+00
 -0.866637850343E-01
 -0.866637850343E-01
 -0.866637850391E-01
 -0.866637850391E-01
 -0.866637850333E-01
 -0.866637850334E-01
 -0.866637850358E-01
 -0.866637850357E-01
 -0.866637850295E-01
 -0.866637850294E-01
 -0.866637887425E-01
 -0.866637867337E-01
 -0.866637851602E-01
 -0.866637833528E-01
 -0.866637850294E-01
 -0.866637850294E-01
 -0.866637850357E-01
 -0.866637850357E-01
 -0.866637850334E-01
 -0.866637850334E-01
 -0.866637850391E-01
 -0.866637850391E-01
 -0.866637850343E-01
 -0.866637850343E-01
  0.116357274787E+00
  0.116357274787E+00
  0.116357274796E+00
  0.116357274796E+00
  0.116357274786E+00
  0.116357274786E+00
  0.116357274788E+00
  0.116357274788E+00
  0.116357274791E+00
  0.116357274791E+00
  0.116357274789E+00
  0.116357274789E+00
  0.116357274789E+00
  0.116357274789E+00
  0.116357274791E+00
  0.116357274791E+00
  0.116357274788E+00
  0.116357274788E+00
  0.116357274786E+00
  0.116357274786E+00
  0.116357274796E+00
  0.116357274796E+00
  0.116357274787E+00
  0.116357274787E+00
 -0.866637850343E-01
 -0.866637850343E-01
 -0.866637850391E-01
 -0.866637850391E-01
 -0.866637850334E-01
 -0.866637850333E-01
 -0.866637850357E-01
 -0.866637850357E-01
 -0.866637850294E-01
 -0.866637850294E-01
 -0.866637867337E-01
 -0.866637849262E-01
 -0.866637856225E-01
 -0.866637851602E-01
 -0.866637850294E-01
 -0.866637850294E-01
 -0.866637850357E-01
 -0.866637850357E-01
 -0.866637850334E-01
 -0.866637850334E-01
 -0.866637850391E-01
 -0.866637850391E-01
 -0.866637850343E-01
 -0.866637850343E-01
  0.116357274787E+00
  0.116357274787E+00
  0.116357274796E+00
  0.116357274796E+00
  0.116357274786E+00
  0.116357274786E+00
  0.116357274788E+00
  0.116357274788E+00
  0.116357274791E+00
  0.116357274791E+00
  0.116357274789E+00
  0.116357274789E+00
  0.116357274789E+00
  0.116357274789E+00
  0.116357274791E+00
  0.116357274791E+00
  0.116357274788E+00
  0.116357274788E+00
  0.116357274786E+00
  0.116357274786E+00
  0.116357274796E+00
  0.116357274796E+00
  0.116357274787E+00
  0.116357274787E+00
 -0.866637850343E-01
 -0.866637850343E-01
 -0.866637850391E-01
 -0.866637850391E-01
 -0.866637850333E-01
 -0.866637850334E-01
 -0.866637850357E-01
 -0.866637850357E-01
 -0.866637850294E-01
 -0.866637850295E-01
 -0.866637849262E-01
 -0.866637844640E-01
 -0.866637853019E-01
 -0.866637856225E-01
 -0.866637850294E-01
 -0.866637850294E-01
 -0.866637850357E-01
 -0.866637850357E-01
 -0.866637850334E-01
 -0.866637850334E-01
 -0.866637850390E-01
 -0.866637850391E-01
 -0.866637850343E-01
 -0.866637850343E-01
  0.116357274787E+00
  0.116357274787E+00
  0.116357274796E+00
  0.116357274796E+00
  0.116357274786E+00
  0.116357274786E+00
  0.116357274788E+00
  0.116357274788E+00
  0.116357274791E+00
  0.116357274791E+00
  0.116357274789E+00
  0.116357274789E+00
  0.116357274789E+00
  0.116357274789E+00
  0.116357274791E+00
  0.116357274791E+00
  0.116357274788E+00
  0.116357274788E+00
  0.116357274786E+00
  0.116357274786E+00
  0.116357274796E+00
  0.116357274796E+00
  0.116357274787E+00
  0.116357274787E+00
 -0.866637850343E-01
 -0.866637850343E-01
 -0.866637850391E-01
 -0.866637850391E-01
 -0.866637850334E-01
 -0.866637850333E-01
 -0.866637850357E-01
 -0.866637850357E-01
 -0.866637850295E-01
 -0.866637850295E-01
 -0.866637844640E-01
 -0.866637847846E-01
 -0.866637840806E-01
 -0.866637853019E-01
 -0.866637850295E-01
 -0.866637850294E-01
 -0.866637850358E-01
 -0.866637850357E-01
 -0.866637850334E-01
 -0.866637850334E-01
 -0.866637850391E-01
 -0.866637850390E-01
 -0.866637850343E-01
 -0.866637850343E-01
  0.116357274787E+00
  0.116357274787E+00
  0.116357274796E+00
  0.116357274796E+00
  0.116357274786E+00
  0.116357274786E+00
  0.116357274788E+00
  0.116357274788E+00
  0.116357274791E+00
  0.116357274791E+00
  0.116357274789E+00
  0.116357274789E+00
  0.116357274789E+00
  0.116357274789E+00
  0.116357274791E+00
  0.116357274791E+00
  0.116357274788E+00
  0.116357274788E+00
  0.116357274786E+00
  0.116357274786E+00
  0.116357274796E+00
  0.116357274796E+00
  0.116357274787E+00
  0.116357274787E+00
 -0.866637850343E-01
 -0.866637850343E-01
 -0.866637850391E-01
 -0.866637850391E-01
 -0.866637850333E-01
 -0.866637850334E-01
 -0.866637850357E-01
 -0.866637850357E-01
 -0.866637850295E-01
 -0.866637850292E-01
 -0.866637847846E-01
 -0.866637860053E-01
 -0.866637853621E-01
 -0.866637840806E-01
 -0.866637850305E-01
 -0.866637850295E-01
 -0.866637850351E-01
 -0.866637850358E-01
 -0.866637850331E-01
 -0.866637850334E-01
 -0.866637850392E-01
 -0.866637850391E-01
 -0.866637850343E-01
 -0.866637850343E-01
  0.116357274787E+00
  0.116357274787E+00
  0.116357274796E+00
  0.116357274796E+00
  0.116357274786E+00
  0.116357274786E+00
  0.116357274788E+00
  0.116357274788E+00
  0.116357274791E+00
  0.116357274791E+00
  0.116357274789E+00
  0.116357274789E+00
  0.116357274789E+00
  0.116357274789E+00
  0.116357274791E+00
  0.116357274791E+00
  0.116357274788E+00
  0.116357274788E+00
  0.116357274786E+00
  0.116357274786E+00
  0.116357274796E+00
  0.116357274796E+00
  0.116357274787E+00
  0.116357274787E+00
 -0.866637850343E-01
 -0.866637850343E-01
 -0.866637850391E-01
 -0.866637850391E-01
 -0.866637850334E-01
 -0.866637850330E-01
 -0.866637850357E-01
 -0.866637850346E-01
 -0.866637850292E-01
 -0.866637850295E-01
 -0.866637860053E-01
 -0.866637847325E-01
 -0.866637844715E-01
 -0.866637853621E-01
 -0.866637850232E-01
 -0.866637850305E-01
 -0.866637850505E-01
 -0.866637850351E-01
 -0.866637850387E-01
 -0.866637850331E-01
 -0.866637850383E-01
 -0.866637850392E-01
 -0.866637850342E-01
 -0.866637850343E-01
  0.116357274787E+00
  0.116357274787E+00
  0.116357274796E+00
  0.116357274796E+00
  0.116357274786E+00
  0.116357274786E+00
  0.116357274788E+00
  0.116357274788E+00
  0.116357274791E+00
  0.116357274791E+00
  0.116357274789E+00
  0.116357274789E+00
  0.116357274789E+00
  0.116357274789E+00
  0.116357274791E+00
  0.116357274791E+00
  0.116357274788E+00
  0.116357274788E+00
  0.116357274786E+00
  0.116357274786E+00
  0.116357274796E+00
  0.116357274796E+00
  0.116357274787E+00
  0.116357274787E+00
 -0.866637850343E-01
 -0.866637850342E-01
 -0.866637850391E-01
 -0.866637850380E-01
 -0.866637850330E-01
 -0.866637850376E-01
 -0.866637850346E-01
 -0.866637850473E-01
 -0.866637850295E-01
 -0.866637850148E-01
 -0.866637847325E-01
 -0.866637854837E-01
 -0.866637878577E-01
 -0.866637844715E-01
 -0.866637852368E-01
 -0.866637850232E-01
 -0.866637848391E-01
 -0.866637850505E-01
 -0.866637849592E-01
 -0.866637850387E-01
 -0.866637850548E-01
 -0.866637850383E-01
 -0.866637850359E-01
 -0.866637850342E-01
  0.116357274787E+00
  0.116357274787E+00
  0.116357274796E+00
  0.116357274796E+00
  0.116357274786E+00
  0.116357274786E+00
  0.116357274788E+00
  0.116357274788E+00
  0.116357274791E+00
  0.116357274791E+00
  0.116357274789E+00
  0.116357274789E+00
  0.116357274789E+00
  0.116357274789E+00
  0.116357274791E+00
  0.116357274791E+00
  0.116357274788E+00
  0.116357274788E+00
  0.116357274786E+00
  0.116357274786E+00
  0.116357274796E+00
  0.116357274796E+00
  0.116357274788E+00
  0.116357274787E+00
 -0.866637850342E-01
 -0.866637850354E-01
 -0.866637850380E-01
 -0.866637850529E-01
 -0.866637850376E-01
 -0.866637849521E-01
 -0.866637850473E-01
 -0.866637848188E-01
 -0.866637850148E-01
 -0.866637851865E-01
 -0.866637854837E-01
 -0.866637843166E-01
 -0.866637680051E-01
 -0.866637878577E-01
 -0.866637819704E-01
 -0.866637852368E-01
 -0.866637882902E-01
 -0.866637848391E-01
 -0.866637863260E-01
 -0.866637849592E-01
 -0.866637848136E-01
 -0.866637850548E-01
 -0.866637850129E-01
 -0.866637850359E-01
  0.116357274787E+00
  0.116357274781E+00
  0.116357274796E+00
  0.116357274797E+00
  0.116357274786E+00
  0.116357274785E+00
  0.116357274788E+00
  0.116357274788E+00
  0.116357274791E+00
  0.116357274791E+00
  0.116357274789E+00
  0.116357274789E+00
  0.116357274789E+00
  0.116357274789E+00
  0.116357274791E+00
  0.116357274791E+00
  0.116357274788E+00
  0.116357274788E+00
  0.116357274785E+00
  0.116357274786E+00
  0.116357274798E+00
  0.116357274796E+00
  0.116357274782E+00
  0.116357274788E+00
 -0.866637850354E-01
 -0.866637850099E-01
 -0.866637850529E-01
 -0.866637848008E-01
 -0.866637849521E-01
 -0.866637862811E-01
 -0.866637848188E-01
 -0.866637881672E-01
 -0.866637851865E-01
 -0.866637816869E-01
 -0.866637843166E-01
 -0.866637692576E-01
 -0.866640418100E-01
 -0.866637680051E-01
 -0.866638417140E-01
 -0.866637819704E-01
 -0.866637370918E-01
 -0.866637882902E-01
 -0.866637645417E-01
 -0.866637863260E-01
 -0.866637886628E-01
 -0.866637848136E-01
 -0.866637854251E-01
 -0.866637850129E-01
  0.116357274781E+00
  0.116357274878E+00
  0.116357274797E+00
  0.116357274765E+00
  0.116357274785E+00
  0.116357274787E+00
  0.116357274788E+00
  0.116357274788E+00
  0.116357274791E+00
  0.116357274791E+00
  0.116357274789E+00
  0.116357274789E+00
  0.116357274789E+00
  0.116357274789E+00
  0.116357274791E+00
  0.116357274791E+00
  0.116357274788E+00
  0.116357274788E+00
  0.116357274788E+00
  0.116357274785E+00
  0.116357274767E+00
  0.116357274798E+00
  0.116357274886E+00
  0.116357274782E+00
 -0.866637850099E-01
 -0.866637854054E-01
 -0.866637848008E-01
 -0.866637885831E-01
 -0.866637862811E-01
 -0.866637642792E-01
 -0.866637881672E-01
 -0.866637364429E-01
 -0.866637816869E-01
 -0.866638404159E-01
 -0.866637692576E-01
 -0.866640349605E-01
 -0.866599941436E-01
 -0.866640418100E-01
 -0.866628161967E-01
 -0.866638417141E-01
 -0.866644936810E-01
 -0.866637370919E-01
 -0.866641162643E-01
 -0.866637645417E-01
 -0.866637309724E-01
 -0.866637886628E-01
 -0.866637787873E-01
 -0.866637854251E-01
  0.116357274878E+00
  0.116357273212E+00
  0.116357274765E+00
  0.116357275257E+00
  0.116357274787E+00
  0.116357274752E+00
  0.116357274788E+00
  0.116357274783E+00
  0.116357274791E+00
  0.116357274790E+00
  0.116357274789E+00
  0.116357274789E+00
  0.116357274789E+00
  0.116357274789E+00
  0.116357274791E+00
  0.116357274791E+00
  0.116357274784E+00
  0.116357274788E+00
  0.116357274756E+00
  0.116357274788E+00
  0.116357275273E+00
  0.116357274767E+00
  0.116357273263E+00
  0.116357274886E+00
 -0.866637854054E-01
 -0.866637786666E-01
 -0.866637885831E-01
 -0.866637305169E-01
 -0.866637642792E-01
 -0.866641149050E-01
 -0.866637364429E-01
 -0.866644911344E-01
 -0.866638404160E-01
 -0.866628110042E-01
 -0.866640349605E-01
 -0.866599697069E-01
 -0.867181566835E-01
 -0.866599941464E-01
 -0.866805865219E-01
 -0.866628162277E-01
 -0.866538462885E-01
 -0.866644936850E-01
 -0.866586113351E-01
 -0.866641162646E-01
 -0.866645844312E-01
 -0.866637309724E-01
 -0.866638885127E-01
 -0.866637787873E-01
  0.116357273212E+00
  0.116357299732E+00
  0.116357275257E+00
  0.116357267426E+00
  0.116357274752E+00
  0.116357275226E+00
  0.116357274783E+00
  0.116357274869E+00
  0.116357274790E+00
  0.116357274792E+00
  0.116357274789E+00
  0.116357274788E+00
  0.116357274789E+00
  0.116357274789E+00
  0.116357274793E+00
  0.116357274791E+00
  0.116357274877E+00
  0.116357274784E+00
  0.116357275254E+00
  0.116357274756E+00
  0.116357267526E+00
  0.116357275273E+00
  0.116357300049E+00
  0.116357273263E+00
 -0.866637786666E-01
 -0.866638878460E-01
 -0.866637305169E-01
 -0.866645822293E-01
 -0.866641149054E-01
 -0.866586058519E-01
 -0.866644911384E-01
 -0.866538314206E-01
 -0.866628110354E-01
 -0.866805718061E-01
 -0.866599697097E-01
 -0.867180459031E-01
 -0.859666594360E-01
 -0.867181566578E-01
 -0.863400860972E-01
 -0.866805924841E-01
 -0.867911664771E-01
 -0.866538472498E-01
 -0.867423753558E-01
 -0.866586114037E-01
 -0.866526165026E-01
 -0.866645844320E-01
 -0.866621396063E-01
 -0.866638885128E-01
  0.116357299732E+00
  0.116356871873E+00
  0.116357267426E+00
  0.116357386644E+00
  0.116357275226E+00
  0.116357268551E+00
  0.116357274869E+00
  0.116357272997E+00
  0.116357274792E+00
  0.116357274718E+00
  0.116357274788E+00
  0.116357274787E+00
  0.116357274789E+00
  0.116357274789E+00
  0.116357274730E+00
  0.116357274793E+00
  0.116357273053E+00
  0.116357274877E+00
  0.116357268737E+00
  0.116357275254E+00
  0.116357387257E+00
  0.116357267526E+00
  0.116356873584E+00
  0.116357300049E+00
 -0.866638878461E-01
 -0.866621364410E-01
 -0.866645822301E-01
 -0.866526070430E-01
 -0.866586059207E-01
 -0.867423480579E-01
 -0.866538323806E-01
 -0.867910786772E-01
 -0.866805777618E-01
 -0.863400452444E-01
 -0.867180458773E-01
 -0.859666095729E-01
 -0.944180387149E-01
 -0.859669240326E-01
 -0.927779173747E-01
 -0.863408627411E-01
 -0.855742500425E-01
 -0.867913867949E-01
 -0.855159418044E-01
 -0.867423864154E-01
 -0.868025630046E-01
 -0.866526166988E-01
 -0.866889302806E-01
 -0.866621396131E-01
  0.116356871861E+00
  0.116363578454E+00
  0.116357386643E+00
  0.116355597400E+00
  0.116357268551E+00
  0.116357348671E+00
  0.116357272997E+00
  0.116357310605E+00
  0.116357274718E+00
  0.116357276932E+00
  0.116357274787E+00
  0.116357274812E+00
  0.116357274831E+00
  0.116357274789E+00
  0.116357277041E+00
  0.116357274730E+00
  0.116357311009E+00
  0.116357273053E+00
  0.116357349827E+00
  0.116357268737E+00
  0.116355600807E+00
  0.116357387256E+00
  0.116363586197E+00
  0.116356873572E+00
 -0.866621364478E-01
 -0.866889168169E-01
 -0.866526072387E-01
 -0.868025153705E-01
 -0.867423591106E-01
 -0.855158263981E-01
 -0.867912990760E-01
 -0.855746956852E-01
 -0.863408217137E-01
 -0.927771839504E-01
 -0.859668741063E-01
 -0.944171307304E-01
 -0.102733081449E+00
 -0.945259186215E-01
 -0.101480433561E+00
 -0.928525164562E-01
 -0.985737045595E-01
 -0.855926334553E-01
 -0.965624412055E-01
 -0.855166131518E-01
 -0.856923126256E-01
 -0.868026159383E-01
 -0.862731714416E-01
 -0.866889318752E-01
  0.116363575675E+00
  0.116262011970E+00
  0.116355597200E+00
  0.116381360283E+00
  0.116357348670E+00
  0.116356564178E+00
  0.116357310605E+00
  0.116356552415E+00
  0.116357276932E+00
  0.116357202911E+00
  0.116357274812E+00
  0.116357272510E+00
  0.116357272723E+00
  0.116357274831E+00
  0.116357203860E+00
  0.116357277041E+00
  0.116356555125E+00
  0.116357311009E+00
  0.116356570698E+00
  0.116357349826E+00
  0.116381379693E+00
  0.116355600607E+00
  0.116262029478E+00
  0.116363583420E+00
 -0.866889184106E-01
 -0.862730978030E-01
 -0.868025683420E-01
 -0.856921250675E-01
 -0.855164979476E-01
 -0.965620560806E-01
 -0.855930768210E-01
 -0.985731142459E-01
 -0.928517725369E-01
 -0.101480914766E+00
 -0.945250041133E-01
 -0.102734004164E+00
 -0.110229593672E+00
 -0.102978581901E+00
 -0.108874234504E+00
 -0.101692312151E+00
 -0.106854417407E+00
 -0.987325303496E-01
 -0.103906210364E+00
 -0.966838342327E-01
 -0.101283040070E+00
 -0.856964075816E-01
 -0.902295066587E-01
 -0.862734808823E-01
  0.116261454132E+00
  0.117691723849E+00
  0.116381322823E+00
  0.116032073719E+00
  0.116356564140E+00
  0.116359264267E+00
  0.116356552390E+00
  0.116371187358E+00
  0.116357202911E+00
  0.116359552475E+00
  0.116357272510E+00
  0.116357417993E+00
  0.116357420399E+00
  0.116357272723E+00
  0.116359560668E+00
  0.116357203860E+00
  0.116371205848E+00
  0.116356555101E+00
  0.116359296493E+00
  0.116356570660E+00
  0.116032111839E+00
  0.116381342244E+00
  0.117692038883E+00
  0.116261471305E+00
 -0.862734074387E-01
 -0.902294930217E-01
 -0.856962191223E-01
 -0.101283062722E+00
 -0.966834513934E-01
 -0.103906121409E+00
 -0.987319547825E-01
 -0.106854274886E+00
 -0.101692809992E+00
 -0.108873790122E+00
 -0.102979508737E+00
 -0.110230903988E+00
 -0.873895572135E-01
 -0.110503525245E+00
 -0.102035873694E+00
 -0.109272512812E+00
 -0.113072522384E+00
 -0.107207650490E+00
 -0.112713522575E+00
 -0.104155885959E+00
 -0.107416542488E+00
 -0.101479416215E+00
 -0.104635708668E+00
 -0.902934051835E-01
  0.117587892964E+00
  0.987685604569E-01
  0.116026442378E+00
  0.120266312236E+00
  0.116359262488E+00
  0.116483403174E+00
  0.116371177966E+00
  0.116105384524E+00
  0.116359552230E+00
  0.116286948599E+00
  0.116357417991E+00
  0.116347664006E+00
  0.116347691103E+00
  0.116357420398E+00
  0.116287010160E+00
  0.116359560423E+00
  0.116105477575E+00
  0.116371196464E+00
  0.116483525726E+00
  0.116359294721E+00
  0.120266394800E+00
  0.116026480017E+00
  0.987686367816E-01
  0.117588206829E+00
 -0.902933929028E-01
 -0.104635803244E+00
 -0.101479443396E+00
 -0.107416601632E+00
 -0.104155799193E+00
 -0.112713649207E+00
 -0.107207510862E+00
 -0.113072392170E+00
 -0.109272079762E+00
 -0.102036550904E+00
 -0.110504854747E+00
 -0.873938044221E-01
 -0.552995468254E-01
 -0.868252953830E-01
 -0.616360599166E-01
 -0.101432522074E+00
 -0.748431411428E-01
 -0.112790982357E+00
 -0.820812255466E-01
 -0.113370102321E+00
 -0.116806765236E+00
 -0.107907987532E+00
 -0.111080426821E+00
 -0.105030239590E+00
  0.976674189362E-01
  0.781953112348E-01
  0.119862017188E+00
  0.855113921830E-01
  0.116483404438E+00
  0.112615313190E+00
  0.116102187825E+00
  0.120361476542E+00
  0.116286708773E+00
  0.118346728904E+00
  0.116347657568E+00
  0.116995515009E+00
  0.116995821411E+00
  0.116347684660E+00
  0.118347142320E+00
  0.116286770232E+00
  0.120361834715E+00
  0.116102280213E+00
  0.112615562502E+00
  0.116483526939E+00
  0.855112422706E-01
  0.119862103966E+00
  0.781946813822E-01
  0.976674706960E-01
 -0.105030346098E+00
 -0.111080308057E+00
 -0.107908049515E+00
 -0.116806845472E+00
 -0.113370227696E+00
 -0.820818683862E-01
 -0.112790855632E+00
 -0.748441705733E-01
 -0.101433189704E+00
 -0.616427842357E-01
 -0.868295131124E-01
 -0.552894561569E-01
 -0.221839307194E-01
 -0.570782665277E-01
 -0.293785095641E-01
 -0.628510015869E-01
 -0.332281549999E-01
 -0.751699199154E-01
 -0.383519510593E-01
 -0.815593107806E-01
 -0.451017718699E-01
 -0.117192756186E+00
 -0.976675805981E-01
 -0.112785093924E+00
  0.745794402882E-01
  0.673815183169E-01
  0.821128738269E-01
  0.650710161849E-01
  0.110241979571E+00
  0.684773373528E-01
  0.119491762177E+00
  0.720016099822E-01
  0.118139252514E+00
  0.738070058353E-01
  0.116966991071E+00
  0.748049915800E-01
  0.748067697102E-01
  0.116967299513E+00
  0.738080879022E-01
  0.118139675466E+00
  0.720021662089E-01
  0.119492143693E+00
  0.684774153742E-01
  0.110242259369E+00
  0.650709090512E-01
  0.821127614310E-01
  0.673813258587E-01
  0.745788833529E-01
 -0.112784918271E+00
 -0.976684723521E-01
 -0.117192844711E+00
 -0.451021768334E-01
 -0.815599357179E-01
 -0.383524625687E-01
 -0.751709169337E-01
 -0.332288247283E-01
 -0.628576819760E-01
 -0.293718929476E-01
 -0.570684368143E-01
 -0.221870684355E-01
 -0.553099588877E-01
 -0.571374926606E-01
 -0.465238598392E-01
 -0.449084265394E-01
 -0.409153941163E-01
 -0.394545358853E-01
 -0.403675512884E-01
 -0.373664783806E-01
 -0.451070406988E-01
 -0.812628941209E-01
 -0.100087979686E+00
  0.576613319617E-01
  0.576234669602E-01
  0.547323157152E-01
  0.546409519864E-01
  0.558660207714E-01
  0.555040778716E-01
  0.574027083170E-01
  0.570446557678E-01
  0.581324426044E-01
  0.578148106772E-01
  0.584988047397E-01
  0.584959645502E-01
  0.578118041542E-01
  0.581301213549E-01
  0.570424574632E-01
  0.574010341892E-01
  0.555025532280E-01
  0.558648135416E-01
  0.546400935450E-01
  0.547315539875E-01
  0.576231200439E-01
  0.576609365195E-01
 -0.100088925681E+00
 -0.812632450772E-01
 -0.451074364091E-01