# vtk DataFile Version 3.0
MachLine results file. Generated by MachLine, USU AeroLab (c) 2022.
ASCII
DATASET POLYDATA
POINTS                1164 float
  0.999999041957E+00  0.000000000000E+00 -0.417491494650E-07
  0.973034383663E+00  0.105263157890E+00 -0.235825883963E-02
  0.999999119618E+00  0.105263157890E+00 -0.383648804671E-07
  0.973034382832E+00  0.000000000000E+00 -0.235824933777E-02
  0.929717675664E+00  0.105263157890E+00 -0.614787723533E-02
  0.929717673943E+00  0.000000000000E+00 -0.614785756087E-02
  0.863184699151E+00  0.105263157890E+00 -0.119686097007E-01
  0.863184696324E+00  0.000000000000E+00 -0.119685773901E-01
  0.767714125425E+00  0.105263157890E+00 -0.203210244768E-01
  0.767714122072E+00  0.000000000000E+00 -0.203209861486E-01
  0.643290413741E+00  0.105263157890E+00 -0.312065343397E-01
  0.643290411360E+00  0.000000000000E+00 -0.312065071268E-01
  0.500000000000E+00  0.105263157890E+00 -0.437427648440E-01
  0.500000000000E+00  0.000000000000E+00 -0.437429617072E-01
  0.356709588640E+00  0.000000000000E+00 -0.312065071268E-01
  0.356709586259E+00  0.105263157890E+00 -0.312065343397E-01
  0.232285877928E+00  0.000000000000E+00 -0.203209861486E-01
  0.232285874575E+00  0.105263157890E+00 -0.203210244768E-01
  0.136815303676E+00  0.000000000000E+00 -0.119685773901E-01
  0.136815300849E+00  0.105263157890E+00 -0.119686097007E-01
  0.702823260562E-01  0.000000000000E+00 -0.614785756087E-02
  0.702823243349E-01  0.105263157890E+00 -0.614787723533E-02
  0.269656171711E-01  0.000000000000E+00 -0.235824933777E-02
  0.269656163398E-01  0.105263157890E+00 -0.235825883963E-02
  0.958042501271E-06  0.000000000000E+00 -0.417491494656E-07
  0.880381672795E-06  0.105263157890E+00 -0.383648804677E-07
  0.269656163398E-01  0.105263157890E+00  0.235825883963E-02
  0.269656171711E-01  0.000000000000E+00  0.235824933777E-02
  0.702823243349E-01  0.105263157890E+00  0.614787723533E-02
  0.702823260562E-01  0.000000000000E+00  0.614785756087E-02
  0.136815300849E+00  0.105263157890E+00  0.119686097007E-01
  0.136815303676E+00  0.000000000000E+00  0.119685773901E-01
  0.232285874575E+00  0.105263157890E+00  0.203210244768E-01
  0.232285877928E+00  0.000000000000E+00  0.203209861486E-01
  0.356709586259E+00  0.105263157890E+00  0.312065343397E-01
  0.356709588640E+00  0.000000000000E+00  0.312065071268E-01
  0.500000000000E+00  0.105263157890E+00  0.437427648440E-01
  0.500000000000E+00  0.000000000000E+00  0.437429617072E-01
  0.643290411360E+00  0.000000000000E+00  0.312065071268E-01
  0.643290413741E+00  0.105263157890E+00  0.312065343397E-01
  0.767714122072E+00  0.000000000000E+00  0.203209861486E-01
  0.767714125425E+00  0.105263157890E+00  0.203210244768E-01
  0.863184696324E+00  0.000000000000E+00  0.119685773901E-01
  0.863184699151E+00  0.105263157890E+00  0.119686097007E-01
  0.929717673943E+00  0.000000000000E+00  0.614785756087E-02
  0.929717675664E+00  0.105263157890E+00  0.614787723533E-02
  0.973034382832E+00  0.000000000000E+00  0.235824933777E-02
  0.973034383663E+00  0.105263157890E+00  0.235825883963E-02
  0.973034383663E+00  0.210526315790E+00 -0.235825883963E-02
  0.999999119618E+00  0.210526315790E+00 -0.383648804656E-07
  0.929717675664E+00  0.210526315790E+00 -0.614787723533E-02
  0.863184699151E+00  0.210526315790E+00 -0.119686097007E-01
  0.767714125425E+00  0.210526315790E+00 -0.203210244768E-01
  0.643290413741E+00  0.210526315790E+00 -0.312065343397E-01
  0.500000000000E+00  0.210526315790E+00 -0.437427648440E-01
  0.356709586259E+00  0.210526315790E+00 -0.312065343397E-01
  0.232285874575E+00  0.210526315790E+00 -0.203210244768E-01
  0.136815300849E+00  0.210526315790E+00 -0.119686097007E-01
  0.702823243349E-01  0.210526315790E+00 -0.614787723533E-02
  0.269656163398E-01  0.210526315790E+00 -0.235825883963E-02
  0.880381672759E-06  0.210526315790E+00 -0.383648804662E-07
  0.269656163398E-01  0.210526315790E+00  0.235825883963E-02
  0.702823243349E-01  0.210526315790E+00  0.614787723533E-02
  0.136815300849E+00  0.210526315790E+00  0.119686097007E-01
  0.232285874575E+00  0.210526315790E+00  0.203210244768E-01
  0.356709586259E+00  0.210526315790E+00  0.312065343397E-01
  0.500000000000E+00  0.210526315790E+00  0.437427648440E-01
  0.643290413741E+00  0.210526315790E+00  0.312065343397E-01
  0.767714125425E+00  0.210526315790E+00  0.203210244768E-01
  0.863184699151E+00  0.210526315790E+00  0.119686097007E-01
  0.929717675664E+00  0.210526315790E+00  0.614787723533E-02
  0.973034383663E+00  0.210526315790E+00  0.235825883963E-02
  0.973034383663E+00  0.315789473680E+00 -0.235825883963E-02
  0.999999119618E+00  0.315789473680E+00 -0.383648804671E-07
  0.929717675664E+00  0.315789473680E+00 -0.614787723533E-02
  0.863184699151E+00  0.315789473680E+00 -0.119686097007E-01
  0.767714125425E+00  0.315789473680E+00 -0.203210244768E-01
  0.643290413741E+00  0.315789473680E+00 -0.312065343397E-01
  0.500000000000E+00  0.315789473680E+00 -0.437427648440E-01
  0.356709586259E+00  0.315789473680E+00 -0.312065343397E-01
  0.232285874575E+00  0.315789473680E+00 -0.203210244768E-01
  0.136815300849E+00  0.315789473680E+00 -0.119686097007E-01
  0.702823243349E-01  0.315789473680E+00 -0.614787723533E-02
  0.269656163398E-01  0.315789473680E+00 -0.235825883963E-02
  0.880381672795E-06  0.315789473680E+00 -0.383648804677E-07
  0.269656163398E-01  0.315789473680E+00  0.235825883963E-02
  0.702823243349E-01  0.315789473680E+00  0.614787723533E-02
  0.136815300849E+00  0.315789473680E+00  0.119686097007E-01
  0.232285874575E+00  0.315789473680E+00  0.203210244768E-01
  0.356709586259E+00  0.315789473680E+00  0.312065343397E-01
  0.500000000000E+00  0.315789473680E+00  0.437427648440E-01
  0.643290413741E+00  0.315789473680E+00  0.312065343397E-01
  0.767714125425E+00  0.315789473680E+00  0.203210244768E-01
  0.863184699151E+00  0.315789473680E+00  0.119686097007E-01
  0.929717675664E+00  0.315789473680E+00  0.614787723533E-02
  0.973034383663E+00  0.315789473680E+00  0.235825883963E-02
  0.973034383663E+00  0.421052631580E+00 -0.235825883963E-02
  0.999999119618E+00  0.421052631580E+00 -0.383648804656E-07
  0.929717675664E+00  0.421052631580E+00 -0.614787723533E-02
  0.863184699151E+00  0.421052631580E+00 -0.119686097007E-01
  0.767714125425E+00  0.421052631580E+00 -0.203210244768E-01
  0.643290413741E+00  0.421052631580E+00 -0.312065343397E-01
  0.500000000000E+00  0.421052631580E+00 -0.437427648440E-01
  0.356709586259E+00  0.421052631580E+00 -0.312065343397E-01
  0.232285874575E+00  0.421052631580E+00 -0.203210244768E-01
  0.136815300849E+00  0.421052631580E+00 -0.119686097007E-01
  0.702823243349E-01  0.421052631580E+00 -0.614787723533E-02
  0.269656163398E-01  0.421052631580E+00 -0.235825883963E-02
  0.880381672759E-06  0.421052631580E+00 -0.383648804662E-07
  0.269656163398E-01  0.421052631580E+00  0.235825883963E-02
  0.702823243349E-01  0.421052631580E+00  0.614787723533E-02
  0.136815300849E+00  0.421052631580E+00  0.119686097007E-01
  0.232285874575E+00  0.421052631580E+00  0.203210244768E-01
  0.356709586259E+00  0.421052631580E+00  0.312065343397E-01
  0.500000000000E+00  0.421052631580E+00  0.437427648440E-01
  0.643290413741E+00  0.421052631580E+00  0.312065343397E-01
  0.767714125425E+00  0.421052631580E+00  0.203210244768E-01
  0.863184699151E+00  0.421052631580E+00  0.119686097007E-01
  0.929717675664E+00  0.421052631580E+00  0.614787723533E-02
  0.973034383663E+00  0.421052631580E+00  0.235825883963E-02
  0.973034383663E+00  0.526315789470E+00 -0.235825883963E-02
  0.999999119618E+00  0.526315789470E+00 -0.383648804671E-07
  0.929717675664E+00  0.526315789470E+00 -0.614787723533E-02
  0.863184699151E+00  0.526315789470E+00 -0.119686097007E-01
  0.767714125425E+00  0.526315789470E+00 -0.203210244768E-01
  0.643290413741E+00  0.526315789470E+00 -0.312065343397E-01
  0.500000000000E+00  0.526315789470E+00 -0.437427648440E-01
  0.356709586259E+00  0.526315789470E+00 -0.312065343397E-01
  0.232285874575E+00  0.526315789470E+00 -0.203210244768E-01
  0.136815300849E+00  0.526315789470E+00 -0.119686097007E-01
  0.702823243349E-01  0.526315789470E+00 -0.614787723533E-02
  0.269656163398E-01  0.526315789470E+00 -0.235825883963E-02
  0.880381672795E-06  0.526315789470E+00 -0.383648804677E-07
  0.269656163398E-01  0.526315789470E+00  0.235825883963E-02
  0.702823243349E-01  0.526315789470E+00  0.614787723533E-02
  0.136815300849E+00  0.526315789470E+00  0.119686097007E-01
  0.232285874575E+00  0.526315789470E+00  0.203210244768E-01
  0.356709586259E+00  0.526315789470E+00  0.312065343397E-01
  0.500000000000E+00  0.526315789470E+00  0.437427648440E-01
  0.643290413741E+00  0.526315789470E+00  0.312065343397E-01
  0.767714125425E+00  0.526315789470E+00  0.203210244768E-01
  0.863184699151E+00  0.526315789470E+00  0.119686097007E-01
  0.929717675664E+00  0.526315789470E+00  0.614787723533E-02
  0.973034383663E+00  0.526315789470E+00  0.235825883963E-02
  0.973034383663E+00  0.631578947370E+00 -0.235825883963E-02
  0.999999119618E+00  0.631578947370E+00 -0.383648804656E-07
  0.929717675664E+00  0.631578947370E+00 -0.614787723533E-02
  0.863184699151E+00  0.631578947370E+00 -0.119686097007E-01
  0.767714125425E+00  0.631578947370E+00 -0.203210244768E-01
  0.643290413741E+00  0.631578947370E+00 -0.312065343397E-01
  0.500000000000E+00  0.631578947370E+00 -0.437427648440E-01
  0.356709586259E+00  0.631578947370E+00 -0.312065343397E-01
  0.232285874575E+00  0.631578947370E+00 -0.203210244768E-01
  0.136815300849E+00  0.631578947370E+00 -0.119686097007E-01
  0.702823243349E-01  0.631578947370E+00 -0.614787723533E-02
  0.269656163398E-01  0.631578947370E+00 -0.235825883963E-02
  0.880381672759E-06  0.631578947370E+00 -0.383648804662E-07
  0.269656163398E-01  0.631578947370E+00  0.235825883963E-02
  0.702823243349E-01  0.631578947370E+00  0.614787723533E-02
  0.136815300849E+00  0.631578947370E+00  0.119686097007E-01
  0.232285874575E+00  0.631578947370E+00  0.203210244768E-01
[...]
POINT_DATA                1164
SCALARS phi float 1
LOOKUP_TABLE default
 -0.770487638602E-17
 -0.255871712707E-16
 -0.231695274810E-17
 -0.359955121265E-16
 -0.121430643318E-16
 -0.780625564190E-17
  0.208166817117E-16
 -0.173472347598E-16
  0.000000000000E+00
 -0.346944695195E-17
  0.000000000000E+00
  0.000000000000E+00
  0.000000000000E+00
  0.346944695195E-17
  0.000000000000E+00
  0.000000000000E+00
  0.000000000000E+00
  0.000000000000E+00
  0.000000000000E+00
  0.000000000000E+00
  0.000000000000E+00
  0.000000000000E+00
  0.000000000000E+00
  0.216840434497E-18
 -0.106547480342E-18
 -0.151493166105E-18
  0.216840434497E-18
  0.000000000000E+00
  0.000000000000E+00
  0.433680868994E-18
  0.867361737988E-18
  0.173472347598E-17
  0.173472347598E-17
  0.000000000000E+00
 -0.867361737988E-17
 -0.173472347598E-17
  0.346944695195E-17
  0.104083408559E-16
  0.346944695195E-17
  0.104083408559E-16
  0.000000000000E+00
  0.173472347598E-17
  0.104083408559E-16
  0.312250225676E-16
  0.867361737988E-18
 -0.420670442924E-16
 -0.954097911787E-17
 -0.123599047663E-16
  0.867361737988E-18
 -0.484227560122E-17
 -0.138777878078E-16
 -0.693889390391E-17
  0.138777878078E-16
  0.173472347598E-16
  0.000000000000E+00
 -0.693889390391E-17
  0.346944695195E-17
  0.173472347598E-17
 -0.433680868994E-18
  0.000000000000E+00
 -0.130032792293E-18
  0.216840434497E-18
  0.433680868994E-18
  0.867361737988E-18
 -0.173472347598E-17
 -0.346944695195E-17
 -0.346944695195E-17
  0.242861286637E-16
  0.121430643318E-16
 -0.780625564190E-17
 -0.125767452008E-16
  0.216840434497E-17
  0.303576608296E-16
  0.371291598473E-17
 -0.867361737988E-18
 -0.190819582357E-16
 -0.104083408559E-16
  0.693889390391E-17
  0.173472347598E-16
  0.693889390391E-17
  0.520417042793E-17
 -0.867361737988E-18
  0.433680868994E-18
  0.216840434497E-18
  0.764513409346E-19
  0.216840434497E-18
  0.000000000000E+00
  0.000000000000E+00
  0.520417042793E-17
  0.173472347598E-17
 -0.693889390391E-17
 -0.138777878078E-16
 -0.346944695195E-17
 -0.173472347598E-17
  0.520417042793E-17
  0.195156391047E-16
  0.169135538908E-16
 -0.944732903764E-17
 -0.173472347598E-16
  0.693889390391E-17
  0.346944695195E-17
  0.242861286637E-16
  0.000000000000E+00
  0.000000000000E+00
  0.000000000000E+00
  0.000000000000E+00
 -0.433680868994E-18
  0.216840434497E-18
  0.232212759001E-18
  0.216840434497E-18
  0.000000000000E+00
  0.867361737988E-18
 -0.173472347598E-17
 -0.173472347598E-17
  0.693889390391E-17
  0.000000000000E+00
 -0.693889390391E-17
 -0.520417042793E-17
 -0.208166817117E-16
  0.156125112838E-16
 -0.143114686768E-16
 -0.876340287229E-17
  0.104083408559E-16
 -0.121430643318E-16
  0.138777878078E-16
 -0.208166817117E-16
 -0.104083408559E-16
  0.346944695195E-17
 -0.346944695195E-17
  0.173472347598E-17
  0.000000000000E+00
  0.000000000000E+00
  0.395061460555E-19
  0.216840434497E-18
 -0.433680868994E-18
  0.867361737988E-18
  0.346944695195E-17
 -0.346944695195E-17
 -0.693889390391E-17
  0.000000000000E+00
  0.346944695195E-17
  0.147451495458E-16
 -0.112757025938E-16
 -0.277555756156E-16
  0.121430643318E-16
 -0.742562021122E-17
 -0.954097911787E-17
 -0.693889390391E-17
  0.346944695195E-16
  0.000000000000E+00
  0.000000000000E+00
  0.000000000000E+00
 -0.173472347598E-17
  0.867361737988E-18
 -0.433680868994E-18
 -0.216840434497E-18
  0.121688194274E-18
  0.216840434497E-18
  0.433680868994E-18
  0.173472347598E-17
 -0.520417042793E-17
 -0.520417042793E-17
  0.693889390391E-17
 -0.693889390391E-17
 -0.693889390391E-17
  0.346944695195E-17
 -0.867361737988E-17
  0.162630325873E-16
  0.910729824888E-17
 -0.304368054706E-17
 -0.607153216592E-17
 -0.104083408559E-16
 -0.104083408559E-16
  0.104083408559E-16
  0.000000000000E+00
  0.000000000000E+00
 -0.346944695195E-17
  0.260208521397E-17
 -0.433680868994E-18
  0.216840434497E-18
  0.891700700332E-19
  0.216840434497E-18
 -0.433680868994E-18
  0.867361737988E-18
  0.173472347598E-17
 -0.520417042793E-17
  0.346944695195E-17
  0.346944695195E-17
 -0.121430643318E-16
 -0.260208521397E-17
 -0.910729824888E-17
 -0.108420217249E-17
 -0.130104260698E-17
 -0.475087545225E-17
  0.312250225676E-16
 -0.173472347598E-16
  0.277555756156E-16
  0.346944695195E-17
  0.000000000000E+00
  0.138777878078E-16
  0.173472347598E-17
  0.000000000000E+00
  0.000000000000E+00
 -0.433680868994E-18
 -0.950926832191E-20
  0.000000000000E+00
  0.000000000000E+00
 -0.867361737988E-18
  0.173472347598E-17
 -0.173472347598E-17
 -0.346944695195E-17
 -0.104083408559E-16
  0.693889390391E-17
  0.867361737988E-18
 -0.650521303491E-17
  0.216840434497E-18
  0.112757025938E-16
 -0.230769891315E-16
  0.130104260698E-16
  0.173472347598E-16
  0.346944695195E-17
  0.242861286637E-16
 -0.104083408559E-16
 -0.138777878078E-16
  0.173472347598E-17
  0.173472347598E-17
 -0.433680868994E-18
  0.216840434497E-18
 -0.275748929001E-19
  0.433680868994E-18
 -0.867361737988E-18
  0.173472347598E-17
 -0.520417042793E-17
 -0.520417042793E-17
 -0.346944695195E-17
 -0.693889390391E-17
 -0.693889390391E-17
  0.268882138776E-16
  0.867361737988E-17
 -0.411996825544E-17
  0.130104260698E-17
 -0.127769096742E-16
 -0.607153216592E-17
 -0.693889390391E-17
  0.000000000000E+00
 -0.693889390391E-17
 -0.173472347598E-16
  0.346944695195E-17
 -0.173472347598E-17
  0.000000000000E+00
  0.000000000000E+00
  0.000000000000E+00
 -0.561754897597E-19
  0.000000000000E+00
 -0.867361737988E-18
 -0.867361737988E-18
  0.693889390391E-17
  0.346944695195E-17
 -0.346944695195E-17
  0.693889390391E-17
  0.520417042793E-17
 -0.138777878078E-16
 -0.563785129692E-17
 -0.975781955237E-17
 -0.147451495458E-16
 -0.317886171149E-17
  0.208166817117E-16
  0.138777878078E-16
  0.000000000000E+00
  0.104083408559E-16
  0.346944695195E-17
  0.693889390391E-17
  0.173472347598E-17
 -0.867361737988E-18
 -0.433680868994E-18
  0.216840434497E-18
  0.217799964008E-18
  0.650521303491E-18
  0.000000000000E+00
  0.000000000000E+00
  0.173472347598E-17
  0.867361737988E-17
  0.346944695195E-17
  0.000000000000E+00
  0.520417042793E-17
  0.147451495458E-16
  0.390312782095E-17
  0.954097911787E-17
  0.520417042793E-17
  0.206900502861E-16
 -0.954097911787E-17
 -0.346944695195E-17
  0.346944695195E-17
 -0.104083408559E-16
 -0.173472347598E-16
 -0.346944695195E-17
 -0.173472347598E-17
  0.867361737988E-18
 -0.433680868994E-18
  0.216840434497E-18
  0.259774417011E-18
  0.433680868994E-18
 -0.433680868994E-18
  0.867361737988E-18
 -0.173472347598E-17
 -0.693889390391E-17
 -0.104083408559E-16
 -0.693889390391E-17
 -0.156125112838E-16
  0.104083408559E-16
 -0.104083408559E-16
  0.758941520740E-17
 -0.346944695195E-17
 -0.147261177743E-16
  0.780625564190E-17
 -0.138777878078E-16
  0.346944695195E-17
 -0.104083408559E-16
  0.000000000000E+00
 -0.104083408559E-16
  0.346944695195E-17
  0.867361737988E-18
  0.000000000000E+00
  0.216840434497E-18
  0.271844636509E-19
  0.216840434497E-18
 -0.867361737988E-18
  0.867361737988E-18
  0.000000000000E+00
  0.000000000000E+00
  0.000000000000E+00
  0.104083408559E-16
  0.346944695195E-17
  0.346944695195E-17
  0.737257477290E-17
  0.173472347598E-17
 -0.117093834628E-16
 -0.230392961653E-17
  0.173472347598E-17
 -0.104083408559E-16
  0.312250225676E-16
  0.693889390391E-17
  0.000000000000E+00
 -0.104083408559E-16
  0.000000000000E+00
  0.000000000000E+00
  0.433680868994E-18
  0.000000000000E+00
  0.158249577349E-18
  0.433680868994E-18
  0.000000000000E+00
 -0.867361737988E-18
 -0.173472347598E-17
 -0.346944695195E-17
  0.693889390391E-17
 -0.693889390391E-17
  0.520417042793E-17
  0.138777878078E-16
  0.867361737988E-17
  0.192987986702E-16
  0.195156391047E-17
 -0.585469173142E-17
 -0.147451495458E-16
  0.693889390391E-17
  0.104083408559E-16
 -0.104083408559E-16
 -0.208166817117E-16
 -0.138777878078E-16
  0.346944695195E-17
  0.260208521397E-17
 -0.867361737988E-18
  0.000000000000E+00
 -0.286800061984E-19
  0.000000000000E+00
 -0.867361737988E-18
  0.000000000000E+00
  0.346944695195E-17
 -0.173472347598E-17
 -0.346944695195E-17
  0.346944695195E-17
  0.104083408559E-16
 -0.780625564190E-17
  0.867361737988E-18
  0.431817396510E-17
  0.910729824888E-17
  0.433680868994E-17
 -0.867361737988E-18
 -0.277555756156E-16
  0.000000000000E+00
 -0.138777878078E-16
  0.104083408559E-16
 -0.104083408559E-16
  0.000000000000E+00
  0.000000000000E+00
  0.000000000000E+00
  0.216840434497E-18
  0.124487373467E-18
  0.216840434497E-18
 -0.867361737988E-18
  0.000000000000E+00
 -0.346944695195E-17
 -0.173472347598E-17
  0.693889390391E-17
  0.104083408559E-16
  0.173472347598E-17
  0.346944695195E-17
 -0.162630325873E-16
  0.130104260698E-17
 -0.867361737988E-18
  0.260208521397E-17
  0.126851654181E-16
 -0.173472347598E-17
 -0.121430643318E-16
  0.312250225676E-16
 -0.693889390391E-17
  0.346944695195E-17
  0.000000000000E+00
  0.173472347598E-17
 -0.433680868994E-18
  0.216840434497E-18
  0.264320601658E-18
  0.433680868994E-18
  0.433680868994E-18
  0.173472347598E-17
 -0.346944695195E-17
  0.000000000000E+00
  0.000000000000E+00
 -0.121430643318E-16
  0.607153216592E-17
 -0.281892564846E-17
  0.607153216592E-17
  0.433680868994E-17
  0.693889390391E-17
  0.346944695195E-17
  0.650521303491E-17
  0.498732999343E-17
  0.173472347598E-16
  0.138777878078E-16
 -0.346944695195E-17
 -0.104083408559E-16
  0.000000000000E+00
  0.867361737988E-18
  0.000000000000E+00
 -0.433680868994E-18
  0.101974825916E-19
  0.000000000000E+00
  0.130104260698E-17
  0.260208521397E-17
 -0.173472347598E-17
 -0.693889390391E-17
 -0.138777878078E-16
 -0.173472347598E-17
  0.216840434497E-16
  0.130104260698E-17
 -0.433680868994E-17
  0.260208521397E-17
  0.281892564846E-17
  0.303576608296E-17
  0.130104260698E-17
  0.130104260698E-17
  0.954097911787E-17
  0.173472347598E-17
  0.693889390391E-17
 -0.520417042793E-17
 -0.173472347598E-17
  0.000000000000E+00
  0.433680868994E-18
 -0.325260651746E-18
 -0.310192729707E-24
  0.000000000000E+00
  0.216840434497E-18
  0.867361737988E-18
 -0.173472347598E-17
 -0.173472347598E-17
 -0.520417042793E-17
 -0.693889390391E-17
  0.433680868994E-17
 -0.401154803820E-17
  0.130104260698E-17
 -0.433680868994E-18
  0.108420217249E-17
  0.216840434497E-18
  0.390312782095E-17
 -0.607153216592E-17
 -0.173472347598E-17
  0.104083408559E-16
  0.346944695195E-17
 -0.173472347598E-17
  0.000000000000E+00
  0.000000000000E+00
  0.108420217249E-18
  0.108420217249E-18
 -0.216840434497E-18
  0.000000000000E+00
 -0.173472347598E-17
 -0.173472347598E-17
  0.000000000000E+00
  0.260208521397E-17
  0.693889390391E-17
  0.954097911787E-17
  0.216840434497E-18
  0.325260651746E-18
  0.975781955237E-18
  0.195156391047E-17
 -0.260208521397E-17
 -0.346944695195E-17
 -0.867361737988E-17
  0.000000000000E+00
  0.173472347598E-17
  0.260208521397E-17
  0.000000000000E+00
  0.433680868994E-18
  0.000000000000E+00
 -0.108420217249E-18
  0.000000000000E+00
  0.867361737988E-18
 -0.867361737988E-18
 -0.346944695195E-17
  0.520417042793E-17
 -0.173472347598E-17
  0.867361737988E-18
 -0.108420217249E-17
 -0.304931861012E-18
  0.216840434497E-18
 -0.216840434497E-18
  0.195156391047E-17
  0.433680868994E-18
  0.000000000000E+00
  0.000000000000E+00
  0.173472347598E-17
  0.000000000000E+00
  0.000000000000E+00
  0.867361737988E-18
 -0.216840434497E-18
  0.108420217249E-18
  0.000000000000E+00
 -0.433680868994E-18
  0.000000000000E+00
  0.000000000000E+00
 -0.520417042793E-17
 -0.520417042793E-17
  0.346944695195E-17
 -0.867361737988E-18
 -0.433680868994E-18
 -0.205998412772E-17
  0.542101086243E-18
 -0.119262238973E-17
  0.140946282423E-17
  0.000000000000E+00
  0.173472347598E-17
 -0.346944695195E-17
 -0.520417042793E-17
  0.000000000000E+00
 -0.867361737988E-18
  0.433680868994E-18
  0.433680868994E-18
 -0.216840434497E-18
 -0.237911437851E-16
 -0.303576608296E-17
 -0.164798730218E-16
 -0.346944695195E-17
 -0.312250225676E-16
  0.346944695195E-17
 -0.346944695195E-17
 -0.138777878078E-16
  0.520417042793E-17
 -0.867361737988E-18
  0.867361737988E-18
  0.000000000000E+00
  0.360849270420E-19
  0.000000000000E+00
 -0.216840434497E-17
  0.867361737988E-18
 -0.693889390391E-17
 -0.867361737988E-17
 -0.693889390391E-17
 -0.346944695195E-17
 -0.867361737988E-17
 -0.251534904017E-16
 -0.138777878078E-16
 -0.147451495458E-16
  0.150207793608E-16
  0.138777878078E-16
 -0.346944695195E-17
  0.693889390391E-17
 -0.485722573274E-16
  0.173472347598E-16
  0.138777878078E-16
 -0.693889390391E-17
  0.000000000000E+00
  0.260208521397E-17
  0.000000000000E+00
  0.216840434497E-18
  0.521256134806E-19
 -0.216840434497E-18
  0.867361737988E-18
  0.000000000000E+00
  0.000000000000E+00
 -0.104083408559E-16
 -0.277555756156E-16
 -0.138777878078E-16
  0.346944695195E-17
 -0.346944695195E-17
  0.693889390391E-17
  0.563785129692E-17
  0.152415637925E-16
  0.160461921528E-16
  0.433680868994E-17
 -0.693889390391E-17
  0.000000000000E+00
 -0.346944695195E-17
 -0.208166817117E-16
  0.000000000000E+00
  0.000000000000E+00
  0.867361737988E-18
  0.433680868994E-18
  0.000000000000E+00
 -0.319754937588E-19
  0.216840434497E-18
  0.433680868994E-18
  0.173472347598E-17
  0.000000000000E+00
  0.520417042793E-17
 -0.242861286637E-16
  0.346944695195E-17
 -0.138777878078E-16
 -0.112757025938E-16
 -0.160461921528E-16
  0.119262238973E-16
 -0.470967524030E-17
  0.433680868994E-17
 -0.867361737988E-18
 -0.104083408559E-16
  0.104083408559E-16
 -0.346944695195E-17
 -0.693889390391E-17
  0.693889390391E-17
  0.173472347598E-17
  0.000000000000E+00
  0.000000000000E+00
  0.216840434497E-18
  0.938353686880E-19
  0.216840434497E-18
  0.867361737988E-18
  0.000000000000E+00
  0.000000000000E+00
  0.520417042793E-17
  0.693889390391E-17
 -0.242861286637E-16
 -0.346944695195E-17
 -0.433680868994E-17
 -0.390312782095E-17
  0.145283091113E-16
  0.684292771796E-17
  0.169135538908E-16
  0.867361737988E-18
  0.000000000000E+00
 -0.346944695195E-17
  0.693889390391E-17
 -0.138777878078E-16
  0.000000000000E+00
 -0.346944695195E-17
 -0.867361737988E-18
  0.000000000000E+00
  0.000000000000E+00
  0.614429759004E-19
  0.000000000000E+00
 -0.433680868994E-18
  0.867361737988E-18
  0.000000000000E+00
 -0.173472347598E-17
 -0.693889390391E-17
 -0.346944695195E-17
  0.520417042793E-17
  0.260208521397E-16
 -0.160461921528E-16
  0.143114686768E-16
  0.415633773262E-17
  0.997465998687E-17
  0.121430643318E-16
 -0.138777878078E-16
  0.242861286637E-16
  0.693889390391E-17
  0.346944695195E-17
  0.000000000000E+00
  0.000000000000E+00
 -0.867361737988E-18
 -0.867361737988E-18
 -0.216840434497E-18
  0.119795605032E-18
 -0.216840434497E-18
 -0.433680868994E-18
  0.867361737988E-18
  0.520417042793E-17
 -0.173472347598E-17
  0.693889390391E-17
 -0.138777878078E-16
  0.173472347598E-17
  0.780625564190E-17
  0.346944695195E-17
  0.173472347598E-17
  0.109515669077E-16
  0.216840434497E-17
  0.173472347598E-17
  0.520417042793E-17
 -0.138777878078E-16
  0.346944695195E-17
 -0.104083408559E-16
  0.693889390391E-17
 -0.520417042793E-17
  0.867361737988E-18
 -0.433680868994E-18
  0.000000000000E+00
  0.141342005628E-18
 -0.216840434497E-18
 -0.867361737988E-18
  0.260208521397E-17
 -0.173472347598E-17
 -0.173472347598E-17
  0.346944695195E-17
 -0.173472347598E-16
  0.693889390391E-17
  0.355618312575E-16
 -0.650521303491E-17
  0.997465998687E-17
  0.969535087251E-18
 -0.125767452008E-16
 -0.147451495458E-16
  0.173472347598E-16
 -0.173472347598E-16
  0.104083408559E-16
  0.346944695195E-17
  0.000000000000E+00
  0.173472347598E-17
  0.867361737988E-18
  0.000000000000E+00
 -0.433680868994E-18
  0.237500097476E-19
 -0.216840434497E-18
  0.433680868994E-18
 -0.867361737988E-18
  0.173472347598E-17
 -0.346944695195E-17
  0.000000000000E+00
  0.346944695195E-17
  0.173472347598E-17
  0.199493199737E-16
 -0.433680868994E-18
 -0.212503625807E-16
  0.180369842766E-16
 -0.160461921528E-16
 -0.130104260698E-16
  0.312250225676E-16
  0.138777878078E-16
  0.346944695195E-17
 -0.104083408559E-16
  0.173472347598E-16
 -0.173472347598E-17
  0.867361737988E-18
  0.000000000000E+00
  0.000000000000E+00
  0.171987392962E-19
  0.433680868994E-18
  0.867361737988E-18
  0.000000000000E+00
 -0.346944695195E-17
  0.000000000000E+00
  0.346944695195E-17
 -0.693889390391E-17
  0.121430643318E-16
  0.381639164715E-16
 -0.277555756156E-16
 -0.238524477947E-17
 -0.917897841204E-17
  0.910729824888E-17
  0.156125112838E-16
 -0.312250225676E-16
  0.346944695195E-17
 -0.242861286637E-16
 -0.346944695195E-17
  0.104083408559E-16
 -0.173472347598E-17
  0.867361737988E-18
  0.867361737988E-18
 -0.216840434497E-18
 -0.490948237162E-19
  0.216840434497E-18
  0.433680868994E-18
  0.260208521397E-17
  0.000000000000E+00
  0.000000000000E+00
  0.104083408559E-16
  0.346944695195E-17
  0.693889390391E-17
 -0.260208521397E-17
  0.104083408559E-16
  0.346944695195E-17
 -0.113290656695E-18
 -0.108420217249E-16
  0.346944695195E-17
  0.693889390391E-17
 -0.104083408559E-16
  0.242861286637E-16
  0.104083408559E-16
 -0.693889390391E-17
  0.346944695195E-17
 -0.867361737988E-18
 -0.130104260698E-17
  0.000000000000E+00
 -0.105779856733E-18
  0.216840434497E-18
 -0.867361737988E-18
  0.260208521397E-17
 -0.173472347598E-17
 -0.173472347598E-17
  0.138777878078E-16
  0.138777878078E-16
 -0.173472347598E-17
  0.693889390391E-17
  0.147451495458E-16
 -0.179977560633E-16
 -0.667080797610E-17
 -0.216840434497E-17
  0.433680868994E-17
  0.121430643318E-16
  0.346944695195E-16
 -0.242861286637E-16
 -0.138777878078E-16
 -0.693889390391E-17
  0.000000000000E+00
  0.173472347598E-17
  0.000000000000E+00
  0.216840434497E-18
  0.569100261436E-20
  0.650521303491E-18
  0.867361737988E-18
 -0.867361737988E-18
 -0.173472347598E-17
  0.173472347598E-17
  0.346944695195E-17
 -0.208166817117E-16
 -0.121430643318E-16
  0.216840434497E-16
 -0.260208521397E-17
 -0.260208521397E-17
  0.180229552934E-16
  0.563785129692E-17
 -0.199493199737E-16
  0.208166817117E-16
 -0.208166817117E-16
 -0.138777878078E-16
 -0.173472347598E-16
  0.000000000000E+00
  0.000000000000E+00
  0.867361737988E-18
  0.433680868994E-18
 -0.216840434497E-18
 -0.115957486990E-18
  0.000000000000E+00
  0.000000000000E+00
  0.000000000000E+00
 -0.346944695195E-17
  0.346944695195E-17
 -0.693889390391E-17
 -0.104083408559E-16
  0.520417042793E-17
  0.607153216592E-17
 -0.650521303491E-17
 -0.433680868994E-18
  0.514996031931E-17
 -0.173472347598E-17
  0.346944695195E-17
 -0.121430643318E-16
 -0.346944695195E-17
 -0.173472347598E-16
 -0.173472347598E-16
  0.693889390391E-17
 -0.346944695195E-17
  0.867361737988E-18
 -0.433680868994E-18
  0.216840434497E-18
 -0.678751323437E-19
  0.216840434497E-18
  0.130104260698E-17
 -0.867361737988E-18
  0.000000000000E+00
  0.346944695195E-17
  0.000000000000E+00
 -0.138777878078E-16
 -0.173472347598E-17
 -0.867361737988E-18
 -0.303576608296E-17
 -0.780625564190E-17
 -0.975781955237E-17
 -0.303576608296E-17
 -0.433680868994E-17
 -0.173472347598E-17
 -0.346944695195E-17
  0.104083408559E-16
  0.000000000000E+00
  0.000000000000E+00
  0.346944695195E-17
  0.867361737988E-18
  0.000000000000E+00
  0.216840434497E-18
 -0.176421081045E-19
  0.216840434497E-18
 -0.433680868994E-18
 -0.867361737988E-18
  0.000000000000E+00
  0.000000000000E+00
 -0.138777878078E-16
 -0.346944695195E-17
 -0.121430643318E-16
 -0.867361737988E-17
  0.693889390391E-17
  0.736918664111E-18
  0.780625564190E-17
  0.284060969191E-16
  0.346944695195E-17
  0.693889390391E-17
  0.693889390391E-17
  0.693889390391E-17
 -0.138777878078E-16
  0.346944695195E-17
 -0.173472347598E-17
 -0.867361737988E-18
  0.000000000000E+00
  0.000000000000E+00
 -0.113416388148E-18
  0.000000000000E+00
  0.000000000000E+00
 -0.867361737988E-18
 -0.173472347598E-17
  0.346944695195E-17
 -0.104083408559E-16
 -0.693889390391E-17
  0.346944695195E-17
  0.364291929955E-16
 -0.215756232325E-16
  0.316587034366E-16
 -0.780625564190E-17
  0.867361737988E-18
 -0.177809156288E-16
 -0.260208521397E-17
  0.346944695195E-17
  0.138777878078E-16
 -0.173472347598E-16