# vtk DataFile Version 3.0
MachLine results file. Generated by MachLine, USU AeroLab (c) 2022.
ASCII
DATASET POLYDATA
POINTS                 231 float
  0.100000000000E+01  0.000000000000E+00  0.000000000000E+00
  0.200000000000E+02  0.000000000000E+00  0.000000000000E+00
  0.100000000000E+01  0.105263157890E+00  0.000000000000E+00
  0.200000000000E+02  0.105263157890E+00  0.000000000000E+00
  0.100000000000E+01  0.210526315790E+00  0.000000000000E+00
  0.200000000000E+02  0.210526315790E+00  0.000000000000E+00
  0.100000000000E+01  0.315789473680E+00  0.000000000000E+00
  0.200000000000E+02  0.315789473680E+00  0.000000000000E+00
  0.100000000000E+01  0.421052631580E+00  0.000000000000E+00
  0.200000000000E+02  0.421052631580E+00  0.000000000000E+00
  0.100000000000E+01  0.526315789470E+00  0.000000000000E+00
  0.200000000000E+02  0.526315789470E+00  0.000000000000E+00
  0.100000000000E+01  0.631578947370E+00  0.000000000000E+00
  0.200000000000E+02  0.631578947370E+00  0.000000000000E+00
  0.100000000000E+01  0.736842105260E+00  0.000000000000E+00
  0.200000000000E+02  0.736842105260E+00  0.000000000000E+00
  0.100000000000E+01  0.842105263160E+00  0.000000000000E+00
  0.200000000000E+02  0.842105263160E+00  0.000000000000E+00
  0.100000000000E+01  0.947368421050E+00  0.000000000000E+00
  0.200000000000E+02  0.947368421050E+00  0.000000000000E+00
  0.100000000000E+01  0.105263157890E+01  0.000000000000E+00
  0.200000000000E+02  0.105263157890E+01  0.000000000000E+00
  0.100000000000E+01  0.115789473680E+01  0.000000000000E+00
  0.200000000000E+02  0.115789473680E+01  0.000000000000E+00
  0.100000000000E+01  0.126315789470E+01  0.000000000000E+00
  0.200000000000E+02  0.126315789470E+01  0.000000000000E+00
  0.100000000000E+01  0.136842105260E+01  0.000000000000E+00
  0.200000000000E+02  0.136842105260E+01  0.000000000000E+00
  0.100000000000E+01  0.147368421050E+01  0.000000000000E+00
  0.200000000000E+02  0.147368421050E+01  0.000000000000E+00
  0.100000000000E+01  0.157894736840E+01  0.000000000000E+00
  0.200000000000E+02  0.157894736840E+01  0.000000000000E+00
  0.100000000000E+01  0.168421052630E+01  0.000000000000E+00
  0.200000000000E+02  0.168421052630E+01  0.000000000000E+00
  0.100000000000E+01  0.178947368420E+01  0.000000000000E+00
  0.200000000000E+02  0.178947368420E+01  0.000000000000E+00
  0.100000000000E+01  0.189473684210E+01  0.000000000000E+00
  0.200000000000E+02  0.189473684210E+01  0.000000000000E+00
  0.100000000000E+01  0.200000000000E+01  0.000000000000E+00
  0.200000000000E+02  0.200000000000E+01  0.000000000000E+00
  0.100000000000E+01 -0.105263157890E+00  0.000000000000E+00
  0.200000000000E+02 -0.105263157890E+00  0.000000000000E+00
  0.100000000000E+01 -0.210526315790E+00  0.000000000000E+00
  0.200000000000E+02 -0.210526315790E+00  0.000000000000E+00
  0.100000000000E+01 -0.315789473680E+00  0.000000000000E+00
  0.200000000000E+02 -0.315789473680E+00  0.000000000000E+00
  0.100000000000E+01 -0.421052631580E+00  0.000000000000E+00
  0.200000000000E+02 -0.421052631580E+00  0.000000000000E+00
  0.100000000000E+01 -0.526315789470E+00  0.000000000000E+00
  0.200000000000E+02 -0.526315789470E+00  0.000000000000E+00
  0.100000000000E+01 -0.631578947370E+00  0.000000000000E+00
  0.200000000000E+02 -0.631578947370E+00  0.000000000000E+00
  0.100000000000E+01 -0.736842105260E+00  0.000000000000E+00
  0.200000000000E+02 -0.736842105260E+00  0.000000000000E+00
  0.100000000000E+01 -0.842105263160E+00  0.000000000000E+00
  0.200000000000E+02 -0.842105263160E+00  0.000000000000E+00
  0.100000000000E+01 -0.947368421050E+00  0.000000000000E+00
  0.200000000000E+02 -0.947368421050E+00  0.000000000000E+00
  0.100000000000E+01 -0.105263157890E+01  0.000000000000E+00
  0.200000000000E+02 -0.105263157890E+01  0.000000000000E+00
  0.100000000000E+01 -0.115789473680E+01  0.000000000000E+00
  0.200000000000E+02 -0.115789473680E+01  0.000000000000E+00
  0.100000000000E+01 -0.126315789470E+01  0.000000000000E+00
  0.200000000000E+02 -0.126315789470E+01  0.000000000000E+00
  0.100000000000E+01 -0.136842105260E+01  0.000000000000E+00
  0.200000000000E+02 -0.136842105260E+01  0.000000000000E+00
  0.100000000000E+01 -0.147368421050E+01  0.000000000000E+00
  0.200000000000E+02 -0.147368421050E+01  0.000000000000E+00
  0.100000000000E+01 -0.157894736840E+01  0.000000000000E+00
  0.200000000000E+02 -0.157894736840E+01  0.000000000000E+00
  0.100000000000E+01 -0.168421052630E+01  0.000000000000E+00
  0.200000000000E+02 -0.168421052630E+01  0.000000000000E+00
  0.100000000000E+01 -0.178947368420E+01  0.000000000000E+00
  0.200000000000E+02 -0.178947368420E+01  0.000000000000E+00
  0.100000000000E+01 -0.189473684210E+01  0.000000000000E+00
  0.200000000000E+02 -0.189473684210E+01  0.000000000000E+00
  0.100000000000E+01 -0.200000000000E+01  0.000000000000E+00
  0.200000000000E+02 -0.200000000000E+01  0.000000000000E+00
  0.105000000000E+02  0.526315789450E-01  0.000000000000E+00
  0.105000000000E+02  0.105263157890E+00  0.000000000000E+00
  0.200000000000E+02  0.526315789450E-01  0.000000000000E+00
  0.105000000000E+02  0.000000000000E+00  0.000000000000E+00
  0.100000000000E+01  0.526315789450E-01  0.000000000000E+00
  0.105000000000E+02  0.157894736840E+00  0.000000000000E+00
  0.105000000000E+02  0.210526315790E+00  0.000000000000E+00
  0.200000000000E+02  0.157894736840E+00  0.000000000000E+00
  0.100000000000E+01  0.157894736840E+00  0.000000000000E+00
  0.105000000000E+02  0.263157894735E+00  0.000000000000E+00
  0.105000000000E+02  0.315789473680E+00  0.000000000000E+00
  0.200000000000E+02  0.263157894735E+00  0.000000000000E+00
  0.100000000000E+01  0.263157894735E+00  0.000000000000E+00
  0.105000000000E+02  0.368421052630E+00  0.000000000000E+00
  0.105000000000E+02  0.421052631580E+00  0.000000000000E+00
  0.200000000000E+02  0.368421052630E+00  0.000000000000E+00
  0.100000000000E+01  0.368421052630E+00  0.000000000000E+00
  0.105000000000E+02  0.473684210525E+00  0.000000000000E+00
  0.105000000000E+02  0.526315789470E+00  0.000000000000E+00
  0.200000000000E+02  0.473684210525E+00  0.000000000000E+00
  0.100000000000E+01  0.473684210525E+00  0.000000000000E+00
  0.105000000000E+02  0.578947368420E+00  0.000000000000E+00
  0.105000000000E+02  0.631578947370E+00  0.000000000000E+00
  0.200000000000E+02  0.578947368420E+00  0.000000000000E+00
  0.100000000000E+01  0.578947368420E+00  0.000000000000E+00
  0.105000000000E+02  0.684210526315E+00  0.000000000000E+00
  0.105000000000E+02  0.736842105260E+00  0.000000000000E+00
  0.200000000000E+02  0.684210526315E+00  0.000000000000E+00
  0.100000000000E+01  0.684210526315E+00  0.000000000000E+00
  0.105000000000E+02  0.789473684210E+00  0.000000000000E+00
  0.105000000000E+02  0.842105263160E+00  0.000000000000E+00
  0.200000000000E+02  0.789473684210E+00  0.000000000000E+00
  0.100000000000E+01  0.789473684210E+00  0.000000000000E+00
  0.105000000000E+02  0.894736842105E+00  0.000000000000E+00
  0.105000000000E+02  0.947368421050E+00  0.000000000000E+00
  0.200000000000E+02  0.894736842105E+00  0.000000000000E+00
  0.100000000000E+01  0.894736842105E+00  0.000000000000E+00
  0.105000000000E+02  0.999999999975E+00  0.000000000000E+00
  0.105000000000E+02  0.105263157890E+01  0.000000000000E+00
  0.200000000000E+02  0.999999999975E+00  0.000000000000E+00
  0.100000000000E+01  0.999999999975E+00  0.000000000000E+00
  0.105000000000E+02  0.110526315785E+01  0.000000000000E+00
  0.105000000000E+02  0.115789473680E+01  0.000000000000E+00
  0.200000000000E+02  0.110526315785E+01  0.000000000000E+00
  0.100000000000E+01  0.110526315785E+01  0.000000000000E+00
  0.105000000000E+02  0.121052631575E+01  0.000000000000E+00
  0.105000000000E+02  0.126315789470E+01  0.000000000000E+00
  0.200000000000E+02  0.121052631575E+01  0.000000000000E+00
  0.100000000000E+01  0.121052631575E+01  0.000000000000E+00
  0.105000000000E+02  0.131578947365E+01  0.000000000000E+00
  0.105000000000E+02  0.136842105260E+01  0.000000000000E+00
  0.200000000000E+02  0.131578947365E+01  0.000000000000E+00
  0.100000000000E+01  0.131578947365E+01  0.000000000000E+00
  0.105000000000E+02  0.142105263155E+01  0.000000000000E+00
  0.105000000000E+02  0.147368421050E+01  0.000000000000E+00
  0.200000000000E+02  0.142105263155E+01  0.000000000000E+00
  0.100000000000E+01  0.142105263155E+01  0.000000000000E+00
  0.105000000000E+02  0.152631578945E+01  0.000000000000E+00
  0.105000000000E+02  0.157894736840E+01  0.000000000000E+00
  0.200000000000E+02  0.152631578945E+01  0.000000000000E+00
  0.100000000000E+01  0.152631578945E+01  0.000000000000E+00
  0.105000000000E+02  0.163157894735E+01  0.000000000000E+00
  0.105000000000E+02  0.168421052630E+01  0.000000000000E+00
  0.200000000000E+02  0.163157894735E+01  0.000000000000E+00
  0.100000000000E+01  0.163157894735E+01  0.000000000000E+00
  0.105000000000E+02  0.173684210525E+01  0.000000000000E+00
  0.105000000000E+02  0.178947368420E+01  0.000000000000E+00
  0.200000000000E+02  0.173684210525E+01  0.000000000000E+00
  0.100000000000E+01  0.173684210525E+01  0.000000000000E+00
  0.105000000000E+02  0.184210526315E+01  0.000000000000E+00
  0.105000000000E+02  0.189473684210E+01  0.000000000000E+00
  0.200000000000E+02  0.184210526315E+01  0.000000000000E+00
  0.100000000000E+01  0.184210526315E+01  0.000000000000E+00
  0.105000000000E+02  0.194736842105E+01  0.000000000000E+00
  0.105000000000E+02  0.200000000000E+01  0.000000000000E+00
  0.200000000000E+02  0.194736842105E+01  0.000000000000E+00
  0.100000000000E+01  0.194736842105E+01  0.000000000000E+00
  0.105000000000E+02 -0.526315789450E-01  0.000000000000E+00
  0.200000000000E+02 -0.526315789450E-01  0.000000000000E+00
  0.105000000000E+02 -0.105263157890E+00  0.000000000000E+00
  0.100000000000E+01 -0.526315789450E-01  0.000000000000E+00
  0.105000000000E+02 -0.157894736840E+00  0.000000000000E+00
  0.200000000000E+02 -0.157894736840E+00  0.000000000000E+00
[...]
CELL_DATA                 304
NORMALS normals float
  0.000000000000E+00  0.000000000000E+00 -0.100000000000E+01
  0.000000000000E+00  0.000000000000E+00 -0.100000000000E+01
  0.000000000000E+00  0.000000000000E+00 -0.100000000000E+01
  0.000000000000E+00  0.000000000000E+00 -0.100000000000E+01
 -0.000000000000E+00 -0.000000000000E+00 -0.100000000000E+01
 -0.000000000000E+00 -0.000000000000E+00 -0.100000000000E+01
 -0.000000000000E+00 -0.000000000000E+00 -0.100000000000E+01
 -0.000000000000E+00 -0.000000000000E+00 -0.100000000000E+01
  0.000000000000E+00  0.000000000000E+00 -0.100000000000E+01
  0.000000000000E+00  0.000000000000E+00 -0.100000000000E+01
  0.000000000000E+00  0.000000000000E+00 -0.100000000000E+01
  0.000000000000E+00  0.000000000000E+00 -0.100000000000E+01
 -0.000000000000E+00 -0.000000000000E+00 -0.100000000000E+01
 -0.000000000000E+00 -0.000000000000E+00 -0.100000000000E+01
 -0.000000000000E+00 -0.000000000000E+00 -0.100000000000E+01
 -0.000000000000E+00 -0.000000000000E+00 -0.100000000000E+01
  0.000000000000E+00  0.000000000000E+00 -0.100000000000E+01
  0.000000000000E+00  0.000000000000E+00 -0.100000000000E+01
  0.000000000000E+00  0.000000000000E+00 -0.100000000000E+01
  0.000000000000E+00  0.000000000000E+00 -0.100000000000E+01
 -0.000000000000E+00 -0.000000000000E+00 -0.100000000000E+01
 -0.000000000000E+00 -0.000000000000E+00 -0.100000000000E+01
 -0.000000000000E+00 -0.000000000000E+00 -0.100000000000E+01
 -0.000000000000E+00 -0.000000000000E+00 -0.100000000000E+01
  0.000000000000E+00  0.000000000000E+00 -0.100000000000E+01
  0.000000000000E+00  0.000000000000E+00 -0.100000000000E+01
  0.000000000000E+00  0.000000000000E+00 -0.100000000000E+01
  0.000000000000E+00  0.000000000000E+00 -0.100000000000E+01
 -0.000000000000E+00 -0.000000000000E+00 -0.100000000000E+01
 -0.000000000000E+00 -0.000000000000E+00 -0.100000000000E+01
 -0.000000000000E+00 -0.000000000000E+00 -0.100000000000E+01
 -0.000000000000E+00 -0.000000000000E+00 -0.100000000000E+01
  0.000000000000E+00  0.000000000000E+00 -0.100000000000E+01
  0.000000000000E+00  0.000000000000E+00 -0.100000000000E+01
  0.000000000000E+00  0.000000000000E+00 -0.100000000000E+01
  0.000000000000E+00  0.000000000000E+00 -0.100000000000E+01
 -0.000000000000E+00 -0.000000000000E+00 -0.100000000000E+01
 -0.000000000000E+00 -0.000000000000E+00 -0.100000000000E+01
 -0.000000000000E+00 -0.000000000000E+00 -0.100000000000E+01
 -0.000000000000E+00 -0.000000000000E+00 -0.100000000000E+01
  0.000000000000E+00  0.000000000000E+00 -0.100000000000E+01
  0.000000000000E+00  0.000000000000E+00 -0.100000000000E+01
  0.000000000000E+00  0.000000000000E+00 -0.100000000000E+01
  0.000000000000E+00  0.000000000000E+00 -0.100000000000E+01
 -0.000000000000E+00 -0.000000000000E+00 -0.100000000000E+01
 -0.000000000000E+00 -0.000000000000E+00 -0.100000000000E+01
 -0.000000000000E+00 -0.000000000000E+00 -0.100000000000E+01
 -0.000000000000E+00 -0.000000000000E+00 -0.100000000000E+01
  0.000000000000E+00  0.000000000000E+00 -0.100000000000E+01
  0.000000000000E+00  0.000000000000E+00 -0.100000000000E+01
  0.000000000000E+00  0.000000000000E+00 -0.100000000000E+01
  0.000000000000E+00  0.000000000000E+00 -0.100000000000E+01
 -0.000000000000E+00 -0.000000000000E+00 -0.100000000000E+01
 -0.000000000000E+00 -0.000000000000E+00 -0.100000000000E+01
 -0.000000000000E+00 -0.000000000000E+00 -0.100000000000E+01
 -0.000000000000E+00 -0.000000000000E+00 -0.100000000000E+01
  0.000000000000E+00  0.000000000000E+00 -0.100000000000E+01
  0.000000000000E+00  0.000000000000E+00 -0.100000000000E+01
  0.000000000000E+00  0.000000000000E+00 -0.100000000000E+01
  0.000000000000E+00  0.000000000000E+00 -0.100000000000E+01
 -0.000000000000E+00 -0.000000000000E+00 -0.100000000000E+01
 -0.000000000000E+00 -0.000000000000E+00 -0.100000000000E+01
 -0.000000000000E+00 -0.000000000000E+00 -0.100000000000E+01
 -0.000000000000E+00 -0.000000000000E+00 -0.100000000000E+01
  0.000000000000E+00  0.000000000000E+00 -0.100000000000E+01
  0.000000000000E+00  0.000000000000E+00 -0.100000000000E+01
  0.000000000000E+00  0.000000000000E+00 -0.100000000000E+01
  0.000000000000E+00  0.000000000000E+00 -0.100000000000E+01
 -0.000000000000E+00 -0.000000000000E+00 -0.100000000000E+01
 -0.000000000000E+00 -0.000000000000E+00 -0.100000000000E+01
 -0.000000000000E+00 -0.000000000000E+00 -0.100000000000E+01
 -0.000000000000E+00 -0.000000000000E+00 -0.100000000000E+01
  0.000000000000E+00  0.000000000000E+00 -0.100000000000E+01
  0.000000000000E+00  0.000000000000E+00 -0.100000000000E+01
  0.000000000000E+00  0.000000000000E+00 -0.100000000000E+01
  0.000000000000E+00  0.000000000000E+00 -0.100000000000E+01
 -0.000000000000E+00 -0.000000000000E+00 -0.100000000000E+01
 -0.000000000000E+00 -0.000000000000E+00 -0.100000000000E+01
 -0.000000000000E+00 -0.000000000000E+00 -0.100000000000E+01
 -0.000000000000E+00 -0.000000000000E+00 -0.100000000000E+01
  0.000000000000E+00  0.000000000000E+00 -0.100000000000E+01
  0.000000000000E+00  0.000000000000E+00 -0.100000000000E+01
  0.000000000000E+00  0.000000000000E+00 -0.100000000000E+01
  0.000000000000E+00  0.000000000000E+00 -0.100000000000E+01
 -0.000000000000E+00 -0.000000000000E+00 -0.100000000000E+01
 -0.000000000000E+00 -0.000000000000E+00 -0.100000000000E+01
 -0.000000000000E+00 -0.000000000000E+00 -0.100000000000E+01
 -0.000000000000E+00 -0.000000000000E+00 -0.100000000000E+01
  0.000000000000E+00  0.000000000000E+00 -0.100000000000E+01
  0.000000000000E+00  0.000000000000E+00 -0.100000000000E+01
  0.000000000000E+00  0.000000000000E+00 -0.100000000000E+01
  0.000000000000E+00  0.000000000000E+00 -0.100000000000E+01
 -0.000000000000E+00 -0.000000000000E+00 -0.100000000000E+01
 -0.000000000000E+00 -0.000000000000E+00 -0.100000000000E+01
 -0.000000000000E+00 -0.000000000000E+00 -0.100000000000E+01
 -0.000000000000E+00 -0.000000000000E+00 -0.100000000000E+01
  0.000000000000E+00  0.000000000000E+00 -0.100000000000E+01
  0.000000000000E+00  0.000000000000E+00 -0.100000000000E+01
  0.000000000000E+00  0.000000000000E+00 -0.100000000000E+01
  0.000000000000E+00  0.000000000000E+00 -0.100000000000E+01
 -0.000000000000E+00 -0.000000000000E+00 -0.100000000000E+01
 -0.000000000000E+00 -0.000000000000E+00 -0.100000000000E+01
 -0.000000000000E+00 -0.000000000000E+00 -0.100000000000E+01
 -0.000000000000E+00 -0.000000000000E+00 -0.100000000000E+01
  0.000000000000E+00  0.000000000000E+00 -0.100000000000E+01
  0.000000000000E+00  0.000000000000E+00 -0.100000000000E+01
  0.000000000000E+00  0.000000000000E+00 -0.100000000000E+01
  0.000000000000E+00  0.000000000000E+00 -0.100000000000E+01
 -0.000000000000E+00 -0.000000000000E+00 -0.100000000000E+01
 -0.000000000000E+00 -0.000000000000E+00 -0.100000000000E+01
 -0.000000000000E+00 -0.000000000000E+00 -0.100000000000E+01
 -0.000000000000E+00 -0.000000000000E+00 -0.100000000000E+01
  0.000000000000E+00  0.000000000000E+00 -0.100000000000E+01
  0.000000000000E+00  0.000000000000E+00 -0.100000000000E+01
  0.000000000000E+00  0.000000000000E+00 -0.100000000000E+01
  0.000000000000E+00  0.000000000000E+00 -0.100000000000E+01
 -0.000000000000E+00 -0.000000000000E+00 -0.100000000000E+01
 -0.000000000000E+00 -0.000000000000E+00 -0.100000000000E+01
 -0.000000000000E+00 -0.000000000000E+00 -0.100000000000E+01
 -0.000000000000E+00 -0.000000000000E+00 -0.100000000000E+01
  0.000000000000E+00  0.000000000000E+00 -0.100000000000E+01
  0.000000000000E+00  0.000000000000E+00 -0.100000000000E+01
  0.000000000000E+00  0.000000000000E+00 -0.100000000000E+01
  0.000000000000E+00  0.000000000000E+00 -0.100000000000E+01
 -0.000000000000E+00 -0.000000000000E+00 -0.100000000000E+01
 -0.000000000000E+00 -0.000000000000E+00 -0.100000000000E+01
 -0.000000000000E+00 -0.000000000000E+00 -0.100000000000E+01
 -0.000000000000E+00 -0.000000000000E+00 -0.100000000000E+01
  0.000000000000E+00  0.000000000000E+00 -0.100000000000E+01
  0.000000000000E+00  0.000000000000E+00 -0.100000000000E+01
  0.000000000000E+00  0.000000000000E+00 -0.100000000000E+01
  0.000000000000E+00  0.000000000000E+00 -0.100000000000E+01
 -0.000000000000E+00 -0.000000000000E+00 -0.100000000000E+01
 -0.000000000000E+00 -0.000000000000E+00 -0.100000000000E+01
 -0.000000000000E+00 -0.000000000000E+00 -0.100000000000E+01
 -0.000000000000E+00 -0.000000000000E+00 -0.100000000000E+01
  0.000000000000E+00  0.000000000000E+00 -0.100000000000E+01
  0.000000000000E+00  0.000000000000E+00 -0.100000000000E+01
  0.000000000000E+00  0.000000000000E+00 -0.100000000000E+01
  0.000000000000E+00  0.000000000000E+00 -0.100000000000E+01
 -0.000000000000E+00 -0.000000000000E+00 -0.100000000000E+01
 -0.000000000000E+00 -0.000000000000E+00 -0.100000000000E+01
 -0.000000000000E+00 -0.000000000000E+00 -0.100000000000E+01
 -0.000000000000E+00 -0.000000000000E+00 -0.100000000000E+01
  0.000000000000E+00  0.000000000000E+00 -0.100000000000E+01
  0.000000000000E+00  0.000000000000E+00 -0.100000000000E+01
  0.000000000000E+00  0.000000000000E+00 -0.100000000000E+01
  0.000000000000E+00  0.000000000000E+00 -0.100000000000E+01
 -0.000000000000E+00 -0.000000000000E+00 -0.100000000000E+01
 -0.000000000000E+00 -0.000000000000E+00 -0.100000000000E+01
 -0.000000000000E+00 -0.000000000000E+00 -0.100000000000E+01
 -0.000000000000E+00 -0.000000000000E+00 -0.100000000000E+01
  0.000000000000E+00  0.000000000000E+00 -0.100000000000E+01
  0.000000000000E+00  0.000000000000E+00 -0.100000000000E+01
  0.000000000000E+00  0.000000000000E+00 -0.100000000000E+01
  0.000000000000E+00  0.000000000000E+00 -0.100000000000E+01
 -0.000000000000E+00 -0.000000000000E+00 -0.100000000000E+01
 -0.000000000000E+00 -0.000000000000E+00 -0.100000000000E+01
 -0.000000000000E+00 -0.000000000000E+00 -0.100000000000E+01
 -0.000000000000E+00 -0.000000000000E+00 -0.100000000000E+01
  0.000000000000E+00  0.000000000000E+00 -0.100000000000E+01
  0.000000000000E+00  0.000000000000E+00 -0.100000000000E+01
  0.000000000000E+00  0.000000000000E+00 -0.100000000000E+01
  0.000000000000E+00  0.000000000000E+00 -0.100000000000E+01
 -0.000000000000E+00 -0.000000000000E+00 -0.100000000000E+01
 -0.000000000000E+00 -0.000000000000E+00 -0.100000000000E+01
 -0.000000000000E+00 -0.000000000000E+00 -0.100000000000E+01
 -0.000000000000E+00 -0.000000000000E+00 -0.100000000000E+01
  0.000000000000E+00  0.000000000000E+00 -0.100000000000E+01
  0.000000000000E+00  0.000000000000E+00 -0.100000000000E+01
  0.000000000000E+00  0.000000000000E+00 -0.100000000000E+01
  0.000000000000E+00  0.000000000000E+00 -0.100000000000E+01
 -0.000000000000E+00 -0.000000000000E+00 -0.100000000000E+01
 -0.000000000000E+00 -0.000000000000E+00 -0.100000000000E+01
 -0.000000000000E+00 -0.000000000000E+00 -0.100000000000E+01
 -0.000000000000E+00 -0.000000000000E+00 -0.100000000000E+01
  0.000000000000E+00  0.000000000000E+00 -0.100000000000E+01
  0.000000000000E+00  0.000000000000E+00 -0.100000000000E+01
  0.000000000000E+00  0.000000000000E+00 -0.100000000000E+01
  0.000000000000E+00  0.000000000000E+00 -0.100000000000E+01
 -0.000000000000E+00 -0.000000000000E+00 -0.100000000000E+01
 -0.000000000000E+00 -0.000000000000E+00 -0.100000000000E+01
 -0.000000000000E+00 -0.000000000000E+00 -0.100000000000E+01
 -0.000000000000E+00 -0.000000000000E+00 -0.100000000000E+01
  0.000000000000E+00  0.000000000000E+00 -0.100000000000E+01
  0.000000000000E+00  0.000000000000E+00 -0.100000000000E+01
  0.000000000000E+00  0.000000000000E+00 -0.100000000000E+01
  0.000000000000E+00  0.000000000000E+00 -0.100000000000E+01
 -0.000000000000E+00 -0.000000000000E+00 -0.100000000000E+01
 -0.000000000000E+00 -0.000000000000E+00 -0.100000000000E+01
 -0.000000000000E+00 -0.000000000000E+00 -0.100000000000E+01
 -0.000000000000E+00 -0.000000000000E+00 -0.100000000000E+01
  0.000000000000E+00  0.000000000000E+00 -0.100000000000E+01
  0.000000000000E+00  0.000000000000E+00 -0.100000000000E+01
  0.000000000000E+00  0.000000000000E+00 -0.100000000000E+01
  0.000000000000E+00  0.000000000000E+00 -0.100000000000E+01
 -0.000000000000E+00 -0.000000000000E+00 -0.100000000000E+01
 -0.000000000000E+00 -0.000000000000E+00 -0.100000000000E+01
 -0.000000000000E+00 -0.000000000000E+00 -0.100000000000E+01
 -0.000000000000E+00 -0.000000000000E+00 -0.100000000000E+01
  0.000000000000E+00  0.000000000000E+00 -0.100000000000E+01
  0.000000000000E+00  0.000000000000E+00 -0.100000000000E+01
  0.000000000000E+00  0.000000000000E+00 -0.100000000000E+01
  0.000000000000E+00  0.000000000000E+00 -0.100000000000E+01
 -0.000000000000E+00 -0.000000000000E+00 -0.100000000000E+01
 -0.000000000000E+00 -0.000000000000E+00 -0.100000000000E+01
 -0.000000000000E+00 -0.000000000000E+00 -0.100000000000E+01
 -0.000000000000E+00 -0.000000000000E+00 -0.100000000000E+01
  0.000000000000E+00  0.000000000000E+00 -0.100000000000E+01
  0.000000000000E+00  0.000000000000E+00 -0.100000000000E+01
  0.000000000000E+00  0.000000000000E+00 -0.100000000000E+01
  0.000000000000E+00  0.000000000000E+00 -0.100000000000E+01
 -0.000000000000E+00 -0.000000000000E+00 -0.100000000000E+01
 -0.000000000000E+00 -0.000000000000E+00 -0.100000000000E+01
 -0.000000000000E+00 -0.000000000000E+00 -0.100000000000E+01
 -0.000000000000E+00 -0.000000000000E+00 -0.100000000000E+01
  0.000000000000E+00  0.000000000000E+00 -0.100000000000E+01
  0.000000000000E+00  0.000000000000E+00 -0.100000000000E+01
  0.000000000000E+00  0.000000000000E+00 -0.100000000000E+01
  0.000000000000E+00  0.000000000000E+00 -0.100000000000E+01
 -0.000000000000E+00 -0.000000000000E+00 -0.100000000000E+01
 -0.000000000000E+00 -0.000000000000E+00 -0.100000000000E+01
 -0.000000000000E+00 -0.000000000000E+00 -0.100000000000E+01
 -0.000000000000E+00 -0.000000000000E+00 -0.100000000000E+01
  0.000000000000E+00  0.000000000000E+00 -0.100000000000E+01
  0.000000000000E+00  0.000000000000E+00 -0.100000000000E+01
  0.000000000000E+00  0.000000000000E+00 -0.100000000000E+01
  0.000000000000E+00  0.000000000000E+00 -0.100000000000E+01
 -0.000000000000E+00 -0.000000000000E+00 -0.100000000000E+01
 -0.000000000000E+00 -0.000000000000E+00 -0.100000000000E+01
 -0.000000000000E+00 -0.000000000000E+00 -0.100000000000E+01
 -0.000000000000E+00 -0.000000000000E+00 -0.100000000000E+01
  0.000000000000E+00  0.000000000000E+00 -0.100000000000E+01
  0.000000000000E+00  0.000000000000E+00 -0.100000000000E+01
  0.000000000000E+00  0.000000000000E+00 -0.100000000000E+01
  0.000000000000E+00  0.000000000000E+00 -0.100000000000E+01
 -0.000000000000E+00 -0.000000000000E+00 -0.100000000000E+01
 -0.000000000000E+00 -0.000000000000E+00 -0.100000000000E+01
 -0.000000000000E+00 -0.000000000000E+00 -0.100000000000E+01
 -0.000000000000E+00 -0.000000000000E+00 -0.100000000000E+01
  0.000000000000E+00  0.000000000000E+00 -0.100000000000E+01
  0.000000000000E+00  0.000000000000E+00 -0.100000000000E+01
  0.000000000000E+00  0.000000000000E+00 -0.100000000000E+01
  0.000000000000E+00  0.000000000000E+00 -0.100000000000E+01
 -0.000000000000E+00 -0.000000000000E+00 -0.100000000000E+01
 -0.000000000000E+00 -0.000000000000E+00 -0.100000000000E+01
 -0.000000000000E+00 -0.000000000000E+00 -0.100000000000E+01
 -0.000000000000E+00 -0.000000000000E+00 -0.100000000000E+01
  0.000000000000E+00  0.000000000000E+00 -0.100000000000E+01
  0.000000000000E+00  0.000000000000E+00 -0.100000000000E+01
  0.000000000000E+00  0.000000000000E+00 -0.100000000000E+01
  0.000000000000E+00  0.000000000000E+00 -0.100000000000E+01
 -0.000000000000E+00 -0.000000000000E+00 -0.100000000000E+01
 -0.000000000000E+00 -0.000000000000E+00 -0.100000000000E+01
 -0.000000000000E+00 -0.000000000000E+00 -0.100000000000E+01
 -0.000000000000E+00 -0.000000000000E+00 -0.100000000000E+01
  0.000000000000E+00  0.000000000000E+00 -0.100000000000E+01
  0.000000000000E+00  0.000000000000E+00 -0.100000000000E+01
  0.000000000000E+00  0.000000000000E+00 -0.100000000000E+01
  0.000000000000E+00  0.000000000000E+00 -0.100000000000E+01
 -0.000000000000E+00 -0.000000000000E+00 -0.100000000000E+01
 -0.000000000000E+00 -0.000000000000E+00 -0.100000000000E+01
 -0.000000000000E+00 -0.000000000000E+00 -0.100000000000E+01
 -0.000000000000E+00 -0.000000000000E+00 -0.100000000000E+01
  0.000000000000E+00  0.000000000000E+00 -0.100000000000E+01
  0.000000000000E+00  0.000000000000E+00 -0.100000000000E+01
  0.000000000000E+00  0.000000000000E+00 -0.100000000000E+01
  0.000000000000E+00  0.000000000000E+00 -0.100000000000E+01
 -0.000000000000E+00 -0.000000000000E+00 -0.100000000000E+01
 -0.000000000000E+00 -0.000000000000E+00 -0.100000000000E+01
 -0.000000000000E+00 -0.000000000000E+00 -0.100000000000E+01
 -0.000000000000E+00 -0.000000000000E+00 -0.100000000000E+01
  0.000000000000E+00  0.000000000000E+00 -0.100000000000E+01
  0.000000000000E+00  0.000000000000E+00 -0.100000000000E+01
  0.000000000000E+00  0.000000000000E+00 -0.100000000000E+01
  0.000000000000E+00  0.000000000000E+00 -0.100000000000E+01
 -0.000000000000E+00 -0.000000000000E+00 -0.100000000000E+01
 -0.000000000000E+00 -0.000000000000E+00 -0.100000000000E+01
 -0.000000000000E+00 -0.000000000000E+00 -0.100000000000E+01
 -0.000000000000E+00 -0.000000000000E+00 -0.100000000000E+01
  0.000000000000E+00  0.000000000000E+00 -0.100000000000E+01
  0.000000000000E+00  0.000000000000E+00 -0.100000000000E+01
  0.000000000000E+00  0.000000000000E+00 -0.100000000000E+01
  0.000000000000E+00  0.000000000000E+00 -0.100000000000E+01
 -0.000000000000E+00 -0.000000000000E+00 -0.100000000000E+01
 -0.000000000000E+00 -0.000000000000E+00 -0.100000000000E+01
 -0.000000000000E+00 -0.000000000000E+00 -0.100000000000E+01
 -0.000000000000E+00 -0.000000000000E+00 -0.100000000000E+01
  0.000000000000E+00  0.000000000000E+00 -0.100000000000E+01
  0.000000000000E+00  0.000000000000E+00 -0.100000000000E+01
  0.000000000000E+00  0.000000000000E+00 -0.100000000000E+01
  0.000000000000E+00  0.000000000000E+00 -0.100000000000E+01
 -0.000000000000E+00 -0.000000000000E+00 -0.100000000000E+01
 -0.000000000000E+00 -0.000000000000E+00 -0.100000000000E+01
 -0.000000000000E+00 -0.000000000000E+00 -0.100000000000E+01
 -0.000000000000E+00 -0.000000000000E+00 -0.100000000000E+01
  0.000000000000E+00  0.000000000000E+00 -0.100000000000E+01
  0.000000000000E+00  0.000000000000E+00 -0.100000000000E+01
  0.000000000000E+00  0.000000000000E+00 -0.100000000000E+01
  0.000000000000E+00  0.000000000000E+00 -0.100000000000E+01
 -0.000000000000E+00 -0.000000000000E+00 -0.100000000000E+01
 -0.000000000000E+00 -0.000000000000E+00 -0.100000000000E+01
 -0.000000000000E+00 -0.000000000000E+00 -0.100000000000E+01
 -0.000000000000E+00 -0.000000000000E+00 -0.100000000000E+01
POINT_DATA                 231
SCALARS mu float 1
LOOKUP_TABLE default
 -0.753435099241E-07
 -0.753435099241E-07
 -0.512743719740E-07
 -0.512743719740E-07
 -0.376599999831E-07
 -0.376599999831E-07
 -0.232629773084E-07
 -0.232629773084E-07
 -0.130192539180E-07
 -0.130192539180E-07
 -0.661625243481E-08
 -0.661625243481E-08
 -0.326027652098E-08
 -0.326027652098E-08
  0.269083162002E-09
  0.269083162002E-09
  0.148781856280E-08
  0.148781856280E-08
 -0.399316413269E-10
 -0.399316413269E-10
 -0.121955623031E-08
 -0.121955623031E-08
 -0.456784023106E-08
 -0.456784023106E-08
 -0.761964264948E-08
 -0.761964264948E-08
 -0.120453680155E-07
 -0.120453680155E-07
 -0.154658980241E-07
 -0.154658980241E-07
 -0.189458275908E-07
 -0.189458275908E-07
 -0.236065003344E-07
 -0.236065003344E-07
 -0.272898234670E-07
 -0.272898234670E-07
 -0.344414705887E-07
 -0.344414705887E-07
  0.000000000000E+00
  0.000000000000E+00
 -0.101085387571E-06
 -0.101085387571E-06
 -0.834637902507E-07
 -0.834637902507E-07
 -0.518393749351E-07
 -0.518393749351E-07
 -0.393246857820E-07
 -0.393246857820E-07
 -0.336759995272E-07
 -0.336759995272E-07
 -0.189917882150E-07
 -0.189917882150E-07
 -0.912958357524E-08
 -0.912958357524E-08
 -0.874064255696E-08
 -0.874064255696E-08
  0.245249484263E-08
  0.245249484263E-08
  0.878613103800E-08
  0.878613103800E-08
  0.157013119312E-07
  0.157013119312E-07
  0.261349371276E-07