# vtk DataFile Version 3.0
MachLine results file. Generated by MachLine, USU AeroLab (c) 2022.
ASCII
DATASET POLYDATA
POINTS                 231 float
  0.100000000000E+01  0.000000000000E+00  0.000000000000E+00
  0.119900497512E+01  0.995024875622E-02  0.995024875622E-02
  0.100000000000E+01  0.217527970672E+00  0.000000000000E+00
  0.118818268803E+01  0.226937105073E+00  0.940913440131E-02
  0.100000000000E+01  0.448061168194E+00  0.000000000000E+00
  0.117671337472E+01  0.456896836930E+00  0.883566873584E-02
  0.100000000000E+01  0.689725637436E+00  0.000000000000E+00
  0.116469026679E+01  0.697960150776E+00  0.823451333971E-02
  0.100000000000E+01  0.940178275108E+00  0.000000000000E+00
  0.115222993656E+01  0.947789771936E+00  0.761149682809E-02
  0.100000000000E+01  0.119668114185E+01  0.000000000000E+00
  0.113946859991E+01  0.120365457185E+01  0.697342999540E-02
  0.100000000000E+01  0.145621216297E+01  0.000000000000E+00
  0.112655660881E+01  0.146253999341E+01  0.632783044037E-02
  0.100000000000E+01  0.171560299397E+01  0.000000000000E+00
  0.111365159234E+01  0.172128557359E+01  0.568257961699E-02
  0.100000000000E+01  0.197169232368E+01  0.000000000000E+00
  0.110091082967E+01  0.197673786516E+01  0.504554148338E-02
  0.100000000000E+01  0.222147774696E+01  0.000000000000E+00
  0.108848369418E+01  0.222590193167E+01  0.442418470905E-02
  0.100000000000E+01  0.246225214005E+01  0.000000000000E+00
  0.107650486865E+01  0.246607738348E+01  0.382524343271E-02
  0.100000000000E+01  0.269171094894E+01  0.000000000000E+00
  0.106508900752E+01  0.269496539932E+01  0.325445037577E-02
  0.100000000000E+01  0.290802383423E+01  0.000000000000E+00
  0.105432717243E+01  0.291074019285E+01  0.271635862132E-02
  0.100000000000E+01  0.310986590385E+01  0.000000000000E+00
  0.104428527842E+01  0.311208016777E+01  0.221426392077E-02
  0.100000000000E+01  0.329641318321E+01  0.000000000000E+00
  0.103500431924E+01  0.329816339917E+01  0.175021596216E-02
  0.100000000000E+01  0.346730756760E+01  0.000000000000E+00
  0.102650211106E+01  0.346863267315E+01  0.132510555323E-02
  0.100000000000E+01  0.362259936333E+01  0.000000000000E+00
  0.101877615108E+01  0.362353817088E+01  0.938807553905E-03
  0.100000000000E+01  0.376267743111E+01  0.000000000000E+00
  0.101180709298E+01  0.376326778576E+01  0.590354648980E-03
  0.100000000000E+01  0.388819599152E+01  0.000000000000E+00
  0.100556238848E+01  0.388847411094E+01  0.278119424080E-03
  0.100000000000E+01  0.400000000000E+01  0.000000000000E+00
  0.100000000000E+01  0.400000000000E+01  0.000000000000E+00
  0.100000000000E+01  0.000000000000E+00  0.000000000000E+00
  0.119900497512E+01  0.995024875622E-02  0.995024875622E-02
  0.100000000000E+01 -0.217527970672E+00  0.000000000000E+00
  0.120982726222E+01 -0.207036607561E+00  0.104913631111E-01
  0.100000000000E+01 -0.448061168194E+00  0.000000000000E+00
  0.122129657553E+01 -0.436996339417E+00  0.110648287766E-01
  0.100000000000E+01 -0.689725637436E+00  0.000000000000E+00
  0.123331968345E+01 -0.678059653263E+00  0.116659841727E-01
  0.100000000000E+01 -0.940178275108E+00  0.000000000000E+00
  0.124578001369E+01 -0.927889274424E+00  0.122890006843E-01
  0.100000000000E+01 -0.119668114185E+01  0.000000000000E+00
  0.125854135034E+01 -0.118375407433E+01  0.129270675170E-01
  0.100000000000E+01 -0.145621216297E+01  0.000000000000E+00
  0.127145334144E+01 -0.144263949590E+01  0.135726670721E-01
  0.100000000000E+01 -0.171560299397E+01  0.000000000000E+00
  0.128435835791E+01 -0.170138507607E+01  0.142179178954E-01
  0.100000000000E+01 -0.197169232368E+01  0.000000000000E+00
  0.129709912058E+01 -0.195683736765E+01  0.148549560291E-01
  0.100000000000E+01 -0.222147774696E+01  0.000000000000E+00
  0.130952625607E+01 -0.220600143416E+01  0.154763128034E-01
  0.100000000000E+01 -0.246225214005E+01  0.000000000000E+00
  0.132150508159E+01 -0.244617688597E+01  0.160752540797E-01
  0.100000000000E+01 -0.269171094894E+01  0.000000000000E+00
  0.133292094273E+01 -0.267506490180E+01  0.166460471367E-01
  0.100000000000E+01 -0.290802383423E+01  0.000000000000E+00
  0.134368277782E+01 -0.289083969534E+01  0.171841388911E-01
  0.100000000000E+01 -0.310986590385E+01  0.000000000000E+00
  0.135372467183E+01 -0.309217967026E+01  0.176862335917E-01
  0.100000000000E+01 -0.329641318321E+01  0.000000000000E+00
  0.136300563101E+01 -0.327826290166E+01  0.181502815503E-01
  0.100000000000E+01 -0.346730756760E+01  0.000000000000E+00
  0.137150783918E+01 -0.344873217564E+01  0.185753919592E-01
  0.100000000000E+01 -0.362259936333E+01  0.000000000000E+00
  0.137923379917E+01 -0.360363767337E+01  0.189616899585E-01
  0.100000000000E+01 -0.376267743111E+01  0.000000000000E+00
  0.138620285727E+01 -0.374336728825E+01  0.193101428635E-01
  0.100000000000E+01 -0.388819599152E+01  0.000000000000E+00
  0.139244756177E+01 -0.386857361343E+01  0.196223780884E-01
  0.100000000000E+01 -0.400000000000E+01  0.000000000000E+00
  0.139800995025E+01 -0.398009950249E+01  0.199004975124E-01
  0.109950248756E+01  0.113739109714E+00  0.497512437811E-02
  0.109409134401E+01  0.222232537873E+00  0.470456720066E-02
  0.119359383158E+01  0.118443676915E+00  0.967969157877E-02
  0.109950248756E+01  0.497512437811E-02  0.497512437811E-02
  0.100000000000E+01  0.108763985336E+00  0.000000000000E+00
  0.109409134401E+01  0.337499136634E+00  0.470456720066E-02
  0.108835668736E+01  0.452479002562E+00  0.441783436792E-02
  0.118244803137E+01  0.341916971002E+00  0.912240156857E-02
  0.100000000000E+01  0.332794569433E+00  0.000000000000E+00
  0.108835668736E+01  0.573311237183E+00  0.441783436792E-02
  0.108234513340E+01  0.693842894106E+00  0.411725666986E-02
  0.117070182076E+01  0.577428493853E+00  0.853509103777E-02
  0.100000000000E+01  0.568893402815E+00  0.000000000000E+00
  0.108234513340E+01  0.819069212942E+00  0.411725666986E-02
  0.107611496828E+01  0.943984023522E+00  0.380574841404E-02
  0.115846010168E+01  0.822874961356E+00  0.792300508390E-02
  0.100000000000E+01  0.814951956272E+00  0.000000000000E+00
  0.107611496828E+01  0.107223545689E+01  0.380574841404E-02
  0.106973429995E+01  0.120016785685E+01  0.348671499770E-02
  0.114584926823E+01  0.107572217189E+01  0.729246341174E-02
  0.100000000000E+01  0.106842970848E+01  0.000000000000E+00
  0.106973429995E+01  0.132993336741E+01  0.348671499770E-02
  0.106327830440E+01  0.145937607819E+01  0.316391522019E-02
  0.113301260436E+01  0.133309728263E+01  0.665063021789E-02
  0.100000000000E+01  0.132644665241E+01  0.000000000000E+00
  0.106327830440E+01  0.158907149369E+01  0.316391522019E-02
  0.105682579617E+01  0.171844428378E+01  0.284128980850E-02
  0.112010410057E+01  0.159191278350E+01  0.600520502868E-02
  0.100000000000E+01  0.158590757847E+01  0.000000000000E+00
  0.105682579617E+01  0.184648894863E+01  0.284128980850E-02
  0.105045541483E+01  0.197421509442E+01  0.252277074169E-02
  0.110728121100E+01  0.184901171938E+01  0.536406055019E-02
  0.100000000000E+01  0.184364765882E+01  0.000000000000E+00
  0.105045541483E+01  0.209910780606E+01  0.252277074169E-02
  0.104424184709E+01  0.222368983931E+01  0.221209235453E-02
  0.109469726192E+01  0.210131989842E+01  0.473486309622E-02
  0.100000000000E+01  0.209658503532E+01  0.000000000000E+00
  0.104424184709E+01  0.234407703586E+01  0.221209235453E-02
  0.103825243433E+01  0.246416476177E+01  0.191262171636E-02
  0.108249428142E+01  0.234598965758E+01  0.412471407088E-02
  0.100000000000E+01  0.234186494351E+01  0.000000000000E+00
  0.103825243433E+01  0.257889416621E+01  0.191262171636E-02
  0.103254450376E+01  0.269333817413E+01  0.162722518789E-02
  0.107079693808E+01  0.258052139140E+01  0.353984690424E-02
  0.100000000000E+01  0.257698154450E+01  0.000000000000E+00
  0.103254450376E+01  0.280149461677E+01  0.162722518789E-02
  0.102716358621E+01  0.290938201354E+01  0.135817931066E-02
  0.105970808997E+01  0.280285279608E+01  0.298540449854E-02
  0.100000000000E+01  0.279986739158E+01  0.000000000000E+00
  0.102716358621E+01  0.301030304835E+01  0.135817931066E-02
  0.102214263921E+01  0.311097303581E+01  0.110713196039E-02
  0.104930622542E+01  0.301141018031E+01  0.246531127104E-02
  0.100000000000E+01  0.300894486904E+01  0.000000000000E+00
  0.102214263921E+01  0.320424667549E+01  0.110713196039E-02
  0.101750215962E+01  0.329728829119E+01  0.875107981082E-03
  0.103964479883E+01  0.320512178347E+01  0.198223994147E-02
  0.100000000000E+01  0.320313954353E+01  0.000000000000E+00
  0.101750215962E+01  0.338273548339E+01  0.875107981082E-03
  0.101325105553E+01  0.346797012038E+01  0.662552776617E-03
  0.103075321515E+01  0.338339803616E+01  0.153766075770E-02
  0.100000000000E+01  0.338186037541E+01  0.000000000000E+00
  0.101325105553E+01  0.354561601824E+01  0.662552776617E-03
  0.100938807554E+01  0.362306876711E+01  0.469403776953E-03
  0.102263913107E+01  0.354608542202E+01  0.113195655357E-02
  0.100000000000E+01  0.354495346546E+01  0.000000000000E+00
  0.100938807554E+01  0.369310780100E+01  0.469403776953E-03
  0.100590354649E+01  0.376297260843E+01  0.295177324490E-03
  0.101529162203E+01  0.369340297832E+01  0.764581101443E-03
  0.100000000000E+01  0.369263839722E+01  0.000000000000E+00
  0.100590354649E+01  0.382573188864E+01  0.295177324490E-03
  0.100278119424E+01  0.388833505123E+01  0.139059712040E-03
  0.100868474073E+01  0.382587094835E+01  0.434237036530E-03
  0.100000000000E+01  0.382543671132E+01  0.000000000000E+00
  0.100278119424E+01  0.394423705547E+01  0.139059712040E-03
  0.100000000000E+01  0.394409799576E+01  0.000000000000E+00
  0.109950248756E+01 -0.103788860958E+00  0.497512437811E-02
  0.110491363111E+01 -0.212282289116E+00  0.524568155556E-02
  0.120441611867E+01 -0.985431794023E-01  0.102208059337E-01
  0.100000000000E+01 -0.108763985336E+00  0.000000000000E+00
  0.110491363111E+01 -0.327548887877E+00  0.524568155556E-02
  0.111064828777E+01 -0.442528753806E+00  0.553241438830E-02
[...]
CELL_DATA                 300
NORMALS normals float
  0.499376169439E-01 -0.261222397292E-16 -0.998752338878E+00
  0.499376169439E-01 -0.261222397292E-16 -0.998752338878E+00
  0.499376169439E-01 -0.261222397292E-16 -0.998752338878E+00
  0.499376169439E-01 -0.261222397292E-16 -0.998752338878E+00
  0.499376169439E-01  0.000000000000E+00 -0.998752338878E+00
  0.499376169439E-01  0.000000000000E+00 -0.998752338878E+00
  0.499376169439E-01  0.000000000000E+00 -0.998752338878E+00
  0.499376169439E-01  0.000000000000E+00 -0.998752338878E+00
  0.499376169439E-01 -0.897096092315E-17 -0.998752338878E+00
  0.499376169439E-01 -0.897096092315E-17 -0.998752338878E+00
  0.499376169439E-01 -0.897096092315E-17 -0.998752338878E+00
  0.499376169439E-01 -0.897096092315E-17 -0.998752338878E+00
  0.499376169439E-01  0.000000000000E+00 -0.998752338878E+00
  0.499376169439E-01  0.000000000000E+00 -0.998752338878E+00
  0.499376169439E-01  0.000000000000E+00 -0.998752338878E+00
  0.499376169439E-01  0.000000000000E+00 -0.998752338878E+00
  0.499376169439E-01 -0.170046369395E-17 -0.998752338878E+00
  0.499376169439E-01 -0.170046369395E-17 -0.998752338878E+00
  0.499376169439E-01 -0.170046369395E-17 -0.998752338878E+00
  0.499376169439E-01 -0.170046369395E-17 -0.998752338878E+00
  0.499376169439E-01  0.000000000000E+00 -0.998752338878E+00
  0.499376169439E-01  0.000000000000E+00 -0.998752338878E+00
  0.499376169439E-01  0.000000000000E+00 -0.998752338878E+00
  0.499376169439E-01  0.000000000000E+00 -0.998752338878E+00
  0.499376169439E-01  0.386971443229E-16 -0.998752338878E+00
  0.499376169439E-01  0.386971443229E-16 -0.998752338878E+00
  0.499376169439E-01  0.386971443229E-16 -0.998752338878E+00
  0.499376169439E-01  0.386971443229E-16 -0.998752338878E+00
  0.499376169439E-01  0.000000000000E+00 -0.998752338878E+00
  0.499376169439E-01  0.000000000000E+00 -0.998752338878E+00
  0.499376169439E-01  0.000000000000E+00 -0.998752338878E+00
  0.499376169439E-01  0.000000000000E+00 -0.998752338878E+00
  0.499376169439E-01 -0.718890975976E-17 -0.998752338878E+00
  0.499376169439E-01 -0.718890975976E-17 -0.998752338878E+00
  0.499376169439E-01 -0.718890975976E-17 -0.998752338878E+00
  0.499376169439E-01 -0.718890975976E-17 -0.998752338878E+00
  0.499376169439E-01  0.000000000000E+00 -0.998752338878E+00
  0.499376169439E-01  0.000000000000E+00 -0.998752338878E+00
  0.499376169439E-01  0.000000000000E+00 -0.998752338878E+00
  0.499376169439E-01  0.000000000000E+00 -0.998752338878E+00
  0.499376169439E-01 -0.329681044944E-17 -0.998752338878E+00
  0.499376169439E-01 -0.329681044944E-17 -0.998752338878E+00
  0.499376169439E-01 -0.329681044944E-17 -0.998752338878E+00
  0.499376169439E-01 -0.329681044944E-17 -0.998752338878E+00
  0.499376169439E-01  0.000000000000E+00 -0.998752338878E+00
  0.499376169439E-01  0.000000000000E+00 -0.998752338878E+00
  0.499376169439E-01  0.000000000000E+00 -0.998752338878E+00
  0.499376169439E-01  0.000000000000E+00 -0.998752338878E+00
  0.499376169439E-01 -0.459142981630E-17 -0.998752338878E+00
  0.499376169439E-01 -0.459142981630E-17 -0.998752338878E+00
  0.499376169439E-01 -0.459142981630E-17 -0.998752338878E+00
  0.499376169439E-01 -0.459142981630E-17 -0.998752338878E+00
  0.499376169439E-01  0.000000000000E+00 -0.998752338878E+00
  0.499376169439E-01  0.000000000000E+00 -0.998752338878E+00
  0.499376169439E-01  0.000000000000E+00 -0.998752338878E+00
  0.499376169439E-01  0.000000000000E+00 -0.998752338878E+00
  0.499376169439E-01 -0.204274164223E-16 -0.998752338878E+00
  0.499376169439E-01 -0.204274164223E-16 -0.998752338878E+00
  0.499376169439E-01 -0.204274164223E-16 -0.998752338878E+00
  0.499376169439E-01 -0.204274164223E-16 -0.998752338878E+00
  0.499376169439E-01  0.000000000000E+00 -0.998752338878E+00
  0.499376169439E-01  0.000000000000E+00 -0.998752338878E+00
  0.499376169439E-01  0.000000000000E+00 -0.998752338878E+00
  0.499376169439E-01  0.000000000000E+00 -0.998752338878E+00
  0.499376169439E-01  0.857384828714E-17 -0.998752338878E+00
  0.499376169439E-01  0.857384828714E-17 -0.998752338878E+00
  0.499376169439E-01  0.857384828714E-17 -0.998752338878E+00
  0.499376169439E-01  0.857384828714E-17 -0.998752338878E+00
  0.499376169439E-01  0.000000000000E+00 -0.998752338878E+00
  0.499376169439E-01  0.000000000000E+00 -0.998752338878E+00
  0.499376169439E-01  0.000000000000E+00 -0.998752338878E+00
  0.499376169439E-01  0.000000000000E+00 -0.998752338878E+00
  0.499376169439E-01 -0.257185671474E-17 -0.998752338878E+00
  0.499376169439E-01 -0.257185671474E-17 -0.998752338878E+00
  0.499376169439E-01 -0.257185671474E-17 -0.998752338878E+00
  0.499376169439E-01 -0.257185671474E-17 -0.998752338878E+00
  0.499376169439E-01  0.000000000000E+00 -0.998752338878E+00
  0.499376169439E-01  0.000000000000E+00 -0.998752338878E+00
  0.499376169439E-01  0.000000000000E+00 -0.998752338878E+00
  0.499376169439E-01  0.000000000000E+00 -0.998752338878E+00
  0.499376169439E-01 -0.140474472335E-16 -0.998752338878E+00
  0.499376169439E-01 -0.140474472335E-16 -0.998752338878E+00
  0.499376169439E-01 -0.140474472335E-16 -0.998752338878E+00
  0.499376169439E-01 -0.140474472335E-16 -0.998752338878E+00
  0.499376169439E-01  0.000000000000E+00 -0.998752338878E+00
  0.499376169439E-01  0.000000000000E+00 -0.998752338878E+00
  0.499376169439E-01  0.000000000000E+00 -0.998752338878E+00
  0.499376169439E-01  0.000000000000E+00 -0.998752338878E+00
  0.499376169439E-01  0.236119831462E-16 -0.998752338878E+00
  0.499376169439E-01  0.236119831462E-16 -0.998752338878E+00
  0.499376169439E-01  0.236119831462E-16 -0.998752338878E+00
  0.499376169439E-01  0.236119831462E-16 -0.998752338878E+00
  0.499376169439E-01  0.000000000000E+00 -0.998752338878E+00
  0.499376169439E-01  0.000000000000E+00 -0.998752338878E+00
  0.499376169439E-01  0.000000000000E+00 -0.998752338878E+00
  0.499376169439E-01  0.000000000000E+00 -0.998752338878E+00
  0.499376169439E-01 -0.136285463323E-16 -0.998752338878E+00
  0.499376169439E-01 -0.136285463323E-16 -0.998752338878E+00
  0.499376169439E-01 -0.136285463323E-16 -0.998752338878E+00
  0.499376169439E-01 -0.136285463323E-16 -0.998752338878E+00
  0.499376169439E-01  0.000000000000E+00 -0.998752338878E+00
  0.499376169439E-01  0.000000000000E+00 -0.998752338878E+00
  0.499376169439E-01  0.000000000000E+00 -0.998752338878E+00
  0.499376169439E-01  0.000000000000E+00 -0.998752338878E+00
  0.499376169439E-01 -0.259106049569E-16 -0.998752338878E+00
  0.499376169439E-01 -0.259106049569E-16 -0.998752338878E+00
  0.499376169439E-01 -0.259106049569E-16 -0.998752338878E+00
  0.499376169439E-01 -0.259106049569E-16 -0.998752338878E+00
  0.499376169439E-01  0.000000000000E+00 -0.998752338878E+00
  0.499376169439E-01  0.000000000000E+00 -0.998752338878E+00
  0.499376169439E-01  0.000000000000E+00 -0.998752338878E+00
  0.499376169439E-01  0.000000000000E+00 -0.998752338878E+00
  0.499376169439E-01  0.183052610583E-16 -0.998752338878E+00
  0.499376169439E-01  0.183052610583E-16 -0.998752338878E+00
  0.499376169439E-01  0.183052610583E-16 -0.998752338878E+00
  0.499376169439E-01  0.183052610583E-16 -0.998752338878E+00
  0.499376169439E-01  0.000000000000E+00 -0.998752338878E+00
  0.499376169439E-01  0.000000000000E+00 -0.998752338878E+00
  0.499376169439E-01  0.000000000000E+00 -0.998752338878E+00
  0.499376169439E-01  0.000000000000E+00 -0.998752338878E+00
  0.499376169439E-01  0.591879362353E-16 -0.998752338878E+00
  0.499376169439E-01  0.591879362353E-16 -0.998752338878E+00
  0.499376169439E-01  0.591879362353E-16 -0.998752338878E+00
  0.499376169439E-01  0.591879362353E-16 -0.998752338878E+00
  0.499376169439E-01  0.000000000000E+00 -0.998752338878E+00
  0.499376169439E-01  0.000000000000E+00 -0.998752338878E+00
  0.499376169439E-01  0.000000000000E+00 -0.998752338878E+00
  0.499376169439E-01  0.000000000000E+00 -0.998752338878E+00
  0.499376169439E-01  0.168794746995E-16 -0.998752338878E+00
  0.499376169439E-01  0.168794746995E-16 -0.998752338878E+00
  0.499376169439E-01  0.168794746995E-16 -0.998752338878E+00
  0.499376169439E-01  0.168794746995E-16 -0.998752338878E+00
  0.499376169439E-01  0.000000000000E+00 -0.998752338878E+00
  0.499376169439E-01  0.000000000000E+00 -0.998752338878E+00
  0.499376169439E-01  0.000000000000E+00 -0.998752338878E+00
  0.499376169439E-01  0.000000000000E+00 -0.998752338878E+00
  0.499376169439E-01  0.969346023789E-17 -0.998752338878E+00
  0.499376169439E-01  0.969346023789E-17 -0.998752338878E+00
  0.499376169439E-01  0.969346023789E-17 -0.998752338878E+00
  0.499376169439E-01  0.969346023789E-17 -0.998752338878E+00
  0.499376169439E-01  0.000000000000E+00 -0.998752338878E+00
  0.499376169439E-01  0.000000000000E+00 -0.998752338878E+00
  0.499376169439E-01  0.000000000000E+00 -0.998752338878E+00
  0.499376169439E-01  0.000000000000E+00 -0.998752338878E+00
  0.499376169439E-01  0.000000000000E+00 -0.998752338878E+00
  0.499376169439E-01  0.000000000000E+00 -0.998752338878E+00
  0.499376169439E-01  0.000000000000E+00 -0.998752338878E+00
  0.499376169439E-01  0.000000000000E+00 -0.998752338878E+00
  0.499376169439E-01  0.249103803770E-16 -0.998752338878E+00
  0.499376169439E-01  0.249103803770E-16 -0.998752338878E+00
  0.499376169439E-01  0.249103803770E-16 -0.998752338878E+00
  0.499376169439E-01  0.249103803770E-16 -0.998752338878E+00
  0.499376169439E-01  0.000000000000E+00 -0.998752338878E+00
  0.499376169439E-01  0.000000000000E+00 -0.998752338878E+00
  0.499376169439E-01  0.000000000000E+00 -0.998752338878E+00
  0.499376169439E-01  0.000000000000E+00 -0.998752338878E+00
  0.499376169439E-01  0.137966380752E-16 -0.998752338878E+00
  0.499376169439E-01  0.137966380752E-16 -0.998752338878E+00
  0.499376169439E-01  0.137966380752E-16 -0.998752338878E+00
  0.499376169439E-01  0.137966380752E-16 -0.998752338878E+00
  0.499376169439E-01  0.000000000000E+00 -0.998752338878E+00
  0.499376169439E-01  0.000000000000E+00 -0.998752338878E+00
  0.499376169439E-01  0.000000000000E+00 -0.998752338878E+00
  0.499376169439E-01  0.000000000000E+00 -0.998752338878E+00
  0.499376169439E-01 -0.816192934919E-17 -0.998752338878E+00
  0.499376169439E-01 -0.816192934919E-17 -0.998752338878E+00
  0.499376169439E-01 -0.816192934919E-17 -0.998752338878E+00
  0.499376169439E-01 -0.816192934919E-17 -0.998752338878E+00
  0.499376169439E-01  0.000000000000E+00 -0.998752338878E+00
  0.499376169439E-01  0.000000000000E+00 -0.998752338878E+00
  0.499376169439E-01  0.000000000000E+00 -0.998752338878E+00
  0.499376169439E-01  0.000000000000E+00 -0.998752338878E+00
  0.499376169439E-01 -0.272663877694E-16 -0.998752338878E+00
  0.499376169439E-01 -0.272663877694E-16 -0.998752338878E+00
  0.499376169439E-01 -0.272663877694E-16 -0.998752338878E+00
  0.499376169439E-01 -0.272663877694E-16 -0.998752338878E+00
  0.499376169439E-01  0.000000000000E+00 -0.998752338878E+00
  0.499376169439E-01  0.000000000000E+00 -0.998752338878E+00
  0.499376169439E-01  0.000000000000E+00 -0.998752338878E+00
  0.499376169439E-01  0.000000000000E+00 -0.998752338878E+00
  0.499376169439E-01  0.183695437166E-16 -0.998752338878E+00
  0.499376169439E-01  0.183695437166E-16 -0.998752338878E+00
  0.499376169439E-01  0.183695437166E-16 -0.998752338878E+00
  0.499376169439E-01  0.183695437166E-16 -0.998752338878E+00
  0.499376169439E-01  0.000000000000E+00 -0.998752338878E+00
  0.499376169439E-01  0.000000000000E+00 -0.998752338878E+00
  0.499376169439E-01  0.000000000000E+00 -0.998752338878E+00
  0.499376169439E-01  0.000000000000E+00 -0.998752338878E+00
  0.499376169439E-01 -0.806943111391E-17 -0.998752338878E+00
  0.499376169439E-01 -0.806943111391E-17 -0.998752338878E+00
  0.499376169439E-01 -0.806943111391E-17 -0.998752338878E+00
  0.499376169439E-01 -0.806943111391E-17 -0.998752338878E+00
  0.499376169439E-01  0.000000000000E+00 -0.998752338878E+00
  0.499376169439E-01  0.000000000000E+00 -0.998752338878E+00
  0.499376169439E-01  0.000000000000E+00 -0.998752338878E+00
  0.499376169439E-01  0.000000000000E+00 -0.998752338878E+00
  0.499376169439E-01 -0.403719901137E-17 -0.998752338878E+00
  0.499376169439E-01 -0.403719901137E-17 -0.998752338878E+00
  0.499376169439E-01 -0.403719901137E-17 -0.998752338878E+00
  0.499376169439E-01 -0.403719901137E-17 -0.998752338878E+00
  0.499376169439E-01  0.000000000000E+00 -0.998752338878E+00
  0.499376169439E-01  0.000000000000E+00 -0.998752338878E+00
  0.499376169439E-01  0.000000000000E+00 -0.998752338878E+00
  0.499376169439E-01  0.000000000000E+00 -0.998752338878E+00
  0.499376169439E-01  0.209926494240E-16 -0.998752338878E+00
  0.499376169439E-01  0.209926494240E-16 -0.998752338878E+00
  0.499376169439E-01  0.209926494240E-16 -0.998752338878E+00
  0.499376169439E-01  0.209926494240E-16 -0.998752338878E+00
  0.499376169439E-01  0.000000000000E+00 -0.998752338878E+00
  0.499376169439E-01  0.000000000000E+00 -0.998752338878E+00
  0.499376169439E-01  0.000000000000E+00 -0.998752338878E+00
  0.499376169439E-01  0.000000000000E+00 -0.998752338878E+00
  0.499376169439E-01 -0.315127290464E-16 -0.998752338878E+00
  0.499376169439E-01 -0.315127290464E-16 -0.998752338878E+00
  0.499376169439E-01 -0.315127290464E-16 -0.998752338878E+00
  0.499376169439E-01 -0.315127290464E-16 -0.998752338878E+00
  0.499376169439E-01  0.000000000000E+00 -0.998752338878E+00
  0.499376169439E-01  0.000000000000E+00 -0.998752338878E+00
  0.499376169439E-01  0.000000000000E+00 -0.998752338878E+00
  0.499376169439E-01  0.000000000000E+00 -0.998752338878E+00
  0.499376169439E-01  0.255289417784E-16 -0.998752338878E+00
  0.499376169439E-01  0.255289417784E-16 -0.998752338878E+00
  0.499376169439E-01  0.255289417784E-16 -0.998752338878E+00
  0.499376169439E-01  0.255289417784E-16 -0.998752338878E+00
  0.499376169439E-01  0.000000000000E+00 -0.998752338878E+00
  0.499376169439E-01  0.000000000000E+00 -0.998752338878E+00
  0.499376169439E-01  0.000000000000E+00 -0.998752338878E+00
  0.499376169439E-01  0.000000000000E+00 -0.998752338878E+00
  0.499376169439E-01 -0.326024372678E-16 -0.998752338878E+00
  0.499376169439E-01 -0.326024372678E-16 -0.998752338878E+00
  0.499376169439E-01 -0.326024372678E-16 -0.998752338878E+00
  0.499376169439E-01 -0.326024372678E-16 -0.998752338878E+00
  0.499376169439E-01  0.000000000000E+00 -0.998752338878E+00
  0.499376169439E-01  0.000000000000E+00 -0.998752338878E+00
  0.499376169439E-01  0.000000000000E+00 -0.998752338878E+00
  0.499376169439E-01  0.000000000000E+00 -0.998752338878E+00
  0.499376169439E-01  0.160221431490E-16 -0.998752338878E+00
  0.499376169439E-01  0.160221431490E-16 -0.998752338878E+00
  0.499376169439E-01  0.160221431490E-16 -0.998752338878E+00
  0.499376169439E-01  0.160221431490E-16 -0.998752338878E+00
  0.499376169439E-01  0.000000000000E+00 -0.998752338878E+00
  0.499376169439E-01  0.000000000000E+00 -0.998752338878E+00
  0.499376169439E-01  0.000000000000E+00 -0.998752338878E+00
  0.499376169439E-01  0.000000000000E+00 -0.998752338878E+00
  0.499376169439E-01 -0.985835370860E-17 -0.998752338878E+00
  0.499376169439E-01 -0.985835370860E-17 -0.998752338878E+00
  0.499376169439E-01 -0.985835370860E-17 -0.998752338878E+00
  0.499376169439E-01 -0.985835370860E-17 -0.998752338878E+00
  0.499376169439E-01  0.000000000000E+00 -0.998752338878E+00
  0.499376169439E-01  0.000000000000E+00 -0.998752338878E+00
  0.499376169439E-01  0.000000000000E+00 -0.998752338878E+00
  0.499376169439E-01  0.000000000000E+00 -0.998752338878E+00
  0.499376169439E-01 -0.103939149218E-16 -0.998752338878E+00
  0.499376169439E-01 -0.103939149218E-16 -0.998752338878E+00
  0.499376169439E-01 -0.103939149218E-16 -0.998752338878E+00
  0.499376169439E-01 -0.103939149218E-16 -0.998752338878E+00
  0.499376169439E-01  0.000000000000E+00 -0.998752338878E+00
  0.499376169439E-01  0.000000000000E+00 -0.998752338878E+00
  0.499376169439E-01  0.000000000000E+00 -0.998752338878E+00
  0.499376169439E-01  0.000000000000E+00 -0.998752338878E+00
  0.499376169439E-01  0.247309221608E-16 -0.998752338878E+00
  0.499376169439E-01  0.247309221608E-16 -0.998752338878E+00
  0.499376169439E-01  0.247309221608E-16 -0.998752338878E+00
  0.499376169439E-01  0.247309221608E-16 -0.998752338878E+00
  0.499376169439E-01  0.000000000000E+00 -0.998752338878E+00
  0.499376169439E-01  0.000000000000E+00 -0.998752338878E+00
  0.499376169439E-01  0.000000000000E+00 -0.998752338878E+00
  0.499376169439E-01  0.000000000000E+00 -0.998752338878E+00
  0.499376169439E-01  0.395322008873E-16 -0.998752338878E+00
  0.499376169439E-01  0.395322008873E-16 -0.998752338878E+00
  0.499376169439E-01  0.395322008873E-16 -0.998752338878E+00
  0.499376169439E-01  0.395322008873E-16 -0.998752338878E+00
  0.499376169439E-01  0.000000000000E+00 -0.998752338878E+00
  0.499376169439E-01  0.000000000000E+00 -0.998752338878E+00
  0.499376169439E-01  0.000000000000E+00 -0.998752338878E+00
  0.499376169439E-01  0.000000000000E+00 -0.998752338878E+00
  0.499376169439E-01 -0.445361296727E-16 -0.998752338878E+00
  0.499376169439E-01 -0.445361296727E-16 -0.998752338878E+00
  0.499376169439E-01 -0.445361296727E-16 -0.998752338878E+00
  0.499376169439E-01 -0.445361296727E-16 -0.998752338878E+00
  0.499376169439E-01  0.000000000000E+00 -0.998752338878E+00
  0.499376169439E-01  0.000000000000E+00 -0.998752338878E+00
  0.499376169439E-01  0.000000000000E+00 -0.998752338878E+00
  0.499376169439E-01  0.000000000000E+00 -0.998752338878E+00
  0.499376169439E-01 -0.219825716664E-16 -0.998752338878E+00
  0.499376169439E-01 -0.219825716664E-16 -0.998752338878E+00
  0.499376169439E-01 -0.219825716664E-16 -0.998752338878E+00
  0.499376169439E-01 -0.219825716664E-16 -0.998752338878E+00
  0.499376169439E-01  0.000000000000E+00 -0.998752338878E+00
  0.499376169439E-01  0.000000000000E+00 -0.998752338878E+00
  0.499376169439E-01  0.000000000000E+00 -0.998752338878E+00
  0.499376169439E-01  0.000000000000E+00 -0.998752338878E+00
  0.499376169439E-01  0.857779967988E-16 -0.998752338878E+00
  0.499376169439E-01  0.857779967988E-16 -0.998752338878E+00
  0.499376169439E-01  0.857779967988E-16 -0.998752338878E+00
  0.499376169439E-01  0.857779967988E-16 -0.998752338878E+00
  0.499376169439E-01  0.000000000000E+00 -0.998752338878E+00
  0.499376169439E-01  0.000000000000E+00 -0.998752338878E+00
  0.499376169439E-01  0.000000000000E+00 -0.998752338878E+00
  0.499376169439E-01  0.000000000000E+00 -0.998752338878E+00
POINT_DATA                 231
SCALARS mu float 1
LOOKUP_TABLE default
 -0.557567718708E-01
 -0.557567718708E-01
 -0.557567723132E-01
 -0.557567723132E-01
 -0.557567781441E-01
 -0.557567781441E-01
 -0.557567617455E-01
 -0.557567617455E-01
 -0.557567841518E-01
 -0.557567841518E-01
 -0.557568080568E-01
 -0.557568080568E-01
 -0.557567631522E-01
 -0.557567631522E-01
 -0.557567952476E-01
 -0.557567952476E-01
 -0.557568179578E-01
 -0.557568179578E-01
 -0.557567718688E-01
 -0.557567718688E-01
 -0.557567882911E-01
 -0.557567882911E-01
 -0.557567962999E-01
 -0.557567962999E-01
 -0.557567080812E-01
 -0.557567080812E-01
 -0.557574405726E-01
 -0.557574405726E-01
 -0.557494463546E-01
 -0.557494463546E-01
 -0.558570245154E-01
 -0.558570245154E-01
 -0.539532888407E-01
 -0.539532888407E-01
 -0.485613791906E-01
 -0.485613791906E-01
 -0.381378400764E-01
 -0.381378400764E-01
  0.000000000000E+00
  0.000000000000E+00
 -0.557567718708E-01
 -0.557567718708E-01
 -0.557567578150E-01
 -0.557567578150E-01
 -0.557567598742E-01
 -0.557567598742E-01
 -0.557567749169E-01
 -0.557567749169E-01
 -0.557567529097E-01
 -0.557567529097E-01
 -0.557567275936E-01
 -0.557567275936E-01
 -0.557567723598E-01
 -0.557567723598E-01
 -0.557567414043E-01
 -0.557567414043E-01
 -0.557567178496E-01
 -0.557567178496E-01
 -0.557567641602E-01
 -0.557567641602E-01
 -0.557567483668E-01
 -0.557567483668E-01
 -0.557567289918E-01
 -0.557567289918E-01
 -0.557572795616E-01
 -0.557572795616E-01
 -0.557477341255E-01
 -0.557477341255E-01
 -0.558654139772E-01
 -0.558654139772E-01
 -0.548930609957E-01
 -0.548930609957E-01
 -0.510843446724E-01
 -0.510843446724E-01
 -0.443537398810E-01