# vtk DataFile Version 3.0
TriPan results file. Generated by TriPan, USU AeroLab (c) 2021.
ASCII
DATASET POLYDATA
POINTS                 446 float
  0.190349744366E-02  0.000000000000E+00  0.000000000000E+00
  0.180155439444E-02  0.217527970672E+00  0.000000000000E+00
  0.188619651827E-02  0.448061168194E+00  0.000000000000E+00
  0.195463115218E-02  0.689725637436E+00  0.000000000000E+00
  0.200381935583E-02  0.940178275108E+00  0.000000000000E+00
  0.203146979263E-02  0.119668114185E+01  0.000000000000E+00
  0.203625478170E-02  0.145621216297E+01  0.432309807279E-18
  0.201794494299E-02  0.171560299397E+01  0.000000000000E+00
  0.197742965724E-02  0.197169232368E+01  0.000000000000E+00
  0.191662923716E-02  0.222147774696E+01  0.000000000000E+00
  0.183830664114E-02  0.246225214005E+01  0.000000000000E+00
  0.174581819542E-02  0.269171094894E+01  0.370648277606E-18
  0.164282618113E-02  0.290802383423E+01  0.000000000000E+00
  0.153302818423E-02  0.310986590385E+01  0.000000000000E+00
  0.141992384673E-02  0.329641318321E+01  0.000000000000E+00
  0.130663581474E-02  0.346730756760E+01  0.000000000000E+00
  0.119580047662E-02  0.362259936333E+01  0.000000000000E+00
  0.108952656797E-02  0.376267743111E+01  0.000000000000E+00
  0.989381096661E-03  0.388819599152E+01  0.000000000000E+00
  0.971479789355E-04  0.399949033288E+01 -0.325828402727E-19
  0.342666600534E-01  0.000000000000E+00 -0.119376002534E-02
  0.342666600534E-01  0.000000000000E+00  0.119376002534E-02
  0.342698824337E-01  0.217527970672E+00 -0.115692804277E-02
  0.342698824337E-01  0.217527970672E+00  0.115692804277E-02
  0.342775173423E-01  0.448061168194E+00 -0.106966063919E-02
  0.342775173423E-01  0.448061168194E+00  0.106966063919E-02
  0.342838248119E-01  0.689725637436E+00 -0.997565933343E-03
  0.342838248119E-01  0.689725637436E+00  0.997565933343E-03
  0.342885274612E-01  0.940178275108E+00 -0.943814406113E-03
  0.342885274612E-01  0.940178275108E+00  0.943814406113E-03
  0.342914074361E-01  0.119668114185E+01 -0.910896143339E-03
  0.342914074361E-01  0.119668114185E+01  0.910896143339E-03
  0.342923267137E-01  0.145621216297E+01 -0.900388752406E-03
  0.342923267137E-01  0.145621216297E+01  0.900388752406E-03
  0.342912407103E-01  0.171560299397E+01 -0.912801828255E-03
  0.342912407103E-01  0.171560299397E+01  0.912801828255E-03
  0.342882027576E-01  0.197169232368E+01 -0.947525785931E-03
  0.342882027576E-01  0.197169232368E+01  0.947525785931E-03
  0.342833586936E-01  0.222147774696E+01 -0.100289368959E-02
  0.342833586936E-01  0.222147774696E+01  0.100289368959E-02
  0.342769326198E-01  0.246225214005E+01 -0.107634404818E-02
  0.342769326198E-01  0.246225214005E+01  0.107634404818E-02
  0.342692062149E-01  0.269171094894E+01 -0.116465725981E-02
  0.342692062149E-01  0.269171094894E+01  0.116465725981E-02
  0.342604944343E-01  0.290802383423E+01 -0.126423336595E-02
  0.342604944343E-01  0.290802383423E+01  0.126423336595E-02
  0.342511211565E-01  0.310986590385E+01 -0.137137042041E-02
  0.342511211565E-01  0.310986590385E+01  0.137137042041E-02
  0.342413979750E-01  0.329641318321E+01 -0.148250689126E-02
  0.342413979750E-01  0.329641318321E+01  0.148250689126E-02
  0.342316072375E-01  0.346730756760E+01 -0.159441553133E-02
  0.342316072375E-01  0.346730756760E+01  0.159441553133E-02
  0.342219908292E-01  0.362259936333E+01 -0.170433158034E-02
  0.342219908292E-01  0.362259936333E+01  0.170433158034E-02
  0.342127449763E-01  0.376267743111E+01 -0.181001216133E-02
  0.342127449763E-01  0.376267743111E+01  0.181001216133E-02
  0.342040185398E-01  0.388819599152E+01 -0.190975578472E-02
  0.342040185398E-01  0.388819599152E+01  0.190975578472E-02
  0.341703651092E-01  0.399986265213E+01 -0.229442133769E-02
  0.341703651092E-01  0.399986265213E+01  0.229442133769E-02
  0.341403165739E-01  0.400184427598E+01 -0.188507548451E-02
  0.341403165739E-01  0.400184427598E+01  0.188507548451E-02
  0.341336570292E-01  0.400271379329E+01 -0.122196032094E-19
  0.938944796530E-01  0.000000000000E+00 -0.624850703535E-02
  0.938944796530E-01  0.000000000000E+00  0.624850703535E-02
  0.938964513531E-01  0.217527970672E+00 -0.622597040666E-02
  0.938964513531E-01  0.217527970672E+00  0.622597040666E-02
  0.939039605542E-01  0.448061168194E+00 -0.614013984579E-02
  0.939039605542E-01  0.448061168194E+00  0.614013984579E-02
  0.939101736757E-01  0.689725637436E+00 -0.606912354413E-02
  0.939101736757E-01  0.689725637436E+00  0.606912354413E-02
  0.939148118631E-01  0.940178275108E+00 -0.601610882013E-02
  0.939148118631E-01  0.940178275108E+00  0.601610882013E-02
  0.939176561901E-01  0.119668114185E+01 -0.598359801449E-02
  0.939176561901E-01  0.119668114185E+01  0.598359801449E-02
  0.939185680090E-01  0.145621216297E+01 -0.597317587732E-02
  0.939185680090E-01  0.145621216297E+01  0.597317587732E-02
  0.939175025749E-01  0.171560299397E+01 -0.598535384381E-02
  0.939175025749E-01  0.171560299397E+01  0.598535384381E-02
  0.939145135250E-01  0.197169232368E+01 -0.601951884018E-02
  0.939145135250E-01  0.197169232368E+01  0.601951884018E-02
  0.939097474483E-01  0.222147774696E+01 -0.607399534563E-02
  0.939097474483E-01  0.222147774696E+01  0.607399534563E-02
  0.939034296032E-01  0.246225214005E+01 -0.614620864342E-02
  0.939034296032E-01  0.246225214005E+01  0.614620864342E-02
  0.938958431551E-01  0.269171094894E+01 -0.623292214103E-02
  0.938958431551E-01  0.269171094894E+01  0.623292214103E-02
  0.938873047692E-01  0.290802383423E+01 -0.633051633640E-02
  0.938873047692E-01  0.290802383423E+01  0.633051633640E-02
  0.938781400889E-01  0.310986590385E+01 -0.643526911029E-02
  0.938781400889E-01  0.310986590385E+01  0.643526911029E-02
  0.938686622919E-01  0.329641318321E+01 -0.654360082321E-02
  0.938686622919E-01  0.329641318321E+01  0.654360082321E-02
  0.938591548263E-01  0.346730756760E+01 -0.665227165035E-02
  0.938591548263E-01  0.346730756760E+01  0.665227165035E-02
  0.938498598112E-01  0.362259936333E+01 -0.675851415785E-02
  0.938498598112E-01  0.362259936333E+01  0.675851415785E-02
  0.938409723865E-01  0.376267743111E+01 -0.686009788503E-02
  0.938409723865E-01  0.376267743111E+01  0.686009788503E-02
  0.938326386285E-01  0.388819599152E+01 -0.695535317288E-02
  0.938326386285E-01  0.388819599152E+01  0.695535317288E-02
  0.938020228261E-01  0.399982191417E+01 -0.730529285109E-02
  0.938020228261E-01  0.399982191417E+01  0.730529285109E-02
  0.937759936759E-01  0.400537471243E+01 -0.537478190946E-02
  0.937759936759E-01  0.400537471243E+01  0.537478190946E-02
  0.937700081870E-01  0.400767115840E+01 -0.531059685571E-20
  0.190622368231E+00  0.000000000000E+00 -0.144884656727E-01
  0.190622368231E+00  0.000000000000E+00  0.144884656727E-01
  0.190622942239E+00  0.217527970672E+00 -0.144819047741E-01
  0.190622942239E+00  0.217527970672E+00  0.144819047741E-01
  0.190630235509E+00  0.448061168194E+00 -0.143985423066E-01
  0.190630235509E+00  0.448061168194E+00  0.143985423066E-01
  0.190636283885E+00  0.689725637436E+00 -0.143294090565E-01
  0.190636283885E+00  0.689725637436E+00  0.143294090565E-01
  0.190640807385E+00  0.940178275108E+00 -0.142777052053E-01
  0.190640807385E+00  0.940178275108E+00  0.142777052053E-01
  0.190643586096E+00  0.119668114185E+01 -0.142459443984E-01
  0.190643586096E+00  0.119668114185E+01  0.142459443984E-01
  0.190644480696E+00  0.145621216297E+01 -0.142357190716E-01
  0.190644480696E+00  0.145621216297E+01  0.142357190716E-01
  0.190643446174E+00  0.171560299397E+01 -0.142475437125E-01
  0.190643446174E+00  0.171560299397E+01  0.142475437125E-01
  0.190640536323E+00  0.197169232368E+01 -0.142808034669E-01
  0.190640536323E+00  0.197169232368E+01  0.142808034669E-01
  0.190635898251E+00  0.222147774696E+01 -0.143338168751E-01
  0.190635898251E+00  0.222147774696E+01  0.143338168751E-01
  0.190629757966E+00  0.246225214005E+01 -0.144040006542E-01
  0.190629757966E+00  0.246225214005E+01  0.144040006542E-01
  0.190622399387E+00  0.269171094894E+01 -0.144881095980E-01
  0.190622399387E+00  0.269171094894E+01  0.144881095980E-01
  0.190614139635E+00  0.290802383423E+01 -0.145825190040E-01
  0.190614139635E+00  0.290802383423E+01  0.145825190040E-01
  0.190605304110E+00  0.310986590385E+01 -0.146835095219E-01
  0.190605304110E+00  0.310986590385E+01  0.146835095219E-01
  0.190596204576E+00  0.329641318321E+01 -0.147875176743E-01
  0.190596204576E+00  0.329641318321E+01  0.147875176743E-01
  0.190587121410E+00  0.346730756760E+01 -0.148913387449E-01
  0.190587121410E+00  0.346730756760E+01  0.148913387449E-01
  0.190578291561E+00  0.362259936333E+01 -0.149922643858E-01
  0.190578291561E+00  0.362259936333E+01  0.149922643858E-01
  0.190569902593E+00  0.376267743111E+01 -0.150881507315E-01
  0.190569902593E+00  0.376267743111E+01  0.150881507315E-01
  0.190562090635E+00  0.388819599152E+01 -0.151774418214E-01
  0.190562090635E+00  0.388819599152E+01  0.151774418214E-01
  0.190534290081E+00  0.399976796102E+01 -0.154952050037E-01
  0.190534290081E+00  0.399976796102E+01  0.154952050037E-01
  0.190512351166E+00  0.401113143599E+01 -0.111316370339E-01
  0.190512351166E+00  0.401113143599E+01  0.111316370339E-01
  0.190505425757E+00  0.401582515114E+01 -0.268219081496E-17
  0.330039544037E+00  0.000000000000E+00 -0.264841781860E-01
  0.330039544037E+00  0.000000000000E+00  0.264841781860E-01
  0.330040409116E+00  0.217527970672E+00 -0.264742901773E-01
  0.330040409116E+00  0.217527970672E+00  0.264742901773E-01
  0.330047469038E+00  0.448061168194E+00 -0.263935949007E-01
  0.330047469038E+00  0.448061168194E+00  0.263935949007E-01
  0.330053335330E+00  0.689725637436E+00 -0.263265428815E-01
  0.330053335330E+00  0.689725637436E+00  0.263265428815E-01
  0.330057728574E+00  0.940178275108E+00 -0.262763278701E-01
  0.330057728574E+00  0.940178275108E+00  0.262763278701E-01
  0.330060428946E+00  0.119668114185E+01 -0.262454624787E-01
  0.330060428946E+00  0.119668114185E+01  0.262454624787E-01
[...]
POINT_DATA                 446
SCALARS index float 1
LOOKUP_TABLE default
  0.100000000000E+01
  0.200000000000E+01
  0.300000000000E+01
  0.400000000000E+01
  0.500000000000E+01
  0.600000000000E+01
  0.700000000000E+01
  0.800000000000E+01
  0.900000000000E+01
  0.100000000000E+02
  0.110000000000E+02
  0.120000000000E+02
  0.130000000000E+02
  0.140000000000E+02
  0.150000000000E+02
  0.160000000000E+02
  0.170000000000E+02
  0.180000000000E+02
  0.190000000000E+02
  0.200000000000E+02
  0.210000000000E+02
  0.220000000000E+02
  0.230000000000E+02
  0.240000000000E+02
  0.250000000000E+02
  0.260000000000E+02
  0.270000000000E+02
  0.280000000000E+02
  0.290000000000E+02
  0.300000000000E+02
  0.310000000000E+02
  0.320000000000E+02
  0.330000000000E+02
  0.340000000000E+02
  0.350000000000E+02
  0.360000000000E+02
  0.370000000000E+02
  0.380000000000E+02
  0.390000000000E+02
  0.400000000000E+02
  0.410000000000E+02
  0.420000000000E+02
  0.430000000000E+02
  0.440000000000E+02
  0.450000000000E+02
  0.460000000000E+02
  0.470000000000E+02
  0.480000000000E+02
  0.490000000000E+02
  0.500000000000E+02
  0.510000000000E+02
  0.520000000000E+02
  0.530000000000E+02
  0.540000000000E+02
  0.550000000000E+02
  0.560000000000E+02
  0.570000000000E+02
  0.580000000000E+02
  0.590000000000E+02
  0.600000000000E+02
  0.610000000000E+02
  0.620000000000E+02
  0.630000000000E+02
  0.640000000000E+02
  0.650000000000E+02
  0.660000000000E+02
  0.670000000000E+02
  0.680000000000E+02
  0.690000000000E+02
  0.700000000000E+02
  0.710000000000E+02
  0.720000000000E+02
  0.730000000000E+02
  0.740000000000E+02
  0.750000000000E+02
  0.760000000000E+02
  0.770000000000E+02
  0.780000000000E+02
  0.790000000000E+02
  0.800000000000E+02
  0.810000000000E+02
  0.820000000000E+02
  0.830000000000E+02
  0.840000000000E+02
  0.850000000000E+02
  0.860000000000E+02
  0.870000000000E+02
  0.880000000000E+02
  0.890000000000E+02
  0.900000000000E+02
  0.910000000000E+02
  0.920000000000E+02
  0.930000000000E+02
  0.940000000000E+02
  0.950000000000E+02
  0.960000000000E+02
  0.970000000000E+02
  0.980000000000E+02
  0.990000000000E+02
  0.100000000000E+03
  0.101000000000E+03
  0.102000000000E+03
  0.103000000000E+03
  0.104000000000E+03
  0.105000000000E+03
  0.106000000000E+03
  0.107000000000E+03
  0.108000000000E+03
  0.109000000000E+03
  0.110000000000E+03
  0.111000000000E+03
  0.112000000000E+03
  0.113000000000E+03
  0.114000000000E+03
  0.115000000000E+03
  0.116000000000E+03
  0.117000000000E+03
  0.118000000000E+03
  0.119000000000E+03
  0.120000000000E+03
  0.121000000000E+03
  0.122000000000E+03
  0.123000000000E+03
  0.124000000000E+03
  0.125000000000E+03
  0.126000000000E+03
  0.127000000000E+03
  0.128000000000E+03
  0.129000000000E+03
  0.130000000000E+03
  0.131000000000E+03
  0.132000000000E+03
  0.133000000000E+03
  0.134000000000E+03
  0.135000000000E+03
  0.136000000000E+03
  0.137000000000E+03
  0.138000000000E+03
  0.139000000000E+03
  0.140000000000E+03
  0.141000000000E+03
  0.142000000000E+03
  0.143000000000E+03
  0.144000000000E+03
  0.145000000000E+03
  0.146000000000E+03
  0.147000000000E+03
  0.148000000000E+03
  0.149000000000E+03
  0.150000000000E+03
  0.151000000000E+03
  0.152000000000E+03
  0.153000000000E+03
  0.154000000000E+03
  0.155000000000E+03
  0.156000000000E+03
  0.157000000000E+03
  0.158000000000E+03
  0.159000000000E+03
  0.160000000000E+03
  0.161000000000E+03
  0.162000000000E+03
  0.163000000000E+03
  0.164000000000E+03
  0.165000000000E+03
  0.166000000000E+03
  0.167000000000E+03
  0.168000000000E+03
  0.169000000000E+03
  0.170000000000E+03
  0.171000000000E+03
  0.172000000000E+03
  0.173000000000E+03
  0.174000000000E+03
  0.175000000000E+03
  0.176000000000E+03
  0.177000000000E+03
  0.178000000000E+03
  0.179000000000E+03
  0.180000000000E+03
  0.181000000000E+03
  0.182000000000E+03
  0.183000000000E+03
  0.184000000000E+03
  0.185000000000E+03
  0.186000000000E+03
  0.187000000000E+03
  0.188000000000E+03
  0.189000000000E+03
  0.190000000000E+03
  0.191000000000E+03
  0.192000000000E+03
  0.193000000000E+03
  0.194000000000E+03
  0.195000000000E+03
  0.196000000000E+03
  0.197000000000E+03
  0.198000000000E+03
  0.199000000000E+03
  0.200000000000E+03
  0.201000000000E+03
  0.202000000000E+03
  0.203000000000E+03
  0.204000000000E+03
  0.205000000000E+03
  0.206000000000E+03
  0.207000000000E+03
  0.208000000000E+03
  0.209000000000E+03
  0.210000000000E+03
  0.211000000000E+03
  0.212000000000E+03
  0.213000000000E+03
  0.214000000000E+03
  0.215000000000E+03
  0.216000000000E+03
  0.217000000000E+03
  0.218000000000E+03
  0.219000000000E+03
  0.220000000000E+03
  0.221000000000E+03
  0.222000000000E+03
  0.223000000000E+03
  0.224000000000E+03
  0.225000000000E+03
  0.226000000000E+03
  0.227000000000E+03
  0.228000000000E+03
  0.229000000000E+03
  0.230000000000E+03
  0.231000000000E+03
  0.232000000000E+03
  0.233000000000E+03
  0.234000000000E+03
  0.235000000000E+03
  0.236000000000E+03
  0.237000000000E+03
  0.238000000000E+03
  0.239000000000E+03
  0.240000000000E+03
  0.241000000000E+03
  0.242000000000E+03
  0.243000000000E+03
  0.244000000000E+03
  0.245000000000E+03
  0.246000000000E+03
  0.247000000000E+03
  0.248000000000E+03
  0.249000000000E+03
  0.250000000000E+03
  0.251000000000E+03
  0.252000000000E+03
  0.253000000000E+03
  0.254000000000E+03
  0.255000000000E+03
  0.256000000000E+03
  0.257000000000E+03
  0.258000000000E+03
  0.259000000000E+03
  0.260000000000E+03
  0.261000000000E+03
  0.262000000000E+03
  0.263000000000E+03
  0.264000000000E+03
  0.265000000000E+03
  0.266000000000E+03
  0.267000000000E+03
  0.268000000000E+03
  0.269000000000E+03
  0.270000000000E+03
  0.271000000000E+03
  0.272000000000E+03
  0.273000000000E+03
  0.274000000000E+03
  0.275000000000E+03
  0.276000000000E+03
  0.277000000000E+03
  0.278000000000E+03
  0.279000000000E+03
  0.280000000000E+03
  0.281000000000E+03
  0.282000000000E+03
  0.283000000000E+03
  0.284000000000E+03
  0.285000000000E+03
  0.286000000000E+03
  0.287000000000E+03
  0.288000000000E+03
  0.289000000000E+03
  0.290000000000E+03
  0.291000000000E+03
  0.292000000000E+03
  0.293000000000E+03
  0.294000000000E+03
  0.295000000000E+03
  0.296000000000E+03
  0.297000000000E+03
  0.298000000000E+03
  0.299000000000E+03
  0.300000000000E+03
  0.301000000000E+03
  0.302000000000E+03
  0.303000000000E+03
  0.304000000000E+03
  0.305000000000E+03
  0.306000000000E+03
  0.307000000000E+03
  0.308000000000E+03
  0.309000000000E+03
  0.310000000000E+03
  0.311000000000E+03
  0.312000000000E+03
  0.313000000000E+03
  0.314000000000E+03
  0.315000000000E+03
  0.316000000000E+03
  0.317000000000E+03
  0.318000000000E+03
  0.319000000000E+03
  0.320000000000E+03
  0.321000000000E+03
  0.322000000000E+03
  0.323000000000E+03
  0.324000000000E+03
  0.325000000000E+03
  0.326000000000E+03
  0.327000000000E+03
  0.328000000000E+03
  0.329000000000E+03
  0.330000000000E+03
  0.331000000000E+03
  0.332000000000E+03
  0.333000000000E+03
  0.334000000000E+03
  0.335000000000E+03
  0.336000000000E+03
  0.337000000000E+03
  0.338000000000E+03
  0.339000000000E+03
  0.340000000000E+03
  0.341000000000E+03
  0.342000000000E+03
  0.343000000000E+03
  0.344000000000E+03
  0.345000000000E+03
  0.346000000000E+03
  0.347000000000E+03
  0.348000000000E+03
  0.349000000000E+03
  0.350000000000E+03
  0.351000000000E+03
  0.352000000000E+03
  0.353000000000E+03
  0.354000000000E+03
  0.355000000000E+03
  0.356000000000E+03
  0.357000000000E+03
  0.358000000000E+03
  0.359000000000E+03
  0.360000000000E+03
  0.361000000000E+03
  0.362000000000E+03
  0.363000000000E+03
  0.364000000000E+03
  0.365000000000E+03
  0.366000000000E+03
  0.367000000000E+03
  0.368000000000E+03
  0.369000000000E+03
  0.370000000000E+03
  0.371000000000E+03
  0.372000000000E+03
  0.373000000000E+03
  0.374000000000E+03
  0.375000000000E+03
  0.376000000000E+03
  0.377000000000E+03
  0.378000000000E+03
  0.379000000000E+03
  0.380000000000E+03
  0.381000000000E+03
  0.382000000000E+03
  0.383000000000E+03
  0.384000000000E+03
  0.385000000000E+03
  0.386000000000E+03
  0.387000000000E+03
  0.388000000000E+03
  0.389000000000E+03
  0.390000000000E+03
  0.391000000000E+03
  0.392000000000E+03
  0.393000000000E+03
  0.394000000000E+03
  0.395000000000E+03
  0.396000000000E+03
  0.397000000000E+03
  0.398000000000E+03
  0.399000000000E+03
  0.400000000000E+03
  0.401000000000E+03
  0.402000000000E+03
  0.403000000000E+03
  0.404000000000E+03
  0.405000000000E+03
  0.406000000000E+03
  0.407000000000E+03
  0.408000000000E+03
  0.409000000000E+03
  0.410000000000E+03
  0.411000000000E+03
  0.412000000000E+03
  0.413000000000E+03
  0.414000000000E+03
  0.415000000000E+03
  0.416000000000E+03
  0.417000000000E+03
  0.418000000000E+03
  0.419000000000E+03
  0.420000000000E+03
  0.421000000000E+03
  0.422000000000E+03
  0.423000000000E+03
  0.424000000000E+03
  0.425000000000E+03
  0.426000000000E+03
  0.427000000000E+03
  0.428000000000E+03
  0.429000000000E+03
  0.430000000000E+03
  0.431000000000E+03
  0.432000000000E+03
  0.433000000000E+03
  0.434000000000E+03
  0.435000000000E+03
  0.436000000000E+03
  0.437000000000E+03
  0.438000000000E+03
  0.439000000000E+03
  0.440000000000E+03
  0.441000000000E+03
  0.442000000000E+03
  0.443000000000E+03
  0.444000000000E+03
  0.445000000000E+03
  0.446000000000E+03
