# vtk DataFile Version 3.0
MachLine results file. Generated by MachLine, USU AeroLab (c) 2022.
ASCII
DATASET POLYDATA
POINTS                 446 float
  0.000000000000E+00  0.000000000000E+00  0.000000000000E+00
  0.000000000000E+00  0.217527970672E+00  0.000000000000E+00
  0.000000000000E+00  0.448061168194E+00  0.000000000000E+00
  0.000000000000E+00  0.689725637436E+00  0.000000000000E+00
  0.000000000000E+00  0.940178275108E+00  0.000000000000E+00
  0.000000000000E+00  0.119668114185E+01  0.000000000000E+00
  0.000000000000E+00  0.145621216297E+01  0.000000000000E+00
  0.000000000000E+00  0.171560299397E+01  0.000000000000E+00
  0.000000000000E+00  0.197169232368E+01  0.000000000000E+00
  0.000000000000E+00  0.222147774696E+01  0.000000000000E+00
  0.000000000000E+00  0.246225214005E+01  0.000000000000E+00
  0.000000000000E+00  0.269171094894E+01  0.000000000000E+00
  0.000000000000E+00  0.290802383423E+01  0.000000000000E+00
  0.000000000000E+00  0.310986590385E+01  0.000000000000E+00
  0.000000000000E+00  0.329641318321E+01  0.000000000000E+00
  0.000000000000E+00  0.346730756760E+01  0.000000000000E+00
  0.000000000000E+00  0.362259936333E+01  0.000000000000E+00
  0.000000000000E+00  0.376267743111E+01  0.000000000000E+00
  0.000000000000E+00  0.388819599152E+01  0.000000000000E+00
  0.000000000000E+00  0.400000000000E+01  0.000000000000E+00
  0.341100133955E-01  0.000000000000E+00 -0.298423948698E-02
  0.341100133955E-01  0.000000000000E+00  0.298423948698E-02
  0.341100133955E-01  0.217527970672E+00 -0.298423948698E-02
  0.341100133955E-01  0.217527970672E+00  0.298423948698E-02
  0.341100133955E-01  0.448061168194E+00 -0.298423948698E-02
  0.341100133955E-01  0.448061168194E+00  0.298423948698E-02
  0.341100133955E-01  0.689725637436E+00 -0.298423948698E-02
  0.341100133955E-01  0.689725637436E+00  0.298423948698E-02
  0.341100133955E-01  0.940178275108E+00 -0.298423948698E-02
  0.341100133955E-01  0.940178275108E+00  0.298423948698E-02
  0.341100133955E-01  0.119668114185E+01 -0.298423948698E-02
  0.341100133955E-01  0.119668114185E+01  0.298423948698E-02
  0.341100133955E-01  0.145621216297E+01 -0.298423948698E-02
  0.341100133955E-01  0.145621216297E+01  0.298423948698E-02
  0.341100133955E-01  0.171560299397E+01 -0.298423948698E-02
  0.341100133955E-01  0.171560299397E+01  0.298423948698E-02
  0.341100133955E-01  0.197169232368E+01 -0.298423948698E-02
  0.341100133955E-01  0.197169232368E+01  0.298423948698E-02
  0.341100133955E-01  0.222147774696E+01 -0.298423948698E-02
  0.341100133955E-01  0.222147774696E+01  0.298423948698E-02
  0.341100133955E-01  0.246225214005E+01 -0.298423948698E-02
  0.341100133955E-01  0.246225214005E+01  0.298423948698E-02
  0.341100133955E-01  0.269171094894E+01 -0.298423948698E-02
  0.341100133955E-01  0.269171094894E+01  0.298423948698E-02
  0.341100133955E-01  0.290802383423E+01 -0.298423948698E-02
  0.341100133955E-01  0.290802383423E+01  0.298423948698E-02
  0.341100133955E-01  0.310986590385E+01 -0.298423948698E-02
  0.341100133955E-01  0.310986590385E+01  0.298423948698E-02
  0.341100133955E-01  0.329641318321E+01 -0.298423948698E-02
  0.341100133955E-01  0.329641318321E+01  0.298423948698E-02
  0.341100133955E-01  0.346730756760E+01 -0.298423948698E-02
  0.341100133955E-01  0.346730756760E+01  0.298423948698E-02
  0.341100133955E-01  0.362259936333E+01 -0.298423948698E-02
  0.341100133955E-01  0.362259936333E+01  0.298423948698E-02
  0.341100133955E-01  0.376267743111E+01 -0.298423948698E-02
  0.341100133955E-01  0.376267743111E+01  0.298423948698E-02
  0.341100133955E-01  0.388819599152E+01 -0.298423948698E-02
  0.341100133955E-01  0.388819599152E+01  0.298423948698E-02
  0.341100133955E-01  0.400000000000E+01 -0.298423948698E-02
  0.341100133955E-01  0.400000000000E+01  0.298423948698E-02
  0.341100133955E-01  0.400210952759E+01 -0.210976228118E-02
  0.341100133955E-01  0.400210952759E+01  0.210976228118E-02
  0.341100133955E-01  0.400298404694E+01  0.000000000000E+00
  0.937237665057E-01  0.000000000000E+00 -0.819976720959E-02
  0.937237665057E-01  0.000000000000E+00  0.819976720959E-02
  0.937237665057E-01  0.217527970672E+00 -0.819976720959E-02
  0.937237665057E-01  0.217527970672E+00  0.819976720959E-02
  0.937237665057E-01  0.448061168194E+00 -0.819976720959E-02
  0.937237665057E-01  0.448061168194E+00  0.819976720959E-02
  0.937237665057E-01  0.689725637436E+00 -0.819976720959E-02
  0.937237665057E-01  0.689725637436E+00  0.819976720959E-02
  0.937237665057E-01  0.940178275108E+00 -0.819976720959E-02
  0.937237665057E-01  0.940178275108E+00  0.819976720959E-02
  0.937237665057E-01  0.119668114185E+01 -0.819976720959E-02
  0.937237665057E-01  0.119668114185E+01  0.819976720959E-02
  0.937237665057E-01  0.145621216297E+01 -0.819976720959E-02
  0.937237665057E-01  0.145621216297E+01  0.819976720959E-02
  0.937237665057E-01  0.171560299397E+01 -0.819976720959E-02
  0.937237665057E-01  0.171560299397E+01  0.819976720959E-02
  0.937237665057E-01  0.197169232368E+01 -0.819976720959E-02
  0.937237665057E-01  0.197169232368E+01  0.819976720959E-02
  0.937237665057E-01  0.222147774696E+01 -0.819976720959E-02
  0.937237665057E-01  0.222147774696E+01  0.819976720959E-02
  0.937237665057E-01  0.246225214005E+01 -0.819976720959E-02
  0.937237665057E-01  0.246225214005E+01  0.819976720959E-02
  0.937237665057E-01  0.269171094894E+01 -0.819976720959E-02
  0.937237665057E-01  0.269171094894E+01  0.819976720959E-02
  0.937237665057E-01  0.290802383423E+01 -0.819976720959E-02
  0.937237665057E-01  0.290802383423E+01  0.819976720959E-02
  0.937237665057E-01  0.310986590385E+01 -0.819976720959E-02
  0.937237665057E-01  0.310986590385E+01  0.819976720959E-02
  0.937237665057E-01  0.329641318321E+01 -0.819976720959E-02
  0.937237665057E-01  0.329641318321E+01  0.819976720959E-02
  0.937237665057E-01  0.346730756760E+01 -0.819976720959E-02
  0.937237665057E-01  0.346730756760E+01  0.819976720959E-02
  0.937237665057E-01  0.362259936333E+01 -0.819976720959E-02
  0.937237665057E-01  0.362259936333E+01  0.819976720959E-02
  0.937237665057E-01  0.376267743111E+01 -0.819976720959E-02
  0.937237665057E-01  0.376267743111E+01  0.819976720959E-02
  0.937237665057E-01  0.388819599152E+01 -0.819976720959E-02
  0.937237665057E-01  0.388819599152E+01  0.819976720959E-02
  0.937237665057E-01  0.400000000000E+01 -0.819976720959E-02
  0.937237665057E-01  0.400000000000E+01  0.819976720959E-02
  0.937237665057E-01  0.400579690933E+01 -0.579697405919E-02
  0.937237665057E-01  0.400579690933E+01  0.579697405919E-02
  0.937237665057E-01  0.400819969177E+01  0.000000000000E+00
  0.190432325006E+00  0.000000000000E+00 -0.166606698185E-01
  0.190432325006E+00  0.000000000000E+00  0.166606698185E-01
  0.190432325006E+00  0.217527970672E+00 -0.166606698185E-01
  0.190432325006E+00  0.217527970672E+00  0.166606698185E-01
  0.190432325006E+00  0.448061168194E+00 -0.166606698185E-01
  0.190432325006E+00  0.448061168194E+00  0.166606698185E-01
  0.190432325006E+00  0.689725637436E+00 -0.166606698185E-01
  0.190432325006E+00  0.689725637436E+00  0.166606698185E-01
  0.190432325006E+00  0.940178275108E+00 -0.166606698185E-01
  0.190432325006E+00  0.940178275108E+00  0.166606698185E-01
  0.190432325006E+00  0.119668114185E+01 -0.166606698185E-01
  0.190432325006E+00  0.119668114185E+01  0.166606698185E-01
  0.190432325006E+00  0.145621216297E+01 -0.166606698185E-01
  0.190432325006E+00  0.145621216297E+01  0.166606698185E-01
  0.190432325006E+00  0.171560299397E+01 -0.166606698185E-01
  0.190432325006E+00  0.171560299397E+01  0.166606698185E-01
  0.190432325006E+00  0.197169232368E+01 -0.166606698185E-01
  0.190432325006E+00  0.197169232368E+01  0.166606698185E-01
  0.190432325006E+00  0.222147774696E+01 -0.166606698185E-01
  0.190432325006E+00  0.222147774696E+01  0.166606698185E-01
  0.190432325006E+00  0.246225214005E+01 -0.166606698185E-01
  0.190432325006E+00  0.246225214005E+01  0.166606698185E-01
  0.190432325006E+00  0.269171094894E+01 -0.166606698185E-01
  0.190432325006E+00  0.269171094894E+01  0.166606698185E-01
  0.190432325006E+00  0.290802383423E+01 -0.166606698185E-01
  0.190432325006E+00  0.290802383423E+01  0.166606698185E-01
  0.190432325006E+00  0.310986590385E+01 -0.166606698185E-01
  0.190432325006E+00  0.310986590385E+01  0.166606698185E-01
  0.190432325006E+00  0.329641318321E+01 -0.166606698185E-01
  0.190432325006E+00  0.329641318321E+01  0.166606698185E-01
  0.190432325006E+00  0.346730756760E+01 -0.166606698185E-01
  0.190432325006E+00  0.346730756760E+01  0.166606698185E-01
  0.190432325006E+00  0.362259936333E+01 -0.166606698185E-01
  0.190432325006E+00  0.362259936333E+01  0.166606698185E-01
  0.190432325006E+00  0.376267743111E+01 -0.166606698185E-01
  0.190432325006E+00  0.376267743111E+01  0.166606698185E-01
  0.190432325006E+00  0.388819599152E+01 -0.166606698185E-01
  0.190432325006E+00  0.388819599152E+01  0.166606698185E-01
  0.190432325006E+00  0.400000000000E+01 -0.166606698185E-01
  0.190432325006E+00  0.400000000000E+01  0.166606698185E-01
  0.190432325006E+00  0.401177835464E+01 -0.117785623297E-01
  0.190432325006E+00  0.401177835464E+01  0.117785623297E-01
  0.190432325006E+00  0.401666069031E+01 -0.272416755980E-17
  0.329831987619E+00  0.000000000000E+00 -0.288565587252E-01
  0.329831987619E+00  0.000000000000E+00  0.288565587252E-01
  0.329831987619E+00  0.217527970672E+00 -0.288565587252E-01
  0.329831987619E+00  0.217527970672E+00  0.288565587252E-01
  0.329831987619E+00  0.448061168194E+00 -0.288565587252E-01
  0.329831987619E+00  0.448061168194E+00  0.288565587252E-01
  0.329831987619E+00  0.689725637436E+00 -0.288565587252E-01
  0.329831987619E+00  0.689725637436E+00  0.288565587252E-01
  0.329831987619E+00  0.940178275108E+00 -0.288565587252E-01
  0.329831987619E+00  0.940178275108E+00  0.288565587252E-01
  0.329831987619E+00  0.119668114185E+01 -0.288565587252E-01
  0.329831987619E+00  0.119668114185E+01  0.288565587252E-01
[...]
CELL_DATA                 832
SCALARS C_p_ise float 1
LOOKUP_TABLE default
 -0.866637711477E-01
 -0.866638072797E-01
 -0.866637757702E-01
 -0.866637764138E-01
 -0.866638031283E-01
 -0.866638032882E-01
 -0.866637853245E-01
 -0.866637853279E-01
 -0.866637839754E-01
 -0.866637840043E-01
  0.116357295745E+00
  0.116357295734E+00
  0.116357261125E+00
  0.116357261158E+00
  0.116357275936E+00
  0.116357275936E+00
  0.116357278180E+00
  0.116357278180E+00
  0.116357274884E+00
  0.116357274884E+00
  0.116357274884E+00
  0.116357274884E+00
  0.116357278180E+00
  0.116357278180E+00
  0.116357275936E+00
  0.116357275936E+00
  0.116357261158E+00
  0.116357261186E+00
  0.116357295753E+00
  0.116357295774E+00
 -0.866637839310E-01
 -0.866637839205E-01
 -0.866637850654E-01
 -0.866637851174E-01
 -0.866638020645E-01
 -0.866638021683E-01
 -0.866637699306E-01
 -0.866637706175E-01
 -0.866637789154E-01
 -0.866638150276E-01
 -0.866638272172E-01
 -0.866637711477E-01
 -0.866637744176E-01
 -0.866637757702E-01
 -0.866638028395E-01
 -0.866638031283E-01
 -0.866637852692E-01
 -0.866637853245E-01
 -0.866637839436E-01
 -0.866637839754E-01
  0.116357295734E+00
  0.116357295740E+00
  0.116357261158E+00
  0.116357261158E+00
  0.116357275936E+00
  0.116357275936E+00
  0.116357278180E+00
  0.116357278180E+00
  0.116357274884E+00
  0.116357274884E+00
  0.116357274884E+00
  0.116357274884E+00
  0.116357278180E+00
  0.116357278180E+00
  0.116357275936E+00
  0.116357275936E+00
  0.116357261158E+00
  0.116357261158E+00
  0.116357295740E+00
  0.116357295753E+00
 -0.866637839205E-01
 -0.866637839344E-01
 -0.866637851174E-01
 -0.866637851989E-01
 -0.866638021683E-01
 -0.866638024303E-01
 -0.866637706175E-01
 -0.866637719919E-01
 -0.866638150276E-01
 -0.866637589529E-01
 -0.866638110471E-01
 -0.866638272172E-01
 -0.866637735496E-01
 -0.866637744176E-01
 -0.866638026905E-01
 -0.866638028395E-01
 -0.866637852392E-01
 -0.866637852692E-01
 -0.866637839393E-01
 -0.866637839436E-01
  0.116357295740E+00
  0.116357295740E+00
  0.116357261158E+00
  0.116357261158E+00
  0.116357275936E+00
  0.116357275936E+00
  0.116357278180E+00
  0.116357278180E+00
  0.116357274884E+00
  0.116357274884E+00
  0.116357274884E+00
  0.116357274884E+00
  0.116357278180E+00
  0.116357278180E+00
  0.116357275936E+00
  0.116357275936E+00
  0.116357261158E+00
  0.116357261158E+00
  0.116357295740E+00
  0.116357295740E+00
 -0.866637839344E-01
 -0.866637839386E-01
 -0.866637851989E-01
 -0.866637852274E-01
 -0.866638024303E-01
 -0.866638025901E-01
 -0.866637719919E-01
 -0.866637728353E-01
 -0.866637589529E-01
 -0.866637751428E-01
 -0.866638011222E-01
 -0.866638110471E-01
 -0.866637732608E-01
 -0.866637735496E-01
 -0.866638026591E-01
 -0.866638026905E-01
 -0.866637852315E-01
 -0.866637852392E-01
 -0.866637839388E-01
 -0.866637839393E-01
  0.116357295740E+00
  0.116357295739E+00
  0.116357261158E+00
  0.116357261158E+00
  0.116357275936E+00
  0.116357275936E+00
  0.116357278180E+00
  0.116357278180E+00
  0.116357274884E+00
  0.116357274884E+00
  0.116357274884E+00
  0.116357274884E+00
  0.116357278180E+00
  0.116357278180E+00
  0.116357275936E+00
  0.116357275936E+00
  0.116357261158E+00
  0.116357261158E+00
  0.116357295739E+00
  0.116357295740E+00
 -0.866637839386E-01
 -0.866637839388E-01
 -0.866637852274E-01
 -0.866637852300E-01
 -0.866638025901E-01
 -0.866638026414E-01
 -0.866637728353E-01
 -0.866637730830E-01
 -0.866637751428E-01
 -0.866637851001E-01
 -0.866638263434E-01
 -0.866638011222E-01
 -0.866637734444E-01
 -0.866637732608E-01
 -0.866638026817E-01
 -0.866638026591E-01
 -0.866637852303E-01
 -0.866637852315E-01
 -0.866637839389E-01
 -0.866637839388E-01
  0.116357295739E+00
  0.116357295739E+00
  0.116357261158E+00
  0.116357261158E+00
  0.116357275936E+00
  0.116357275936E+00
  0.116357278180E+00
  0.116357278180E+00
  0.116357274884E+00
  0.116357274884E+00
  0.116357274884E+00
  0.116357274884E+00
  0.116357278180E+00
  0.116357278180E+00
  0.116357275936E+00
  0.116357275936E+00
  0.116357261158E+00
  0.116357261158E+00
  0.116357295739E+00
  0.116357295739E+00
 -0.866637839388E-01
 -0.866637839389E-01
 -0.866637852300E-01
 -0.866637852302E-01
 -0.866638026414E-01
 -0.866638026249E-01
 -0.866637730830E-01
 -0.866637728863E-01
 -0.866637851001E-01
 -0.866637598880E-01
 -0.866637657200E-01
 -0.866638263434E-01
 -0.866637747506E-01
 -0.866637734444E-01
 -0.866638029802E-01
 -0.866638026817E-01
 -0.866637852686E-01
 -0.866637852303E-01
 -0.866637839389E-01
 -0.866637839389E-01
  0.116357295739E+00
  0.116357295739E+00
  0.116357261158E+00
  0.116357261158E+00
  0.116357275936E+00
  0.116357275936E+00
  0.116357278180E+00
  0.116357278180E+00
  0.116357274884E+00
  0.116357274884E+00
  0.116357274884E+00
  0.116357274884E+00
  0.116357278180E+00
  0.116357278180E+00
  0.116357275936E+00
  0.116357275936E+00
  0.116357261158E+00
  0.116357261158E+00
  0.116357295739E+00
  0.116357295739E+00
 -0.866637839389E-01
 -0.866637839389E-01
 -0.866637852302E-01
 -0.866637851706E-01
 -0.866638026249E-01
 -0.866638023847E-01
 -0.866637728863E-01
 -0.866637715191E-01
 -0.866637598880E-01
 -0.866638205398E-01
 -0.866637952719E-01
 -0.866637657200E-01
 -0.866637761108E-01
 -0.866637747506E-01
 -0.866638033790E-01
 -0.866638029802E-01
 -0.866637852689E-01
 -0.866637852686E-01
 -0.866637840751E-01
 -0.866637839389E-01
  0.116357295739E+00
  0.116357295739E+00
  0.116357261158E+00
  0.116357261158E+00
  0.116357275936E+00
  0.116357275936E+00
  0.116357278180E+00
  0.116357278180E+00
  0.116357274884E+00
  0.116357274884E+00
  0.116357274884E+00
  0.116357274884E+00
  0.116357278180E+00
  0.116357278180E+00
  0.116357275936E+00
  0.116357275936E+00
  0.116357261158E+00
  0.116357261158E+00
  0.116357295739E+00
  0.116357295739E+00
 -0.866637839389E-01
 -0.866637838192E-01
 -0.866637851706E-01
 -0.866637850644E-01
 -0.866638023847E-01
 -0.866638021721E-01
 -0.866637715191E-01
 -0.866637700246E-01
 -0.866638205398E-01
 -0.866637910446E-01
 -0.866637870226E-01
 -0.866637952719E-01
 -0.866637749007E-01
 -0.866637761108E-01
 -0.866638029624E-01
 -0.866638033790E-01
 -0.866637852799E-01
 -0.866637852689E-01
 -0.866637839514E-01
 -0.866637840751E-01
  0.116357295739E+00
  0.116357295739E+00
  0.116357261158E+00
  0.116357261158E+00
  0.116357275936E+00
  0.116357275936E+00
  0.116357278180E+00
  0.116357278180E+00
  0.116357274884E+00
  0.116357274884E+00
  0.116357274884E+00
  0.116357274884E+00
  0.116357278180E+00
  0.116357278180E+00
  0.116357275936E+00
  0.116357275936E+00
  0.116357261158E+00
  0.116357261158E+00
  0.116357295739E+00
  0.116357295739E+00
 -0.866637838192E-01
 -0.866637839100E-01
 -0.866637850644E-01
 -0.866637851996E-01
 -0.866638021721E-01
 -0.866638023413E-01
 -0.866637700246E-01
 -0.866637714439E-01
 -0.866637910446E-01
 -0.866637991951E-01
 -0.866637659146E-01
 -0.866637870226E-01
 -0.866637737006E-01
 -0.866637749007E-01
 -0.866638027297E-01
 -0.866638029624E-01
 -0.866637852396E-01
 -0.866637852799E-01
 -0.866637839393E-01
 -0.866637839514E-01
  0.116357295739E+00
  0.116357295740E+00
  0.116357261158E+00
  0.116357261158E+00
  0.116357275936E+00
  0.116357275936E+00
  0.116357278180E+00
  0.116357278180E+00
  0.116357274884E+00
  0.116357274884E+00
  0.116357274884E+00
  0.116357274884E+00
  0.116357278180E+00
  0.116357278180E+00
  0.116357275936E+00
  0.116357275936E+00
  0.116357261158E+00
  0.116357261158E+00
  0.116357295740E+00
  0.116357295739E+00
 -0.866637839100E-01
 -0.866637839364E-01
 -0.866637851996E-01
 -0.866637852251E-01
 -0.866638023413E-01
 -0.866638025788E-01
 -0.866637714439E-01
 -0.866637726577E-01
 -0.866637991951E-01
 -0.866638202909E-01
 -0.866638202694E-01
 -0.866637659146E-01
 -0.866637731950E-01
 -0.866637737006E-01
 -0.866638025378E-01
 -0.866638027297E-01
 -0.866637852037E-01
 -0.866637852396E-01
 -0.866637839461E-01
 -0.866637839393E-01
  0.116357295740E+00
  0.116357295729E+00
  0.116357261158E+00
  0.116357261157E+00
  0.116357275936E+00
  0.116357275936E+00
  0.116357278180E+00
  0.116357278180E+00
  0.116357274884E+00
  0.116357274884E+00
  0.116357274884E+00
  0.116357274884E+00
  0.116357278180E+00
  0.116357278180E+00
  0.116357275936E+00
  0.116357275936E+00
  0.116357261157E+00
  0.116357261158E+00
  0.116357295729E+00
  0.116357295740E+00
 -0.866637839364E-01
 -0.866637839475E-01
 -0.866637852251E-01
 -0.866637852052E-01
 -0.866638025788E-01
 -0.866638025321E-01
 -0.866637726577E-01
 -0.866637730617E-01
 -0.866638202909E-01
 -0.866637662352E-01
 -0.866637656288E-01
 -0.866638202694E-01
 -0.866637721866E-01
 -0.866637731950E-01
 -0.866638050255E-01
 -0.866638025378E-01
 -0.866637859984E-01
 -0.866637852037E-01
 -0.866637837848E-01
 -0.866637839461E-01
  0.116357295729E+00
  0.116357295940E+00
  0.116357261157E+00
  0.116357261183E+00
  0.116357275936E+00
  0.116357275933E+00
  0.116357278180E+00
  0.116357278180E+00
  0.116357274884E+00
  0.116357274884E+00
  0.116357274884E+00
  0.116357274884E+00
  0.116357278180E+00
  0.116357278180E+00
  0.116357275933E+00
  0.116357275936E+00
  0.116357261181E+00
  0.116357261157E+00
  0.116357295935E+00
  0.116357295729E+00
 -0.866637839475E-01
 -0.866637837980E-01
 -0.866637852052E-01
 -0.866637860568E-01
 -0.866638025321E-01
 -0.866638051385E-01
 -0.866637730617E-01
 -0.866637728501E-01
 -0.866637662352E-01
 -0.866638131515E-01
 -0.866639854239E-01
 -0.866637656288E-01
 -0.866638327205E-01
 -0.866637721866E-01
 -0.866637671850E-01
 -0.866638050255E-01
 -0.866637638801E-01
 -0.866637859984E-01
 -0.866637856076E-01
 -0.866637837848E-01
  0.116357295940E+00
  0.116357292162E+00
  0.116357261183E+00
  0.116357260621E+00
  0.116357275933E+00
  0.116357276013E+00
  0.116357278180E+00
  0.116357278182E+00
  0.116357274884E+00
  0.116357274884E+00
  0.116357274884E+00
  0.116357274884E+00
  0.116357278181E+00
  0.116357278180E+00
  0.116357276011E+00
  0.116357275933E+00
  0.116357260611E+00
  0.116357261181E+00
  0.116357292122E+00
  0.116357295935E+00
 -0.866637837980E-01
 -0.866637857048E-01
 -0.866637860568E-01
 -0.866637642982E-01
 -0.866638051385E-01
 -0.866637679196E-01
 -0.866637728501E-01
 -0.866638369281E-01
 -0.866638131515E-01
 -0.866637155440E-01
 -0.866643476469E-01
 -0.866639854239E-01
 -0.866620539137E-01
 -0.866638327205E-01
 -0.866635216424E-01
 -0.866637671850E-01
 -0.866642664908E-01
 -0.866637638801E-01
 -0.866637915687E-01
 -0.866637856076E-01
  0.116357292162E+00
  0.116357354374E+00
  0.116357260621E+00
  0.116357273124E+00
  0.116357276013E+00
  0.116357273925E+00
  0.116357278182E+00
  0.116357278123E+00
  0.116357274884E+00
  0.116357274883E+00
  0.116357274883E+00
  0.116357274884E+00
  0.116357278122E+00
  0.116357278181E+00
  0.116357273911E+00
  0.116357276011E+00
  0.116357273052E+00
  0.116357260611E+00
  0.116357354107E+00
  0.116357292122E+00
 -0.866637857048E-01
 -0.866637921828E-01
 -0.866637642982E-01
 -0.866642689313E-01
 -0.866637679196E-01
 -0.866635250147E-01
 -0.866638369281E-01
 -0.866617743711E-01
 -0.866637155440E-01
 -0.866628011126E-01
 -0.865889627086E-01
 -0.866643479797E-01
 -0.867385815197E-01
 -0.866620539423E-01
 -0.866916812783E-01
 -0.866635216478E-01
 -0.866589618785E-01
 -0.866642664908E-01
 -0.866625204658E-01
 -0.866637915688E-01
  0.116357354374E+00
  0.116356530037E+00
  0.116357273124E+00
  0.116357007953E+00
  0.116357273925E+00
  0.116357325587E+00
  0.116357278123E+00
  0.116357280608E+00
  0.116357274883E+00
  0.116357274911E+00
  0.116357274911E+00
  0.116357274883E+00
  0.116357280592E+00
  0.116357278122E+00
  0.116357325470E+00
  0.116357273911E+00
  0.116357007486E+00
  0.116357273052E+00
  0.116356528543E+00
  0.116357354107E+00
 -0.866637921830E-01
 -0.866625235780E-01
 -0.866642689313E-01
 -0.866589718886E-01
 -0.866635250201E-01
 -0.866905124960E-01
 -0.866617743965E-01
 -0.867386859649E-01
 -0.866628014363E-01
 -0.865898691671E-01
 -0.941108048134E-01
 -0.865889888318E-01
 -0.890820877680E-01
 -0.867389337180E-01
 -0.846734237670E-01
 -0.866916812972E-01
 -0.866245592437E-01
 -0.866589623431E-01
 -0.867108866361E-01
 -0.866625204794E-01
  0.116356530017E+00
  0.116362156314E+00
  0.116357007950E+00
  0.116362429758E+00
  0.116357325586E+00
  0.116356165257E+00
  0.116357280608E+00
  0.116357185038E+00
  0.116357274911E+00
  0.116357272580E+00
  0.116357272580E+00
  0.116357274911E+00
  0.116357184856E+00
  0.116357280592E+00
  0.116356164396E+00
  0.116357325470E+00
  0.116362427273E+00
  0.116357007482E+00
  0.116362150047E+00
  0.116356528522E+00
 -0.866625235916E-01
 -0.867108967717E-01
 -0.866589723535E-01
 -0.866245798826E-01
 -0.866905125183E-01
 -0.846732783232E-01
 -0.867390377967E-01
 -0.890818619686E-01
 -0.865898952079E-01
 -0.941102669147E-01
 -0.106695336519E+00
 -0.942551176530E-01
 -0.103568864700E+00
 -0.891659904873E-01
 -0.101961649781E+00
 -0.846851522439E-01
 -0.962894532932E-01
 -0.866258675535E-01
 -0.847355083831E-01
 -0.867108861878E-01
  0.116362156285E+00
  0.116443741716E+00
  0.116362428348E+00
  0.116258273168E+00
  0.116356165198E+00
  0.116379516767E+00
  0.116357185038E+00
  0.116360522548E+00
  0.116357272580E+00
  0.116357452813E+00
  0.116357452813E+00
  0.116357272580E+00
  0.116360520617E+00
  0.116357184855E+00
  0.116379511719E+00
  0.116356164337E+00
  0.116258263801E+00
  0.116362425863E+00
  0.116443727115E+00
  0.116362150018E+00
 -0.867108963231E-01
 -0.847355212857E-01
 -0.866258881718E-01
 -0.962894745042E-01
 -0.846850072476E-01
 -0.101961675126E+00
 -0.891657660073E-01
 -0.103568788102E+00
 -0.942545820843E-01
 -0.106694901524E+00
 -0.101854110677E+00
 -0.107161738098E+00
 -0.111960396522E+00
 -0.103987041405E+00
 -0.113792157561E+00
 -0.102259640428E+00
 -0.105899698777E+00
 -0.964936184192E-01
 -0.106125456980E+00
 -0.847353683373E-01
  0.116441999179E+00
  0.113013596302E+00
  0.116257786708E+00
  0.118038097577E+00
  0.116379491701E+00
  0.115973095071E+00
  0.116360522037E+00
  0.116257910115E+00
  0.116357452811E+00
  0.116344828718E+00
  0.116344828718E+00
  0.116357452811E+00
  0.116257891307E+00
  0.116360520106E+00
  0.115973078648E+00
  0.116379486652E+00
  0.118038083094E+00
  0.116257777354E+00
  0.113013588826E+00
  0.116441984564E+00
 -0.847353812704E-01
 -0.106125466924E+00
 -0.964936396389E-01
 -0.105899717005E+00
 -0.102259664664E+00
 -0.113792196907E+00
 -0.103986963055E+00
 -0.111960359891E+00
 -0.107161301815E+00
 -0.101853891995E+00
 -0.581065265793E-01
 -0.101279191915E+00
 -0.676704131384E-01
 -0.111617680638E+00
 -0.763816331998E-01
 -0.114258733557E+00
 -0.109123784651E+00
 -0.106461618782E+00
 -0.114038980214E+00
 -0.106557404070E+00
  0.112009286521E+00
  0.797287588657E-01
  0.117946196105E+00
  0.951351335148E-01
  0.115965023532E+00
  0.121705868714E+00
  0.116257404702E+00
  0.118901031148E+00
  0.116344817767E+00
  0.117141407543E+00
  0.117141407545E+00
  0.116344817767E+00
  0.118900919983E+00
  0.116257385924E+00
  0.121705878255E+00
  0.115965007175E+00
  0.951351382380E-01
  0.117946181603E+00
  0.797287564266E-01
  0.112009279176E+00
 -0.106557413836E+00
 -0.114038985941E+00
 -0.106461636656E+00
 -0.109123795035E+00
 -0.114258771972E+00
 -0.763816598474E-01
 -0.111617642659E+00
 -0.676704856959E-01
 -0.101278970788E+00
 -0.581059976791E-01
 -0.258881919072E-01
 -0.596671404767E-01
 -0.314337855098E-01
 -0.684604652972E-01
 -0.355878168705E-01
 -0.761739436980E-01
 -0.409679745295E-01
 -0.109109895249E+00
 -0.855232474398E-01
 -0.116062391285E+00
  0.753548113318E-01
  0.643295992984E-01
  0.917322250126E-01
  0.644782096459E-01
  0.119994692486E+00
  0.693460479566E-01
  0.118538806734E+00
  0.719526165242E-01
  0.117097281247E+00
  0.731192408726E-01
  0.731192408863E-01
  0.117097281248E+00
  0.719526165197E-01
  0.118538696719E+00
  0.693460343821E-01
  0.119994703484E+00
  0.644781998701E-01
  0.917322305899E-01
  0.643296002827E-01
  0.753548102415E-01
 -0.116062396376E+00
 -0.855232473554E-01
 -0.109109905395E+00
 -0.409679749798E-01
 -0.761739713356E-01
 -0.355878174153E-01
 -0.684605395010E-01
 -0.314337798884E-01
 -0.596666181060E-01
 -0.258881327537E-01
 -0.534053438028E-01
 -0.490979103925E-01
 -0.446816289459E-01
 -0.383882906129E-01
 -0.408524061070E-01
 -0.304162209178E-01
 -0.414682830570E-01
 -0.598967727286E-01
 -0.861027404048E-01
  0.534647327311E-01
  0.533726199501E-01
  0.520821878108E-01
  0.524257736143E-01
  0.546344162572E-01
  0.547057954250E-01
  0.559844884831E-01
  0.559108285573E-01
  0.566204923774E-01
  0.566204923710E-01
  0.559108285456E-01
  0.559844884738E-01
  0.547057894299E-01
  0.546344095430E-01
  0.524257698448E-01
  0.520821838691E-01
  0.533726221597E-01
  0.534647369771E-01
 -0.861027399138E-01
 -0.598967703588E-01
 -0.414682844465E-01
 -0.304162223335E-01
 -0.408524120944E-01
 -0.383883002873E-01
 -0.446816406603E-01
 -0.490979439040E-01
 -0.534053513209E-01
 -0.498129010866E-01
 -0.410309658349E-01
 -0.421362824833E-01
 -0.347575632138E-01
 -0.374442178456E-01
 -0.253032166388E-01
 -0.308527297298E-01
 -0.516331283354E-01
 -0.583437415138E-01
  0.517594129659E-01
  0.515819933051E-01
  0.513335978990E-01
  0.516181689737E-01
  0.538447402852E-01
  0.539829839581E-01
  0.551378234600E-01
  0.551794121961E-01
  0.557829805087E-01
  0.557829805088E-01
  0.551794121962E-01
  0.551378234580E-01
  0.539829839581E-01
  0.538447371840E-01
  0.516181688291E-01
  0.513335952048E-01
  0.515819929751E-01
  0.517594153996E-01
 -0.583437415884E-01
 -0.516331256245E-01
 -0.308527315478E-01
 -0.253032144943E-01
 -0.374442228924E-01
 -0.347575634567E-01
 -0.421362922971E-01
 -0.410309768421E-01
 -0.498129117956E-01
SCALARS C_p_2nd float 1
LOOKUP_TABLE default
 -0.877291681147E-01
 -0.877292046302E-01
 -0.877291722492E-01
 -0.877291728996E-01
 -0.877292006919E-01
 -0.877292008535E-01
 -0.877291822298E-01
 -0.877291822332E-01
 -0.877291808316E-01
 -0.877291808607E-01
  0.119065846405E+00
  0.119065846394E+00
  0.119065809256E+00
  0.119065809290E+00
  0.119065825148E+00
  0.119065825148E+00
  0.119065827556E+00
  0.119065827556E+00
  0.119065824019E+00
  0.119065824019E+00
  0.119065824019E+00
  0.119065824019E+00
  0.119065827556E+00
  0.119065827556E+00
  0.119065825148E+00
  0.119065825148E+00
  0.119065809290E+00
  0.119065809319E+00
  0.119065846413E+00
  0.119065846434E+00
 -0.877291807867E-01
 -0.877291807761E-01
 -0.877291819679E-01
 -0.877291820205E-01
 -0.877291996168E-01
 -0.877291997217E-01
 -0.877291663476E-01
 -0.877291670417E-01
 -0.877291759648E-01
 -0.877292124604E-01
 -0.877292247795E-01
 -0.877291681147E-01
 -0.877291708822E-01
 -0.877291722492E-01
 -0.877292004000E-01
 -0.877292006919E-01
 -0.877291821739E-01
 -0.877291822298E-01
 -0.877291807994E-01
 -0.877291808316E-01
  0.119065846394E+00
  0.119065846399E+00
  0.119065809290E+00
  0.119065809290E+00
  0.119065825148E+00
  0.119065825148E+00
  0.119065827556E+00
  0.119065827556E+00
  0.119065824019E+00
  0.119065824019E+00
  0.119065824019E+00
  0.119065824019E+00
  0.119065827556E+00
  0.119065827556E+00
  0.119065825148E+00
  0.119065825148E+00
  0.119065809290E+00
  0.119065809290E+00
  0.119065846399E+00
  0.119065846413E+00
 -0.877291807761E-01
 -0.877291807901E-01
 -0.877291820205E-01
 -0.877291821028E-01
 -0.877291997217E-01
 -0.877291999865E-01
 -0.877291670417E-01
 -0.877291684308E-01
 -0.877292124604E-01
 -0.877291557904E-01
 -0.877292084377E-01
 -0.877292247795E-01
 -0.877291700050E-01
 -0.877291708822E-01
 -0.877292002495E-01
 -0.877292004000E-01
 -0.877291821435E-01
 -0.877291821739E-01
 -0.877291807950E-01
 -0.877291807994E-01
  0.119065846399E+00
  0.119065846399E+00
  0.119065809290E+00
  0.119065809290E+00
  0.119065825148E+00
  0.119065825148E+00
  0.119065827556E+00
  0.119065827556E+00
  0.119065824019E+00
  0.119065824019E+00
  0.119065824019E+00
  0.119065824019E+00
  0.119065827556E+00
  0.119065827556E+00
  0.119065825148E+00
  0.119065825148E+00
  0.119065809290E+00
  0.119065809290E+00
  0.119065846399E+00
  0.119065846399E+00
 -0.877291807901E-01
 -0.877291807943E-01
 -0.877291821028E-01
 -0.877291821315E-01