# vtk DataFile Version 3.0
MachLine results file. Generated by MachLine, USU AeroLab (c) 2022.
ASCII
DATASET POLYDATA
POINTS                1127 float
  0.999999041957E+00  0.000000000000E+00 -0.417491494650E-07
  0.973034383663E+00  0.105263157890E+00 -0.235825883963E-02
  0.999999119618E+00  0.105263157890E+00 -0.383648804671E-07
  0.973034382832E+00  0.000000000000E+00 -0.235824933777E-02
  0.929717675664E+00  0.105263157890E+00 -0.614787723533E-02
  0.929717673943E+00  0.000000000000E+00 -0.614785756087E-02
  0.863184699151E+00  0.105263157890E+00 -0.119686097007E-01
  0.863184696324E+00  0.000000000000E+00 -0.119685773901E-01
  0.767714125425E+00  0.105263157890E+00 -0.203210244768E-01
  0.767714122072E+00  0.000000000000E+00 -0.203209861486E-01
  0.643290413741E+00  0.105263157890E+00 -0.312065343397E-01
  0.643290411360E+00  0.000000000000E+00 -0.312065071268E-01
  0.500000000000E+00  0.105263157890E+00 -0.437427648440E-01
  0.500000000000E+00  0.000000000000E+00 -0.437429617072E-01
  0.356709588640E+00  0.000000000000E+00 -0.312065071268E-01
  0.356709586259E+00  0.105263157890E+00 -0.312065343397E-01
  0.232285877928E+00  0.000000000000E+00 -0.203209861486E-01
  0.232285874575E+00  0.105263157890E+00 -0.203210244768E-01
  0.136815303676E+00  0.000000000000E+00 -0.119685773901E-01
  0.136815300849E+00  0.105263157890E+00 -0.119686097007E-01
  0.702823260562E-01  0.000000000000E+00 -0.614785756087E-02
  0.702823243349E-01  0.105263157890E+00 -0.614787723533E-02
  0.269656171711E-01  0.000000000000E+00 -0.235824933777E-02
  0.269656163398E-01  0.105263157890E+00 -0.235825883963E-02
  0.961695078561E-06  0.000000000000E+00  0.000000000000E+00
  0.883738164913E-06  0.105263157890E+00  0.000000000000E+00
  0.269656163398E-01  0.105263157890E+00  0.235825883963E-02
  0.269656171711E-01  0.000000000000E+00  0.235824933777E-02
  0.702823243349E-01  0.105263157890E+00  0.614787723533E-02
  0.702823260562E-01  0.000000000000E+00  0.614785756087E-02
  0.136815300849E+00  0.105263157890E+00  0.119686097007E-01
  0.136815303676E+00  0.000000000000E+00  0.119685773901E-01
  0.232285874575E+00  0.105263157890E+00  0.203210244768E-01
  0.232285877928E+00  0.000000000000E+00  0.203209861486E-01
  0.356709586259E+00  0.105263157890E+00  0.312065343397E-01
  0.356709588640E+00  0.000000000000E+00  0.312065071268E-01
  0.500000000000E+00  0.105263157890E+00  0.437427648440E-01
  0.500000000000E+00  0.000000000000E+00  0.437429617072E-01
  0.643290411360E+00  0.000000000000E+00  0.312065071268E-01
  0.643290413741E+00  0.105263157890E+00  0.312065343397E-01
  0.767714122072E+00  0.000000000000E+00  0.203209861486E-01
  0.767714125425E+00  0.105263157890E+00  0.203210244768E-01
  0.863184696324E+00  0.000000000000E+00  0.119685773901E-01
  0.863184699151E+00  0.105263157890E+00  0.119686097007E-01
  0.929717673943E+00  0.000000000000E+00  0.614785756087E-02
  0.929717675664E+00  0.105263157890E+00  0.614787723533E-02
  0.973034382832E+00  0.000000000000E+00  0.235824933777E-02
  0.973034383663E+00  0.105263157890E+00  0.235825883963E-02
  0.973034383663E+00  0.210526315790E+00 -0.235825883963E-02
  0.999999119618E+00  0.210526315790E+00 -0.383648804656E-07
  0.929717675664E+00  0.210526315790E+00 -0.614787723533E-02
  0.863184699151E+00  0.210526315790E+00 -0.119686097007E-01
  0.767714125425E+00  0.210526315790E+00 -0.203210244768E-01
  0.643290413741E+00  0.210526315790E+00 -0.312065343397E-01
  0.500000000000E+00  0.210526315790E+00 -0.437427648440E-01
  0.356709586259E+00  0.210526315790E+00 -0.312065343397E-01
  0.232285874575E+00  0.210526315790E+00 -0.203210244768E-01
  0.136815300849E+00  0.210526315790E+00 -0.119686097007E-01
  0.702823243349E-01  0.210526315790E+00 -0.614787723533E-02
  0.269656163398E-01  0.210526315790E+00 -0.235825883963E-02
  0.883738164878E-06  0.210526315790E+00  0.000000000000E+00
  0.269656163398E-01  0.210526315790E+00  0.235825883963E-02
  0.702823243349E-01  0.210526315790E+00  0.614787723533E-02
  0.136815300849E+00  0.210526315790E+00  0.119686097007E-01
  0.232285874575E+00  0.210526315790E+00  0.203210244768E-01
  0.356709586259E+00  0.210526315790E+00  0.312065343397E-01
  0.500000000000E+00  0.210526315790E+00  0.437427648440E-01
  0.643290413741E+00  0.210526315790E+00  0.312065343397E-01
  0.767714125425E+00  0.210526315790E+00  0.203210244768E-01
  0.863184699151E+00  0.210526315790E+00  0.119686097007E-01
  0.929717675664E+00  0.210526315790E+00  0.614787723533E-02
  0.973034383663E+00  0.210526315790E+00  0.235825883963E-02
  0.973034383663E+00  0.315789473680E+00 -0.235825883963E-02
  0.999999119618E+00  0.315789473680E+00 -0.383648804671E-07
  0.929717675664E+00  0.315789473680E+00 -0.614787723533E-02
  0.863184699151E+00  0.315789473680E+00 -0.119686097007E-01
  0.767714125425E+00  0.315789473680E+00 -0.203210244768E-01
  0.643290413741E+00  0.315789473680E+00 -0.312065343397E-01
  0.500000000000E+00  0.315789473680E+00 -0.437427648440E-01
  0.356709586259E+00  0.315789473680E+00 -0.312065343397E-01
  0.232285874575E+00  0.315789473680E+00 -0.203210244768E-01
  0.136815300849E+00  0.315789473680E+00 -0.119686097007E-01
  0.702823243349E-01  0.315789473680E+00 -0.614787723533E-02
  0.269656163398E-01  0.315789473680E+00 -0.235825883963E-02
  0.883738164913E-06  0.315789473680E+00  0.000000000000E+00
  0.269656163398E-01  0.315789473680E+00  0.235825883963E-02
  0.702823243349E-01  0.315789473680E+00  0.614787723533E-02
  0.136815300849E+00  0.315789473680E+00  0.119686097007E-01
  0.232285874575E+00  0.315789473680E+00  0.203210244768E-01
  0.356709586259E+00  0.315789473680E+00  0.312065343397E-01
  0.500000000000E+00  0.315789473680E+00  0.437427648440E-01
  0.643290413741E+00  0.315789473680E+00  0.312065343397E-01
  0.767714125425E+00  0.315789473680E+00  0.203210244768E-01
  0.863184699151E+00  0.315789473680E+00  0.119686097007E-01
  0.929717675664E+00  0.315789473680E+00  0.614787723533E-02
  0.973034383663E+00  0.315789473680E+00  0.235825883963E-02
  0.973034383663E+00  0.421052631580E+00 -0.235825883963E-02
  0.999999119618E+00  0.421052631580E+00 -0.383648804656E-07
  0.929717675664E+00  0.421052631580E+00 -0.614787723533E-02
  0.863184699151E+00  0.421052631580E+00 -0.119686097007E-01
  0.767714125425E+00  0.421052631580E+00 -0.203210244768E-01
  0.643290413741E+00  0.421052631580E+00 -0.312065343397E-01
  0.500000000000E+00  0.421052631580E+00 -0.437427648440E-01
  0.356709586259E+00  0.421052631580E+00 -0.312065343397E-01
  0.232285874575E+00  0.421052631580E+00 -0.203210244768E-01
  0.136815300849E+00  0.421052631580E+00 -0.119686097007E-01
  0.702823243349E-01  0.421052631580E+00 -0.614787723533E-02
  0.269656163398E-01  0.421052631580E+00 -0.235825883963E-02
  0.883738164878E-06  0.421052631580E+00  0.187623218593E-21
  0.269656163398E-01  0.421052631580E+00  0.235825883963E-02
  0.702823243349E-01  0.421052631580E+00  0.614787723533E-02
  0.136815300849E+00  0.421052631580E+00  0.119686097007E-01
  0.232285874575E+00  0.421052631580E+00  0.203210244768E-01
  0.356709586259E+00  0.421052631580E+00  0.312065343397E-01
  0.500000000000E+00  0.421052631580E+00  0.437427648440E-01
  0.643290413741E+00  0.421052631580E+00  0.312065343397E-01
  0.767714125425E+00  0.421052631580E+00  0.203210244768E-01
  0.863184699151E+00  0.421052631580E+00  0.119686097007E-01
  0.929717675664E+00  0.421052631580E+00  0.614787723533E-02
  0.973034383663E+00  0.421052631580E+00  0.235825883963E-02
  0.973034383663E+00  0.526315789470E+00 -0.235825883963E-02
  0.999999119618E+00  0.526315789470E+00 -0.383648804671E-07
  0.929717675664E+00  0.526315789470E+00 -0.614787723533E-02
  0.863184699151E+00  0.526315789470E+00 -0.119686097007E-01
  0.767714125425E+00  0.526315789470E+00 -0.203210244768E-01
  0.643290413741E+00  0.526315789470E+00 -0.312065343397E-01
  0.500000000000E+00  0.526315789470E+00 -0.437427648440E-01
  0.356709586259E+00  0.526315789470E+00 -0.312065343397E-01
  0.232285874575E+00  0.526315789470E+00 -0.203210244768E-01
  0.136815300849E+00  0.526315789470E+00 -0.119686097007E-01
  0.702823243349E-01  0.526315789470E+00 -0.614787723533E-02
  0.269656163398E-01  0.526315789470E+00 -0.235825883963E-02
  0.883738164913E-06  0.526315789470E+00  0.187623218601E-21
  0.269656163398E-01  0.526315789470E+00  0.235825883963E-02
  0.702823243349E-01  0.526315789470E+00  0.614787723533E-02
  0.136815300849E+00  0.526315789470E+00  0.119686097007E-01
  0.232285874575E+00  0.526315789470E+00  0.203210244768E-01
  0.356709586259E+00  0.526315789470E+00  0.312065343397E-01
  0.500000000000E+00  0.526315789470E+00  0.437427648440E-01
  0.643290413741E+00  0.526315789470E+00  0.312065343397E-01
  0.767714125425E+00  0.526315789470E+00  0.203210244768E-01
  0.863184699151E+00  0.526315789470E+00  0.119686097007E-01
  0.929717675664E+00  0.526315789470E+00  0.614787723533E-02
  0.973034383663E+00  0.526315789470E+00  0.235825883963E-02
  0.973034383663E+00  0.631578947370E+00 -0.235825883963E-02
  0.999999119618E+00  0.631578947370E+00 -0.383648804656E-07
  0.929717675664E+00  0.631578947370E+00 -0.614787723533E-02
  0.863184699151E+00  0.631578947370E+00 -0.119686097007E-01
  0.767714125425E+00  0.631578947370E+00 -0.203210244768E-01
  0.643290413741E+00  0.631578947370E+00 -0.312065343397E-01
  0.500000000000E+00  0.631578947370E+00 -0.437427648440E-01
  0.356709586259E+00  0.631578947370E+00 -0.312065343397E-01
  0.232285874575E+00  0.631578947370E+00 -0.203210244768E-01
  0.136815300849E+00  0.631578947370E+00 -0.119686097007E-01
  0.702823243349E-01  0.631578947370E+00 -0.614787723533E-02
  0.269656163398E-01  0.631578947370E+00 -0.235825883963E-02
  0.883738164878E-06  0.631578947370E+00  0.000000000000E+00
  0.269656163398E-01  0.631578947370E+00  0.235825883963E-02
  0.702823243349E-01  0.631578947370E+00  0.614787723533E-02
  0.136815300849E+00  0.631578947370E+00  0.119686097007E-01
  0.232285874575E+00  0.631578947370E+00  0.203210244768E-01
[...]
POINT_DATA                1127
SCALARS phi float 1
LOOKUP_TABLE default
 -0.898390937126E-18
 -0.173472347598E-17
 -0.154967324678E-18
 -0.433680868994E-18
  0.520417042793E-17
 -0.780625564190E-17
  0.121430643318E-16
  0.173472347598E-17
 -0.173472347598E-16
 -0.346944695195E-17
 -0.138777878078E-16
  0.138777878078E-16
  0.346944695195E-17
  0.208166817117E-16
 -0.104083408559E-16
 -0.346944695195E-17
 -0.173472347598E-17
  0.173472347598E-17
  0.000000000000E+00
  0.000000000000E+00
  0.433680868994E-18
  0.000000000000E+00
  0.000000000000E+00
  0.000000000000E+00
  0.661744490042E-23
  0.000000000000E+00
  0.292734586571E-16
  0.160461921528E-16
  0.000000000000E+00
 -0.433680868994E-18
  0.000000000000E+00
 -0.867361737988E-18
  0.000000000000E+00
  0.173472347598E-17
 -0.693889390391E-17
 -0.346944695195E-17
  0.138777878078E-16
 -0.693889390391E-17
 -0.312250225676E-16
 -0.242861286637E-16
 -0.156125112838E-16
 -0.173472347598E-17
 -0.520417042793E-17
 -0.867361737988E-17
 -0.173472347598E-17
  0.173472347598E-17
 -0.455364912444E-17
  0.216840434497E-17
  0.368628738645E-17
  0.698622186984E-17
 -0.156125112838E-16
 -0.867361737988E-17
  0.104083408559E-16
  0.693889390391E-17
  0.138777878078E-16
  0.000000000000E+00
  0.520417042793E-17
 -0.173472347598E-17
  0.000000000000E+00
  0.216840434497E-18
  0.132348898008E-22
  0.106251812904E-16
  0.173472347598E-17
  0.867361737988E-18
 -0.173472347598E-17
  0.693889390391E-17
 -0.138777878078E-16
  0.000000000000E+00
  0.104083408559E-16
 -0.867361737988E-17
 -0.173472347598E-16
  0.151788304148E-16
  0.498732999343E-17
  0.524281630615E-17
 -0.867361737988E-18
 -0.346944695195E-17
  0.346944695195E-17
 -0.693889390391E-17
 -0.138777878078E-16
 -0.138777878078E-16
 -0.173472347598E-17
 -0.260208521397E-17
  0.433680868994E-18
 -0.108420217249E-17
 -0.198523347013E-22
  0.628837260042E-17
  0.000000000000E+00
 -0.867361737988E-18
  0.346944695195E-17
  0.000000000000E+00
 -0.138777878078E-16
 -0.485722573274E-16
 -0.346944695195E-17
  0.104083408559E-16
  0.156125112838E-16
  0.112757025938E-16
 -0.672205346941E-17
  0.119431645563E-16
 -0.260208521397E-17
 -0.190819582357E-16
 -0.346944695195E-17
  0.000000000000E+00
  0.242861286637E-16
  0.173472347598E-16
  0.000000000000E+00
 -0.867361737988E-18
 -0.260208521397E-17
  0.650521303491E-18
 -0.661744490042E-23
 -0.433680868994E-17
 -0.867361737988E-18
  0.346944695195E-17
  0.000000000000E+00
 -0.138777878078E-16
 -0.693889390391E-17
  0.346944695195E-17
  0.867361737988E-17
 -0.173472347598E-16
  0.607153216592E-17
 -0.262376925741E-16
  0.130104260698E-17
 -0.311454014705E-17
  0.346944695195E-17
 -0.121430643318E-16
  0.104083408559E-16
  0.693889390391E-17
  0.104083408559E-16
  0.000000000000E+00
 -0.346944695195E-17
  0.000000000000E+00
 -0.867361737988E-18
  0.000000000000E+00
  0.661744490042E-23
  0.201661604082E-16
 -0.433680868994E-18
  0.173472347598E-17
  0.346944695195E-17
  0.693889390391E-17
 -0.173472347598E-16
 -0.346944695195E-17
  0.000000000000E+00
  0.346944695195E-17
  0.147451495458E-16
  0.121430643318E-16
  0.216840434497E-18
 -0.323397179262E-17
 -0.147451495458E-16
 -0.867361737988E-17
 -0.693889390391E-17
  0.242861286637E-16
 -0.138777878078E-16
 -0.693889390391E-17
 -0.693889390391E-17
 -0.173472347598E-17
  0.000000000000E+00
  0.216840434497E-18
  0.132348898008E-22
  0.325260651746E-17
 -0.433680868994E-18
 -0.346944695195E-17
  0.173472347598E-17
  0.693889390391E-17
  0.138777878078E-16
  0.173472347598E-16
  0.121430643318E-16
  0.000000000000E+00
 -0.520417042793E-17
 -0.125767452008E-16
  0.238524477947E-17
  0.219889753107E-17
 -0.607153216592E-17
  0.867361737988E-17
 -0.104083408559E-16
  0.693889390391E-17
  0.693889390391E-17
  0.138777878078E-16
  0.173472347598E-17
  0.346944695195E-17
 -0.867361737988E-18
  0.000000000000E+00
 -0.264697796017E-22
 -0.143114686768E-16
  0.433680868994E-18
  0.867361737988E-18
  0.346944695195E-17
  0.693889390391E-17
  0.138777878078E-16
 -0.346944695195E-17
 -0.346944695195E-17
 -0.121430643318E-16
 -0.433680868994E-17
  0.130104260698E-17
  0.672205346941E-17
 -0.867361737988E-17
  0.000000000000E+00
  0.867361737988E-17
  0.173472347598E-17
 -0.104083408559E-16
  0.104083408559E-16
  0.346944695195E-17
  0.346944695195E-17
  0.260208521397E-17
  0.867361737988E-18
  0.650521303491E-18
  0.132348898008E-22
 -0.136609473733E-16
  0.260208521397E-17
 -0.867361737988E-18
 -0.346944695195E-17
 -0.346944695195E-17
 -0.242861286637E-16
 -0.693889390391E-17
 -0.693889390391E-17
 -0.346944695195E-17
  0.867361737988E-18
 -0.390312782095E-17
 -0.119262238973E-16
 -0.573271898702E-17
 -0.112757025938E-16
  0.000000000000E+00
 -0.346944695195E-17
 -0.138777878078E-16
 -0.277555756156E-16
 -0.346944695195E-17
  0.173472347598E-17
 -0.260208521397E-17
 -0.216840434497E-17
  0.000000000000E+00
 -0.132348898008E-22
 -0.780625564190E-17
  0.867361737988E-18
 -0.260208521397E-17
 -0.520417042793E-17
  0.104083408559E-16
  0.104083408559E-16
 -0.242861286637E-16
 -0.104083408559E-16
 -0.277555756156E-16
 -0.225514051877E-16
 -0.823993651089E-17
 -0.138777878078E-16
 -0.327971157177E-17
 -0.693889390391E-17
 -0.173472347598E-17
 -0.225514051877E-16
  0.693889390391E-17
  0.346944695195E-16
  0.693889390391E-17
  0.520417042793E-17
  0.260208521397E-17
  0.000000000000E+00
 -0.867361737988E-18
 -0.661744490042E-23
 -0.802309607639E-17
  0.867361737988E-18
  0.867361737988E-18
  0.346944695195E-17
  0.000000000000E+00
  0.173472347598E-16
  0.346944695195E-17
 -0.173472347598E-17
 -0.104083408559E-16
 -0.147451495458E-16
 -0.169135538908E-16
 -0.650521303491E-17
 -0.908019319457E-17
  0.000000000000E+00
 -0.346944695195E-17
  0.121430643318E-16
  0.693889390391E-17
  0.346944695195E-16
 -0.693889390391E-17
 -0.173472347598E-17
 -0.346944695195E-17
  0.433680868994E-18
  0.433680868994E-18
  0.198523347013E-22
 -0.123599047663E-16
 -0.867361737988E-18
  0.173472347598E-17
 -0.520417042793E-17
 -0.173472347598E-16
 -0.138777878078E-16
  0.381639164715E-16
 -0.104083408559E-16
 -0.294902990916E-16
 -0.156125112838E-16
 -0.175640751943E-16
  0.130104260698E-17
 -0.466206934169E-17
  0.867361737988E-18
  0.867361737988E-17
  0.225514051877E-16
  0.104083408559E-16
 -0.208166817117E-16
 -0.346944695195E-17
  0.520417042793E-17
 -0.260208521397E-17
  0.000000000000E+00
  0.000000000000E+00
  0.661744490042E-23
  0.455364912444E-17
  0.000000000000E+00
  0.867361737988E-18
 -0.346944695195E-17
  0.346944695195E-17
 -0.346944695195E-17
 -0.242861286637E-16
 -0.520417042793E-17
 -0.520417042793E-17
 -0.173472347598E-17
  0.910729824888E-17
  0.390312782095E-17
  0.477048955894E-17
  0.104083408559E-16
 -0.693889390391E-17
 -0.138777878078E-16
 -0.104083408559E-16
 -0.138777878078E-16
 -0.693889390391E-17
 -0.346944695195E-17
  0.520417042793E-17
  0.867361737988E-18
  0.650521303491E-18
  0.330872245021E-22
  0.477048955894E-17
  0.433680868994E-18
  0.173472347598E-17
  0.000000000000E+00
 -0.104083408559E-16
 -0.346944695195E-17
 -0.242861286637E-16
  0.000000000000E+00
 -0.520417042793E-17
  0.780625564190E-17
  0.845677694539E-17
 -0.260208521397E-17
 -0.693889390391E-17
  0.542101086243E-18
  0.867361737988E-17
  0.000000000000E+00
  0.416333634234E-16
  0.693889390391E-17
  0.000000000000E+00
  0.000000000000E+00
 -0.867361737988E-18
  0.433680868994E-18
  0.216840434497E-18
  0.264697796017E-22
 -0.650521303491E-18
  0.433680868994E-18
 -0.173472347598E-17
 -0.346944695195E-17
 -0.693889390391E-17
 -0.693889390391E-17
  0.693889390391E-17
 -0.156125112838E-16
 -0.242861286637E-16
 -0.134441069388E-16
 -0.607153216592E-17
  0.173472347598E-17
 -0.138777878078E-16
  0.346944695195E-17
  0.661363325216E-17
  0.693889390391E-17
 -0.104083408559E-16
 -0.104083408559E-16
 -0.138777878078E-16
  0.173472347598E-17
  0.173472347598E-17
 -0.130104260698E-17
  0.650521303491E-18
  0.000000000000E+00
 -0.173472347598E-17
  0.000000000000E+00
 -0.867361737988E-18
  0.173472347598E-17
  0.346944695195E-17
 -0.346944695195E-17
 -0.416333634234E-16
 -0.693889390391E-17
  0.661363325216E-17
  0.000000000000E+00
  0.173472347598E-16
  0.121430643318E-16
  0.693889390391E-17
  0.346944695195E-17
 -0.260208521397E-17
 -0.346944695195E-17
  0.104083408559E-16
  0.346944695195E-17
 -0.693889390391E-17
  0.000000000000E+00
 -0.346944695195E-17
  0.000000000000E+00
  0.000000000000E+00
  0.000000000000E+00
 -0.433680868994E-18
 -0.433680868994E-18
 -0.346944695195E-17
 -0.173472347598E-17
  0.277555756156E-16
  0.138777878078E-16
 -0.156125112838E-16
 -0.173472347598E-17
  0.000000000000E+00
  0.346944695195E-17
  0.208166817117E-16
  0.867361737988E-17
 -0.156125112838E-16
 -0.208166817117E-16
  0.104083408559E-16
 -0.108420217249E-18
  0.173472347598E-17
 -0.208166817117E-16
 -0.346944695195E-17
 -0.693889390391E-17
  0.260208521397E-17
  0.130104260698E-17
  0.650521303491E-18
  0.661744490042E-23
 -0.693889390391E-17
  0.867361737988E-18
 -0.867361737988E-18
 -0.867361737988E-17
 -0.104083408559E-16
  0.173472347598E-16
  0.138777878078E-16
 -0.455364912444E-17
 -0.190819582357E-16
  0.173472347598E-17
  0.693889390391E-17
 -0.433680868994E-17
  0.693889390391E-17
  0.173472347598E-17
 -0.433680868994E-18
 -0.130104260698E-17
  0.000000000000E+00
  0.000000000000E+00
 -0.346944695195E-17
 -0.260208521397E-17
  0.173472347598E-17
  0.130104260698E-17
  0.216840434497E-18
  0.000000000000E+00
 -0.112757025938E-16
  0.130104260698E-17
  0.260208521397E-17
  0.433680868994E-17
 -0.346944695195E-17
  0.121430643318E-16
  0.867361737988E-18
  0.292734586571E-17
  0.520417042793E-17
 -0.954097911787E-17
 -0.780625564190E-17
 -0.216840434497E-17
 -0.173472347598E-17
 -0.281892564846E-17
 -0.178893358460E-17
  0.130104260698E-17
 -0.520417042793E-17
  0.867361737988E-17
  0.000000000000E+00
  0.173472347598E-17
  0.173472347598E-17
  0.216840434497E-18
  0.108420217249E-18
 -0.413590306277E-24
  0.433680868994E-18
 -0.650521303491E-18
  0.000000000000E+00
 -0.867361737988E-18
 -0.173472347598E-17
 -0.346944695195E-17
 -0.173472347598E-17
  0.000000000000E+00
  0.596311194867E-17
 -0.368628738645E-17
  0.216840434497E-17
 -0.433680868994E-18
  0.151788304148E-17
  0.108420217249E-17
 -0.520417042793E-17
  0.346944695195E-17
 -0.138777878078E-16
 -0.104083408559E-16
  0.000000000000E+00
  0.260208521397E-17
  0.650521303491E-18
  0.108420217249E-18
  0.325260651746E-18
  0.000000000000E+00
  0.000000000000E+00
 -0.433680868994E-17
  0.173472347598E-17
  0.693889390391E-17
 -0.520417042793E-17
 -0.910729824888E-17
  0.108420217249E-17
  0.346944695195E-17
 -0.390312782095E-17
  0.173472347598E-17
 -0.411996825544E-17
 -0.303576608296E-17
  0.346944695195E-17
  0.173472347598E-17
 -0.867361737988E-17
 -0.867361737988E-18
  0.260208521397E-17
  0.303576608296E-17
  0.173472347598E-17
 -0.108420217249E-18
 -0.216840434497E-18
 -0.650521303491E-18
  0.433680868994E-18
 -0.607153216592E-17
  0.607153216592E-17
  0.208166817117E-16
  0.433680868994E-17
 -0.780625564190E-17
  0.238524477947E-17
  0.281892564846E-17
  0.260208521397E-17
 -0.737257477290E-17
  0.216840434497E-18
 -0.287313575709E-17
 -0.216840434497E-17
  0.607153216592E-17
  0.000000000000E+00
  0.520417042793E-17
  0.433680868994E-17
  0.173472347598E-17
  0.151788304148E-17
  0.000000000000E+00
  0.000000000000E+00
 -0.433680868994E-18
 -0.130104260698E-17
 -0.173472347598E-17
  0.433680868994E-17
  0.121430643318E-16
  0.000000000000E+00
 -0.216840434497E-17
  0.238524477947E-17
  0.411996825544E-17
 -0.607153216592E-17
 -0.130104260698E-17
  0.433680868994E-18
  0.650521303491E-18
 -0.260208521397E-17
  0.520417042793E-17
  0.000000000000E+00
 -0.173472347598E-17
 -0.260208521397E-17
  0.867361737988E-18
  0.130104260698E-17
 -0.325260651746E-18
  0.213173311231E-16
  0.954097911787E-17
 -0.693889390391E-17
  0.138777878078E-16
  0.156125112838E-16
  0.138777878078E-16
  0.000000000000E+00
 -0.346944695195E-17
 -0.173472347598E-17
  0.000000000000E+00
  0.216840434497E-17
 -0.433680868994E-18
 -0.330872245021E-22
  0.232019264912E-16
 -0.173472347598E-17
  0.867361737988E-17
  0.346944695195E-17
  0.693889390391E-17
  0.346944695195E-17
 -0.346944695195E-16
 -0.867361737988E-17
  0.260208521397E-16
  0.242861286637E-16
  0.427175655959E-16
 -0.363975351391E-17
 -0.650521303491E-18
 -0.693889390391E-17
 -0.277555756156E-16
 -0.867361737988E-17
 -0.693889390391E-17
 -0.485722573274E-16
  0.242861286637E-16
 -0.190819582357E-16
  0.867361737988E-18
 -0.130104260698E-17
 -0.216840434497E-18
 -0.661744490042E-23
  0.932413868338E-17
 -0.433680868994E-18
  0.173472347598E-17
  0.520417042793E-17
  0.277555756156E-16
  0.173472347598E-16
  0.416333634234E-16
  0.121430643318E-16
 -0.451028103754E-16
 -0.867361737988E-17
  0.227682456222E-16
 -0.174165855823E-16
 -0.153956708493E-16
 -0.520417042793E-17
  0.000000000000E+00
 -0.104083408559E-16
 -0.451028103754E-16
  0.346944695195E-17
 -0.242861286637E-16
 -0.520417042793E-17
  0.000000000000E+00
  0.000000000000E+00
 -0.867361737988E-18
 -0.661744490042E-23
  0.498732999343E-17
  0.433680868994E-18
  0.867361737988E-17
  0.867361737988E-17
  0.138777878078E-16
  0.173472347598E-16
 -0.104083408559E-16
  0.867361737988E-17
 -0.346944695195E-17
 -0.433680868994E-17
 -0.997465998687E-17
  0.149539431673E-16
 -0.195156391047E-17
  0.000000000000E+00
  0.867361737988E-17
 -0.208166817117E-16
 -0.242861286637E-16
 -0.173472347598E-16
  0.346944695195E-17
  0.104083408559E-16
  0.000000000000E+00
  0.130104260698E-17
 -0.216840434497E-18
  0.000000000000E+00
 -0.158293517183E-16
 -0.216840434497E-17
  0.173472347598E-17
  0.867361737988E-17
  0.346944695195E-17
  0.000000000000E+00
  0.381639164715E-16
  0.190819582357E-16
 -0.208166817117E-16
  0.190819582357E-16
  0.132272665043E-16
  0.153143556864E-17
  0.216840434497E-17
 -0.954097911787E-17
  0.277555756156E-16
 -0.294902990916E-16
 -0.312250225676E-16
 -0.277555756156E-16
  0.000000000000E+00
  0.000000000000E+00
  0.000000000000E+00
 -0.173472347598E-17
  0.000000000000E+00
  0.000000000000E+00
  0.260208521397E-17
  0.000000000000E+00
  0.173472347598E-17
 -0.346944695195E-17
  0.346944695195E-17
  0.138777878078E-16
 -0.173472347598E-16
 -0.190819582357E-16
  0.242861286637E-16
  0.520417042793E-17
 -0.845677694539E-17
  0.139184453893E-16
 -0.119262238973E-16
  0.147451495458E-16
  0.000000000000E+00
 -0.104083408559E-16
  0.104083408559E-16
 -0.173472347598E-16
  0.000000000000E+00
  0.346944695195E-17
  0.173472347598E-17
 -0.433680868994E-18
  0.000000000000E+00
 -0.661744490042E-23
  0.433680868994E-18
  0.000000000000E+00
 -0.173472347598E-17
  0.520417042793E-17
 -0.104083408559E-16
  0.346944695195E-17
 -0.104083408559E-16
 -0.190819582357E-16
 -0.242861286637E-16
 -0.607153216592E-17
 -0.179977560633E-16
 -0.528548559087E-17
  0.000000000000E+00
 -0.867361737988E-18
  0.867361737988E-17
 -0.346944695195E-16
 -0.104083408559E-16
  0.346944695195E-17
 -0.693889390391E-17
  0.346944695195E-17
 -0.867361737988E-18
 -0.433680868994E-18
 -0.108420217249E-17
 -0.463221143030E-22
 -0.216840434497E-17
 -0.130104260698E-17
 -0.346944695195E-17
  0.173472347598E-17
  0.693889390391E-17
 -0.346944695195E-17
 -0.693889390391E-17
  0.000000000000E+00
  0.242861286637E-16
  0.294902990916E-16
  0.585469173142E-17
 -0.112485975395E-17
 -0.433680868994E-17
 -0.867361737988E-17
 -0.346944695195E-17
  0.173472347598E-17
 -0.277555756156E-16
  0.104083408559E-16
 -0.693889390391E-17
 -0.867361737988E-17
  0.000000000000E+00
  0.130104260698E-17
  0.650521303491E-18
  0.000000000000E+00
  0.433680868994E-18
 -0.130104260698E-17
  0.173472347598E-17
  0.346944695195E-17
 -0.104083408559E-16
  0.000000000000E+00
  0.208166817117E-16
 -0.104083408559E-16
  0.000000000000E+00
  0.346944695195E-17
  0.000000000000E+00
 -0.558364118830E-17
 -0.188651178012E-16
  0.867361737988E-18
  0.190819582357E-16
 -0.104083408559E-16
  0.346944695195E-17
  0.242861286637E-16
 -0.208166817117E-16
  0.173472347598E-17
  0.173472347598E-17
  0.173472347598E-17
  0.000000000000E+00
  0.132348898008E-22
 -0.173472347598E-17
  0.433680868994E-18
 -0.867361737988E-18
  0.000000000000E+00
 -0.346944695195E-17
  0.000000000000E+00
  0.138777878078E-16
  0.104083408559E-16
  0.294902990916E-16
  0.268882138776E-16
  0.477048955894E-17
  0.706086664831E-17
  0.216840434497E-17
 -0.260208521397E-17
 -0.156125112838E-16
  0.173472347598E-16
  0.208166817117E-16
  0.138777878078E-16
  0.104083408559E-16
  0.000000000000E+00
  0.173472347598E-17
  0.000000000000E+00
 -0.216840434497E-18
 -0.661744490042E-23
 -0.607153216592E-17
 -0.433680868994E-18
  0.173472347598E-17
 -0.173472347598E-17
  0.346944695195E-17
 -0.138777878078E-16
  0.173472347598E-16
  0.225514051877E-16
 -0.693889390391E-17
 -0.780625564190E-17
  0.216840434497E-17
  0.710152422978E-17
  0.607153216592E-17
  0.607153216592E-17
  0.346944695195E-17
 -0.138777878078E-16
 -0.346944695195E-17
  0.693889390391E-17
  0.000000000000E+00
  0.000000000000E+00
 -0.260208521397E-17
  0.173472347598E-17
  0.216840434497E-18
  0.000000000000E+00
 -0.737257477290E-17
  0.216840434497E-17
  0.260208521397E-17
 -0.138777878078E-16
 -0.104083408559E-16
  0.693889390391E-17
  0.000000000000E+00
 -0.693889390391E-17
 -0.190819582357E-16
  0.607153216592E-17
  0.101915004214E-16
  0.110588621594E-16
  0.607153216592E-17
 -0.260208521397E-17
  0.000000000000E+00
 -0.173472347598E-16
  0.173472347598E-16
 -0.346944695195E-17
 -0.693889390391E-17
 -0.173472347598E-17
  0.000000000000E+00
 -0.173472347598E-17
 -0.108420217249E-17
 -0.264697796017E-22
 -0.151788304148E-17
 -0.433680868994E-18
  0.867361737988E-18
 -0.520417042793E-17
  0.000000000000E+00
  0.693889390391E-17
  0.138777878078E-16
  0.346944695195E-17
 -0.693889390391E-17
 -0.520417042793E-17
  0.216840434497E-18
  0.585469173142E-17
  0.455364912444E-17
 -0.260208521397E-17
  0.000000000000E+00
 -0.693889390391E-17
 -0.104083408559E-16
  0.346944695195E-17
  0.242861286637E-16
 -0.173472347598E-17
  0.000000000000E+00
 -0.173472347598E-17
 -0.433680868994E-18
 -0.198523347013E-22
  0.325260651746E-17
  0.433680868994E-18
  0.000000000000E+00
 -0.346944695195E-17
  0.000000000000E+00
  0.104083408559E-16
 -0.346944695195E-17
  0.173472347598E-17
 -0.520417042793E-17
  0.147451495458E-16
  0.130104260698E-17
  0.607153216592E-17
  0.173472347598E-17
 -0.238524477947E-17
 -0.520417042793E-17
 -0.867361737988E-17
  0.104083408559E-16
 -0.346944695195E-17
  0.173472347598E-16
  0.000000000000E+00
  0.000000000000E+00
 -0.433680868994E-18
  0.216840434497E-18
  0.264697796017E-22
  0.889045781438E-17
  0.867361737988E-18
  0.346944695195E-17
  0.173472347598E-17
  0.000000000000E+00
  0.173472347598E-16
  0.693889390391E-17
  0.693889390391E-17
  0.867361737988E-17
  0.769783542465E-17
 -0.260208521397E-17
 -0.693889390391E-17
  0.173472347598E-17
 -0.121430643318E-16
  0.249366499672E-17
  0.173472347598E-17
 -0.277555756156E-16
  0.346944695195E-17
 -0.104083408559E-16
  0.693889390391E-17
 -0.260208521397E-17
 -0.867361737988E-18
 -0.867361737988E-18
  0.661744490042E-23
 -0.108420217249E-17
  0.000000000000E+00
  0.260208521397E-17
 -0.520417042793E-17
  0.208166817117E-16
 -0.346944695195E-17
 -0.693889390391E-17
 -0.520417042793E-17
  0.116009632456E-16
  0.156125112838E-16
 -0.173472347598E-17
 -0.173472347598E-16
  0.104083408559E-16
 -0.346944695195E-17
 -0.867361737988E-18
 -0.346944695195E-17
 -0.173472347598E-16
  0.693889390391E-17
  0.000000000000E+00
  0.000000000000E+00
  0.173472347598E-17
  0.000000000000E+00
  0.216840434497E-18
 -0.661744490042E-23
  0.390312782095E-17
  0.000000000000E+00
  0.000000000000E+00
 -0.173472347598E-17
  0.346944695195E-17
  0.138777878078E-16
  0.173472347598E-16
  0.130104260698E-17
  0.234187669257E-16
  0.294902990916E-16
  0.190819582357E-16
  0.346944695195E-17
  0.693889390391E-17
 -0.121430643318E-16
  0.173472347598E-17
  0.205998412772E-17
 -0.294902990916E-16
 -0.173472347598E-17