# vtk DataFile Version 3.0
MachLine results file. Generated by MachLine, USU AeroLab (c) 2022.
ASCII
DATASET POLYDATA
POINTS                1127 float
  0.999999999990E+00  0.000000000000E+00 -0.417491494650E-12
  0.973034464139E+00  0.105263157890E+00 -0.235917868470E-02
  0.999999999991E+00  0.105263157890E+00 -0.383648804671E-12
  0.973034464139E+00  0.000000000000E+00 -0.235917868461E-02
  0.929717765039E+00  0.105263157890E+00 -0.614889879598E-02
  0.929717765039E+00  0.000000000000E+00 -0.614889879579E-02
  0.863184801439E+00  0.105263157890E+00 -0.119697788603E-01
  0.863184801439E+00  0.000000000000E+00 -0.119697788600E-01
  0.767714243179E+00  0.105263157890E+00 -0.203223704065E-01
  0.767714243179E+00  0.000000000000E+00 -0.203223704062E-01
  0.643290544899E+00  0.105263157890E+00 -0.312080334790E-01
  0.643290544899E+00  0.000000000000E+00 -0.312080334787E-01
  0.500000000000E+00  0.105263157890E+00 -0.437443317473E-01
  0.500000000000E+00  0.000000000000E+00 -0.437443317493E-01
  0.356709455101E+00  0.000000000000E+00 -0.312080334787E-01
  0.356709455101E+00  0.105263157890E+00 -0.312080334790E-01
  0.232285756821E+00  0.000000000000E+00 -0.203223704062E-01
  0.232285756821E+00  0.105263157890E+00 -0.203223704065E-01
  0.136815198561E+00  0.000000000000E+00 -0.119697788600E-01
  0.136815198561E+00  0.105263157890E+00 -0.119697788603E-01
  0.702822349599E-01  0.000000000000E+00 -0.614889879579E-02
  0.702822349599E-01  0.105263157890E+00 -0.614889879598E-02
  0.269655358638E-01  0.000000000000E+00 -0.235917868461E-02
  0.269655358638E-01  0.105263157890E+00 -0.235917868470E-02
  0.961695078561E-11  0.000000000000E+00  0.000000000000E+00
  0.883738164913E-11  0.105263157890E+00  0.000000000000E+00
  0.269655358638E-01  0.105263157890E+00  0.235917868470E-02
  0.269655358638E-01  0.000000000000E+00  0.235917868461E-02
  0.702822349599E-01  0.105263157890E+00  0.614889879598E-02
  0.702822349599E-01  0.000000000000E+00  0.614889879579E-02
  0.136815198561E+00  0.105263157890E+00  0.119697788603E-01
  0.136815198561E+00  0.000000000000E+00  0.119697788600E-01
  0.232285756821E+00  0.105263157890E+00  0.203223704065E-01
  0.232285756821E+00  0.000000000000E+00  0.203223704062E-01
  0.356709455101E+00  0.105263157890E+00  0.312080334790E-01
  0.356709455101E+00  0.000000000000E+00  0.312080334787E-01
  0.500000000000E+00  0.105263157890E+00  0.437443317473E-01
  0.500000000000E+00  0.000000000000E+00  0.437443317493E-01
  0.643290544899E+00  0.000000000000E+00  0.312080334787E-01
  0.643290544899E+00  0.105263157890E+00  0.312080334790E-01
  0.767714243179E+00  0.000000000000E+00  0.203223704062E-01
  0.767714243179E+00  0.105263157890E+00  0.203223704065E-01
  0.863184801439E+00  0.000000000000E+00  0.119697788600E-01
  0.863184801439E+00  0.105263157890E+00  0.119697788603E-01
  0.929717765039E+00  0.000000000000E+00  0.614889879579E-02
  0.929717765039E+00  0.105263157890E+00  0.614889879598E-02
  0.973034464139E+00  0.000000000000E+00  0.235917868461E-02
  0.973034464139E+00  0.105263157890E+00  0.235917868470E-02
  0.973034464139E+00  0.210526315790E+00 -0.235917868470E-02
  0.999999999991E+00  0.210526315790E+00 -0.383648804656E-12
  0.929717765039E+00  0.210526315790E+00 -0.614889879598E-02
  0.863184801439E+00  0.210526315790E+00 -0.119697788603E-01
  0.767714243179E+00  0.210526315790E+00 -0.203223704065E-01
  0.643290544899E+00  0.210526315790E+00 -0.312080334790E-01
  0.500000000000E+00  0.210526315790E+00 -0.437443317473E-01
  0.356709455101E+00  0.210526315790E+00 -0.312080334790E-01
  0.232285756821E+00  0.210526315790E+00 -0.203223704065E-01
  0.136815198561E+00  0.210526315790E+00 -0.119697788603E-01
  0.702822349599E-01  0.210526315790E+00 -0.614889879598E-02
  0.269655358638E-01  0.210526315790E+00 -0.235917868470E-02
  0.883738164878E-11  0.210526315790E+00  0.000000000000E+00
  0.269655358638E-01  0.210526315790E+00  0.235917868470E-02
  0.702822349599E-01  0.210526315790E+00  0.614889879598E-02
  0.136815198561E+00  0.210526315790E+00  0.119697788603E-01
  0.232285756821E+00  0.210526315790E+00  0.203223704065E-01
  0.356709455101E+00  0.210526315790E+00  0.312080334790E-01
  0.500000000000E+00  0.210526315790E+00  0.437443317473E-01
  0.643290544899E+00  0.210526315790E+00  0.312080334790E-01
  0.767714243179E+00  0.210526315790E+00  0.203223704065E-01
  0.863184801439E+00  0.210526315790E+00  0.119697788603E-01
  0.929717765039E+00  0.210526315790E+00  0.614889879598E-02
  0.973034464139E+00  0.210526315790E+00  0.235917868470E-02
  0.973034464139E+00  0.315789473680E+00 -0.235917868470E-02
  0.999999999991E+00  0.315789473680E+00 -0.383648804671E-12
  0.929717765039E+00  0.315789473680E+00 -0.614889879598E-02
  0.863184801439E+00  0.315789473680E+00 -0.119697788603E-01
  0.767714243179E+00  0.315789473680E+00 -0.203223704065E-01
  0.643290544899E+00  0.315789473680E+00 -0.312080334790E-01
  0.500000000000E+00  0.315789473680E+00 -0.437443317473E-01
  0.356709455101E+00  0.315789473680E+00 -0.312080334790E-01
  0.232285756821E+00  0.315789473680E+00 -0.203223704065E-01
  0.136815198561E+00  0.315789473680E+00 -0.119697788603E-01
  0.702822349599E-01  0.315789473680E+00 -0.614889879598E-02
  0.269655358638E-01  0.315789473680E+00 -0.235917868470E-02
  0.883738164913E-11  0.315789473680E+00  0.000000000000E+00
  0.269655358638E-01  0.315789473680E+00  0.235917868470E-02
  0.702822349599E-01  0.315789473680E+00  0.614889879598E-02
  0.136815198561E+00  0.315789473680E+00  0.119697788603E-01
  0.232285756821E+00  0.315789473680E+00  0.203223704065E-01
  0.356709455101E+00  0.315789473680E+00  0.312080334790E-01
  0.500000000000E+00  0.315789473680E+00  0.437443317473E-01
  0.643290544899E+00  0.315789473680E+00  0.312080334790E-01
  0.767714243179E+00  0.315789473680E+00  0.203223704065E-01
  0.863184801439E+00  0.315789473680E+00  0.119697788603E-01
  0.929717765039E+00  0.315789473680E+00  0.614889879598E-02
  0.973034464139E+00  0.315789473680E+00  0.235917868470E-02
  0.973034464139E+00  0.421052631580E+00 -0.235917868470E-02
  0.999999999991E+00  0.421052631580E+00 -0.383648804656E-12
  0.929717765039E+00  0.421052631580E+00 -0.614889879598E-02
  0.863184801439E+00  0.421052631580E+00 -0.119697788603E-01
  0.767714243179E+00  0.421052631580E+00 -0.203223704065E-01
  0.643290544899E+00  0.421052631580E+00 -0.312080334790E-01
  0.500000000000E+00  0.421052631580E+00 -0.437443317473E-01
  0.356709455101E+00  0.421052631580E+00 -0.312080334790E-01
  0.232285756821E+00  0.421052631580E+00 -0.203223704065E-01
  0.136815198561E+00  0.421052631580E+00 -0.119697788603E-01
  0.702822349599E-01  0.421052631580E+00 -0.614889879598E-02
  0.269655358638E-01  0.421052631580E+00 -0.235917868470E-02
  0.883738164878E-11  0.421052631580E+00  0.187623218593E-26
  0.269655358638E-01  0.421052631580E+00  0.235917868470E-02
  0.702822349599E-01  0.421052631580E+00  0.614889879598E-02
  0.136815198561E+00  0.421052631580E+00  0.119697788603E-01
  0.232285756821E+00  0.421052631580E+00  0.203223704065E-01
  0.356709455101E+00  0.421052631580E+00  0.312080334790E-01
  0.500000000000E+00  0.421052631580E+00  0.437443317473E-01
  0.643290544899E+00  0.421052631580E+00  0.312080334790E-01
  0.767714243179E+00  0.421052631580E+00  0.203223704065E-01
  0.863184801439E+00  0.421052631580E+00  0.119697788603E-01
  0.929717765039E+00  0.421052631580E+00  0.614889879598E-02
  0.973034464139E+00  0.421052631580E+00  0.235917868470E-02
  0.973034464139E+00  0.526315789470E+00 -0.235917868470E-02
  0.999999999991E+00  0.526315789470E+00 -0.383648804671E-12
  0.929717765039E+00  0.526315789470E+00 -0.614889879598E-02
  0.863184801439E+00  0.526315789470E+00 -0.119697788603E-01
  0.767714243179E+00  0.526315789470E+00 -0.203223704065E-01
  0.643290544899E+00  0.526315789470E+00 -0.312080334790E-01
  0.500000000000E+00  0.526315789470E+00 -0.437443317473E-01
  0.356709455101E+00  0.526315789470E+00 -0.312080334790E-01
  0.232285756821E+00  0.526315789470E+00 -0.203223704065E-01
  0.136815198561E+00  0.526315789470E+00 -0.119697788603E-01
  0.702822349599E-01  0.526315789470E+00 -0.614889879598E-02
  0.269655358638E-01  0.526315789470E+00 -0.235917868470E-02
  0.883738164913E-11  0.526315789470E+00  0.187623218601E-26
  0.269655358638E-01  0.526315789470E+00  0.235917868470E-02
  0.702822349599E-01  0.526315789470E+00  0.614889879598E-02
  0.136815198561E+00  0.526315789470E+00  0.119697788603E-01
  0.232285756821E+00  0.526315789470E+00  0.203223704065E-01
  0.356709455101E+00  0.526315789470E+00  0.312080334790E-01
  0.500000000000E+00  0.526315789470E+00  0.437443317473E-01
  0.643290544899E+00  0.526315789470E+00  0.312080334790E-01
  0.767714243179E+00  0.526315789470E+00  0.203223704065E-01
  0.863184801439E+00  0.526315789470E+00  0.119697788603E-01
  0.929717765039E+00  0.526315789470E+00  0.614889879598E-02
  0.973034464139E+00  0.526315789470E+00  0.235917868470E-02
  0.973034464139E+00  0.631578947370E+00 -0.235917868470E-02
  0.999999999991E+00  0.631578947370E+00 -0.383648804656E-12
  0.929717765039E+00  0.631578947370E+00 -0.614889879598E-02
  0.863184801439E+00  0.631578947370E+00 -0.119697788603E-01
  0.767714243179E+00  0.631578947370E+00 -0.203223704065E-01
  0.643290544899E+00  0.631578947370E+00 -0.312080334790E-01
  0.500000000000E+00  0.631578947370E+00 -0.437443317473E-01
  0.356709455101E+00  0.631578947370E+00 -0.312080334790E-01
  0.232285756821E+00  0.631578947370E+00 -0.203223704065E-01
  0.136815198561E+00  0.631578947370E+00 -0.119697788603E-01
  0.702822349599E-01  0.631578947370E+00 -0.614889879598E-02
  0.269655358638E-01  0.631578947370E+00 -0.235917868470E-02
  0.883738164878E-11  0.631578947370E+00  0.000000000000E+00
  0.269655358638E-01  0.631578947370E+00  0.235917868470E-02
  0.702822349599E-01  0.631578947370E+00  0.614889879598E-02
  0.136815198561E+00  0.631578947370E+00  0.119697788603E-01
  0.232285756821E+00  0.631578947370E+00  0.203223704065E-01
[...]
POINT_DATA                1127
SCALARS phi float 1
LOOKUP_TABLE default
 -0.110721598756E-14
  0.151788304148E-17
  0.168189837767E-14
  0.281892564846E-17
  0.346944695195E-17
  0.108420217249E-16
  0.000000000000E+00
  0.433680868994E-17
  0.173472347598E-17
  0.346944695195E-17
  0.693889390391E-17
  0.000000000000E+00
 -0.173472347598E-16
  0.346944695195E-17
  0.000000000000E+00
 -0.346944695195E-17
 -0.520417042793E-17
 -0.173472347598E-17
 -0.173472347598E-17
  0.000000000000E+00
 -0.867361737988E-18
  0.867361737988E-18
 -0.125915183228E-10
 -0.867361737988E-17
 -0.100974195868E-27
  0.100974195868E-27
  0.000000000000E+00
  0.000000000000E+00
 -0.867361737988E-18
 -0.867361737988E-18
  0.000000000000E+00
 -0.346944695195E-17
 -0.173472347598E-17
 -0.173472347598E-17
 -0.104083408559E-16
  0.693889390391E-17
 -0.346944695195E-17
 -0.346944695195E-17
 -0.346944695195E-17
  0.346944695195E-17
 -0.346944695195E-17
 -0.346944695195E-17
  0.260208521397E-17
 -0.693889390391E-17
  0.910729824888E-17
  0.867361737988E-18
  0.542101086243E-17
 -0.433680868994E-18
  0.127935856353E-16
 -0.129166564297E-13
  0.693889390391E-17
  0.173472347598E-17
 -0.173472347598E-17
 -0.104083408559E-16
 -0.346944695195E-17
 -0.346944695195E-17
 -0.173472347598E-17
  0.693889390391E-17
  0.867361737988E-18
 -0.355618312575E-16
  0.100974195868E-27
 -0.216840434497E-18
  0.607153216592E-17
  0.867361737988E-17
  0.000000000000E+00
  0.104083408559E-16
 -0.138777878078E-16
  0.104083408559E-16
 -0.693889390391E-17
 -0.520417042793E-17
  0.177809156288E-16
  0.715573433840E-17
  0.169135538908E-16
  0.261102884560E-13
 -0.122731685925E-15
 -0.104083408559E-15
  0.000000000000E+00
 -0.312250225676E-16
  0.693889390391E-17
 -0.346944695195E-17
 -0.346944695195E-17
  0.000000000000E+00
 -0.173472347598E-17
  0.247545040022E-14
  0.000000000000E+00
  0.000000000000E+00
  0.867361737988E-18
 -0.173472347598E-17
 -0.520417042793E-17
 -0.346944695195E-17
 -0.104083408559E-16
  0.659194920871E-16
  0.329597460436E-16
 -0.806646416329E-16
 -0.641847686111E-16
  0.411996825544E-17
  0.503069808033E-16
 -0.415372646835E-13
 -0.316587034366E-15
  0.104083408559E-15
  0.123165366794E-15
  0.971445146547E-16
 -0.242861286637E-16
 -0.346944695195E-17
 -0.693889390391E-17
  0.346944695195E-17
  0.173472347598E-17
  0.236356073602E-16
  0.100974195868E-27
  0.650521303491E-18
  0.867361737988E-18
 -0.173472347598E-17
 -0.121430643318E-16
  0.693889390391E-17
 -0.277555756156E-16
 -0.256739074445E-15
 -0.520417042793E-16
 -0.138777878078E-16
 -0.611490025282E-16
 -0.145283091113E-16
  0.367761376907E-15
 -0.155856084454E-12
 -0.417634676841E-15
 -0.159334351268E-14
  0.138777878078E-15
  0.104777297949E-14
  0.277555756156E-16
  0.346944695195E-17
  0.173472347598E-17
  0.104083408559E-16
 -0.867361737988E-18
 -0.126201132877E-14
  0.100974195868E-27
  0.000000000000E+00
  0.000000000000E+00
  0.173472347598E-17
 -0.346944695195E-17
 -0.242861286637E-16
  0.104083408559E-16
 -0.693889390391E-17
 -0.780625564190E-15
 -0.101568059518E-14
 -0.494396190653E-16
  0.147451495458E-16
 -0.650304463057E-15
 -0.122118211937E-12
  0.160114976833E-14
 -0.244596010113E-15
 -0.139124822773E-14
 -0.763278329430E-16
 -0.794503351997E-15
 -0.173472347598E-15
 -0.416333634234E-16
 -0.572458747072E-16
 -0.555111512313E-16
  0.344937967078E-11
 -0.201948391737E-27
  0.216840434497E-18
  0.329597460436E-16
  0.763278329430E-16
  0.123165366794E-15
  0.218575157973E-15
  0.791033905045E-15
 -0.957567358739E-15
 -0.395690424870E-14
  0.323352455922E-14
  0.546437894933E-15
 -0.216840434497E-16
  0.210335221462E-15
 -0.218315717149E-11
 -0.413471340499E-14
  0.378516662458E-14
  0.268882138776E-14
 -0.145716771982E-14
 -0.267147415300E-15
 -0.211636264069E-15
 -0.589805981832E-16
 -0.242861286637E-16
 -0.624500451352E-16
 -0.142355745247E-14
 -0.302922587605E-27
 -0.650521303491E-18
  0.607153216592E-17
  0.503069808033E-16
  0.123165366794E-15
  0.971445146547E-16
  0.371230823859E-15
 -0.891647866652E-15
 -0.136453348620E-13
  0.395516952523E-15
 -0.392914867309E-15
  0.503286648468E-15
 -0.849732610664E-14
 -0.244982140246E-12
 -0.352756018840E-14
 -0.300801050734E-14
  0.203691230549E-13
 -0.284043621956E-13
 -0.974914593499E-15
 -0.208166817117E-15
  0.150920942410E-15
 -0.884708972748E-16
  0.117961196366E-15
  0.371187455772E-13
 -0.100974195868E-27
  0.000000000000E+00
  0.130104260698E-15
 -0.105818132035E-15
  0.000000000000E+00
 -0.211636264069E-15
  0.114491749414E-15
  0.142802436542E-13
  0.319119730641E-13
 -0.302223523985E-13
 -0.383720832886E-14
  0.292951427006E-15
  0.388029452320E-13
 -0.914184499585E-13
  0.179222955921E-13
  0.615505910129E-13
  0.119418364086E-13
  0.686950496487E-15
  0.151788304148E-13
  0.288657986403E-14
  0.957567358739E-15
  0.714706072102E-15
  0.155171014926E-14
  0.318863425247E-12
  0.302922587605E-27
 -0.867361737988E-18
 -0.971445146547E-15
 -0.147104550763E-14
 -0.128369537222E-14
 -0.532560107125E-14
 -0.123061283386E-13
 -0.731879834515E-13
  0.105951705742E-12
  0.772559100026E-14
 -0.137754391227E-13
 -0.388794899053E-14
  0.300926818186E-13
 -0.705719977492E-12
  0.490059381963E-16
  0.284311636733E-12
 -0.215679904492E-12
  0.952571355128E-13
  0.240779618466E-13
  0.927036225562E-14
  0.181625547935E-14
  0.189431803577E-14
  0.217707796235E-14
  0.193770563831E-12
  0.000000000000E+00
 -0.216840434497E-18
 -0.164885466392E-14
 -0.303056191253E-14
 -0.334281213821E-14
 -0.111091691402E-13
 -0.288241652768E-13
  0.230100660747E-12
  0.724191540069E-12
  0.222312619702E-12
  0.107617907641E-13
 -0.168029652692E-13
 -0.102215328215E-12
 -0.531706989093E-12
 -0.437120391966E-12
 -0.325292744130E-12
  0.621534074208E-13
  0.100683350546E-13
  0.274190392613E-13
  0.238351005599E-14
  0.497518692910E-14
  0.631092400560E-14
  0.843769498715E-14
 -0.133680683710E-09
  0.100974195868E-27
 -0.216840434497E-18
 -0.383547360538E-14
 -0.103615033220E-13
 -0.985322934355E-14
 -0.241195952100E-13
 -0.235922392733E-14
  0.150591344950E-12
 -0.146021215952E-11
 -0.560340836231E-12
 -0.389770247328E-12
 -0.156599993389E-13
 -0.679332675182E-12
 -0.830847353807E-12
  0.775732776626E-12
 -0.282696782650E-11
 -0.476566702767E-12
 -0.116077633616E-11
 -0.750961792750E-13
  0.929811783124E-14
  0.655031584529E-14
 -0.435068647775E-14
 -0.272004641033E-14
 -0.899918594505E-12
  0.100974195868E-27
  0.216840434497E-18
  0.232279473433E-14
  0.121257170971E-14
 -0.156975127341E-13
 -0.483640905102E-14
 -0.982200432098E-13
 -0.844740943862E-13
 -0.102502208110E-11
 -0.200554937241E-11
 -0.486696186824E-12
  0.642402797624E-13
  0.133379266833E-11
  0.767785886409E-12
 -0.212045008288E-11
 -0.439652134143E-11
  0.242306175124E-12
 -0.156500506998E-11
 -0.431564506354E-13
 -0.155792045931E-12
  0.127155230789E-14
  0.736390115552E-14
 -0.210118381028E-13
 -0.313020009218E-11
  0.473432212326E-11
  0.000000000000E+00
  0.370901226399E-13
  0.603250088771E-13
  0.649306997058E-13
  0.105391390059E-12
  0.327602528438E-12
  0.114155213060E-12
 -0.102253032430E-10
 -0.512670288166E-11
 -0.899497056700E-12
 -0.202370672303E-12
  0.111087428319E-10
 -0.632771396045E-12
  0.271621961034E-11
  0.658169352352E-11
 -0.548520950883E-11
  0.150878268212E-11
  0.238190717150E-11
  0.159601498684E-11
  0.226303351059E-12
  0.277109932223E-12
  0.333891768400E-12
 -0.876603390570E-11
  0.157519745555E-24
  0.358220397789E-15
 -0.418404026703E-12
 -0.530776811392E-12
 -0.362657820441E-12
 -0.141120795605E-11
 -0.379355574731E-11
 -0.276261305499E-11
  0.661470669905E-10
 -0.399194566292E-12
 -0.615762822676E-11
 -0.291192851082E-12
 -0.316116317151E-10
 -0.170598810686E-11
 -0.572684477965E-11
 -0.473511152163E-10
 -0.322239925715E-10
  0.186641084532E-10
 -0.193181928787E-11
 -0.391832399860E-12
 -0.630814844804E-13
 -0.491537366365E-12
 -0.540174675823E-12
  0.906571840167E-10
 -0.504870979341E-27
 -0.433680868994E-18
  0.452502618709E-12
  0.976305841727E-12
  0.382509995900E-12
  0.165354535619E-11
  0.166972338733E-11
 -0.123111763839E-10
 -0.371674808985E-10
 -0.405673064585E-10
 -0.222509614900E-10
  0.143234599528E-11
  0.603626146598E-10
  0.139217630479E-12
  0.118324497336E-09
  0.952786226652E-10
  0.100296968647E-09
  0.697761223800E-10
  0.204073875854E-10
  0.609067657420E-11
  0.966260058077E-12
  0.175048343876E-11
  0.188691250125E-11
 -0.561681389333E-10
  0.100974195868E-27
  0.000000000000E+00
 -0.150037968161E-11
 -0.246181373897E-11
 -0.228560920190E-11
 -0.624817558803E-11
 -0.243325533333E-10
  0.191307400477E-09
  0.995360778175E-09
  0.260566781693E-09
 -0.712776565201E-10
 -0.110113700926E-10
 -0.791386314120E-10
  0.104362902001E-09
 -0.473930096556E-10
  0.496231833402E-09
  0.519541805410E-10
  0.294301168505E-09
 -0.284932806516E-10
 -0.213103978908E-10
 -0.104662632727E-11
 -0.106039656222E-11
 -0.266906028529E-11
  0.652222236722E-10
  0.000000000000E+00
 -0.216840434497E-18
  0.424318392922E-11
  0.394122581793E-11
  0.230541627455E-11
  0.104009335866E-10
  0.227173939382E-10
 -0.853939731427E-10
  0.101545844650E-09
  0.486295633102E-09
  0.145811163491E-09
 -0.244894035606E-09
  0.272017592479E-09
 -0.127562023444E-11
  0.600860933057E-09
 -0.122949937471E-08
  0.321880628054E-09
 -0.232184474598E-08
  0.103635641735E-10
 -0.287393026044E-11
 -0.203931663223E-11
 -0.402568950397E-11
  0.679810981813E-11
  0.260689452013E-09
  0.302922587605E-27
  0.867361737988E-18
  0.293065311602E-11
  0.146572459031E-10
 -0.213720534326E-11
  0.744136696706E-11
  0.134583420797E-10
 -0.410534897743E-09
  0.627470859993E-09
 -0.114218788941E-08
 -0.455062409629E-09
  0.332752193855E-10
  0.503031600749E-11
 -0.216840434497E-17
  0.149224495608E-10
 -0.331746176177E-09
 -0.277433195341E-09
 -0.101584212396E-09
  0.440086751763E-10
  0.350930985660E-10
 -0.547289297215E-11
  0.508707312386E-11
  0.113864573152E-10
  0.433680868994E-18
 -0.126217744835E-28
 -0.216840434497E-18
 -0.111383259387E-10
 -0.658934365405E-11
 -0.128880170425E-10
 -0.372976944468E-10
 -0.718935848354E-10
 -0.454468155817E-09
  0.307149778701E-10
 -0.242801150720E-10
  0.329986557827E-10
 -0.631818013706E-10
  0.443828548132E-10
  0.546229689084E-10
 -0.336845869990E-09
  0.254375600445E-10
 -0.503068957151E-09
  0.352189527542E-10
  0.114566099663E-10
 -0.333193368729E-11
  0.742100825235E-12
  0.649252093060E-11
 -0.433680868994E-18
 -0.108420217249E-18
 -0.616016135671E-11
 -0.296731909877E-11
 -0.626302829043E-12
 -0.155425412124E-10
 -0.425447212182E-10
  0.286372441385E-09
  0.244143667956E-10
  0.787363729987E-10
 -0.954436256049E-10
 -0.371306008943E-10
  0.217545620190E-10
  0.139619647251E-09
 -0.104430005008E-09
 -0.214486559590E-09
 -0.193623318767E-09
  0.412097474201E-10
  0.430605030799E-11
 -0.591507051673E-11
 -0.412284789642E-12
  0.364675390579E-11
 -0.216840434497E-18
 -0.216840434497E-18
 -0.450239585198E-11
 -0.447436619005E-11
 -0.269999300695E-12
 -0.580953167517E-11
 -0.326220508939E-10
  0.109604017962E-08
  0.188874341080E-09
 -0.200175208440E-10
 -0.239639618777E-09
 -0.851110548141E-10
  0.165663962583E-10
  0.115514886075E-09
  0.104160822762E-10
  0.506013065650E-10
 -0.523526713300E-09
  0.168441198489E-10
  0.129527118198E-11
 -0.258987276069E-11
 -0.185764164468E-11
  0.954866394287E-12
 -0.108420217249E-18
  0.000000000000E+00
 -0.162557380751E-11
 -0.196309808687E-11
 -0.267789262987E-13
 -0.190829296809E-11
 -0.226432882861E-10
  0.520573197396E-09
  0.471907023007E-10
  0.727164580720E-10
 -0.140962663979E-09
 -0.639238928717E-10
 -0.154065747790E-10
  0.819919589309E-11
 -0.123095544174E-11
  0.549156050494E-10
  0.419337871718E-10
  0.331503921536E-12
 -0.326631083292E-13
 -0.768274333041E-12
 -0.508612249539E-12
 -0.709190952491E-12
 -0.325260651746E-18
 -0.479813466534E-13
 -0.752652931299E-12
  0.198395987139E-12
  0.867438065821E-12
  0.118108474390E-11
  0.104083408559E-16
 -0.117961196366E-14
  0.260472199365E-12
  0.695121044059E-13
 -0.922194612341E-12
 -0.147150954616E-11
 -0.585469173142E-17
 -0.807793566946E-27
  0.000000000000E+00
 -0.577929197554E-12
 -0.192800636567E-12
 -0.927175003440E-13
  0.578636791260E-11
 -0.114376216831E-11
 -0.952363188311E-14
 -0.329439774072E-11
  0.807357652954E-13
  0.273168640486E-12
 -0.600680529622E-13
  0.164927001264E-13
  0.291190682677E-13
  0.394673009552E-12
 -0.118165893737E-11
  0.242408697282E-11
  0.519594783865E-12
  0.159388821586E-11
  0.106838149438E-12
 -0.588836271409E-12
  0.346944695195E-17
 -0.867361737988E-18
  0.346944695195E-17
  0.100974195868E-27
 -0.216840434497E-18
  0.173472347598E-17
  0.346944695195E-17
  0.180168380215E-13
 -0.173680514415E-13
  0.110882483750E-11
 -0.224365664936E-12
 -0.410331491008E-13
 -0.281103352401E-11
  0.596856765400E-12
 -0.156386188721E-12
 -0.215861433205E-13
 -0.179876296150E-12
  0.732020780797E-12
 -0.138752724588E-12
 -0.405798658565E-12
  0.119408302690E-11
 -0.229538610341E-13
 -0.104083408559E-16
 -0.138777878078E-16
  0.346944695195E-17
  0.000000000000E+00
  0.254757152873E-13
  0.000000000000E+00
  0.000000000000E+00
  0.000000000000E+00
  0.520417042793E-17
 -0.104083408559E-16
  0.000000000000E+00
  0.749886264195E-13
  0.112850701006E-12
 -0.105691497221E-11
 -0.197215507813E-12
 -0.127421120530E-11
 -0.431039969342E-12
 -0.878826916823E-13
 -0.147915533988E-13
 -0.175376206613E-12
 -0.213030114382E-12
 -0.274313557980E-12
 -0.895117313604E-15
  0.277555756156E-16
 -0.346944695195E-17
 -0.346944695195E-17
  0.000000000000E+00
  0.173472347598E-17
 -0.305745012641E-16
  0.100974195868E-27
 -0.216840434497E-18
 -0.173472347598E-17
 -0.693889390391E-17
 -0.346944695195E-17
 -0.104083408559E-16
 -0.242861286637E-16
  0.464253635535E-12
  0.324651763806E-12
 -0.437930941510E-13
 -0.152293542360E-12
 -0.119432675555E-12
  0.147805851956E-13
 -0.206239105655E-13
 -0.130294212919E-12
  0.214862849734E-13
  0.115319212513E-12
 -0.555111512313E-16
 -0.346944695195E-17
 -0.693889390391E-17
 -0.173472347598E-17
  0.173472347598E-17
  0.000000000000E+00
  0.244162329244E-15
 -0.100974195868E-27
 -0.433680868994E-18
 -0.867361737988E-18
  0.173472347598E-17
  0.000000000000E+00
 -0.138777878078E-16
  0.000000000000E+00
 -0.659194920871E-16
  0.231054758659E-12
  0.360917892794E-13
  0.102452334810E-12
  0.178097554066E-13
  0.917571927807E-13
  0.840018159198E-14
  0.402022165558E-15
 -0.384241249929E-15
  0.971445146547E-16
  0.364291929955E-15
  0.121430643318E-15
  0.312250225676E-16
  0.121430643318E-16
  0.104083408559E-16
  0.164798730218E-16
  0.919880491224E-14
  0.201948391737E-27
  0.000000000000E+00
 -0.173472347598E-17
 -0.208166817117E-16
 -0.121430643318E-16
 -0.555111512313E-16
 -0.142247325030E-15
 -0.190819582357E-15
  0.205217787208E-14
  0.261943244872E-15
  0.235055030995E-15
 -0.828547300213E-15
  0.120612142464E-12
 -0.117809408062E-14
  0.954097911787E-16
  0.954097911787E-16
 -0.336536354340E-15
  0.936750677027E-16
 -0.218575157973E-15
 -0.346944695195E-16
  0.346944695195E-17
 -0.121430643318E-16
 -0.182145964978E-16
 -0.118590033626E-14
 -0.302922587605E-27
  0.216840434497E-18
  0.000000000000E+00
  0.329597460436E-16
  0.173472347598E-17
  0.242861286637E-16
  0.100613961607E-15
  0.444089209850E-15
 -0.183707216106E-14
  0.422838847269E-14
  0.538197958422E-15
 -0.581132364452E-16
  0.260683581096E-12
 -0.468787335339E-14
 -0.416854051277E-14
 -0.374787006985E-14
  0.150573997715E-14
  0.318842174885E-14
 -0.780625564190E-15
 -0.971445146547E-16
 -0.693889390391E-17
 -0.100613961607E-15
 -0.815320033709E-16
  0.123604490358E-10
 -0.100974195868E-27
 -0.216840434497E-18
  0.902056207508E-16
  0.693889390391E-16
  0.140512601554E-15
  0.256739074445E-15
  0.697358837343E-15
  0.206779038336E-14
 -0.224525259496E-13
  0.554677831444E-14
  0.173082034816E-14
  0.308347097855E-15
  0.224303806120E-12
 -0.777372957672E-15
  0.239868888641E-14
 -0.184071508036E-13
 -0.997465998687E-15
  0.199527894207E-13
 -0.332373017997E-14
 -0.154043444667E-14
 -0.300107161344E-15
 -0.180411241502E-15
 -0.333066907388E-15
 -0.163590928998E-13
  0.000000000000E+00
  0.650521303491E-18
  0.235922392733E-15
  0.352148865623E-15
  0.411129463807E-15
  0.108940634291E-14
  0.264024913044E-14
  0.284841594755E-14
  0.223206869654E-13
 -0.118134668714E-14
  0.147512210780E-13
  0.219919568667E-14
  0.259137824317E-12
  0.306959319074E-14
 -0.138925329574E-13
  0.237639768974E-13
 -0.347170209247E-13
 -0.435033953305E-13
 -0.337230243730E-14
 -0.516947595841E-15
 -0.444089209850E-15
 -0.534294830601E-15
 -0.618428919186E-15
  0.463158157660E-13
  0.000000000000E+00
  0.216840434497E-18
  0.679144240845E-15
  0.103909936211E-14
  0.865627014512E-15
  0.137043154602E-14
  0.422925583443E-14
 -0.249800180541E-15
 -0.126587976212E-12
 -0.197385510714E-13
 -0.110510559037E-13
 -0.118156352757E-14
 -0.222777972827E-12
 -0.160883242492E-12
  0.416246898061E-14
  0.137179330395E-12
 -0.461540528018E-13
 -0.542933753511E-13
  0.359781648918E-13
  0.346944695195E-16
  0.313984949152E-15
  0.711236625150E-16
  0.855218673657E-15
  0.575798089764E-13
 -0.100974195868E-27
 -0.216840434497E-18
 -0.105991604382E-14
 -0.134614541736E-14
 -0.264371857739E-14
 -0.814279199624E-14
 -0.255871712707E-13
  0.551329815135E-13
  0.115881262919E-12
 -0.122599846941E-12
 -0.103003543195E-13
 -0.231266828604E-13
  0.120089281943E-12
 -0.119272647314E-12
  0.422821933715E-12
  0.244021816642E-12
  0.821181664334E-12
 -0.404017097555E-12
  0.576275138719E-14
  0.984629044964E-14
  0.381465692367E-14
  0.287964097012E-14
  0.373485964378E-14
 -0.173564439730E-11
 -0.100974195868E-27
 -0.433680868994E-18
 -0.374787006985E-14
 -0.103111963412E-13
 -0.314331893847E-14
 -0.107899800206E-13
  0.157374113741E-13
  0.194188415348E-12
  0.104498701359E-11
  0.365971142280E-12
  0.204171748952E-12
  0.828417195953E-14
 -0.379237209669E-12
  0.793389876366E-12
 -0.514226248388E-12
 -0.261630734438E-11
  0.474620343027E-14
  0.895731405715E-12
 -0.104641989518E-12
 -0.270790334600E-13
 -0.306872582900E-14
 -0.243381703680E-14
 -0.735262545293E-14
  0.131668070544E-11
  0.437547170743E-11
  0.000000000000E+00
  0.803870858768E-14
  0.846718528624E-14
  0.608540995373E-14
  0.236650976593E-13
  0.590465176753E-13
  0.262971242004E-11
 -0.441714373411E-12
 -0.325549222996E-11
 -0.376207745512E-12
  0.102055733656E-12
  0.251593450934E-12
 -0.183382649344E-11
  0.460153616599E-11
  0.427322153357E-11
  0.306587741306E-11
 -0.138455913401E-11
  0.468330235703E-12
  0.141553435640E-12
 -0.274780198595E-14
  0.170141678524E-13
 -0.101099684180E-13
 -0.103913954915E-09
  0.228201682662E-25
  0.713405029495E-16
 -0.115445847326E-13
 -0.321132009873E-13
  0.229868207802E-13
 -0.214255696518E-12
 -0.335047961597E-12
  0.413315215386E-13
  0.815828828105E-11
  0.908170587344E-11
  0.330449513239E-11
 -0.131917046731E-13
 -0.685856644915E-12
 -0.217653542758E-11
 -0.285607353739E-10
 -0.691376123019E-11
 -0.110340573484E-10
  0.209869968626E-10
  0.805001898474E-12
  0.233434799268E-12
  0.359452051457E-13
  0.218904755434E-13
  0.611776254655E-13
  0.681996061187E-11
  0.201948391737E-27
  0.433680868994E-18
 -0.129644558977E-13
 -0.181799020282E-12
 -0.143616021853E-12
 -0.327828042490E-12
  0.786558318477E-13
  0.137622899188E-11
 -0.760162714025E-10
 -0.139593102702E-10
 -0.125259555332E-10
 -0.211670568226E-11
  0.114370036879E-11
  0.322257273628E-10
 -0.209968917253E-10
  0.842102429455E-11
  0.132919578122E-10
 -0.395862682911E-10
  0.513072570540E-11
  0.110134124043E-12
 -0.124367530163E-12
  0.551815537708E-12
  0.309753091232E-12
 -0.242292193253E-10
  0.302922587605E-27
 -0.216840434497E-18
 -0.230425921399E-12
 -0.867512658931E-12
 -0.524913446043E-12
 -0.490218976523E-12
 -0.168180747107E-11
 -0.410367850812E-10
  0.442192775452E-10
  0.145595948492E-11
 -0.137466427130E-12
  0.323312868990E-11
 -0.349708404596E-10
 -0.341768974232E-10
  0.642154454611E-10
 -0.439186976717E-10
  0.122437277331E-09
  0.156511140853E-10
  0.361625486500E-10