# vtk DataFile Version 3.0
MachLine results file. Generated by MachLine, USU AeroLab (c) 2022.
ASCII
DATASET POLYDATA
POINTS                3847 float
  0.999999533566E+00  0.000000000000E+00 -0.203260721043E-07
  0.986936813822E+00  0.512820512820E-01 -0.114243937225E-02
  0.999999571434E+00  0.512820512820E-01 -0.186758399879E-07
  0.986936813641E+00  0.000000000000E+00 -0.114243729785E-02
  0.969870633276E+00  0.512820512820E-01 -0.263551462626E-02
  0.969870632988E+00  0.000000000000E+00 -0.263551133652E-02
  0.947784990451E+00  0.512820512820E-01 -0.456772904277E-02
  0.947784990016E+00  0.000000000000E+00 -0.456772406882E-02
  0.919551395340E+00  0.512820512820E-01 -0.703781156060E-02
  0.919551394721E+00  0.000000000000E+00 -0.703780448438E-02
  0.884018056609E+00  0.512820512820E-01 -0.101465304796E-01
  0.884018055791E+00  0.000000000000E+00 -0.101465211355E-01
  0.840166796670E+00  0.512820512820E-01 -0.139829658665E-01
  0.840166795682E+00  0.000000000000E+00 -0.139829545724E-01
  0.787342589715E+00  0.512820512820E-01 -0.186044281892E-01
  0.787342588640E+00  0.000000000000E+00 -0.186044158978E-01
  0.725530687321E+00  0.512820512820E-01 -0.240122131272E-01
  0.725530686294E+00  0.000000000000E+00 -0.240122013893E-01
  0.655612585875E+00  0.512820512820E-01 -0.301292067376E-01
  0.655612585060E+00  0.000000000000E+00 -0.301291974251E-01
  0.579493880592E+00  0.512820512820E-01 -0.367886982470E-01
  0.579493880139E+00  0.000000000000E+00 -0.367886930746E-01
  0.500000000000E+00  0.512820512820E-01 -0.437435033352E-01
  0.500000000000E+00  0.000000000000E+00 -0.437436108249E-01
  0.420506119861E+00  0.000000000000E+00 -0.367886930746E-01
  0.420506119408E+00  0.512820512820E-01 -0.367886982470E-01
  0.344387414940E+00  0.000000000000E+00 -0.301291974251E-01
  0.344387414125E+00  0.512820512820E-01 -0.301292067376E-01
  0.274469313706E+00  0.000000000000E+00 -0.240122013893E-01
  0.274469312679E+00  0.512820512820E-01 -0.240122131272E-01
  0.212657411360E+00  0.000000000000E+00 -0.186044158978E-01
  0.212657410285E+00  0.512820512820E-01 -0.186044281892E-01
  0.159833204318E+00  0.000000000000E+00 -0.139829545724E-01
  0.159833203330E+00  0.512820512820E-01 -0.139829658665E-01
  0.115981944209E+00  0.000000000000E+00 -0.101465211355E-01
  0.115981943391E+00  0.512820512820E-01 -0.101465304796E-01
  0.804486052799E-01  0.000000000000E+00 -0.703780448438E-02
  0.804486046608E-01  0.512820512820E-01 -0.703781156060E-02
  0.522150099807E-01  0.000000000000E+00 -0.456772406882E-02
  0.522150095456E-01  0.512820512820E-01 -0.456772904277E-02
  0.301293670112E-01  0.000000000000E+00 -0.263551133652E-02
  0.301293667234E-01  0.512820512820E-01 -0.263551462626E-02
  0.130631863634E-01  0.000000000000E+00 -0.114243729785E-02
  0.130631861819E-01  0.512820512820E-01 -0.114243937225E-02
  0.468212736333E-06  0.000000000000E+00  0.000000000000E+00
  0.430199504323E-06  0.512820512820E-01  0.000000000000E+00
  0.130631861819E-01  0.512820512820E-01  0.114243937225E-02
  0.130631863634E-01  0.000000000000E+00  0.114243729785E-02
  0.301293667234E-01  0.512820512820E-01  0.263551462626E-02
  0.301293670112E-01  0.000000000000E+00  0.263551133652E-02
  0.522150095456E-01  0.512820512820E-01  0.456772904277E-02
  0.522150099807E-01  0.000000000000E+00  0.456772406882E-02
  0.804486046608E-01  0.512820512820E-01  0.703781156060E-02
  0.804486052799E-01  0.000000000000E+00  0.703780448438E-02
  0.115981943391E+00  0.512820512820E-01  0.101465304796E-01
  0.115981944209E+00  0.000000000000E+00  0.101465211355E-01
  0.159833203330E+00  0.512820512820E-01  0.139829658665E-01
  0.159833204318E+00  0.000000000000E+00  0.139829545724E-01
  0.212657410285E+00  0.512820512820E-01  0.186044281892E-01
  0.212657411360E+00  0.000000000000E+00  0.186044158978E-01
  0.274469312679E+00  0.512820512820E-01  0.240122131272E-01
  0.274469313706E+00  0.000000000000E+00  0.240122013893E-01
  0.344387414125E+00  0.512820512820E-01  0.301292067376E-01
  0.344387414940E+00  0.000000000000E+00  0.301291974251E-01
  0.420506119408E+00  0.512820512820E-01  0.367886982470E-01
  0.420506119861E+00  0.000000000000E+00  0.367886930746E-01
  0.500000000000E+00  0.512820512820E-01  0.437435033352E-01
  0.500000000000E+00  0.000000000000E+00  0.437436108249E-01
  0.579493880139E+00  0.000000000000E+00  0.367886930746E-01
  0.579493880592E+00  0.512820512820E-01  0.367886982470E-01
  0.655612585060E+00  0.000000000000E+00  0.301291974251E-01
  0.655612585875E+00  0.512820512820E-01  0.301292067376E-01
  0.725530686294E+00  0.000000000000E+00  0.240122013893E-01
  0.725530687321E+00  0.512820512820E-01  0.240122131272E-01
  0.787342588640E+00  0.000000000000E+00  0.186044158978E-01
  0.787342589715E+00  0.512820512820E-01  0.186044281892E-01
  0.840166795682E+00  0.000000000000E+00  0.139829545724E-01
  0.840166796670E+00  0.512820512820E-01  0.139829658665E-01
  0.884018055791E+00  0.000000000000E+00  0.101465211355E-01
  0.884018056609E+00  0.512820512820E-01  0.101465304796E-01
  0.919551394721E+00  0.000000000000E+00  0.703780448438E-02
  0.919551395340E+00  0.512820512820E-01  0.703781156060E-02
  0.947784990016E+00  0.000000000000E+00  0.456772406882E-02
  0.947784990451E+00  0.512820512820E-01  0.456772904277E-02
  0.969870632988E+00  0.000000000000E+00  0.263551133652E-02
  0.969870633276E+00  0.512820512820E-01  0.263551462626E-02
  0.986936813641E+00  0.000000000000E+00  0.114243729785E-02
  0.986936813822E+00  0.512820512820E-01  0.114243937225E-02
  0.986936813822E+00  0.102564102560E+00 -0.114243937225E-02
  0.999999571434E+00  0.102564102560E+00 -0.186758399904E-07
  0.969870633276E+00  0.102564102560E+00 -0.263551462626E-02
  0.947784990451E+00  0.102564102560E+00 -0.456772904277E-02
  0.919551395340E+00  0.102564102560E+00 -0.703781156060E-02
  0.884018056609E+00  0.102564102560E+00 -0.101465304796E-01
  0.840166796670E+00  0.102564102560E+00 -0.139829658665E-01
  0.787342589715E+00  0.102564102560E+00 -0.186044281892E-01
  0.725530687321E+00  0.102564102560E+00 -0.240122131272E-01
  0.655612585875E+00  0.102564102560E+00 -0.301292067376E-01
  0.579493880592E+00  0.102564102560E+00 -0.367886982470E-01
  0.500000000000E+00  0.102564102560E+00 -0.437435033352E-01
  0.420506119408E+00  0.102564102560E+00 -0.367886982470E-01
  0.344387414125E+00  0.102564102560E+00 -0.301292067376E-01
  0.274469312679E+00  0.102564102560E+00 -0.240122131272E-01
  0.212657410285E+00  0.102564102560E+00 -0.186044281892E-01
  0.159833203330E+00  0.102564102560E+00 -0.139829658665E-01
  0.115981943391E+00  0.102564102560E+00 -0.101465304796E-01
  0.804486046608E-01  0.102564102560E+00 -0.703781156060E-02
  0.522150095456E-01  0.102564102560E+00 -0.456772904277E-02
  0.301293667234E-01  0.102564102560E+00 -0.263551462626E-02
  0.130631861819E-01  0.102564102560E+00 -0.114243937225E-02
  0.430199504380E-06  0.102564102560E+00  0.000000000000E+00
  0.130631861819E-01  0.102564102560E+00  0.114243937225E-02
  0.301293667234E-01  0.102564102560E+00  0.263551462626E-02
  0.522150095456E-01  0.102564102560E+00  0.456772904277E-02
  0.804486046608E-01  0.102564102560E+00  0.703781156060E-02
  0.115981943391E+00  0.102564102560E+00  0.101465304796E-01
  0.159833203330E+00  0.102564102560E+00  0.139829658665E-01
  0.212657410285E+00  0.102564102560E+00  0.186044281892E-01
  0.274469312679E+00  0.102564102560E+00  0.240122131272E-01
  0.344387414125E+00  0.102564102560E+00  0.301292067376E-01
  0.420506119408E+00  0.102564102560E+00  0.367886982470E-01
  0.500000000000E+00  0.102564102560E+00  0.437435033352E-01
  0.579493880592E+00  0.102564102560E+00  0.367886982470E-01
  0.655612585875E+00  0.102564102560E+00  0.301292067376E-01
  0.725530687321E+00  0.102564102560E+00  0.240122131272E-01
  0.787342589715E+00  0.102564102560E+00  0.186044281892E-01
  0.840166796670E+00  0.102564102560E+00  0.139829658665E-01
  0.884018056609E+00  0.102564102560E+00  0.101465304796E-01
  0.919551395340E+00  0.102564102560E+00  0.703781156060E-02
  0.947784990451E+00  0.102564102560E+00  0.456772904277E-02
  0.969870633276E+00  0.102564102560E+00  0.263551462626E-02
  0.986936813822E+00  0.102564102560E+00  0.114243937225E-02
  0.986936813822E+00  0.153846153850E+00 -0.114243937225E-02
  0.999999571434E+00  0.153846153850E+00 -0.186758399890E-07
  0.969870633276E+00  0.153846153850E+00 -0.263551462626E-02
  0.947784990451E+00  0.153846153850E+00 -0.456772904277E-02
  0.919551395340E+00  0.153846153850E+00 -0.703781156060E-02
  0.884018056609E+00  0.153846153850E+00 -0.101465304796E-01
  0.840166796670E+00  0.153846153850E+00 -0.139829658665E-01
  0.787342589715E+00  0.153846153850E+00 -0.186044281892E-01
  0.725530687321E+00  0.153846153850E+00 -0.240122131272E-01
  0.655612585875E+00  0.153846153850E+00 -0.301292067376E-01
  0.579493880592E+00  0.153846153850E+00 -0.367886982470E-01
  0.500000000000E+00  0.153846153850E+00 -0.437435033352E-01
  0.420506119408E+00  0.153846153850E+00 -0.367886982470E-01
  0.344387414125E+00  0.153846153850E+00 -0.301292067376E-01
  0.274469312679E+00  0.153846153850E+00 -0.240122131272E-01
  0.212657410285E+00  0.153846153850E+00 -0.186044281892E-01
  0.159833203330E+00  0.153846153850E+00 -0.139829658665E-01
  0.115981943391E+00  0.153846153850E+00 -0.101465304796E-01
  0.804486046608E-01  0.153846153850E+00 -0.703781156060E-02
  0.522150095456E-01  0.153846153850E+00 -0.456772904277E-02
  0.301293667234E-01  0.153846153850E+00 -0.263551462626E-02
  0.130631861819E-01  0.153846153850E+00 -0.114243937225E-02
  0.430199504348E-06  0.153846153850E+00  0.000000000000E+00
  0.130631861819E-01  0.153846153850E+00  0.114243937225E-02
  0.301293667234E-01  0.153846153850E+00  0.263551462626E-02
  0.522150095456E-01  0.153846153850E+00  0.456772904277E-02
  0.804486046608E-01  0.153846153850E+00  0.703781156060E-02
  0.115981943391E+00  0.153846153850E+00  0.101465304796E-01
  0.159833203330E+00  0.153846153850E+00  0.139829658665E-01
[...]
POINT_DATA                3847
SCALARS phi float 1
LOOKUP_TABLE default
 -0.111001351632E-17
  0.314418630021E-17
 -0.316745985392E-17
 -0.520417042793E-17
  0.368628738645E-17
  0.477048955894E-17
  0.823993651089E-17
 -0.303576608296E-17
 -0.520417042793E-17
 -0.138777878078E-16
  0.251534904017E-16
  0.346944695195E-17
 -0.485722573274E-16
  0.346944695195E-17
 -0.109287578987E-15
 -0.346944695195E-17
 -0.902056207508E-16
 -0.104083408559E-16
 -0.242861286637E-16
 -0.277555756156E-16
 -0.173472347598E-16
  0.346944695195E-17
 -0.124900090270E-15
 -0.277555756156E-16
 -0.138777878078E-16
 -0.173472347598E-16
 -0.239391839685E-15
  0.346944695195E-17
  0.520417042793E-16
  0.104083408559E-16
 -0.954097911787E-16
  0.902056207508E-16
 -0.235922392733E-15
  0.173472347598E-17
  0.000000000000E+00
 -0.173472347598E-17
 -0.867361737988E-18
 -0.433680868994E-18
  0.000000000000E+00
  0.867361737988E-18
 -0.216840434497E-18
 -0.216840434497E-18
  0.000000000000E+00
 -0.108420217249E-18
  0.000000000000E+00
  0.330872245021E-23
  0.420670442924E-16
  0.823993651089E-17
 -0.433680868994E-18
  0.000000000000E+00
  0.000000000000E+00
  0.000000000000E+00
  0.433680868994E-18
  0.433680868994E-18
  0.173472347598E-17
 -0.433680868994E-17
  0.433680868994E-17
 -0.346944695195E-17
  0.346944695195E-17
 -0.520417042793E-17
 -0.346944695195E-17
  0.346944695195E-17
  0.190819582357E-16
 -0.364291929955E-16
  0.104083408559E-16
  0.242861286637E-16
 -0.173472347598E-16
 -0.242861286637E-16
 -0.832667268469E-16
 -0.520417042793E-16
 -0.589805981832E-16
  0.797972798949E-16
  0.971445146547E-16
  0.346944695195E-17
  0.954097911787E-16
 -0.138777878078E-16
  0.659194920871E-16
 -0.121430643318E-16
  0.867361737988E-17
  0.433680868994E-17
  0.346944695195E-17
  0.555111512313E-16
  0.130104260698E-17
  0.138777878078E-16
  0.492227786308E-16
  0.260208521397E-17
  0.106251812904E-16
  0.433680868994E-18
 -0.758941520740E-18
 -0.120168200267E-16
 -0.260208521397E-17
 -0.268882138776E-16
 -0.954097911787E-17
 -0.225514051877E-16
 -0.433680868994E-16
 -0.109287578987E-15
 -0.902056207508E-16
 -0.451028103754E-16
 -0.277555756156E-16
  0.485722573274E-16
  0.832667268469E-16
  0.763278329430E-16
  0.381639164715E-16
 -0.242861286637E-16
 -0.100613961607E-15
  0.867361737988E-17
 -0.867361737988E-18
  0.433680868994E-18
 -0.867361737988E-18
  0.433680868994E-18
  0.661744490042E-23
  0.120346441146E-15
  0.216840434497E-18
  0.346944695195E-17
  0.693889390391E-17
  0.000000000000E+00
 -0.867361737988E-18
 -0.294902990916E-16
 -0.208166817117E-16
 -0.112757025938E-15
  0.117961196366E-15
  0.451028103754E-16
 -0.346944695195E-17
 -0.589805981832E-16
 -0.624500451352E-16
 -0.693889390391E-17
 -0.173472347598E-17
  0.607153216592E-17
 -0.780625564190E-17
  0.242861286637E-16
  0.195156391047E-16
 -0.381639164715E-16
 -0.162630325873E-17
  0.413707435051E-17
 -0.607153216592E-17
 -0.277555756156E-16
 -0.294902990916E-16
 -0.503069808033E-16
 -0.121430643318E-15
  0.173472347598E-17
  0.693889390391E-17
 -0.277555756156E-16
  0.346944695195E-16
  0.416333634234E-16
 -0.173472347598E-16
  0.468375338514E-16
  0.102348685083E-15
  0.000000000000E+00
  0.433680868994E-17
 -0.433680868994E-17
 -0.520417042793E-17
 -0.173472347598E-17
 -0.433680868994E-18
  0.000000000000E+00
 -0.661744490042E-23
  0.222369865577E-15
  0.216840434497E-18
  0.130104260698E-17
  0.000000000000E+00
 -0.346944695195E-17
  0.797972798949E-16
 -0.260208521397E-16
 -0.398986399475E-16
 -0.381639164715E-16
  0.381639164715E-16
 -0.312250225676E-16
 -0.104083408559E-16
  0.145716771982E-15
  0.693889390391E-17
 -0.312250225676E-16
 -0.208166817117E-16
 -0.104083408559E-16
 -0.173472347598E-17
  0.173472347598E-17
 -0.195156391047E-16
 -0.139862080251E-16
 -0.520417042793E-16
 -0.341632177342E-16
 -0.333934269126E-16
 -0.615826833972E-16
 -0.806646416329E-16
 -0.563785129692E-16
 -0.171737624122E-15
  0.693889390391E-17
  0.589805981832E-16
 -0.555111512313E-16
 -0.555111512313E-16
 -0.277555756156E-16
 -0.728583859910E-16
 -0.346944695195E-16
 -0.693889390391E-17
 -0.156125112838E-16
  0.173472347598E-17
 -0.130104260698E-16
 -0.867361737988E-18
 -0.173472347598E-17
 -0.151788304148E-17
 -0.542101086243E-18
 -0.661744490042E-23
  0.154173548927E-15
 -0.650521303491E-18
 -0.260208521397E-17
  0.173472347598E-17
  0.607153216592E-17
 -0.954097911787E-17
 -0.346944695195E-16
 -0.138777878078E-16
  0.329597460436E-16
 -0.485722573274E-16
  0.728583859910E-16
 -0.312250225676E-16
 -0.104083408559E-15
 -0.832667268469E-16
 -0.138777878078E-16
 -0.225514051877E-16
 -0.156125112838E-16
  0.173472347598E-17
 -0.650521303491E-17
 -0.563785129692E-17
 -0.152872506320E-16
 -0.387060175577E-16
 -0.392884585881E-16
  0.158293517183E-16
 -0.251534904017E-16
 -0.815320033709E-16
 -0.867361737988E-17
 -0.154390389362E-15
 -0.114491749414E-15
  0.274086309204E-15
 -0.346944695195E-17
  0.763278329430E-16
  0.693889390391E-17
  0.138777878078E-16
 -0.416333634234E-16
 -0.520417042793E-16
  0.780625564190E-16
  0.823993651089E-16
  0.745931094670E-16
  0.130104260698E-17
 -0.130104260698E-17
  0.867361737988E-18
  0.325260651746E-18
  0.000000000000E+00
  0.121647483753E-15
  0.151788304148E-17
 -0.433680868994E-18
 -0.173472347598E-17
  0.607153216592E-17
  0.260208521397E-16
  0.867361737988E-17
 -0.277555756156E-16
 -0.208166817117E-16
 -0.208166817117E-16
 -0.242861286637E-16
 -0.451028103754E-16
 -0.381639164715E-16
 -0.242861286637E-16
 -0.919403442268E-16
  0.117961196366E-15
  0.615826833972E-16
  0.286229373536E-16
 -0.277555756156E-16
  0.238524477947E-17
 -0.122514845491E-16
  0.215756232325E-16
 -0.157517687943E-16
 -0.331765864781E-16
  0.143114686768E-16
 -0.312250225676E-16
 -0.103216046821E-15
  0.312250225676E-16
  0.364291929955E-16
 -0.312250225676E-16
  0.832667268469E-16
  0.277555756156E-16
  0.277555756156E-16
  0.145716771982E-15
  0.173472347598E-16
  0.294902990916E-16
 -0.416333634234E-16
 -0.607153216592E-17
  0.728583859910E-16
 -0.208166817117E-16
 -0.650521303491E-17
 -0.433680868994E-17
  0.000000000000E+00
 -0.330872245021E-23
  0.262376925741E-16
  0.303576608296E-17
  0.125767452008E-16
  0.221177243187E-16
  0.346944695195E-17
 -0.286229373536E-16
 -0.572458747072E-16
  0.190819582357E-16
  0.572458747072E-16
 -0.100613961607E-15
 -0.242861286637E-16
 -0.149186218934E-15
 -0.215105711021E-15
  0.000000000000E+00
  0.641847686111E-16
  0.520417042793E-16
 -0.346944695195E-17
  0.225514051877E-16
  0.997465998687E-17
 -0.867361737988E-18
 -0.975781955237E-18
 -0.542101086243E-17
 -0.173082580093E-17
 -0.112106504635E-15
 -0.177809156288E-16
 -0.112757025938E-16
  0.624500451352E-16
  0.346944695195E-16
  0.121430643318E-16
 -0.763278329430E-16
  0.000000000000E+00
 -0.124900090270E-15
  0.346944695195E-17
 -0.971445146547E-16
  0.867361737988E-17
 -0.641847686111E-16
 -0.277555756156E-16
 -0.520417042793E-16
 -0.277555756156E-16
  0.433680868994E-17
 -0.433680868994E-17
 -0.216840434497E-18
 -0.325260651746E-18
 -0.330872245021E-23
 -0.145283091113E-16
 -0.108420217249E-17
  0.346944695195E-17
  0.000000000000E+00
  0.867361737988E-17
  0.225514051877E-16
  0.659194920871E-16
 -0.346944695195E-17
  0.111022302463E-15
  0.117961196366E-15
  0.797972798949E-16
 -0.346944695195E-17
 -0.242861286637E-16
 -0.728583859910E-16
  0.711236625150E-16
  0.117961196366E-15
  0.763278329430E-16
  0.780625564190E-16
  0.108420217249E-16
 -0.808814820674E-16
 -0.145283091113E-16
  0.101915004214E-15
  0.891431403412E-16
  0.459701721134E-16
 -0.611490025282E-16
 -0.329597460436E-16
 -0.355618312575E-16
 -0.164798730218E-15
 -0.659194920871E-16
 -0.971445146547E-16
 -0.104083408559E-16
 -0.131838984174E-15
 -0.138777878078E-16
  0.451028103754E-16
 -0.140512601554E-15
  0.867361737988E-17
  0.235922392733E-15
 -0.780625564190E-17
 -0.260208521397E-17
  0.260208521397E-17
  0.303576608296E-17
 -0.108420217249E-17
  0.108420217249E-18
  0.992616735064E-23
 -0.157209315010E-16
 -0.151788304148E-17
 -0.260208521397E-17
 -0.867361737988E-18
 -0.780625564190E-17
  0.130104260698E-16
  0.208166817117E-16
 -0.121430643318E-16
 -0.364291929955E-16
  0.000000000000E+00
 -0.555111512313E-16
  0.346944695195E-17
 -0.832667268469E-16
  0.867361737988E-16
  0.312250225676E-16
  0.537764277553E-16
  0.147451495458E-16
  0.000000000000E+00
  0.212503625807E-16
  0.474880551549E-16
  0.148752538065E-15
 -0.356702514748E-16
 -0.195413280258E-16
  0.288397777881E-16
 -0.212503625807E-16
 -0.208166817117E-16
 -0.650521303491E-16
 -0.433680868994E-16
 -0.936750677027E-16
  0.693889390391E-17
 -0.346944695195E-16
 -0.555111512313E-16
  0.902056207508E-16
 -0.138777878078E-16
 -0.138777878078E-15
  0.142247325030E-15
  0.107552855511E-15
 -0.433680868994E-17
  0.130104260698E-16
  0.433680868994E-18
  0.390312782095E-17
  0.108420217249E-17
 -0.108420217249E-18
 -0.231610571515E-22
  0.634258270904E-16
 -0.433680868994E-18
 -0.216840434497E-17
 -0.823993651089E-17
 -0.867361737988E-17
  0.121430643318E-16
  0.138777878078E-16
  0.797972798949E-16
  0.641847686111E-16
 -0.763278329430E-16
 -0.416333634234E-16
  0.104083408559E-16
  0.693889390391E-16
 -0.242861286637E-16
 -0.381639164715E-16
  0.641847686111E-16
 -0.312250225676E-16
  0.000000000000E+00
  0.767615138120E-16
  0.173472347598E-16
  0.123599047663E-16
 -0.235271871429E-16
  0.404923802650E-16
 -0.490059381963E-16
 -0.542101086243E-16
  0.390312782095E-16
 -0.607153216592E-16
 -0.468375338514E-16
  0.294902990916E-16
 -0.381639164715E-16
 -0.381639164715E-16
  0.589805981832E-16
  0.902056207508E-16
 -0.867361737988E-16
 -0.850014503229E-16
 -0.104083408559E-16
  0.537764277553E-16
  0.260208521397E-16
  0.173472347598E-17
  0.303576608296E-17
  0.130104260698E-17
 -0.433680868994E-18
 -0.650521303491E-18
 -0.165436122511E-22
 -0.411996825544E-17
 -0.151788304148E-17
  0.000000000000E+00
 -0.390312782095E-17
  0.693889390391E-17
 -0.780625564190E-17
  0.346944695195E-17
  0.156125112838E-16
  0.659194920871E-16
  0.589805981832E-16
  0.204697370165E-15
  0.176941794550E-15
  0.142247325030E-15
 -0.242861286637E-16
  0.104083408559E-16
 -0.109287578987E-15
  0.277555756156E-15
  0.416333634234E-16
 -0.338271077815E-16
  0.533427468863E-16
 -0.135525271561E-16
 -0.119587499625E-15
 -0.155122464056E-15
 -0.177158634984E-15
 -0.149619899803E-15
 -0.150920942410E-15
 -0.182145964978E-15
  0.711236625150E-16
 -0.433680868994E-16
 -0.277555756156E-16
  0.194289029309E-15
  0.451028103754E-16
 -0.142247325030E-15
 -0.797972798949E-16
  0.728583859910E-16
 -0.676542155631E-16
 -0.102348685083E-15
 -0.659194920871E-16
 -0.104083408559E-16
 -0.867361737988E-17
 -0.303576608296E-17
 -0.650521303491E-18
  0.758941520740E-18
  0.231610571515E-22
 -0.838088279331E-16
 -0.260208521397E-17
  0.433680868994E-18
  0.130104260698E-17
  0.867361737988E-18
  0.277555756156E-16
  0.416333634234E-16
  0.780625564190E-16
 -0.135308431126E-15
  0.208166817117E-16
  0.142247325030E-15
  0.173472347598E-16
  0.416333634234E-16
 -0.346944695195E-16
 -0.156125112838E-16
  0.988792381307E-16
 -0.806646416329E-16
  0.511743425413E-16
 -0.247198095327E-16
 -0.485722573274E-16
 -0.948676900925E-16
  0.308997619158E-16
 -0.173756235984E-16
 -0.179977560633E-16
  0.954097911787E-17
 -0.433680868994E-16
  0.156125112838E-16
 -0.161329283266E-15
  0.641847686111E-16
 -0.589805981832E-16
  0.145716771982E-15
  0.208166817117E-16
  0.902056207508E-16
  0.624500451352E-16
 -0.815320033709E-16
 -0.433680868994E-16
  0.520417042793E-17
  0.225514051877E-16
 -0.520417042793E-17
 -0.607153216592E-17
 -0.563785129692E-17
 -0.867361737988E-18
  0.325260651746E-18
  0.198523347013E-22
 -0.444522890719E-16
  0.195156391047E-17
  0.130104260698E-17
  0.650521303491E-17
  0.121430643318E-16
 -0.104083408559E-16
 -0.867361737988E-17
  0.641847686111E-16
  0.485722573274E-16
 -0.208166817117E-16
  0.104083408559E-16
  0.149186218934E-15
  0.142247325030E-15
  0.156125112838E-15
  0.176941794550E-15
 -0.111022302463E-15
  0.355618312575E-16
 -0.381639164715E-16
  0.672205346941E-16
  0.461870125479E-16
  0.303576608296E-16
  0.196240593220E-16
  0.835110958522E-17
 -0.216840434497E-18
 -0.889045781438E-16
 -0.120563281580E-15
 -0.546437894933E-16
  0.520417042793E-17
 -0.225514051877E-16
  0.138777878078E-16
 -0.971445146547E-16
  0.971445146547E-16
 -0.624500451352E-16
 -0.166533453694E-15
 -0.364291929955E-16
 -0.520417042793E-16
 -0.277555756156E-16
 -0.945424294407E-16
  0.260208521397E-17
 -0.130104260698E-17
 -0.346944695195E-17
  0.000000000000E+00
 -0.433680868994E-18
 -0.992616735064E-23
 -0.882540568403E-16
 -0.108420217249E-17
 -0.346944695195E-17
 -0.737257477290E-17
  0.520417042793E-17
  0.372965547335E-16
  0.381639164715E-16
 -0.294902990916E-16
  0.416333634234E-16
  0.114491749414E-15
  0.100613961607E-15
 -0.121430643318E-15
  0.124900090270E-15
  0.128369537222E-15
  0.185615411930E-15
  0.213370987545E-15
 -0.693889390391E-17
 -0.954097911787E-16
 -0.520417042793E-16
  0.216840434497E-17
 -0.802309607639E-17
 -0.475964753721E-16
 -0.117931520435E-15
 -0.190819582357E-16
  0.260208521397E-16
  0.433680868994E-16
 -0.234187669257E-16
 -0.693889390391E-16
  0.138777878078E-16
  0.555111512313E-16
  0.173472347598E-16
 -0.555111512313E-16
 -0.121430643318E-15
  0.346944695195E-17
 -0.156125112838E-16
 -0.208166817117E-16
 -0.143982048506E-15
 -0.173472347598E-17
 -0.433680868994E-17
 -0.650521303491E-17
  0.433680868994E-18
 -0.151788304148E-17
  0.433680868994E-18
  0.132348898008E-22
 -0.112757025938E-15
  0.151788304148E-17
  0.260208521397E-17
  0.520417042793E-17
  0.173472347598E-17
 -0.164798730218E-16
 -0.416333634234E-16
 -0.346944695195E-17
  0.173472347598E-16
 -0.138777878078E-16
  0.197758476261E-15
  0.135308431126E-15
 -0.131838984174E-15
  0.451028103754E-16
  0.192554305833E-15
  0.123165366794E-15
  0.971445146547E-16
  0.117961196366E-15
  0.663531729561E-16
 -0.166967134563E-16
 -0.415249432062E-16
  0.593058588350E-16
  0.344757000999E-16
  0.216840434497E-18
 -0.403323208165E-16
  0.143982048506E-15
  0.581132364452E-16
  0.398986399475E-16
 -0.555111512313E-16
 -0.100613961607E-15
 -0.659194920871E-16
 -0.728583859910E-16
 -0.104083408559E-15
 -0.485722573274E-16
 -0.867361737988E-17
  0.121430643318E-16
 -0.208166817117E-16
  0.115359111152E-15
  0.173472347598E-17
  0.477048955894E-17
  0.390312782095E-17
 -0.281892564846E-17
  0.433680868994E-18
  0.132348898008E-22
 -0.650521303491E-17
 -0.130104260698E-17
 -0.477048955894E-17
 -0.173472347598E-17
 -0.173472347598E-17
  0.208166817117E-16
  0.346944695195E-16
 -0.208166817117E-16
  0.329597460436E-16
  0.346944695195E-16
  0.312250225676E-16
  0.107552855511E-15
  0.693889390391E-16
  0.763278329430E-16
 -0.121430643318E-16
  0.936750677027E-16
  0.170870262384E-15
  0.529090660173E-16
  0.303576608296E-17
  0.175640751943E-16
  0.945424294407E-16
  0.783878170707E-16
  0.170179970236E-16
  0.823993651089E-16
  0.165232411087E-15
  0.693889390391E-16
 -0.633174068732E-16
  0.000000000000E+00
  0.433680868994E-16
 -0.659194920871E-16
 -0.121430643318E-15
 -0.832667268469E-16
  0.659194920871E-16
 -0.693889390391E-16
 -0.693889390391E-17
  0.225514051877E-16
  0.208166817117E-16
  0.156125112838E-16
  0.867361737988E-17
 -0.260208521397E-17
 -0.390312782095E-17
  0.000000000000E+00
  0.975781955237E-18
  0.264697796017E-22
 -0.234187669257E-16
 -0.130104260698E-17
 -0.433680868994E-18
  0.433680868994E-18
 -0.138777878078E-16
 -0.954097911787E-16
 -0.190819582357E-16
 -0.242861286637E-16
 -0.242861286637E-16
  0.693889390391E-17
  0.416333634234E-16
 -0.485722573274E-16
  0.485722573274E-16
 -0.242861286637E-16
 -0.572458747072E-16
 -0.104083408559E-16
 -0.286229373536E-16
  0.242861286637E-16
  0.148752538065E-15
  0.137910516340E-15
  0.122623265708E-15
 -0.403323208165E-16
  0.908146969969E-16
 -0.240692882292E-16
 -0.121430643318E-16
 -0.242861286637E-16
 -0.147451495458E-16
  0.104083408559E-15
 -0.607153216592E-16
 -0.173472347598E-16
  0.312250225676E-16
  0.107552855511E-15
  0.208166817117E-16
  0.659194920871E-16
  0.114491749414E-15
  0.589805981832E-16
  0.208166817117E-16
  0.520417042793E-17
  0.867361737988E-18
 -0.390312782095E-17
 -0.260208521397E-17
 -0.108420217249E-17
  0.000000000000E+00
 -0.992616735064E-23
  0.555111512313E-16
  0.867361737988E-18
  0.173472347598E-17
  0.477048955894E-17
 -0.346944695195E-17
 -0.693889390391E-17
 -0.416333634234E-16
 -0.398986399475E-16
 -0.485722573274E-16
 -0.208166817117E-16
  0.693889390391E-16
  0.138777878078E-16
 -0.104083408559E-16
 -0.693889390391E-17
  0.294902990916E-16
  0.138777878078E-16
 -0.225514051877E-16
  0.841340885849E-16
  0.151788304148E-16
  0.275387351811E-16
 -0.232019264912E-16
 -0.332850066953E-16
  0.549090299198E-16
  0.650521303491E-18
 -0.732920668600E-16
 -0.260208521397E-16
  0.260208521397E-17
 -0.468375338514E-16
 -0.294902990916E-16
  0.416333634234E-16
 -0.242861286637E-16
  0.555111512313E-16
  0.381639164715E-16
  0.416333634234E-16
 -0.173472347598E-17
  0.520417042793E-16
  0.156125112838E-15
  0.173472347598E-16
  0.156125112838E-16
  0.000000000000E+00
 -0.390312782095E-17
 -0.151788304148E-17
  0.000000000000E+00
  0.000000000000E+00
  0.138777878078E-16
  0.173472347598E-17
  0.433680868994E-18
  0.173472347598E-17
  0.780625564190E-17
 -0.329597460436E-16
 -0.503069808033E-16
  0.000000000000E+00
 -0.503069808033E-16
 -0.728583859910E-16
 -0.104083408559E-15
 -0.728583859910E-16
 -0.312250225676E-16
  0.104083408559E-16
 -0.641847686111E-16
 -0.364291929955E-16
 -0.216840434497E-16
  0.286229373536E-16
 -0.611490025282E-16
  0.260208521397E-17
  0.268882138776E-16
 -0.569206140555E-16
 -0.199228435767E-16
 -0.461870125479E-16
 -0.429344060304E-16
  0.390312782095E-16
 -0.225514051877E-16
 -0.138777878078E-16
  0.277555756156E-16
  0.312250225676E-16
  0.971445146547E-16
 -0.589805981832E-16
 -0.173472347598E-16
  0.312250225676E-16
  0.277555756156E-16
  0.173472347598E-16
 -0.156125112838E-16
 -0.242861286637E-16
 -0.954097911787E-17
 -0.563785129692E-17
 -0.216840434497E-17
 -0.867361737988E-18
  0.325260651746E-18
  0.330872245021E-23
  0.577879757935E-16
  0.650521303491E-18
  0.303576608296E-17
  0.607153216592E-17
  0.173472347598E-17
  0.954097911787E-17
  0.173472347598E-17
  0.364291929955E-16
  0.312250225676E-16
 -0.242861286637E-16
 -0.138777878078E-16
 -0.346944695195E-16
 -0.693889390391E-16
 -0.902056207508E-16
 -0.117961196366E-15
  0.329597460436E-16
  0.199493199737E-16
 -0.381639164715E-16
  0.954097911787E-17
 -0.958434720477E-16
 -0.921571846613E-16
  0.481385764584E-16
  0.274007217503E-16
 -0.255871712707E-16
 -0.116226472890E-15
 -0.147451495458E-16
 -0.346944695195E-17
  0.693889390391E-17
 -0.156125112838E-16
 -0.693889390391E-17
  0.693889390391E-16
  0.520417042793E-16
  0.312250225676E-16
  0.242861286637E-16
  0.000000000000E+00
  0.156125112838E-16
 -0.346944695195E-16
  0.867361737988E-18
 -0.954097911787E-17
 -0.823993651089E-17
 -0.346944695195E-17
  0.216840434497E-18
  0.119262238973E-17
  0.132348898008E-22
  0.177809156288E-16
  0.867361737988E-18
 -0.130104260698E-17
  0.477048955894E-17
 -0.607153216592E-17
  0.433680868994E-17
  0.294902990916E-16
  0.156125112838E-16
 -0.190819582357E-16
 -0.208166817117E-16
 -0.208166817117E-16
 -0.416333634234E-16
  0.693889390391E-17
  0.693889390391E-17
 -0.121430643318E-16
 -0.294902990916E-16
  0.208166817117E-16
 -0.919403442268E-16
  0.477048955894E-17
 -0.585469173142E-17
  0.526922255828E-16
  0.359955121265E-16
 -0.648628184854E-16
  0.108420217249E-17
  0.316587034366E-16
  0.433680868994E-17
 -0.433680868994E-17
  0.433680868994E-16
  0.468375338514E-16
 -0.451028103754E-16
 -0.346944695195E-16
  0.000000000000E+00
  0.173472347598E-16
 -0.693889390391E-17
 -0.104083408559E-16
 -0.242861286637E-16
 -0.104083408559E-16
 -0.320923843056E-16
  0.928077059648E-16
  0.346944695195E-17
  0.433680868994E-17
  0.108420217249E-17
  0.000000000000E+00
 -0.330872245021E-23
  0.273218947466E-16