# vtk DataFile Version 3.0
MachLine results file. Generated by MachLine, USU AeroLab (c) 2022.
ASCII
DATASET POLYDATA
POINTS                1696 float
  0.000000000000E+00  0.000000000000E+00  0.000000000000E+00
  0.000000000000E+00  0.104252345860E+00  0.000000000000E+00
  0.000000000000E+00  0.211780935526E+00  0.000000000000E+00
  0.000000000000E+00  0.322413772345E+00  0.000000000000E+00
  0.000000000000E+00  0.435950160027E+00  0.000000000000E+00
  0.000000000000E+00  0.552161276340E+00  0.000000000000E+00
  0.000000000000E+00  0.670791566372E+00  0.000000000000E+00
  0.000000000000E+00  0.791560173035E+00  0.000000000000E+00
  0.000000000000E+00  0.914163351059E+00  0.000000000000E+00
  0.000000000000E+00  0.103827738762E+01  0.000000000000E+00
  0.000000000000E+00  0.116356134415E+01  0.000000000000E+00
  0.000000000000E+00  0.128966128826E+01  0.000000000000E+00
  0.000000000000E+00  0.141621339321E+01  0.000000000000E+00
  0.000000000000E+00  0.154284906387E+01  0.000000000000E+00
  0.000000000000E+00  0.166919851303E+01  0.000000000000E+00
  0.000000000000E+00  0.179489517212E+01  0.000000000000E+00
  0.000000000000E+00  0.191958034039E+01  0.000000000000E+00
  0.000000000000E+00  0.204290652275E+01  0.000000000000E+00
  0.000000000000E+00  0.216454195976E+01  0.000000000000E+00
  0.000000000000E+00  0.228417348862E+01  0.000000000000E+00
  0.000000000000E+00  0.240150952339E+01  0.000000000000E+00
  0.000000000000E+00  0.251628303528E+01  0.000000000000E+00
  0.000000000000E+00  0.262825274467E+01  0.000000000000E+00
  0.000000000000E+00  0.273720526695E+01  0.000000000000E+00
  0.000000000000E+00  0.284295582771E+01  0.000000000000E+00
  0.000000000000E+00  0.294534778595E+01  0.000000000000E+00
  0.000000000000E+00  0.304425406456E+01  0.000000000000E+00
  0.000000000000E+00  0.313957524300E+01  0.000000000000E+00
  0.000000000000E+00  0.323123931885E+01  0.000000000000E+00
  0.000000000000E+00  0.331920027733E+01  0.000000000000E+00
  0.000000000000E+00  0.340343642235E+01  0.000000000000E+00
  0.000000000000E+00  0.348394894600E+01  0.000000000000E+00
  0.000000000000E+00  0.356075930595E+01  0.000000000000E+00
  0.000000000000E+00  0.363390779495E+01  0.000000000000E+00
  0.000000000000E+00  0.370345163345E+01  0.000000000000E+00
  0.000000000000E+00  0.376946210861E+01  0.000000000000E+00
  0.000000000000E+00  0.383202338219E+01  0.000000000000E+00
  0.000000000000E+00  0.389123010635E+01  0.000000000000E+00
  0.000000000000E+00  0.394718551636E+01  0.000000000000E+00
  0.000000000000E+00  0.400000000000E+01  0.000000000000E+00
  0.145739717409E-01  0.000000000000E+00 -0.127505732235E-02
  0.145739717409E-01  0.104252345860E+00 -0.127505732235E-02
  0.145739717409E-01  0.211780935526E+00 -0.127505732235E-02
  0.145739717409E-01  0.322413772345E+00 -0.127505732235E-02
  0.145739717409E-01  0.435950160027E+00 -0.127505732235E-02
  0.145739717409E-01  0.552161276340E+00 -0.127505732235E-02
  0.145739717409E-01  0.670791566372E+00 -0.127505732235E-02
  0.145739717409E-01  0.791560173035E+00 -0.127505732235E-02
  0.145739717409E-01  0.914163351059E+00 -0.127505732235E-02
  0.145739717409E-01  0.103827738762E+01 -0.127505732235E-02
  0.145739717409E-01  0.116356134415E+01 -0.127505732235E-02
  0.145739717409E-01  0.128966128826E+01 -0.127505732235E-02
  0.145739717409E-01  0.141621339321E+01 -0.127505732235E-02
  0.145739717409E-01  0.154284906387E+01 -0.127505732235E-02
  0.145739717409E-01  0.166919851303E+01 -0.127505732235E-02
  0.145739717409E-01  0.179489517212E+01 -0.127505732235E-02
  0.145739717409E-01  0.191958034039E+01 -0.127505732235E-02
  0.145739717409E-01  0.204290652275E+01 -0.127505732235E-02
  0.145739717409E-01  0.216454195976E+01 -0.127505732235E-02
  0.145739717409E-01  0.228417348862E+01 -0.127505732235E-02
  0.145739717409E-01  0.240150952339E+01 -0.127505732235E-02
  0.145739717409E-01  0.251628303528E+01 -0.127505732235E-02
  0.145739717409E-01  0.262825274467E+01 -0.127505732235E-02
  0.145739717409E-01  0.273720526695E+01 -0.127505732235E-02
  0.145739717409E-01  0.284295582771E+01 -0.127505732235E-02
  0.145739717409E-01  0.294534778595E+01 -0.127505732235E-02
  0.145739717409E-01  0.304425406456E+01 -0.127505732235E-02
  0.145739717409E-01  0.313957524300E+01 -0.127505732235E-02
  0.145739717409E-01  0.323123931885E+01 -0.127505732235E-02
  0.145739717409E-01  0.331920027733E+01 -0.127505732235E-02
  0.145739717409E-01  0.340343642235E+01 -0.127505732235E-02
  0.145739717409E-01  0.348394894600E+01 -0.127505732235E-02
  0.145739717409E-01  0.356075930595E+01 -0.127505732235E-02
  0.145739717409E-01  0.363390779495E+01 -0.127505732235E-02
  0.145739717409E-01  0.370345163345E+01 -0.127505732235E-02
  0.145739717409E-01  0.376946210861E+01 -0.127505732235E-02
  0.145739717409E-01  0.383202338219E+01 -0.127505732235E-02
  0.145739717409E-01  0.389123010635E+01 -0.127505732235E-02
  0.145739717409E-01  0.394718551636E+01 -0.127505732235E-02
  0.145739717409E-01  0.400000000000E+01 -0.127505732235E-02
  0.145739717409E-01  0.400090122223E+01 -0.901424908079E-03
  0.145739717409E-01  0.400127506256E+01  0.000000000000E+00
  0.145739717409E-01  0.400090122223E+01  0.901424908079E-03
  0.145739717409E-01  0.000000000000E+00  0.127505732235E-02
  0.145739717409E-01  0.104252345860E+00  0.127505732235E-02
  0.145739717409E-01  0.211780935526E+00  0.127505732235E-02
  0.145739717409E-01  0.322413772345E+00  0.127505732235E-02
  0.145739717409E-01  0.435950160027E+00  0.127505732235E-02
  0.145739717409E-01  0.552161276340E+00  0.127505732235E-02
  0.145739717409E-01  0.670791566372E+00  0.127505732235E-02
  0.145739717409E-01  0.791560173035E+00  0.127505732235E-02
  0.145739717409E-01  0.914163351059E+00  0.127505732235E-02
  0.145739717409E-01  0.103827738762E+01  0.127505732235E-02
  0.145739717409E-01  0.116356134415E+01  0.127505732235E-02
  0.145739717409E-01  0.128966128826E+01  0.127505732235E-02
  0.145739717409E-01  0.141621339321E+01  0.127505732235E-02
  0.145739717409E-01  0.154284906387E+01  0.127505732235E-02
  0.145739717409E-01  0.166919851303E+01  0.127505732235E-02
  0.145739717409E-01  0.179489517212E+01  0.127505732235E-02
  0.145739717409E-01  0.191958034039E+01  0.127505732235E-02
  0.145739717409E-01  0.204290652275E+01  0.127505732235E-02
  0.145739717409E-01  0.216454195976E+01  0.127505732235E-02
  0.145739717409E-01  0.228417348862E+01  0.127505732235E-02
  0.145739717409E-01  0.240150952339E+01  0.127505732235E-02
  0.145739717409E-01  0.251628303528E+01  0.127505732235E-02
  0.145739717409E-01  0.262825274467E+01  0.127505732235E-02
  0.145739717409E-01  0.273720526695E+01  0.127505732235E-02
  0.145739717409E-01  0.284295582771E+01  0.127505732235E-02
  0.145739717409E-01  0.294534778595E+01  0.127505732235E-02
  0.145739717409E-01  0.304425406456E+01  0.127505732235E-02
  0.145739717409E-01  0.313957524300E+01  0.127505732235E-02
  0.145739717409E-01  0.323123931885E+01  0.127505732235E-02
  0.145739717409E-01  0.331920027733E+01  0.127505732235E-02
  0.145739717409E-01  0.340343642235E+01  0.127505732235E-02
  0.145739717409E-01  0.348394894600E+01  0.127505732235E-02
  0.145739717409E-01  0.356075930595E+01  0.127505732235E-02
  0.145739717409E-01  0.363390779495E+01  0.127505732235E-02
  0.145739717409E-01  0.370345163345E+01  0.127505732235E-02
  0.145739717409E-01  0.376946210861E+01  0.127505732235E-02
  0.145739717409E-01  0.383202338219E+01  0.127505732235E-02
  0.145739717409E-01  0.389123010635E+01  0.127505732235E-02
  0.145739717409E-01  0.394718551636E+01  0.127505732235E-02
  0.145739717409E-01  0.400000000000E+01  0.127505732235E-02
  0.341100133955E-01  0.000000000000E+00 -0.298423948698E-02
  0.341100133955E-01  0.104252345860E+00 -0.298423948698E-02
  0.341100133955E-01  0.211780935526E+00 -0.298423948698E-02
  0.341100133955E-01  0.322413772345E+00 -0.298423948698E-02
  0.341100133955E-01  0.435950160027E+00 -0.298423948698E-02
  0.341100133955E-01  0.552161276340E+00 -0.298423948698E-02
  0.341100133955E-01  0.670791566372E+00 -0.298423948698E-02
  0.341100133955E-01  0.791560173035E+00 -0.298423948698E-02
  0.341100133955E-01  0.914163351059E+00 -0.298423948698E-02
  0.341100133955E-01  0.103827738762E+01 -0.298423948698E-02
  0.341100133955E-01  0.116356134415E+01 -0.298423948698E-02
  0.341100133955E-01  0.128966128826E+01 -0.298423948698E-02
  0.341100133955E-01  0.141621339321E+01 -0.298423948698E-02
  0.341100133955E-01  0.154284906387E+01 -0.298423948698E-02
  0.341100133955E-01  0.166919851303E+01 -0.298423948698E-02
  0.341100133955E-01  0.179489517212E+01 -0.298423948698E-02
  0.341100133955E-01  0.191958034039E+01 -0.298423948698E-02
  0.341100133955E-01  0.204290652275E+01 -0.298423948698E-02
  0.341100133955E-01  0.216454195976E+01 -0.298423948698E-02
  0.341100133955E-01  0.228417348862E+01 -0.298423948698E-02
  0.341100133955E-01  0.240150952339E+01 -0.298423948698E-02
  0.341100133955E-01  0.251628303528E+01 -0.298423948698E-02
  0.341100133955E-01  0.262825274467E+01 -0.298423948698E-02
  0.341100133955E-01  0.273720526695E+01 -0.298423948698E-02
  0.341100133955E-01  0.284295582771E+01 -0.298423948698E-02
  0.341100133955E-01  0.294534778595E+01 -0.298423948698E-02
  0.341100133955E-01  0.304425406456E+01 -0.298423948698E-02
  0.341100133955E-01  0.313957524300E+01 -0.298423948698E-02
  0.341100133955E-01  0.323123931885E+01 -0.298423948698E-02
  0.341100133955E-01  0.331920027733E+01 -0.298423948698E-02
  0.341100133955E-01  0.340343642235E+01 -0.298423948698E-02
  0.341100133955E-01  0.348394894600E+01 -0.298423948698E-02
  0.341100133955E-01  0.356075930595E+01 -0.298423948698E-02
  0.341100133955E-01  0.363390779495E+01 -0.298423948698E-02
  0.341100133955E-01  0.370345163345E+01 -0.298423948698E-02
  0.341100133955E-01  0.376946210861E+01 -0.298423948698E-02
  0.341100133955E-01  0.383202338219E+01 -0.298423948698E-02
  0.341100133955E-01  0.389123010635E+01 -0.298423948698E-02
[...]
CELL_DATA                3272
SCALARS C_p_ise float 1
LOOKUP_TABLE default
 -0.403768682791E-01
 -0.403768561067E-01
 -0.403769701915E-01
 -0.403769701916E-01
 -0.403768019855E-01
 -0.403768019855E-01
 -0.403768899834E-01
 -0.403768899834E-01
 -0.403768904710E-01
 -0.403768904710E-01
 -0.403768843284E-01
 -0.403768843284E-01
 -0.403767983296E-01
 -0.403767983296E-01
 -0.403769248153E-01
 -0.403769248153E-01
 -0.403768409411E-01
 -0.403768409411E-01
 -0.403768871908E-01
 -0.403768871908E-01
  0.194950385110E+00
  0.194950385110E+00
  0.194950361797E+00
  0.194950361797E+00
  0.194950333539E+00
  0.194950333539E+00
  0.194950340477E+00
  0.194950340477E+00
  0.194950380549E+00
  0.194950380549E+00
  0.194950317750E+00
  0.194950317750E+00
  0.194950358651E+00
  0.194950358651E+00
  0.194950350166E+00
  0.194950350166E+00
  0.194950350495E+00
  0.194950350495E+00
  0.194950352709E+00
  0.194950352709E+00
  0.459215567450E-01
  0.459215567450E-01
  0.459215549482E-01
  0.459215549482E-01
  0.459215546811E-01
  0.459215546811E-01
  0.459215615684E-01
  0.459215615684E-01
  0.459215283700E-01
  0.459215283700E-01
  0.459215793421E-01
  0.459215793421E-01
  0.459215468170E-01
  0.459215468170E-01
  0.459215411856E-01
  0.459215411856E-01
  0.459215641214E-01
  0.459215641214E-01
  0.459215830436E-01
  0.459215830436E-01
 -0.125350009634E+00
 -0.125350009634E+00
 -0.125349977304E+00
 -0.125349977304E+00
 -0.125350035935E+00
 -0.125350035935E+00
 -0.125349947517E+00
 -0.125349947517E+00
 -0.125350007633E+00
 -0.125350007633E+00
 -0.125350011927E+00
 -0.125350011927E+00
 -0.125350011587E+00
 -0.125350011587E+00
 -0.125349950072E+00
 -0.125349950072E+00
 -0.125350067655E+00
 -0.125350067655E+00
 -0.125349821417E+00
 -0.125349811021E+00
 -0.403766912012E-01
 -0.403768682791E-01
 -0.403769701916E-01
 -0.403769701915E-01
 -0.403768019855E-01
 -0.403768019855E-01
 -0.403768899834E-01
 -0.403768899834E-01
 -0.403768904710E-01
 -0.403768904710E-01
 -0.403768843284E-01
 -0.403768843284E-01
 -0.403767983296E-01
 -0.403767983296E-01
 -0.403769248153E-01
 -0.403769248153E-01
 -0.403768409411E-01
 -0.403768409411E-01
 -0.403768871908E-01
 -0.403768871908E-01
  0.194950385110E+00
  0.194950385110E+00
  0.194950361797E+00
  0.194950361797E+00
  0.194950333539E+00
  0.194950333539E+00
  0.194950340477E+00
  0.194950340477E+00
  0.194950380549E+00
  0.194950380549E+00
  0.194950317750E+00
  0.194950317750E+00
  0.194950358651E+00
  0.194950358651E+00
  0.194950350166E+00
  0.194950350166E+00
  0.194950350495E+00
  0.194950350495E+00
  0.194950352709E+00
  0.194950352709E+00
  0.459215567450E-01
  0.459215567450E-01
  0.459215549482E-01
  0.459215549482E-01
  0.459215546811E-01
  0.459215546811E-01
  0.459215615684E-01
  0.459215615684E-01
  0.459215283700E-01
  0.459215283700E-01
  0.459215793421E-01
  0.459215793421E-01
  0.459215468170E-01
  0.459215468170E-01
  0.459215411856E-01
  0.459215411856E-01
  0.459215641214E-01
  0.459215641214E-01
  0.459215830436E-01
  0.459215830436E-01
 -0.125350009634E+00
 -0.125350009634E+00
 -0.125349977304E+00
 -0.125349977304E+00
 -0.125350035935E+00
 -0.125350035935E+00
 -0.125349947517E+00
 -0.125349947517E+00
 -0.125350007633E+00
 -0.125350007633E+00
 -0.125350011927E+00
 -0.125350011927E+00
 -0.125350011587E+00
 -0.125350011587E+00
 -0.125349950072E+00
 -0.125349950072E+00
 -0.125350067655E+00
 -0.125350067655E+00
 -0.125349811021E+00
 -0.125349962251E+00
 -0.403767056780E-01
 -0.403766912012E-01
 -0.403769701916E-01
 -0.403769701916E-01
 -0.403768019855E-01
 -0.403768019855E-01
 -0.403768899834E-01
 -0.403768899834E-01
 -0.403768904710E-01
 -0.403768904710E-01
 -0.403768843284E-01
 -0.403768843284E-01
 -0.403767983296E-01
 -0.403767983296E-01
 -0.403769248153E-01
 -0.403769248153E-01
 -0.403768409411E-01
 -0.403768409411E-01
 -0.403768871908E-01
 -0.403768871908E-01
  0.194950385110E+00
  0.194950385110E+00
  0.194950361797E+00
  0.194950361797E+00
  0.194950333539E+00
  0.194950333539E+00
  0.194950340477E+00
  0.194950340477E+00
  0.194950380549E+00
  0.194950380549E+00
  0.194950317750E+00
  0.194950317750E+00
  0.194950358651E+00
  0.194950358651E+00
  0.194950350166E+00
  0.194950350166E+00
  0.194950350495E+00
  0.194950350495E+00
  0.194950352709E+00
  0.194950352709E+00
  0.459215567450E-01
  0.459215567450E-01
  0.459215549482E-01
  0.459215549482E-01
  0.459215546811E-01
  0.459215546811E-01
  0.459215615684E-01
  0.459215615684E-01
  0.459215283700E-01
  0.459215283700E-01
  0.459215793421E-01
  0.459215793421E-01
  0.459215468170E-01
  0.459215468170E-01
  0.459215411856E-01
  0.459215411856E-01
  0.459215641214E-01
  0.459215641214E-01
  0.459215830436E-01
  0.459215830436E-01
 -0.125350009634E+00
 -0.125350009634E+00
 -0.125349977304E+00
 -0.125349977304E+00
 -0.125350035935E+00
 -0.125350035935E+00
 -0.125349947517E+00
 -0.125349947517E+00
 -0.125350007633E+00
 -0.125350007633E+00
 -0.125350011927E+00
 -0.125350011927E+00
 -0.125350011587E+00
 -0.125350011587E+00
 -0.125349950072E+00
 -0.125349950072E+00
 -0.125350067655E+00
 -0.125350067655E+00
 -0.125349962251E+00
 -0.125349949887E+00
 -0.403767486154E-01
 -0.403767056780E-01
 -0.403769701915E-01
 -0.403769701916E-01
 -0.403768019855E-01
 -0.403768019855E-01
 -0.403768899834E-01
 -0.403768899834E-01
 -0.403768904710E-01
 -0.403768904710E-01
 -0.403768843284E-01
 -0.403768843284E-01
 -0.403767983296E-01
 -0.403767983296E-01
 -0.403769248153E-01
 -0.403769248153E-01
 -0.403768409411E-01
 -0.403768409411E-01
 -0.403768871908E-01
 -0.403768871908E-01
  0.194950385110E+00
  0.194950385110E+00
  0.194950361797E+00
  0.194950361797E+00
  0.194950333539E+00
  0.194950333539E+00
  0.194950340477E+00
  0.194950340477E+00
  0.194950380549E+00
  0.194950380549E+00
  0.194950317750E+00
  0.194950317750E+00
  0.194950358651E+00
  0.194950358651E+00
  0.194950350166E+00
  0.194950350166E+00
  0.194950350495E+00
  0.194950350495E+00
  0.194950352709E+00
  0.194950352709E+00
  0.459215567450E-01
  0.459215567450E-01
  0.459215549482E-01
  0.459215549482E-01
  0.459215546811E-01
  0.459215546811E-01
  0.459215615684E-01
  0.459215615684E-01
  0.459215283700E-01
  0.459215283700E-01
  0.459215793421E-01
  0.459215793421E-01
  0.459215468170E-01
  0.459215468170E-01
  0.459215411856E-01
  0.459215411856E-01
  0.459215641214E-01
  0.459215641214E-01
  0.459215830436E-01
  0.459215830436E-01
 -0.125350009634E+00
 -0.125350009634E+00
 -0.125349977304E+00
 -0.125349977304E+00
 -0.125350035935E+00
 -0.125350035935E+00
 -0.125349947517E+00
 -0.125349947517E+00
 -0.125350007633E+00
 -0.125350007633E+00
 -0.125350011927E+00
 -0.125350011927E+00
 -0.125350011587E+00
 -0.125350011587E+00
 -0.125349950072E+00
 -0.125349950072E+00
 -0.125350067655E+00
 -0.125350067655E+00
 -0.125349949887E+00
 -0.125349913217E+00
 -0.403767427821E-01
 -0.403767486154E-01
 -0.403769701916E-01
 -0.403769701915E-01
 -0.403768019855E-01
 -0.403768019855E-01
 -0.403768899834E-01
 -0.403768899834E-01
 -0.403768904710E-01
 -0.403768904710E-01
 -0.403768843284E-01
 -0.403768843284E-01
 -0.403767983296E-01
 -0.403767983296E-01
 -0.403769248153E-01
 -0.403769248153E-01
 -0.403768409411E-01
 -0.403768409411E-01
 -0.403768871908E-01
 -0.403768871908E-01
  0.194950385110E+00
  0.194950385110E+00
  0.194950361797E+00
  0.194950361797E+00
  0.194950333539E+00
  0.194950333539E+00
  0.194950340477E+00
  0.194950340477E+00
  0.194950380549E+00
  0.194950380549E+00
  0.194950317750E+00
  0.194950317750E+00
  0.194950358651E+00
  0.194950358651E+00
  0.194950350166E+00
  0.194950350166E+00
  0.194950350495E+00
  0.194950350495E+00
  0.194950352709E+00
  0.194950352709E+00
  0.459215567450E-01
  0.459215567450E-01
  0.459215549482E-01
  0.459215549482E-01
  0.459215546811E-01
  0.459215546811E-01
  0.459215615684E-01
  0.459215615684E-01
  0.459215283700E-01
  0.459215283700E-01
  0.459215793421E-01
  0.459215793421E-01
  0.459215468170E-01
  0.459215468170E-01
  0.459215411856E-01
  0.459215411856E-01
  0.459215641214E-01
  0.459215641214E-01
  0.459215830436E-01
  0.459215830436E-01
 -0.125350009634E+00
 -0.125350009634E+00
 -0.125349977304E+00
 -0.125349977304E+00
 -0.125350035935E+00
 -0.125350035935E+00
 -0.125349947517E+00
 -0.125349947517E+00
 -0.125350007633E+00
 -0.125350007633E+00
 -0.125350011927E+00
 -0.125350011927E+00
 -0.125350011587E+00
 -0.125350011587E+00
 -0.125349950072E+00
 -0.125349950072E+00
 -0.125350067655E+00
 -0.125350067655E+00
 -0.125349913217E+00
 -0.125349918199E+00
 -0.403767518331E-01
 -0.403767427821E-01
 -0.403769701916E-01
 -0.403769701916E-01
 -0.403768019855E-01
 -0.403768019855E-01
 -0.403768899834E-01
 -0.403768899834E-01
 -0.403768904710E-01
 -0.403768904710E-01
 -0.403768843284E-01
 -0.403768843284E-01
 -0.403767983296E-01
 -0.403767983296E-01
 -0.403769248153E-01
 -0.403769248153E-01
 -0.403768409411E-01
 -0.403768409411E-01
 -0.403768871908E-01
 -0.403768871908E-01
  0.194950385110E+00
  0.194950385110E+00
  0.194950361797E+00
  0.194950361797E+00
  0.194950333539E+00
  0.194950333539E+00
  0.194950340477E+00
  0.194950340477E+00
  0.194950380549E+00
  0.194950380549E+00
  0.194950317750E+00
  0.194950317750E+00
  0.194950358651E+00
  0.194950358651E+00
  0.194950350166E+00
  0.194950350166E+00
  0.194950350495E+00
  0.194950350495E+00
  0.194950352709E+00
  0.194950352709E+00
  0.459215567450E-01
  0.459215567450E-01
  0.459215549482E-01
  0.459215549482E-01
  0.459215546811E-01
  0.459215546811E-01
  0.459215615684E-01
  0.459215615684E-01
  0.459215283700E-01
  0.459215283700E-01
  0.459215793421E-01
  0.459215793421E-01
  0.459215468170E-01
  0.459215468170E-01
  0.459215411856E-01
  0.459215411856E-01
  0.459215641214E-01
  0.459215641214E-01
  0.459215830436E-01
  0.459215830436E-01
 -0.125350009634E+00
 -0.125350009634E+00
 -0.125349977304E+00
 -0.125349977304E+00
 -0.125350035935E+00
 -0.125350035935E+00
 -0.125349947517E+00
 -0.125349947517E+00
 -0.125350007633E+00
 -0.125350007633E+00
 -0.125350011927E+00
 -0.125350011927E+00
 -0.125350011587E+00
 -0.125350011587E+00
 -0.125349950072E+00
 -0.125349950072E+00
 -0.125350067655E+00
 -0.125350067655E+00
 -0.125349918199E+00
 -0.125349910469E+00
 -0.403766922012E-01
 -0.403767518331E-01
 -0.403769701915E-01
 -0.403769701916E-01
 -0.403768019855E-01
 -0.403768019855E-01
 -0.403768899834E-01
 -0.403768899834E-01
 -0.403768904710E-01
 -0.403768904710E-01
 -0.403768843284E-01
 -0.403768843284E-01
 -0.403767983296E-01
 -0.403767983296E-01
 -0.403769248153E-01
 -0.403769248153E-01
 -0.403768409411E-01
 -0.403768409411E-01
 -0.403768871908E-01
 -0.403768871908E-01
  0.194950385110E+00
  0.194950385110E+00
  0.194950361797E+00
  0.194950361797E+00
  0.194950333539E+00
  0.194950333539E+00
  0.194950340477E+00
  0.194950340477E+00
  0.194950380549E+00
  0.194950380549E+00
  0.194950317750E+00
  0.194950317750E+00
  0.194950358651E+00
  0.194950358651E+00
  0.194950350166E+00
  0.194950350166E+00
  0.194950350495E+00
  0.194950350495E+00
  0.194950352709E+00
  0.194950352709E+00
  0.459215567450E-01
  0.459215567450E-01
  0.459215549482E-01
  0.459215549482E-01
  0.459215546811E-01
  0.459215546811E-01
  0.459215615684E-01
  0.459215615684E-01
  0.459215283700E-01
  0.459215283700E-01
  0.459215793421E-01
  0.459215793421E-01
  0.459215468170E-01
  0.459215468170E-01
  0.459215411856E-01
  0.459215411856E-01
  0.459215641214E-01
  0.459215641214E-01
  0.459215830436E-01
  0.459215830436E-01
 -0.125350009634E+00
 -0.125350009634E+00
 -0.125349977304E+00
 -0.125349977304E+00
 -0.125350035935E+00
 -0.125350035935E+00
 -0.125349947517E+00
 -0.125349947517E+00
 -0.125350007633E+00
 -0.125350007633E+00
 -0.125350011927E+00
 -0.125350011927E+00
 -0.125350011587E+00
 -0.125350011587E+00
 -0.125349950072E+00
 -0.125349950072E+00
 -0.125350067655E+00
 -0.125350067655E+00
 -0.125349910469E+00
 -0.125349961397E+00
 -0.403766934596E-01
 -0.403766922012E-01
 -0.403769701916E-01
 -0.403769701915E-01
 -0.403768019855E-01
 -0.403768019855E-01
 -0.403768899834E-01
 -0.403768899834E-01
 -0.403768904710E-01
 -0.403768904710E-01
 -0.403768843284E-01
 -0.403768843284E-01
 -0.403767983296E-01
 -0.403767983296E-01
 -0.403769248153E-01
 -0.403769248153E-01
 -0.403768409411E-01
 -0.403768409411E-01
 -0.403768871908E-01
 -0.403768871908E-01
  0.194950385110E+00
  0.194950385110E+00
  0.194950361797E+00
  0.194950361797E+00
  0.194950333539E+00
  0.194950333539E+00
  0.194950340477E+00
  0.194950340477E+00
  0.194950380549E+00
  0.194950380549E+00
  0.194950317750E+00
  0.194950317750E+00
  0.194950358651E+00
  0.194950358651E+00
  0.194950350166E+00
  0.194950350166E+00
  0.194950350495E+00
  0.194950350495E+00
  0.194950352709E+00
  0.194950352709E+00
  0.459215567450E-01
  0.459215567450E-01
  0.459215549482E-01
  0.459215549482E-01
  0.459215546811E-01
  0.459215546811E-01
  0.459215615684E-01
  0.459215615684E-01
  0.459215283700E-01
  0.459215283700E-01
  0.459215793421E-01
  0.459215793421E-01
  0.459215468170E-01
  0.459215468170E-01
  0.459215411856E-01
  0.459215411856E-01
  0.459215641214E-01
  0.459215641214E-01
  0.459215830436E-01
  0.459215830436E-01
 -0.125350009634E+00
 -0.125350009634E+00
 -0.125349977304E+00
 -0.125349977304E+00
 -0.125350035935E+00
 -0.125350035935E+00
 -0.125349947517E+00
 -0.125349947517E+00
 -0.125350007633E+00
 -0.125350007633E+00
 -0.125350011927E+00
 -0.125350011927E+00
 -0.125350011587E+00
 -0.125350011587E+00
 -0.125349950072E+00
 -0.125349950072E+00
 -0.125350067655E+00
 -0.125350067655E+00
 -0.125349961397E+00
 -0.125349960322E+00
 -0.403767397588E-01
 -0.403766934596E-01
 -0.403769701915E-01
 -0.403769701916E-01
 -0.403768019855E-01
 -0.403768019855E-01
 -0.403768899834E-01
 -0.403768899834E-01
 -0.403768904710E-01
 -0.403768904710E-01
 -0.403768843284E-01
 -0.403768843284E-01
 -0.403767983296E-01
 -0.403767983296E-01
 -0.403769248153E-01
 -0.403769248153E-01
 -0.403768409411E-01
 -0.403768409411E-01
 -0.403768871908E-01
 -0.403768871908E-01
  0.194950385110E+00
  0.194950385110E+00
  0.194950361797E+00
  0.194950361797E+00
  0.194950333539E+00
  0.194950333539E+00
  0.194950340477E+00
  0.194950340477E+00
  0.194950380549E+00
  0.194950380549E+00
  0.194950317750E+00
  0.194950317750E+00
  0.194950358651E+00
  0.194950358651E+00
  0.194950350166E+00
  0.194950350166E+00
  0.194950350495E+00
  0.194950350495E+00
  0.194950352709E+00
  0.194950352709E+00
  0.459215567450E-01
  0.459215567450E-01
  0.459215549482E-01
  0.459215549482E-01
  0.459215546811E-01
  0.459215546811E-01
  0.459215615684E-01
  0.459215615684E-01
  0.459215283700E-01
  0.459215283700E-01
  0.459215793421E-01
  0.459215793421E-01
  0.459215468170E-01
  0.459215468170E-01
  0.459215411856E-01
  0.459215411856E-01
  0.459215641214E-01
  0.459215641214E-01
  0.459215830436E-01
  0.459215830436E-01
 -0.125350009634E+00
 -0.125350009634E+00
 -0.125349977304E+00
 -0.125349977304E+00
 -0.125350035935E+00
 -0.125350035935E+00
 -0.125349947517E+00
 -0.125349947517E+00
 -0.125350007633E+00
 -0.125350007633E+00
 -0.125350011927E+00
 -0.125350011927E+00
 -0.125350011587E+00
 -0.125350011587E+00
 -0.125349950072E+00
 -0.125349950072E+00
 -0.125350067655E+00
 -0.125350067655E+00
 -0.125349960322E+00
 -0.125349920781E+00
 -0.403767397699E-01
 -0.403767397588E-01
 -0.403769701916E-01
 -0.403769701915E-01
 -0.403768019855E-01
 -0.403768019855E-01
 -0.403768899834E-01
 -0.403768899834E-01
 -0.403768904710E-01
 -0.403768904710E-01
 -0.403768843284E-01
 -0.403768843284E-01
 -0.403767983296E-01
 -0.403767983296E-01
 -0.403769248153E-01
 -0.403769248153E-01
 -0.403768409411E-01
 -0.403768409411E-01
 -0.403768871908E-01
 -0.403768871908E-01
  0.194950385110E+00
  0.194950385110E+00
  0.194950361797E+00
  0.194950361797E+00
  0.194950333539E+00
  0.194950333539E+00
  0.194950340477E+00
  0.194950340477E+00
  0.194950380549E+00
  0.194950380549E+00
  0.194950317750E+00
  0.194950317750E+00
  0.194950358651E+00
  0.194950358651E+00
  0.194950350166E+00
  0.194950350166E+00
  0.194950350495E+00
  0.194950350495E+00
  0.194950352709E+00
  0.194950352709E+00
  0.459215567450E-01
  0.459215567450E-01
  0.459215549482E-01
  0.459215549482E-01
  0.459215546811E-01
  0.459215546811E-01
  0.459215615684E-01
  0.459215615684E-01
  0.459215283700E-01
  0.459215283700E-01
  0.459215793421E-01
  0.459215793421E-01
  0.459215468170E-01
  0.459215468170E-01
  0.459215411856E-01
  0.459215411856E-01
  0.459215641214E-01
  0.459215641214E-01
  0.459215830436E-01
  0.459215830436E-01
 -0.125350009634E+00
 -0.125350009634E+00
 -0.125349977304E+00
 -0.125349977304E+00
 -0.125350035935E+00
 -0.125350035935E+00
 -0.125349947517E+00
 -0.125349947517E+00
 -0.125350007633E+00
 -0.125350007633E+00
 -0.125350011927E+00
 -0.125350011927E+00
 -0.125350011587E+00
 -0.125350011587E+00
 -0.125349950072E+00
 -0.125349950072E+00
 -0.125350067655E+00
 -0.125350067655E+00
 -0.125349920781E+00
 -0.125349920772E+00
 -0.403767444519E-01
 -0.403767397699E-01
 -0.403769701916E-01
 -0.403769701916E-01
 -0.403768019855E-01
 -0.403768019855E-01
 -0.403768899834E-01
 -0.403768899834E-01
 -0.403768904710E-01
 -0.403768904710E-01
 -0.403768843284E-01
 -0.403768843284E-01
 -0.403767983296E-01
 -0.403767983296E-01
 -0.403769248153E-01
 -0.403769248153E-01
 -0.403768409411E-01
 -0.403768409411E-01
 -0.403768871908E-01
 -0.403768871908E-01
  0.194950385110E+00
  0.194950385110E+00
  0.194950361797E+00
  0.194950361797E+00
  0.194950333539E+00
  0.194950333539E+00
  0.194950340477E+00
  0.194950340477E+00
  0.194950380549E+00
  0.194950380549E+00
  0.194950317750E+00
  0.194950317750E+00
  0.194950358651E+00
  0.194950358651E+00
  0.194950350166E+00
  0.194950350166E+00
  0.194950350495E+00
  0.194950350495E+00
  0.194950352709E+00
  0.194950352709E+00
  0.459215567450E-01
  0.459215567450E-01
  0.459215549482E-01
  0.459215549482E-01
  0.459215546811E-01
  0.459215546811E-01
  0.459215615684E-01
  0.459215615684E-01
  0.459215283700E-01
  0.459215283700E-01
  0.459215793421E-01
  0.459215793421E-01
  0.459215468170E-01
  0.459215468170E-01
  0.459215411856E-01
  0.459215411856E-01
  0.459215641214E-01
  0.459215641214E-01
  0.459215830436E-01
  0.459215830436E-01
 -0.125350009634E+00
 -0.125350009634E+00
 -0.125349977304E+00
 -0.125349977304E+00
 -0.125350035935E+00
 -0.125350035935E+00
 -0.125349947517E+00
 -0.125349947517E+00
 -0.125350007633E+00
 -0.125350007633E+00
 -0.125350011927E+00
 -0.125350011927E+00
 -0.125350011587E+00
 -0.125350011587E+00
 -0.125349950072E+00
 -0.125349950072E+00
 -0.125350067655E+00
 -0.125350067655E+00
 -0.125349920772E+00
 -0.125349916773E+00
 -0.403767692473E-01
 -0.403767444519E-01
 -0.403769701916E-01
 -0.403769701916E-01
 -0.403768019855E-01
 -0.403768019855E-01
 -0.403768899834E-01
 -0.403768899834E-01
 -0.403768904710E-01
 -0.403768904710E-01
 -0.403768843284E-01
 -0.403768843284E-01
 -0.403767983296E-01
 -0.403767983296E-01
 -0.403769248153E-01
 -0.403769248153E-01
 -0.403768409411E-01
 -0.403768409411E-01
 -0.403768871908E-01
 -0.403768871908E-01
  0.194950385110E+00
  0.194950385110E+00
  0.194950361797E+00
  0.194950361797E+00
  0.194950333539E+00
  0.194950333539E+00
  0.194950340477E+00
  0.194950340477E+00
  0.194950380549E+00
  0.194950380549E+00
  0.194950317750E+00
  0.194950317750E+00
  0.194950358651E+00
  0.194950358651E+00
  0.194950350166E+00
  0.194950350166E+00
  0.194950350495E+00
  0.194950350495E+00
  0.194950352709E+00
  0.194950352709E+00
  0.459215567450E-01
  0.459215567450E-01
  0.459215549482E-01
  0.459215549482E-01
  0.459215546811E-01
  0.459215546811E-01
  0.459215615684E-01
  0.459215615684E-01
  0.459215283700E-01
  0.459215283700E-01
  0.459215793421E-01
  0.459215793421E-01
  0.459215468170E-01
  0.459215468170E-01
  0.459215411856E-01
  0.459215411856E-01
  0.459215641214E-01
  0.459215641214E-01
  0.459215830436E-01
  0.459215830436E-01
 -0.125350009634E+00
 -0.125350009634E+00
 -0.125349977304E+00
 -0.125349977304E+00
 -0.125350035935E+00
 -0.125350035935E+00
 -0.125349947517E+00
 -0.125349947517E+00