# vtk DataFile Version 3.0
TriPan results file. Generated by TriPan, USU AeroLab (c) 2021.
ASCII
DATASET POLYDATA
POINTS                 446 float
  0.190349744366E-05  0.000000000000E+00  0.000000000000E+00
  0.180155439444E-05  0.217527970672E+00  0.000000000000E+00
  0.188619651827E-05  0.448061168194E+00  0.000000000000E+00
  0.195463115218E-05  0.689725637436E+00  0.000000000000E+00
  0.200381935583E-05  0.940178275108E+00  0.000000000000E+00
  0.203146979263E-05  0.119668114185E+01  0.000000000000E+00
  0.203625478170E-05  0.145621216297E+01  0.432309807279E-21
  0.201794494299E-05  0.171560299397E+01  0.000000000000E+00
  0.197742965724E-05  0.197169232368E+01  0.000000000000E+00
  0.191662923716E-05  0.222147774696E+01  0.000000000000E+00
  0.183830664114E-05  0.246225214005E+01  0.000000000000E+00
  0.174581819542E-05  0.269171094894E+01  0.370648277606E-21
  0.164282618113E-05  0.290802383423E+01  0.000000000000E+00
  0.153302818423E-05  0.310986590385E+01  0.000000000000E+00
  0.141992384673E-05  0.329641318321E+01  0.000000000000E+00
  0.130663581474E-05  0.346730756760E+01  0.000000000000E+00
  0.119580047662E-05  0.362259936333E+01  0.000000000000E+00
  0.108952656797E-05  0.376267743111E+01  0.000000000000E+00
  0.989381096661E-06  0.388819599152E+01  0.000000000000E+00
  0.971479789355E-07  0.399999949033E+01 -0.325828402727E-22
  0.341101700422E-01  0.000000000000E+00 -0.298244900752E-02
  0.341101700422E-01  0.000000000000E+00  0.298244900752E-02
  0.341101732645E-01  0.217527970672E+00 -0.298241217554E-02
  0.341101732645E-01  0.217527970672E+00  0.298241217554E-02
  0.341101808994E-01  0.448061168194E+00 -0.298232490813E-02
  0.341101808994E-01  0.448061168194E+00  0.298232490813E-02
  0.341101872069E-01  0.689725637436E+00 -0.298225281343E-02
  0.341101872069E-01  0.689725637436E+00  0.298225281343E-02
  0.341101919096E-01  0.940178275108E+00 -0.298219906190E-02
  0.341101919096E-01  0.940178275108E+00  0.298219906190E-02
  0.341101947895E-01  0.119668114185E+01 -0.298216614364E-02
  0.341101947895E-01  0.119668114185E+01  0.298216614364E-02
  0.341101957088E-01  0.145621216297E+01 -0.298215563625E-02
  0.341101957088E-01  0.145621216297E+01  0.298215563625E-02
  0.341101946228E-01  0.171560299397E+01 -0.298216804932E-02
  0.341101946228E-01  0.171560299397E+01  0.298216804932E-02
  0.341101915849E-01  0.197169232368E+01 -0.298220277328E-02
  0.341101915849E-01  0.197169232368E+01  0.298220277328E-02
  0.341101867408E-01  0.222147774696E+01 -0.298225814118E-02
  0.341101867408E-01  0.222147774696E+01  0.298225814118E-02
  0.341101803147E-01  0.246225214005E+01 -0.298233159154E-02
  0.341101803147E-01  0.246225214005E+01  0.298233159154E-02
  0.341101725883E-01  0.269171094894E+01 -0.298241990475E-02
  0.341101725883E-01  0.269171094894E+01  0.298241990475E-02
  0.341101638765E-01  0.290802383423E+01 -0.298251948086E-02
  0.341101638765E-01  0.290802383423E+01  0.298251948086E-02
  0.341101545033E-01  0.310986590385E+01 -0.298262661791E-02
  0.341101545033E-01  0.310986590385E+01  0.298262661791E-02
  0.341101447801E-01  0.329641318321E+01 -0.298273775438E-02
  0.341101447801E-01  0.329641318321E+01  0.298273775438E-02
  0.341101349893E-01  0.346730756760E+01 -0.298284966302E-02
  0.341101349893E-01  0.346730756760E+01  0.298284966302E-02
  0.341101253729E-01  0.362259936333E+01 -0.298295957907E-02
  0.341101253729E-01  0.362259936333E+01  0.298295957907E-02
  0.341101161271E-01  0.376267743111E+01 -0.298306525965E-02
  0.341101161271E-01  0.376267743111E+01  0.298306525965E-02
  0.341101074006E-01  0.388819599152E+01 -0.298316500328E-02
  0.341101074006E-01  0.388819599152E+01  0.298316500328E-02
  0.341100737472E-01  0.399999986265E+01 -0.298354966883E-02
  0.341100737472E-01  0.399999986265E+01  0.298354966883E-02
  0.341100436987E-01  0.400210926234E+01 -0.210953759438E-02
  0.341100436987E-01  0.400210926234E+01  0.210953759438E-02
  0.341100370391E-01  0.400298377669E+01 -0.122196032094E-22
  0.937239372188E-01  0.000000000000E+00 -0.819781594942E-02
  0.937239372188E-01  0.000000000000E+00  0.819781594942E-02
  0.937239391905E-01  0.217527970672E+00 -0.819779341279E-02
  0.937239391905E-01  0.217527970672E+00  0.819779341279E-02
  0.937239466997E-01  0.448061168194E+00 -0.819770758223E-02
  0.937239466997E-01  0.448061168194E+00  0.819770758223E-02
  0.937239529129E-01  0.689725637436E+00 -0.819763656592E-02
  0.937239529129E-01  0.689725637436E+00  0.819763656592E-02
  0.937239575511E-01  0.940178275108E+00 -0.819758355120E-02
  0.937239575511E-01  0.940178275108E+00  0.819758355120E-02
  0.937239603954E-01  0.119668114185E+01 -0.819755104039E-02
  0.937239603954E-01  0.119668114185E+01  0.819755104039E-02
  0.937239613072E-01  0.145621216297E+01 -0.819754061826E-02
  0.937239613072E-01  0.145621216297E+01  0.819754061826E-02
  0.937239602418E-01  0.171560299397E+01 -0.819755279622E-02
  0.937239602418E-01  0.171560299397E+01  0.819755279622E-02
  0.937239572527E-01  0.197169232368E+01 -0.819758696122E-02
  0.937239572527E-01  0.197169232368E+01  0.819758696122E-02
  0.937239524866E-01  0.222147774696E+01 -0.819764143773E-02
  0.937239524866E-01  0.222147774696E+01  0.819764143773E-02
  0.937239461688E-01  0.246225214005E+01 -0.819771365102E-02
  0.937239461688E-01  0.246225214005E+01  0.819771365102E-02
  0.937239385823E-01  0.269171094894E+01 -0.819780036452E-02
  0.937239385823E-01  0.269171094894E+01  0.819780036452E-02
  0.937239300440E-01  0.290802383423E+01 -0.819789795872E-02
  0.937239300440E-01  0.290802383423E+01  0.819789795872E-02
  0.937239208793E-01  0.310986590385E+01 -0.819800271149E-02
  0.937239208793E-01  0.310986590385E+01  0.819800271149E-02
  0.937239114015E-01  0.329641318321E+01 -0.819811104320E-02
  0.937239114015E-01  0.329641318321E+01  0.819811104320E-02
  0.937239018940E-01  0.346730756760E+01 -0.819821971403E-02
  0.937239018940E-01  0.346730756760E+01  0.819821971403E-02
  0.937238925990E-01  0.362259936333E+01 -0.819832595654E-02
  0.937238925990E-01  0.362259936333E+01  0.819832595654E-02
  0.937238837116E-01  0.376267743111E+01 -0.819842754027E-02
  0.937238837116E-01  0.376267743111E+01  0.819842754027E-02
  0.937238753778E-01  0.388819599152E+01 -0.819852279555E-02
  0.937238753778E-01  0.388819599152E+01  0.819852279555E-02
  0.937238447620E-01  0.399999982191E+01 -0.819887273523E-02
  0.937238447620E-01  0.399999982191E+01  0.819887273523E-02
  0.937238187329E-01  0.400579648713E+01 -0.579655186704E-02
  0.937238187329E-01  0.400579648713E+01  0.579655186704E-02
  0.937238127474E-01  0.400819916324E+01 -0.531059685571E-23
  0.190432515049E+00  0.000000000000E+00 -0.166584976144E-01
  0.190432515049E+00  0.000000000000E+00  0.166584976144E-01
  0.190432515623E+00  0.217527970672E+00 -0.166584910535E-01
  0.190432515623E+00  0.217527970672E+00  0.166584910535E-01
  0.190432522917E+00  0.448061168194E+00 -0.166584076910E-01
  0.190432522917E+00  0.448061168194E+00  0.166584076910E-01
  0.190432528965E+00  0.689725637436E+00 -0.166583385577E-01
  0.190432528965E+00  0.689725637436E+00  0.166583385577E-01
  0.190432533488E+00  0.940178275108E+00 -0.166582868539E-01
  0.190432533488E+00  0.940178275108E+00  0.166582868539E-01
  0.190432536267E+00  0.119668114185E+01 -0.166582550931E-01
  0.190432536267E+00  0.119668114185E+01  0.166582550931E-01
  0.190432537162E+00  0.145621216297E+01 -0.166582448678E-01
  0.190432537162E+00  0.145621216297E+01  0.166582448678E-01
  0.190432536127E+00  0.171560299397E+01 -0.166582566924E-01
  0.190432536127E+00  0.171560299397E+01  0.166582566924E-01
  0.190432533217E+00  0.197169232368E+01 -0.166582899521E-01
  0.190432533217E+00  0.197169232368E+01  0.166582899521E-01
  0.190432528579E+00  0.222147774696E+01 -0.166583429656E-01
  0.190432528579E+00  0.222147774696E+01  0.166583429656E-01
  0.190432522439E+00  0.246225214005E+01 -0.166584131493E-01
  0.190432522439E+00  0.246225214005E+01  0.166584131493E-01
  0.190432515080E+00  0.269171094894E+01 -0.166584972583E-01
  0.190432515080E+00  0.269171094894E+01  0.166584972583E-01
  0.190432506821E+00  0.290802383423E+01 -0.166585916677E-01
  0.190432506821E+00  0.290802383423E+01  0.166585916677E-01
  0.190432497985E+00  0.310986590385E+01 -0.166586926582E-01
  0.190432497985E+00  0.310986590385E+01  0.166586926582E-01
  0.190432488886E+00  0.329641318321E+01 -0.166587966664E-01
  0.190432488886E+00  0.329641318321E+01  0.166587966664E-01
  0.190432479802E+00  0.346730756760E+01 -0.166589004874E-01
  0.190432479802E+00  0.346730756760E+01  0.166589004874E-01
  0.190432470973E+00  0.362259936333E+01 -0.166590014131E-01
  0.190432470973E+00  0.362259936333E+01  0.166590014131E-01
  0.190432462584E+00  0.376267743111E+01 -0.166590972994E-01
  0.190432462584E+00  0.376267743111E+01  0.166590972994E-01
  0.190432454772E+00  0.388819599152E+01 -0.166591865905E-01
  0.190432454772E+00  0.388819599152E+01  0.166591865905E-01
  0.190432426971E+00  0.399999976796E+01 -0.166595043537E-01
  0.190432426971E+00  0.399999976796E+01  0.166595043537E-01
  0.190432405032E+00  0.401177770772E+01 -0.117779154044E-01
  0.190432405032E+00  0.401177770772E+01  0.117779154044E-01
  0.190432398107E+00  0.401665985477E+01 -0.272412558306E-17
  0.329832195175E+00  0.000000000000E+00 -0.288541863447E-01
  0.329832195175E+00  0.000000000000E+00  0.288541863447E-01
  0.329832196040E+00  0.217527970672E+00 -0.288541764567E-01
  0.329832196040E+00  0.217527970672E+00  0.288541764567E-01
  0.329832203100E+00  0.448061168194E+00 -0.288540957614E-01
  0.329832203100E+00  0.448061168194E+00  0.288540957614E-01
  0.329832208967E+00  0.689725637436E+00 -0.288540287094E-01
  0.329832208967E+00  0.689725637436E+00  0.288540287094E-01
  0.329832213360E+00  0.940178275108E+00 -0.288539784943E-01
  0.329832213360E+00  0.940178275108E+00  0.288539784943E-01
  0.329832216060E+00  0.119668114185E+01 -0.288539476290E-01
  0.329832216060E+00  0.119668114185E+01  0.288539476290E-01
[...]
POINT_DATA                 446
SCALARS phi float 1
LOOKUP_TABLE default
  0.152047428467E-12
 -0.149509031197E-10
 -0.179619826182E-10
 -0.456315324704E-11
 -0.279771987837E-09
  0.593984773082E-10
  0.241467626245E-10
  0.450751719827E-11
  0.195581147439E-10
 -0.380500012836E-12
 -0.936421804348E-10
 -0.193138073729E-10
 -0.121863243730E-10
  0.930181016005E-12
 -0.143439557119E-10
 -0.329271567517E-10
 -0.707734083587E-10
 -0.243421264217E-10
 -0.516074913266E-10
  0.305831314626E-11
  0.183855261704E-09
  0.352377053250E-10
 -0.444908820411E-10
  0.803653636897E-10
  0.285755492145E-10
  0.254798793894E-10
 -0.234756736552E-10
  0.236183834738E-10
 -0.314242061124E-10
 -0.160671049219E-11
 -0.245772122407E-10
  0.779671453335E-10
 -0.866657861199E-10
  0.158326012552E-10
 -0.433516830832E-10
 -0.372070404814E-10
  0.134561209614E-09
  0.912351496706E-10
 -0.416518845781E-11
  0.314735257713E-12
 -0.263113997007E-10
  0.415963949754E-11
 -0.113819608449E-09
 -0.132225986935E-09
 -0.387267998635E-10
  0.178966701993E-10
 -0.127237998038E-10
  0.241587219657E-11
  0.113134142327E-09
  0.123424295357E-09
  0.205765796708E-09
 -0.213366545332E-10
 -0.239083227906E-10
  0.128237957430E-10
  0.212851132514E-09
 -0.191754422874E-10
  0.154045960609E-10
 -0.175389971393E-09
 -0.323508702601E-10
  0.197729580478E-10
 -0.451809396645E-10
  0.333927745966E-10
  0.691918867342E-12
  0.322266288308E-09
  0.103544145480E-09
 -0.413150674696E-10
 -0.824551598874E-10
  0.305485315646E-09
  0.710280052005E-09
  0.155344096744E-09
 -0.660831534893E-10
 -0.117401481830E-08
 -0.323830558289E-09
 -0.138961317496E-09
  0.308795899441E-09
 -0.997259306385E-10
 -0.261018108820E-09
  0.860440557780E-10
  0.292448217335E-09
  0.107913458551E-09
  0.161061884316E-10
  0.149273915928E-09
 -0.305492881426E-10
  0.452475561359E-10
  0.256028547104E-09
 -0.362276998764E-10
 -0.441525899826E-09
  0.105848756669E-08
  0.587909293730E-09
  0.637680785346E-09
  0.362758478204E-09
 -0.551484801619E-09
 -0.523811277556E-10
  0.489248555189E-09
 -0.702526273917E-10
  0.568435325719E-09
 -0.431890146476E-10
 -0.628047983845E-09
 -0.412819710057E-10
 -0.369581137720E-09
  0.440210529053E-09
  0.241715039863E-09
 -0.332494142895E-10
 -0.765258705010E-09
 -0.478871866748E-09
 -0.447395204109E-10
  0.109117039709E-08
 -0.390257520744E-09
 -0.785412117613E-09
 -0.870357846558E-09
  0.468521542960E-09
  0.191705784233E-08
  0.222678141985E-09
  0.553859715686E-09
 -0.137422566339E-08
 -0.461692461822E-09
  0.490546371969E-09
  0.121492541505E-10
  0.591868958358E-10
 -0.131455927502E-08
 -0.288765293578E-09
 -0.540309762209E-09
 -0.445411412180E-09
  0.608432519102E-09
 -0.258987099453E-09
 -0.274294668359E-09
  0.291237477927E-09
  0.813306729364E-09
 -0.288498502431E-10
 -0.136430321803E-08
  0.223004309593E-08
  0.944875729091E-09
  0.386816968484E-09
  0.562560609045E-09
 -0.521818631653E-09
  0.155440211046E-08
  0.316920232592E-08
  0.832185185779E-09
  0.198058016060E-09
  0.973722144798E-09
 -0.776744884124E-08
  0.454243735443E-08
 -0.583733453068E-09
 -0.954110399194E-08
  0.196073146169E-08
  0.120087612814E-09
  0.238909475319E-09
 -0.123049021737E-09
  0.580334164174E-09
  0.276121120413E-08
  0.876009847994E-09
 -0.513192975442E-08
 -0.149503675585E-08
  0.382060513608E-08
  0.346714849712E-08
 -0.462522349413E-09
  0.166346668298E-08
 -0.419752666132E-08
  0.109523015136E-08
  0.126526042248E-08
 -0.109256549381E-08
 -0.215212252533E-09
 -0.602616494032E-09
 -0.799585589580E-09
 -0.255301320102E-08
 -0.122814735118E-08
  0.276707350175E-08
 -0.200755189382E-08
  0.103347799936E-09
  0.155847973068E-08
  0.252667002425E-08
 -0.383180148809E-08
 -0.359159433097E-09
  0.344284224393E-09
  0.924554158926E-09
  0.151048070319E-08
  0.255464005939E-08
 -0.377059293510E-09
  0.352620698005E-08
  0.175261791191E-09
  0.316859436519E-08
  0.157168846080E-08
  0.100418045016E-08
  0.102146938477E-08
 -0.615209035570E-09
 -0.261241641514E-08
  0.425686299405E-08
 -0.565050670316E-09
  0.642283230941E-09
 -0.970392479045E-09
  0.114370005480E-08
 -0.124028944233E-08
  0.128665290922E-08
  0.170067299132E-08
  0.157508767053E-08
 -0.138397368565E-08
 -0.109778489424E-08
  0.217433906297E-08
  0.822253411192E-09
  0.129951497480E-08
  0.603137425420E-09
  0.937008132543E-09
  0.769773383924E-09
 -0.202649542633E-08
  0.871222000792E-10
  0.505625109490E-09
 -0.718796694041E-09
  0.180784636220E-08
  0.376998389104E-09
  0.737767768752E-09
  0.315666029774E-09
 -0.134883820779E-08
 -0.396735817809E-09
 -0.963913063950E-10
  0.101980605210E-08
 -0.109450955937E-08
  0.214813009828E-09
  0.332142041952E-09
  0.576996480109E-09
 -0.375218355551E-08
 -0.750262123955E-08
  0.256427200654E-09
  0.141593219476E-07
  0.458386661094E-08
 -0.334477920014E-08
  0.516044693089E-09
  0.264095268571E-08
 -0.395924003478E-08
  0.229541714664E-07
  0.116714530263E-07
  0.459918909207E-08
 -0.319941321006E-08
 -0.826300814230E-09
 -0.161307478277E-07
 -0.144439372745E-07
 -0.125806123852E-08
 -0.120036453000E-08
 -0.192555538181E-08
  0.508216871364E-09
  0.600089664071E-08
 -0.495997172500E-08
 -0.813890200374E-08
 -0.350521880271E-08
  0.370650374629E-08
  0.434681662019E-08
 -0.245518345758E-08
 -0.390640727925E-08
  0.960404577047E-09
  0.247746716371E-08
 -0.560305478577E-08
 -0.420708230406E-09
  0.711431734704E-09
  0.157537479416E-08
  0.413624891282E-09
 -0.419433089996E-08
  0.229127359447E-09
  0.740983521243E-08
  0.272842008622E-08
  0.163643107875E-08
  0.624728184895E-08
  0.424338139453E-08
 -0.128487242235E-07
 -0.450386758791E-08
 -0.147043645628E-07
 -0.138065470098E-07
  0.126445946422E-07
 -0.517940000958E-08
  0.369079662110E-07
 -0.255633884616E-07
  0.840031327831E-08
 -0.842225728048E-07
 -0.504148967018E-08
 -0.466539348820E-08
 -0.244740397393E-08
  0.798232598076E-09
  0.287838822222E-09
  0.176173461236E-08
  0.456046136965E-08
  0.560342870715E-08
 -0.135478189778E-08
  0.152693704902E-08
 -0.963156394918E-08
 -0.249432041688E-08
 -0.336438051030E-09
 -0.212601585989E-08
 -0.359206490334E-08
  0.592181410158E-08
  0.950130481410E-08
  0.276740163771E-08
 -0.467624480978E-08
 -0.109672199412E-07
  0.351433465141E-08
  0.763078265506E-09
 -0.220275540863E-09
 -0.770062908925E-08
  0.108383925446E-08
 -0.237840616230E-07
 -0.143970030793E-07
 -0.190128723529E-09
  0.216258132617E-07
 -0.727091750523E-08
 -0.107148536745E-08
 -0.104125735118E-08
  0.180442126518E-09
 -0.604354266458E-08
 -0.425053039987E-08
 -0.611393348449E-08
 -0.131554516586E-08
 -0.319662812887E-08
 -0.480031013550E-08
 -0.852648102678E-07
 -0.116539453587E-06
  0.218432588683E-08
  0.353785257201E-07
 -0.562402807658E-08
  0.277239373125E-08
  0.285217496843E-08
  0.839592934065E-08
  0.220041843219E-07
  0.901836680334E-08
  0.371828859369E-09
 -0.294695867709E-08
 -0.136770288428E-07
  0.716583106741E-08
 -0.395704763401E-08
  0.391094517882E-10
  0.406326836067E-08
  0.116505596082E-07
 -0.814161286132E-08
  0.437225047834E-10
  0.237530270106E-08
  0.618025080158E-08
 -0.596090342017E-08
 -0.138767849919E-07
  0.133452949212E-11
  0.776126733975E-08
  0.803986360777E-09
 -0.122658278066E-07
 -0.506243390437E-08
  0.102722764669E-08
 -0.419219658640E-08
  0.426409674931E-09
  0.941172591251E-09
 -0.182664379456E-08
  0.160858516784E-08
  0.511671024994E-09
  0.208780052968E-08
  0.579371683268E-08
  0.203125420650E-08
 -0.151781354152E-08
 -0.155762711201E-07
 -0.226340055975E-06
  0.686565854724E-07
 -0.995427487105E-07
  0.775646465945E-07
  0.584141796045E-08
  0.259644840628E-07
  0.661927695988E-08
  0.314512799138E-08
 -0.353811130394E-08
 -0.264297619901E-08
 -0.182464099940E-07
 -0.633215219148E-08
  0.659667293013E-09
 -0.567550420549E-08
 -0.208432963389E-07
  0.110678133741E-07
  0.128481385669E-07
  0.294317004101E-08
  0.125009938789E-07
  0.297852573855E-08
 -0.349853398335E-08
 -0.458773935508E-09
  0.177845668747E-08
 -0.786638810341E-08
 -0.603396355103E-08
 -0.763970178785E-09
  0.111346774162E-08
 -0.719263607701E-08
  0.150965834278E-08
 -0.318483503459E-10
 -0.127657331928E-08
  0.131234020179E-07
  0.252342383794E-07
 -0.234251023162E-07
  0.113059318296E-07
 -0.951223710910E-09
  0.256372542778E-07
 -0.665211953577E-08
  0.189085424956E-07
 -0.770531785599E-08
 -0.704920773142E-08
 -0.893140808533E-08
 -0.796091420563E-08
  0.710333264431E-08
 -0.459294197119E-08
 -0.818555927484E-07
 -0.553523626934E-08
  0.813158651525E-09
  0.107231745705E-08
 -0.108794598885E-07
 -0.204235410250E-07
 -0.251900206250E-08
  0.766005692210E-08
  0.231022614927E-08
 -0.689947293742E-09
 -0.410261047357E-09
 -0.720892179285E-08
  0.354497750599E-09
  0.494978502630E-09
  0.867846723651E-08
 -0.117948593670E-07
  0.382591669457E-08
 -0.994735718796E-08
  0.235164686335E-08
 -0.181789103215E-08
  0.186839112515E-07
 -0.100142266701E-07
  0.312066900099E-08
 -0.629382607142E-08
 -0.252380155802E-07
 -0.217674827607E-07
 -0.475619128526E-07
 -0.478084916100E-08
  0.309550213240E-07
  0.688225820777E-08
 -0.237893487132E-07
 -0.819854600875E-08
 -0.823658460880E-08
  0.802834521085E-09
 -0.223161135959E-07
 -0.119577252544E-07
 -0.151437695717E-07
 -0.957480909836E-08
  0.339408844086E-08
 -0.186483939402E-08
  0.917552431257E-08
  0.942179220753E-08
  0.440198313911E-08
 -0.881979161926E-08
 -0.233793682608E-07
 -0.107780134817E-07
 -0.106960137414E-06
 -0.201515445442E-07
 -0.160355995149E-08
  0.148859274907E-08
SCALARS phi_mu float 1
LOOKUP_TABLE default
  0.152047428467E-12
 -0.149376067071E-10
 -0.179474074491E-10
 -0.454750126444E-11
 -0.279755538179E-09
  0.594153840711E-10
  0.241637491266E-10
  0.452419959135E-11
  0.195741339803E-10
 -0.365450725237E-12
 -0.936283359870E-10
 -0.193013209582E-10
 -0.121752677384E-10
  0.939809102936E-12
 -0.143356959062E-10
 -0.329201623779E-10
 -0.707675502535E-10
 -0.243372632973E-10
 -0.516034811182E-10
  0.305831314626E-11
  0.380454674723E-04
  0.380102764207E-04
  0.380787689598E-04
  0.380623600190E-04
  0.380791355677E-04
  0.380633600353E-04
  0.380791869627E-04
  0.380640150179E-04
  0.380791576144E-04
  0.380643274099E-04
  0.380790660504E-04
  0.380644820331E-04
  0.380788563663E-04
  0.380642644563E-04
  0.380787090177E-04
  0.380638314162E-04
  0.380786368747E-04
  0.380633343106E-04
  0.380781505552E-04
  0.380623249266E-04
  0.380776249032E-04
  0.380610449787E-04
  0.380768018475E-04
  0.380591642235E-04
  0.285481835274E-04
  0.285293588402E-04
  0.190184089161E-04
  0.189979965173E-04
  0.190158012051E-04
  0.189935158915E-04
  0.190124870406E-04
  0.189877289736E-04
  0.190080584574E-04
  0.189809073830E-04
  0.947380588818E-05
  0.944324396981E-05
  0.946708749311E-05
  0.943286421383E-05
 -0.323508702601E-10
  0.197729580478E-10
 -0.451809396645E-10
  0.333927745966E-10
  0.691918867342E-12
  0.982941909344E-02
  0.234779758180E-01
 -0.118271653678E-02
 -0.118125594056E-02
 -0.125777848525E-02
 -0.125636738490E-02
 -0.124777855039E-02
 -0.124640911744E-02
 -0.129393626108E-02
 -0.129259687861E-02
 -0.132217849285E-02
 -0.132086016003E-02
 -0.133116796172E-02
 -0.132986018390E-02
 -0.132046963418E-02
 -0.131916075629E-02
 -0.129060037571E-02
 -0.128928063514E-02
 -0.124297427761E-02
 -0.124163353743E-02
 -0.117976456878E-02
 -0.117839325737E-02
 -0.117565698011E-02
 -0.117424830267E-02
 -0.108978964413E-02
 -0.108833717229E-02
 -0.997252740077E-03
 -0.995753086825E-03
 -0.901053693455E-03
 -0.899506934848E-03
 -0.803908378543E-03
 -0.802321957715E-03
 -0.708141138596E-03
 -0.706525811028E-03
 -0.615626992195E-03
 -0.614000428912E-03
 -0.527777340232E-03
 -0.526167175113E-03
 -0.470212627195E-04
 -0.201188590446E-03
 -0.162861514743E-03
 -0.270280007387E-03
 -0.265166613044E-03
  0.328858077332E-01
  0.482956424418E-01
 -0.650119381185E-03
 -0.638556899694E-03
 -0.763267849027E-03
 -0.751724864632E-03
 -0.856637611889E-03
 -0.845150852010E-03
 -0.926189657564E-03
 -0.914770442362E-03
 -0.968743746645E-03
 -0.957392097542E-03
 -0.982292221936E-03
 -0.970997022127E-03
 -0.966181728769E-03
 -0.954927899628E-03
 -0.921189685280E-03
 -0.909967679332E-03
 -0.849442516993E-03
 -0.838255039049E-03
 -0.754206391289E-03
 -0.743067696319E-03
 -0.639584462471E-03
 -0.628533753367E-03
 -0.510154528600E-03
 -0.499252267637E-03
 -0.370627920219E-03
 -0.359963689101E-03
  0.715804472348E-04
  0.818867505299E-04
  0.515286955839E-03
  0.525081773775E-03
  0.659873118120E-03
  0.668996046800E-03
  0.799594069007E-03
  0.807875093547E-03
  0.420921401572E-02
  0.421644470783E-02
  0.300912267268E-03
 -0.364087903450E-03
  0.283680127488E-03
 -0.174263228461E-03
  0.939655399722E-04
  0.853186574008E-01
  0.103388338123E+00
  0.697202880465E-02
  0.701208278990E-02
  0.682595709846E-02
  0.686708289513E-02
  0.670546976899E-02
  0.674730039321E-02
  0.661574604546E-02
  0.665796021275E-02
  0.656084556770E-02
  0.660315363143E-02
  0.565203065966E-02
  0.569419214087E-02
  0.656398385380E-02
  0.660575634601E-02
  0.662185225244E-02
  0.666299618409E-02
  0.671419678828E-02
  0.675443328087E-02
  0.683684052223E-02
  0.687586143320E-02
  0.698451139727E-02
  0.702196711019E-02
  0.804263403762E-02
  0.807812277483E-02
  0.710946881218E-02
  0.758905500370E-02
  0.815433835054E-02
  0.695793165255E-02
  0.400361396752E-02
  0.516523977620E-02
  0.211799591187E-02
  0.121554588193E-02
 -0.293571255628E-02
  0.286992827923E-03
 -0.368131169900E-01
 -0.379316589232E-01
 -0.538423990346E-02
 -0.779524372431E-02
 -0.195948790968E-02
 -0.879269272444E-02
 -0.881559537456E-03
  0.740873683711E-01
  0.137861396174E+00
 -0.503792168671E-02
 -0.452252129358E-01
 -0.109327569303E-01
  0.365708321337E-01
  0.110805186701E-01
  0.110765694930E-01
  0.108677924815E-01
  0.106609768594E-01
  0.107772476306E-01
  0.102488815206E-01
  0.109961260639E-01
  0.984475578918E-02
  0.113267625259E-01
  0.974964999799E-02
  0.115328032545E-01
  0.100645013424E-01
  0.116941997603E-01
  0.105261104763E-01
  0.375271294339E-01
 -0.117825018208E-01
 -0.197887694578E-01
  0.280793706742E-01
  0.110712879002E-02
 -0.649512329399E-03
  0.990670195447E-03
  0.728301235969E-03
  0.203446096258E-01
 -0.105395207030E-01
 -0.139098327478E-01
  0.141618804147E-01
  0.950853899322E-02
 -0.179736927051E-01
  0.790070320217E-02
  0.130109155006E-01
 -0.100103233548E+00
 -0.657345085712E-01
 -0.217936781934E-01
 -0.282365868179E-01
 -0.671454289227E-02
 -0.110820506646E-01
 -0.365181272127E-02
  0.211805948904E+00
  0.225348783062E+00
 -0.545738136916E-01
 -0.408303074482E-01
 -0.793007595576E-02
 -0.586899515292E-02
 -0.104030911225E-01
 -0.863963952906E-02
 -0.131901427329E-01
 -0.118332468045E-01
 -0.152652864921E-01
 -0.144656706779E-01
 -0.152872113476E-01
 -0.151087465674E-01
 -0.149848581380E-01
 -0.151585968018E-01
 -0.144776193991E-01
 -0.145581025209E-01
 -0.119113169520E-01
 -0.116349455683E-01
 -0.494177342373E-02
 -0.425036742421E-02
 -0.222698016121E-02
 -0.115505510585E-02
  0.283843030586E-02
  0.422359468812E-02
 -0.175118178381E-01
 -0.553384933227E-02
 -0.272531199664E-01
 -0.240903425232E-01
 -0.335621144847E-01
 -0.309840670770E-01
  0.186596627567E+00
  0.189230355855E+00
 -0.265425617213E+00
 -0.263414825891E+00
 -0.160200336191E+00
 -0.164414411905E+00
 -0.505745078052E-01
 -0.557910444289E-01
 -0.374226444209E-01
 -0.417595832619E-01
 -0.313712945469E-01
 -0.942938602529E-01
 -0.751983476803E-01
 -0.755286525236E-01
 -0.640272259479E-01
 -0.418713135005E-01
 -0.369950588793E-01
 -0.552650471218E-02
 -0.386263340215E-02
 -0.114638294326E-01
 -0.101270516470E-01
 -0.143314434681E-01
 -0.134906781987E-01
 -0.141315972724E-01
 -0.138614571831E-01
 -0.138733303756E-01
 -0.138951895302E-01
 -0.136641158024E-01
 -0.135454936449E-01
 -0.492940357071E-02
 -0.446102896967E-02
 -0.142050291761E-01
 -0.124217062266E-01
 -0.964237839798E-02
 -0.797840929590E-02
 -0.323891067874E-01
 -0.315667660423E-01
 -0.636340085862E-02
 -0.458834216540E-01
 -0.372850657809E-01
 -0.438237694998E-01
 -0.759080205853E-01
 -0.295751575022E-01
 -0.337100660453E+00
 -0.334950955684E+00
 -0.429795293068E+00
 -0.429102848869E+00
 -0.246891349308E+00
 -0.249984717281E+00
 -0.865577013210E-01
 -0.878006824248E-01
 -0.797306725915E-01
 -0.808389207632E-01
 -0.753512004285E-01
  0.121357978322E+00
  0.117965218145E+00
 -0.825474954909E-01
 -0.824218487251E-01
 -0.913585324306E-01
 -0.872703206260E-01
 -0.645223399624E-02
 -0.606260658242E-02
 -0.668212352321E-02
 -0.642963108839E-02
  0.315069220960E-03
  0.830551667605E-03
  0.311715295538E-03
  0.758662295993E-03
  0.369242858142E-03
  0.769761943957E-03
 -0.136878700941E-01
 -0.130148742955E-01
 -0.318471179344E-02
 -0.254361910629E-02
 -0.296664803172E-01
 -0.352942497120E-01
 -0.426007278729E-01
 -0.416136233252E-01
 -0.646122670732E-01
 -0.640943572216E-01
 -0.590168144554E-01
 -0.583474410232E-01
 -0.917276255786E-01
 -0.903736255132E-01
  0.311026271433E+00
  0.311956123682E+00
 -0.598789975047E+00
 -0.599499897566E+00
 -0.495955924504E+00
 -0.498195042601E+00
 -0.275481929782E+00
 -0.275792265083E+00
 -0.103110905409E+00
 -0.102846052874E+00
 -0.978173535714E-01
 -0.976091014272E-01
 -0.953080193431E-01
  0.151556310942E+00
  0.143461250933E+00
 -0.122056097141E+00
 -0.119767711381E+00
 -0.117791996687E+00
 -0.116404712899E+00
 -0.455152919749E-01
 -0.454869482201E-01
 -0.538712979760E-01
 -0.540475636953E-01
 -0.422339672223E-01
 -0.424280818552E-01
 -0.423792196671E-01
 -0.425996757112E-01
 -0.345159981298E-01
 -0.346092009349E-01
 -0.500625694403E-01
 -0.499137762235E-01
 -0.493468051427E-01
 -0.491575710766E-01
 -0.736704863375E-01
 -0.732659727801E-01
 -0.686021348229E-01
 -0.683790404000E-01
 -0.689313197508E-01
 -0.692868754268E-01
 -0.848373854533E-01
 -0.844821445644E-01
 -0.841271581594E-01
 -0.837896850426E-01
  0.122314176522E+00
  0.121946982108E+00
 -0.629068668932E+00
 -0.629516430199E+00
 -0.526567410678E+00
 -0.526562307030E+00
 -0.302462233356E+00
 -0.302305956086E+00
 -0.135905575022E+00
 -0.135913744467E+00
 -0.137719175822E+00
 -0.137733789728E+00
 -0.136855889374E+00
  0.216419239407E+00
 -0.116821819710E+00
 -0.146209203016E+00
 -0.622764001921E-01
 -0.627464165664E-01
 -0.631219076090E-01
 -0.673278640486E-01
 -0.671934867698E-01
 -0.627177165245E-01
 -0.581751446263E-01
 -0.749238277622E-01
 -0.621220759651E-01
 -0.667297432228E-01
 -0.942094606253E-01
 -0.923121146598E-01
  0.149386363380E+00
 -0.525441776204E+00
 -0.679853618440E+00
 -0.322171005508E+00
 -0.161794941407E+00
  0.214829950015E+00
 -0.116821782474E+00
 -0.146209170111E+00
 -0.622764289888E-01
 -0.627464149104E-01
 -0.631219255120E-01
 -0.673278655576E-01
 -0.671934896959E-01
 -0.627177199794E-01
 -0.581751564902E-01
 -0.749238073918E-01
 -0.621220736041E-01
 -0.667297486361E-01
 -0.942095084520E-01
 -0.923120814878E-01
  0.149386303157E+00
 -0.525441799626E+00
 -0.679853670670E+00
 -0.322171020205E+00
SCALARS phi_sigma float 1
LOOKUP_TABLE default
  0.000000000000E+00
 -0.132964125910E-13
 -0.145751690946E-13
 -0.156519826012E-13
 -0.164496574637E-13
 -0.169067628933E-13
 -0.169865021557E-13
 -0.166823930789E-13
 -0.160192364200E-13
 -0.150492875985E-13
 -0.138444477489E-13
 -0.124864147179E-13
 -0.110566345453E-13
 -0.962808693112E-14
 -0.825980567824E-14
 -0.699437382627E-14
 -0.585810522873E-14
 -0.486312434429E-14
 -0.401020838753E-14
  0.000000000000E+00
 -0.380452836171E-04
 -0.380102411830E-04
 -0.380788134507E-04
 -0.380622796537E-04
 -0.380791069922E-04
 -0.380633345555E-04
 -0.380792104384E-04
 -0.380639913995E-04
 -0.380791890387E-04
 -0.380643290166E-04
 -0.380790906276E-04
 -0.380644040659E-04
 -0.380789430321E-04
 -0.380642486237E-04
 -0.380787523694E-04
 -0.380638686232E-04
 -0.380785023135E-04
 -0.380632430755E-04
 -0.380781547204E-04
 -0.380623246119E-04
 -0.380776512146E-04
 -0.380610408191E-04
 -0.380769156671E-04
 -0.380592964495E-04
 -0.285482222542E-04
 -0.285293409436E-04
 -0.190184216399E-04
 -0.189979941014E-04
 -0.190156880710E-04
 -0.189933924672E-04
 -0.190122812748E-04
 -0.189877503103E-04