# vtk DataFile Version 3.0
MachLine results file. Generated by MachLine, USU AeroLab (c) 2022.
ASCII
DATASET POLYDATA
POINTS                3847 float
  0.999999533566E+00  0.000000000000E+00 -0.203260721043E-07
  0.986936813822E+00  0.512820512820E-01 -0.114243937225E-02
  0.999999571434E+00  0.512820512820E-01 -0.186758399879E-07
  0.986936813641E+00  0.000000000000E+00 -0.114243729785E-02
  0.969870633276E+00  0.512820512820E-01 -0.263551462626E-02
  0.969870632988E+00  0.000000000000E+00 -0.263551133652E-02
  0.947784990451E+00  0.512820512820E-01 -0.456772904277E-02
  0.947784990016E+00  0.000000000000E+00 -0.456772406882E-02
  0.919551395340E+00  0.512820512820E-01 -0.703781156060E-02
  0.919551394721E+00  0.000000000000E+00 -0.703780448438E-02
  0.884018056609E+00  0.512820512820E-01 -0.101465304796E-01
  0.884018055791E+00  0.000000000000E+00 -0.101465211355E-01
  0.840166796670E+00  0.512820512820E-01 -0.139829658665E-01
  0.840166795682E+00  0.000000000000E+00 -0.139829545724E-01
  0.787342589715E+00  0.512820512820E-01 -0.186044281892E-01
  0.787342588640E+00  0.000000000000E+00 -0.186044158978E-01
  0.725530687321E+00  0.512820512820E-01 -0.240122131272E-01
  0.725530686294E+00  0.000000000000E+00 -0.240122013893E-01
  0.655612585875E+00  0.512820512820E-01 -0.301292067376E-01
  0.655612585060E+00  0.000000000000E+00 -0.301291974251E-01
  0.579493880592E+00  0.512820512820E-01 -0.367886982470E-01
  0.579493880139E+00  0.000000000000E+00 -0.367886930746E-01
  0.500000000000E+00  0.512820512820E-01 -0.437435033352E-01
  0.500000000000E+00  0.000000000000E+00 -0.437436108249E-01
  0.420506119861E+00  0.000000000000E+00 -0.367886930746E-01
  0.420506119408E+00  0.512820512820E-01 -0.367886982470E-01
  0.344387414940E+00  0.000000000000E+00 -0.301291974251E-01
  0.344387414125E+00  0.512820512820E-01 -0.301292067376E-01
  0.274469313706E+00  0.000000000000E+00 -0.240122013893E-01
  0.274469312679E+00  0.512820512820E-01 -0.240122131272E-01
  0.212657411360E+00  0.000000000000E+00 -0.186044158978E-01
  0.212657410285E+00  0.512820512820E-01 -0.186044281892E-01
  0.159833204318E+00  0.000000000000E+00 -0.139829545724E-01
  0.159833203330E+00  0.512820512820E-01 -0.139829658665E-01
  0.115981944209E+00  0.000000000000E+00 -0.101465211355E-01
  0.115981943391E+00  0.512820512820E-01 -0.101465304796E-01
  0.804486052799E-01  0.000000000000E+00 -0.703780448438E-02
  0.804486046608E-01  0.512820512820E-01 -0.703781156060E-02
  0.522150099807E-01  0.000000000000E+00 -0.456772406882E-02
  0.522150095456E-01  0.512820512820E-01 -0.456772904277E-02
  0.301293670112E-01  0.000000000000E+00 -0.263551133652E-02
  0.301293667234E-01  0.512820512820E-01 -0.263551462626E-02
  0.130631863634E-01  0.000000000000E+00 -0.114243729785E-02
  0.130631861819E-01  0.512820512820E-01 -0.114243937225E-02
  0.468212736333E-06  0.000000000000E+00  0.000000000000E+00
  0.430199504323E-06  0.512820512820E-01  0.000000000000E+00
  0.130631861819E-01  0.512820512820E-01  0.114243937225E-02
  0.130631863634E-01  0.000000000000E+00  0.114243729785E-02
  0.301293667234E-01  0.512820512820E-01  0.263551462626E-02
  0.301293670112E-01  0.000000000000E+00  0.263551133652E-02
  0.522150095456E-01  0.512820512820E-01  0.456772904277E-02
  0.522150099807E-01  0.000000000000E+00  0.456772406882E-02
  0.804486046608E-01  0.512820512820E-01  0.703781156060E-02
  0.804486052799E-01  0.000000000000E+00  0.703780448438E-02
  0.115981943391E+00  0.512820512820E-01  0.101465304796E-01
  0.115981944209E+00  0.000000000000E+00  0.101465211355E-01
  0.159833203330E+00  0.512820512820E-01  0.139829658665E-01
  0.159833204318E+00  0.000000000000E+00  0.139829545724E-01
  0.212657410285E+00  0.512820512820E-01  0.186044281892E-01
  0.212657411360E+00  0.000000000000E+00  0.186044158978E-01
  0.274469312679E+00  0.512820512820E-01  0.240122131272E-01
  0.274469313706E+00  0.000000000000E+00  0.240122013893E-01
  0.344387414125E+00  0.512820512820E-01  0.301292067376E-01
  0.344387414940E+00  0.000000000000E+00  0.301291974251E-01
  0.420506119408E+00  0.512820512820E-01  0.367886982470E-01
  0.420506119861E+00  0.000000000000E+00  0.367886930746E-01
  0.500000000000E+00  0.512820512820E-01  0.437435033352E-01
  0.500000000000E+00  0.000000000000E+00  0.437436108249E-01
  0.579493880139E+00  0.000000000000E+00  0.367886930746E-01
  0.579493880592E+00  0.512820512820E-01  0.367886982470E-01
  0.655612585060E+00  0.000000000000E+00  0.301291974251E-01
  0.655612585875E+00  0.512820512820E-01  0.301292067376E-01
  0.725530686294E+00  0.000000000000E+00  0.240122013893E-01
  0.725530687321E+00  0.512820512820E-01  0.240122131272E-01
  0.787342588640E+00  0.000000000000E+00  0.186044158978E-01
  0.787342589715E+00  0.512820512820E-01  0.186044281892E-01
  0.840166795682E+00  0.000000000000E+00  0.139829545724E-01
  0.840166796670E+00  0.512820512820E-01  0.139829658665E-01
  0.884018055791E+00  0.000000000000E+00  0.101465211355E-01
  0.884018056609E+00  0.512820512820E-01  0.101465304796E-01
  0.919551394721E+00  0.000000000000E+00  0.703780448438E-02
  0.919551395340E+00  0.512820512820E-01  0.703781156060E-02
  0.947784990016E+00  0.000000000000E+00  0.456772406882E-02
  0.947784990451E+00  0.512820512820E-01  0.456772904277E-02
  0.969870632988E+00  0.000000000000E+00  0.263551133652E-02
  0.969870633276E+00  0.512820512820E-01  0.263551462626E-02
  0.986936813641E+00  0.000000000000E+00  0.114243729785E-02
  0.986936813822E+00  0.512820512820E-01  0.114243937225E-02
  0.986936813822E+00  0.102564102560E+00 -0.114243937225E-02
  0.999999571434E+00  0.102564102560E+00 -0.186758399904E-07
  0.969870633276E+00  0.102564102560E+00 -0.263551462626E-02
  0.947784990451E+00  0.102564102560E+00 -0.456772904277E-02
  0.919551395340E+00  0.102564102560E+00 -0.703781156060E-02
  0.884018056609E+00  0.102564102560E+00 -0.101465304796E-01
  0.840166796670E+00  0.102564102560E+00 -0.139829658665E-01
  0.787342589715E+00  0.102564102560E+00 -0.186044281892E-01
  0.725530687321E+00  0.102564102560E+00 -0.240122131272E-01
  0.655612585875E+00  0.102564102560E+00 -0.301292067376E-01
  0.579493880592E+00  0.102564102560E+00 -0.367886982470E-01
  0.500000000000E+00  0.102564102560E+00 -0.437435033352E-01
  0.420506119408E+00  0.102564102560E+00 -0.367886982470E-01
  0.344387414125E+00  0.102564102560E+00 -0.301292067376E-01
  0.274469312679E+00  0.102564102560E+00 -0.240122131272E-01
  0.212657410285E+00  0.102564102560E+00 -0.186044281892E-01
  0.159833203330E+00  0.102564102560E+00 -0.139829658665E-01
  0.115981943391E+00  0.102564102560E+00 -0.101465304796E-01
  0.804486046608E-01  0.102564102560E+00 -0.703781156060E-02
  0.522150095456E-01  0.102564102560E+00 -0.456772904277E-02
  0.301293667234E-01  0.102564102560E+00 -0.263551462626E-02
  0.130631861819E-01  0.102564102560E+00 -0.114243937225E-02
  0.430199504380E-06  0.102564102560E+00  0.000000000000E+00
  0.130631861819E-01  0.102564102560E+00  0.114243937225E-02
  0.301293667234E-01  0.102564102560E+00  0.263551462626E-02
  0.522150095456E-01  0.102564102560E+00  0.456772904277E-02
  0.804486046608E-01  0.102564102560E+00  0.703781156060E-02
  0.115981943391E+00  0.102564102560E+00  0.101465304796E-01
  0.159833203330E+00  0.102564102560E+00  0.139829658665E-01
  0.212657410285E+00  0.102564102560E+00  0.186044281892E-01
  0.274469312679E+00  0.102564102560E+00  0.240122131272E-01
  0.344387414125E+00  0.102564102560E+00  0.301292067376E-01
  0.420506119408E+00  0.102564102560E+00  0.367886982470E-01
  0.500000000000E+00  0.102564102560E+00  0.437435033352E-01
  0.579493880592E+00  0.102564102560E+00  0.367886982470E-01
  0.655612585875E+00  0.102564102560E+00  0.301292067376E-01
  0.725530687321E+00  0.102564102560E+00  0.240122131272E-01
  0.787342589715E+00  0.102564102560E+00  0.186044281892E-01
  0.840166796670E+00  0.102564102560E+00  0.139829658665E-01
  0.884018056609E+00  0.102564102560E+00  0.101465304796E-01
  0.919551395340E+00  0.102564102560E+00  0.703781156060E-02
  0.947784990451E+00  0.102564102560E+00  0.456772904277E-02
  0.969870633276E+00  0.102564102560E+00  0.263551462626E-02
  0.986936813822E+00  0.102564102560E+00  0.114243937225E-02
  0.986936813822E+00  0.153846153850E+00 -0.114243937225E-02
  0.999999571434E+00  0.153846153850E+00 -0.186758399890E-07
  0.969870633276E+00  0.153846153850E+00 -0.263551462626E-02
  0.947784990451E+00  0.153846153850E+00 -0.456772904277E-02
  0.919551395340E+00  0.153846153850E+00 -0.703781156060E-02
  0.884018056609E+00  0.153846153850E+00 -0.101465304796E-01
  0.840166796670E+00  0.153846153850E+00 -0.139829658665E-01
  0.787342589715E+00  0.153846153850E+00 -0.186044281892E-01
  0.725530687321E+00  0.153846153850E+00 -0.240122131272E-01
  0.655612585875E+00  0.153846153850E+00 -0.301292067376E-01
  0.579493880592E+00  0.153846153850E+00 -0.367886982470E-01
  0.500000000000E+00  0.153846153850E+00 -0.437435033352E-01
  0.420506119408E+00  0.153846153850E+00 -0.367886982470E-01
  0.344387414125E+00  0.153846153850E+00 -0.301292067376E-01
  0.274469312679E+00  0.153846153850E+00 -0.240122131272E-01
  0.212657410285E+00  0.153846153850E+00 -0.186044281892E-01
  0.159833203330E+00  0.153846153850E+00 -0.139829658665E-01
  0.115981943391E+00  0.153846153850E+00 -0.101465304796E-01
  0.804486046608E-01  0.153846153850E+00 -0.703781156060E-02
  0.522150095456E-01  0.153846153850E+00 -0.456772904277E-02
  0.301293667234E-01  0.153846153850E+00 -0.263551462626E-02
  0.130631861819E-01  0.153846153850E+00 -0.114243937225E-02
  0.430199504348E-06  0.153846153850E+00  0.000000000000E+00
  0.130631861819E-01  0.153846153850E+00  0.114243937225E-02
  0.301293667234E-01  0.153846153850E+00  0.263551462626E-02
  0.522150095456E-01  0.153846153850E+00  0.456772904277E-02
  0.804486046608E-01  0.153846153850E+00  0.703781156060E-02
  0.115981943391E+00  0.153846153850E+00  0.101465304796E-01
  0.159833203330E+00  0.153846153850E+00  0.139829658665E-01
[...]
POINT_DATA                3847
SCALARS phi float 1
LOOKUP_TABLE default
 -0.768496958215E-09
  0.620380483096E-15
 -0.729176219704E-09
  0.726415455565E-17
  0.821825246744E-16
  0.889045781438E-17
  0.255871712707E-16
  0.520417042793E-17
  0.303576608296E-16
  0.607153216592E-17
  0.477048955894E-16
 -0.260208521397E-17
  0.225514051877E-16
 -0.104083408559E-16
  0.000000000000E+00
 -0.173472347598E-17
 -0.346944695195E-17
  0.312250225676E-16
  0.693889390391E-17
  0.000000000000E+00
  0.346944695195E-17
  0.208166817117E-16
 -0.277555756156E-16
  0.000000000000E+00
  0.693889390391E-17
  0.208166817117E-16
 -0.173472347598E-17
  0.346944695195E-17
  0.000000000000E+00
  0.346944695195E-17
  0.520417042793E-17
  0.121430643318E-16
 -0.867361737988E-18
 -0.433680868994E-17
 -0.867361737988E-18
 -0.260208521397E-17
 -0.130104260698E-17
 -0.130104260698E-17
 -0.130104260698E-17
 -0.433680868994E-18
 -0.216840434497E-18
  0.000000000000E+00
 -0.216840434497E-18
 -0.108420217249E-18
 -0.661744490042E-23
 -0.330872245021E-23
  0.000000000000E+00
 -0.108420217249E-18
 -0.216840434497E-18
 -0.216840434497E-18
 -0.867361737988E-18
 -0.867361737988E-18
 -0.867361737988E-18
 -0.433680868994E-18
  0.000000000000E+00
  0.000000000000E+00
  0.000000000000E+00
 -0.173472347598E-17
 -0.520417042793E-17
  0.173472347598E-17
 -0.173472347598E-17
 -0.867361737988E-17
 -0.121430643318E-16
 -0.693889390391E-17
  0.346944695195E-17
 -0.208166817117E-16
 -0.277555756156E-16
 -0.173472347598E-16
 -0.242861286637E-16
  0.346944695195E-17
  0.000000000000E+00
 -0.173472347598E-16
 -0.104083408559E-16
 -0.173472347598E-16
 -0.867361737988E-17
 -0.260208521397E-16
  0.346944695195E-17
 -0.156125112838E-16
 -0.607153216592E-17
  0.433680868994E-17
 -0.260208521397E-17
  0.173472347598E-17
 -0.390312782095E-17
 -0.520417042793E-17
 -0.758941520740E-17
 -0.151788304148E-17
 -0.563785129692E-17
 -0.542101086243E-18
 -0.140108858543E-09
 -0.812864661074E-09
  0.920899641266E-14
  0.496564594998E-15
  0.702563007771E-16
  0.150920942410E-15
  0.589805981832E-16
 -0.693889390391E-17
  0.346944695195E-17
 -0.208166817117E-16
  0.277555756156E-16
 -0.346944695195E-17
  0.242861286637E-16
 -0.173472347598E-17
  0.000000000000E+00
  0.346944695195E-17
 -0.260208521397E-17
 -0.867361737988E-18
  0.000000000000E+00
 -0.433680868994E-18
  0.000000000000E+00
  0.108420217249E-18
  0.000000000000E+00
  0.108420217249E-18
  0.000000000000E+00
 -0.867361737988E-18
  0.433680868994E-18
 -0.867361737988E-18
 -0.867361737988E-18
  0.346944695195E-17
 -0.156125112838E-16
  0.173472347598E-17
  0.242861286637E-16
 -0.104083408559E-16
  0.693889390391E-17
 -0.104083408559E-16
 -0.485722573274E-16
 -0.971445146547E-16
 -0.121430643318E-16
  0.346944695195E-16
 -0.332199545650E-15
 -0.446257614195E-15
 -0.900169695728E-14
  0.140108733860E-09
  0.662339107171E-14
 -0.842238589964E-09
  0.620163642662E-16
  0.594142790522E-16
  0.485722573274E-16
  0.130104260698E-16
  0.156125112838E-16
  0.225514051877E-16
  0.104083408559E-16
 -0.346944695195E-17
  0.000000000000E+00
 -0.693889390391E-17
 -0.104083408559E-16
  0.693889390391E-17
  0.173472347598E-16
  0.693889390391E-17
  0.173472347598E-17
  0.260208521397E-17
  0.173472347598E-17
 -0.867361737988E-18
 -0.216840434497E-18
 -0.108420217249E-18
  0.000000000000E+00
 -0.216840434497E-18
 -0.216840434497E-18
 -0.433680868994E-18
  0.433680868994E-18
 -0.173472347598E-17
  0.433680868994E-17
 -0.173472347598E-17
  0.346944695195E-17
  0.173472347598E-17
 -0.693889390391E-17
 -0.173472347598E-16
  0.000000000000E+00
 -0.346944695195E-16
 -0.208166817117E-16
 -0.589805981832E-16
 -0.693889390391E-17
  0.867361737988E-18
 -0.572458747072E-16
 -0.715573433840E-16
 -0.804911692853E-15
  0.558527291257E-11
 -0.129179766168E-09
 -0.898977077210E-09
  0.109994478803E-13
  0.442788167243E-15
  0.262810606610E-15
  0.954097911787E-16
  0.416333634234E-16
  0.416333634234E-16
  0.346944695195E-17
  0.346944695195E-17
  0.138777878078E-16
  0.000000000000E+00
  0.138777878078E-16
  0.121430643318E-16
  0.138777878078E-16
  0.121430643318E-16
  0.112757025938E-16
  0.112757025938E-16
  0.346944695195E-17
  0.216840434497E-17
  0.433680868994E-18
 -0.108420217249E-18
 -0.330872245021E-23
 -0.216840434497E-18
 -0.130104260698E-17
 -0.390312782095E-17
 -0.737257477290E-17
 -0.138777878078E-16
 -0.112757025938E-16
 -0.693889390391E-17
 -0.312250225676E-16
 -0.294902990916E-16
 -0.104083408559E-16
 -0.346944695195E-17
 -0.138777878078E-16
  0.000000000000E+00
 -0.763278329430E-16
 -0.503069808033E-16
  0.693889390391E-17
 -0.140512601554E-15
 -0.178676518026E-15
 -0.528223298435E-15
 -0.112034947292E-13
  0.129709160079E-09
  0.607478477244E-14
 -0.877431495372E-09
  0.726415455565E-16
  0.637510877421E-16
  0.156125112838E-16
  0.607153216592E-17
 -0.346944695195E-17
  0.173472347598E-17
  0.104083408559E-16
 -0.346944695195E-17
 -0.138777878078E-16
  0.000000000000E+00
  0.104083408559E-16
  0.173472347598E-17
 -0.104083408559E-16
  0.000000000000E+00
 -0.433680868994E-17
 -0.867361737988E-18
 -0.433680868994E-18
 -0.867361737988E-18
 -0.216840434497E-18
  0.108420217249E-18
 -0.330872245021E-23
  0.108420217249E-18
 -0.216840434497E-18
 -0.130104260698E-17
 -0.173472347598E-17
  0.000000000000E+00
 -0.607153216592E-17
 -0.693889390391E-17
 -0.346944695195E-17
 -0.156125112838E-16
 -0.693889390391E-17
 -0.104083408559E-16
 -0.312250225676E-16
 -0.173472347598E-16
 -0.208166817117E-16
 -0.242861286637E-16
 -0.104083408559E-16
 -0.303576608296E-16
 -0.398986399475E-16
 -0.928077059648E-16
 -0.974914593499E-15
  0.514650019649E-11
 -0.988273001845E-10
 -0.873655256352E-09
  0.966652972945E-14
  0.629704621780E-15
  0.162196645004E-15
  0.954097911787E-17
  0.138777878078E-16
  0.121430643318E-16
  0.242861286637E-16
  0.138777878078E-16
 -0.693889390391E-17
  0.173472347598E-16
  0.000000000000E+00
 -0.104083408559E-16
 -0.867361737988E-17
  0.000000000000E+00
 -0.260208521397E-17
  0.000000000000E+00
 -0.867361737988E-18
 -0.130104260698E-17
 -0.216840434497E-18
  0.000000000000E+00
 -0.330872245021E-23
 -0.216840434497E-18
 -0.216840434497E-18
 -0.130104260698E-17
 -0.130104260698E-17
 -0.173472347598E-17
  0.000000000000E+00
 -0.520417042793E-17
 -0.104083408559E-16
 -0.277555756156E-16
 -0.138777878078E-16
 -0.104083408559E-16
 -0.138777878078E-16
 -0.173472347598E-16
 -0.104083408559E-16
 -0.121430643318E-16
 -0.117961196366E-15
 -0.112757025938E-15
 -0.112757025938E-15
 -0.465773253300E-15
 -0.985930087571E-14
  0.993149406030E-10
  0.413070185695E-14
 -0.577409865355E-09
 -0.238524477947E-17
  0.433680868994E-18
  0.000000000000E+00
 -0.867361737988E-18
  0.121430643318E-16
 -0.173472347598E-17
 -0.346944695195E-17
  0.173472347598E-16
  0.693889390391E-17
 -0.208166817117E-16
  0.000000000000E+00
 -0.346944695195E-17
  0.173472347598E-17
  0.520417042793E-17
 -0.867361737988E-18
  0.867361737988E-18
  0.000000000000E+00
 -0.433680868994E-18
  0.000000000000E+00
  0.000000000000E+00
  0.000000000000E+00
  0.000000000000E+00
 -0.433680868994E-18
 -0.433680868994E-18
  0.000000000000E+00
  0.867361737988E-18
  0.000000000000E+00
  0.520417042793E-17
 -0.520417042793E-17
 -0.520417042793E-17
 -0.346944695195E-17
 -0.104083408559E-16
 -0.104083408559E-16
 -0.242861286637E-16
 -0.173472347598E-16
 -0.104083408559E-16
 -0.260208521397E-16
 -0.329597460436E-16
 -0.407660016855E-16
 -0.676542155631E-16
 -0.867795418857E-15
  0.393680259832E-11
  0.130754782002E-15
 -0.638312821660E-09
  0.171303943253E-16
  0.156125112838E-16
  0.104083408559E-16
  0.190819582357E-16
  0.346944695195E-17
 -0.520417042793E-17
  0.208166817117E-16
 -0.104083408559E-16
 -0.693889390391E-17
 -0.346944695195E-17
  0.000000000000E+00
 -0.520417042793E-17
 -0.104083408559E-16
 -0.693889390391E-17
  0.260208521397E-17
 -0.867361737988E-18
 -0.433680868994E-18
 -0.867361737988E-18
 -0.216840434497E-18
 -0.216840434497E-18
  0.000000000000E+00
 -0.216840434497E-18
 -0.216840434497E-18
 -0.867361737988E-18
 -0.130104260698E-17
 -0.867361737988E-18
  0.000000000000E+00
 -0.173472347598E-17
 -0.867361737988E-17
  0.520417042793E-17
 -0.346944695195E-17
 -0.138777878078E-16
 -0.173472347598E-16
 -0.346944695195E-17
 -0.242861286637E-16
 -0.121430643318E-16
 -0.312250225676E-16
 -0.234187669257E-16
 -0.260208521397E-16
 -0.182145964978E-16
 -0.542101086243E-17
 -0.108420217249E-18
 -0.565804213377E-10
 -0.720704182474E-09
  0.185918988538E-14
  0.108420217249E-15
  0.260208521397E-17
  0.867361737988E-18
  0.121430643318E-16
 -0.693889390391E-17
  0.138777878078E-16
 -0.346944695195E-17
 -0.242861286637E-16
  0.693889390391E-17
 -0.346944695195E-17
  0.346944695195E-17
 -0.121430643318E-16
  0.867361737988E-17
 -0.867361737988E-18
 -0.260208521397E-17
 -0.433680868994E-18
 -0.867361737988E-18
  0.000000000000E+00
  0.000000000000E+00
 -0.330872245021E-23
  0.108420217249E-18
 -0.216840434497E-18
 -0.433680868994E-18
 -0.867361737988E-18
 -0.173472347598E-17
 -0.346944695195E-17
  0.000000000000E+00
 -0.104083408559E-16
 -0.867361737988E-17
 -0.346944695195E-17
 -0.693889390391E-17
 -0.277555756156E-16
 -0.451028103754E-16
  0.000000000000E+00
 -0.173472347598E-17
 -0.138777878078E-16
 -0.607153216592E-17
 -0.780625564190E-17
 -0.620163642662E-16
 -0.191123158966E-14
  0.566150895696E-10
  0.262452819894E-14
 -0.904236898018E-09
  0.349113099540E-16
  0.390312782095E-17
  0.190819582357E-16
  0.130104260698E-16
  0.104083408559E-16
  0.190819582357E-16
 -0.693889390391E-17
  0.000000000000E+00
 -0.208166817117E-16
  0.104083408559E-16
  0.104083408559E-16
 -0.346944695195E-17
 -0.867361737988E-17
  0.346944695195E-17
 -0.346944695195E-17
 -0.173472347598E-17
 -0.867361737988E-18
 -0.433680868994E-18
  0.000000000000E+00
 -0.108420217249E-18
 -0.330872245021E-23
 -0.108420217249E-18
 -0.433680868994E-18
 -0.130104260698E-17
 -0.867361737988E-18
 -0.173472347598E-17
 -0.867361737988E-18
  0.520417042793E-17
 -0.346944695195E-17
 -0.346944695195E-17
  0.000000000000E+00
 -0.277555756156E-16
 -0.693889390391E-17
 -0.381639164715E-16
 -0.277555756156E-16
  0.867361737988E-17
 -0.138777878078E-16
 -0.607153216592E-17
  0.260208521397E-17
 -0.303576608296E-17
 -0.167400815432E-15
  0.225527734508E-11
 -0.123333338551E-09
 -0.931500343678E-09
  0.384393038233E-14
  0.165666091956E-15
  0.372965547335E-16
  0.555111512313E-16
 -0.242861286637E-16
  0.104083408559E-16
  0.104083408559E-16
 -0.138777878078E-16
  0.104083408559E-16
  0.242861286637E-16
  0.104083408559E-16
  0.000000000000E+00
 -0.104083408559E-16
  0.000000000000E+00
  0.000000000000E+00
  0.000000000000E+00
 -0.433680868994E-18
 -0.433680868994E-18
 -0.650521303491E-18
  0.000000000000E+00
 -0.330872245021E-23
  0.000000000000E+00
 -0.216840434497E-18
 -0.867361737988E-18
 -0.130104260698E-17
  0.000000000000E+00
  0.260208521397E-17
 -0.520417042793E-17
 -0.173472347598E-17
 -0.520417042793E-17
  0.138777878078E-16
  0.693889390391E-17
 -0.346944695195E-17
  0.346944695195E-17
 -0.312250225676E-16
 -0.138777878078E-16
  0.138777878078E-16
 -0.685215773011E-16
 -0.137910516340E-15
 -0.138344197209E-15
 -0.375762788940E-14
  0.123547001839E-09
  0.528754557499E-14
 -0.612799357030E-09
  0.108420217249E-16
  0.173472347598E-16
  0.693889390391E-17
 -0.346944695195E-17
 -0.867361737988E-17
 -0.156125112838E-16
 -0.104083408559E-16
  0.104083408559E-16
 -0.208166817117E-16
 -0.138777878078E-16
 -0.346944695195E-17
  0.867361737988E-17
 -0.346944695195E-17
  0.346944695195E-17
 -0.260208521397E-17
  0.867361737988E-18
  0.000000000000E+00
  0.000000000000E+00
 -0.433680868994E-18
  0.000000000000E+00
 -0.330872245021E-23
 -0.108420217249E-18
 -0.433680868994E-18
 -0.867361737988E-18
 -0.173472347598E-17
 -0.867361737988E-18
  0.867361737988E-18
  0.000000000000E+00
 -0.693889390391E-17
  0.693889390391E-17
  0.173472347598E-16
 -0.104083408559E-16
 -0.693889390391E-17
  0.346944695195E-17
  0.693889390391E-17
 -0.173472347598E-17
  0.104083408559E-16
 -0.190819582357E-16
 -0.225514051877E-16
 -0.286229373536E-16
 -0.333717428691E-15
  0.491531967038E-11
 -0.705129440080E-10
 -0.754219780991E-09
  0.183143430976E-14
  0.101047642476E-15
  0.589805981832E-16
 -0.216840434497E-16
  0.173472347598E-16
 -0.104083408559E-16
  0.000000000000E+00
 -0.138777878078E-16
 -0.104083408559E-16
 -0.693889390391E-17
 -0.693889390391E-17
  0.121430643318E-16
 -0.520417042793E-17
 -0.693889390391E-17
  0.000000000000E+00
 -0.173472347598E-17
  0.000000000000E+00
 -0.433680868994E-18
 -0.433680868994E-18
 -0.216840434497E-18
 -0.330872245021E-23
 -0.216840434497E-18
 -0.216840434497E-18
 -0.433680868994E-18
 -0.867361737988E-18
 -0.346944695195E-17
 -0.433680868994E-17
  0.346944695195E-17
  0.000000000000E+00
 -0.867361737988E-17
  0.173472347598E-16
 -0.277555756156E-16
 -0.346944695195E-17
 -0.416333634234E-16
  0.346944695195E-17
  0.121430643318E-16
 -0.242861286637E-16
 -0.338271077815E-16
 -0.346944695195E-17
 -0.377302356025E-16
 -0.197519951783E-14
  0.709787865419E-10
  0.296811186740E-14
 -0.918973407907E-09
 -0.433680868994E-18
  0.477048955894E-17
  0.867361737988E-17
 -0.867361737988E-18
  0.104083408559E-16
  0.520417042793E-17
 -0.693889390391E-17
  0.346944695195E-17
 -0.104083408559E-16
  0.000000000000E+00
  0.138777878078E-16
 -0.867361737988E-17
 -0.693889390391E-17
  0.520417042793E-17
 -0.867361737988E-18
  0.867361737988E-18
 -0.867361737988E-18
 -0.433680868994E-18
 -0.433680868994E-18
  0.000000000000E+00
 -0.330872245021E-23
  0.000000000000E+00
 -0.433680868994E-18
 -0.433680868994E-18
 -0.173472347598E-17
  0.000000000000E+00
  0.260208521397E-17
 -0.520417042793E-17
  0.173472347598E-17
  0.000000000000E+00
  0.104083408559E-16
 -0.693889390391E-17
 -0.104083408559E-16
 -0.138777878078E-16
 -0.208166817117E-16
 -0.173472347598E-17
  0.346944695195E-17
 -0.112757025938E-16
 -0.433680868994E-17
 -0.563785129692E-17
 -0.169569219777E-15
  0.280822847615E-11
 -0.545497721429E-10
 -0.850599484657E-09
  0.341957365202E-15
  0.520417042793E-17
  0.867361737988E-18
  0.112757025938E-16
  0.520417042793E-17
 -0.156125112838E-16
 -0.173472347598E-16
 -0.138777878078E-16
  0.346944695195E-17
 -0.104083408559E-16
  0.346944695195E-17
 -0.520417042793E-17
  0.000000000000E+00
  0.000000000000E+00
 -0.173472347598E-17
 -0.173472347598E-17
 -0.433680868994E-18
 -0.433680868994E-18
 -0.433680868994E-18
 -0.108420217249E-18
  0.000000000000E+00
 -0.108420217249E-18
 -0.433680868994E-18
 -0.867361737988E-18
 -0.433680868994E-18
 -0.867361737988E-18
  0.000000000000E+00
 -0.346944695195E-17
 -0.693889390391E-17
 -0.173472347598E-17
  0.104083408559E-16
 -0.138777878078E-16
 -0.138777878078E-16
 -0.138777878078E-16
 -0.173472347598E-16
 -0.190819582357E-16
  0.156125112838E-16
  0.693889390391E-17
  0.190819582357E-16
 -0.234187669257E-16
 -0.374917111245E-15
  0.548158935777E-10
  0.227780034417E-14
 -0.554874232343E-09
 -0.433680868994E-17
 -0.607153216592E-17
  0.867361737988E-18
 -0.346944695195E-17
 -0.346944695195E-17
  0.520417042793E-17
 -0.104083408559E-16
 -0.346944695195E-17
 -0.346944695195E-17
  0.000000000000E+00
  0.693889390391E-17
  0.000000000000E+00
 -0.346944695195E-17
  0.173472347598E-17
 -0.346944695195E-17
 -0.867361737988E-18
  0.000000000000E+00
 -0.433680868994E-18
 -0.433680868994E-18
 -0.108420217249E-18
 -0.661744490042E-23
 -0.108420217249E-18
 -0.433680868994E-18
  0.000000000000E+00
  0.000000000000E+00
 -0.867361737988E-18
 -0.346944695195E-17
  0.173472347598E-17
  0.520417042793E-17
  0.346944695195E-17
  0.173472347598E-16
 -0.138777878078E-16
  0.138777878078E-16
  0.104083408559E-16
 -0.104083408559E-16
 -0.693889390391E-17
 -0.173472347598E-17
  0.693889390391E-17
 -0.693889390391E-17
 -0.260208521397E-17
 -0.323092247401E-16
  0.217305958384E-11
  0.284060969191E-16
 -0.663837141466E-09
 -0.867361737988E-18
 -0.346944695195E-17
  0.173472347598E-17
 -0.520417042793E-17
 -0.520417042793E-17
  0.693889390391E-17
 -0.693889390391E-17
  0.104083408559E-16
 -0.208166817117E-16
 -0.693889390391E-17
  0.000000000000E+00
 -0.867361737988E-17
 -0.346944695195E-17
  0.173472347598E-17
 -0.867361737988E-18
  0.867361737988E-18
 -0.433680868994E-18
  0.000000000000E+00
 -0.650521303491E-18
  0.000000000000E+00
  0.000000000000E+00
  0.000000000000E+00
 -0.433680868994E-18
  0.000000000000E+00
 -0.130104260698E-17
  0.867361737988E-18
  0.173472347598E-17
 -0.346944695195E-17
 -0.173472347598E-17
 -0.346944695195E-17
  0.000000000000E+00
 -0.693889390391E-17
  0.104083408559E-16
 -0.208166817117E-16
 -0.346944695195E-17
 -0.173472347598E-17
 -0.693889390391E-17
 -0.867361737988E-18
 -0.433680868994E-17
 -0.346944695195E-17
 -0.260208521397E-17
  0.758941520740E-18
 -0.955980800164E-10
 -0.749180492181E-09
  0.415032591627E-15
  0.134441069388E-16
  0.216840434497E-16
  0.182145964978E-16
 -0.138777878078E-16
 -0.190819582357E-16
  0.346944695195E-17
  0.693889390391E-17
  0.346944695195E-17
  0.000000000000E+00
  0.000000000000E+00
 -0.138777878078E-16
 -0.346944695195E-17
 -0.346944695195E-17
  0.000000000000E+00
 -0.867361737988E-18
 -0.130104260698E-17
 -0.433680868994E-18
 -0.216840434497E-18
 -0.216840434497E-18
 -0.992616735064E-23
 -0.216840434497E-18
 -0.216840434497E-18
 -0.130104260698E-17
  0.000000000000E+00
 -0.867361737988E-18
  0.867361737988E-18
  0.000000000000E+00
 -0.520417042793E-17
  0.173472347598E-17
  0.138777878078E-16
  0.104083408559E-16
  0.346944695195E-17
  0.000000000000E+00
 -0.346944695195E-17
 -0.346944695195E-17
  0.000000000000E+00
  0.260208521397E-17
  0.164798730218E-16
 -0.234187669257E-16
 -0.444739731154E-15
  0.956172679012E-10
  0.412744925044E-14
 -0.936600534953E-09
  0.780625564190E-17
  0.164798730218E-16
  0.780625564190E-17
 -0.693889390391E-17
 -0.104083408559E-16
 -0.346944695195E-17
  0.000000000000E+00
  0.242861286637E-16
  0.693889390391E-17
  0.346944695195E-17
  0.346944695195E-17
 -0.346944695195E-17
 -0.173472347598E-17
 -0.346944695195E-17
 -0.260208521397E-17
 -0.260208521397E-17
 -0.433680868994E-18
 -0.867361737988E-18
  0.216840434497E-18
  0.000000000000E+00
 -0.661744490042E-23
 -0.108420217249E-18
  0.000000000000E+00
 -0.867361737988E-18
 -0.867361737988E-18
 -0.173472347598E-17
 -0.346944695195E-17
  0.000000000000E+00
 -0.520417042793E-17
 -0.173472347598E-17
  0.000000000000E+00
 -0.346944695195E-17
  0.346944695195E-17
 -0.138777878078E-16
  0.000000000000E+00
  0.000000000000E+00
 -0.173472347598E-17
 -0.346944695195E-17
  0.173472347598E-17
 -0.520417042793E-17
 -0.394649590785E-16
  0.381080724702E-11
 -0.132352562720E-09
 -0.956206751032E-09
  0.187328451362E-14
  0.398986399475E-16
  0.867361737988E-16
 -0.494396190653E-16
  0.260208521397E-16
  0.138777878078E-16
 -0.381639164715E-16
 -0.346944695195E-17
  0.173472347598E-16
  0.346944695195E-17
  0.138777878078E-16
  0.173472347598E-17
  0.693889390391E-17
 -0.693889390391E-17
 -0.867361737988E-18
 -0.867361737988E-18
 -0.130104260698E-17
 -0.130104260698E-17
 -0.433680868994E-18
 -0.108420217249E-18
 -0.330872245021E-23
 -0.216840434497E-18
  0.000000000000E+00
 -0.867361737988E-18
 -0.130104260698E-17
 -0.260208521397E-17
  0.867361737988E-18
  0.693889390391E-17
 -0.121430643318E-16
  0.520417042793E-17
  0.104083408559E-16
 -0.693889390391E-17
  0.173472347598E-16
 -0.346944695195E-17
  0.242861286637E-16
 -0.121430643318E-16
 -0.398986399475E-16
  0.563785129692E-16
 -0.381639164715E-16
 -0.166099772825E-15
 -0.178741570156E-14
  0.132713702766E-09
  0.581360046908E-14
 -0.682246456965E-09
  0.253703308362E-16
  0.190819582357E-16
  0.225514051877E-16
  0.138777878078E-16
 -0.173472347598E-17
  0.138777878078E-16
 -0.104083408559E-16
 -0.381639164715E-16
  0.000000000000E+00
 -0.104083408559E-16
  0.693889390391E-17
  0.693889390391E-17
 -0.173472347598E-17
 -0.346944695195E-17
 -0.173472347598E-17
  0.173472347598E-17
  0.000000000000E+00
  0.000000000000E+00
 -0.433680868994E-18
 -0.216840434497E-18
  0.000000000000E+00
 -0.108420217249E-18