# vtk DataFile Version 3.0
TriPan results file. Generated by TriPan, USU AeroLab (c) 2021.
ASCII
DATASET POLYDATA
POINTS                 446 float
  0.190349744366E-02  0.000000000000E+00  0.000000000000E+00
  0.180155439444E-02  0.217527970672E+00  0.000000000000E+00
  0.188619651827E-02  0.448061168194E+00  0.000000000000E+00
  0.195463115218E-02  0.689725637436E+00  0.000000000000E+00
  0.200381935583E-02  0.940178275108E+00  0.000000000000E+00
  0.203146979263E-02  0.119668114185E+01  0.000000000000E+00
  0.203625478170E-02  0.145621216297E+01  0.432309807279E-18
  0.201794494299E-02  0.171560299397E+01  0.000000000000E+00
  0.197742965724E-02  0.197169232368E+01  0.000000000000E+00
  0.191662923716E-02  0.222147774696E+01  0.000000000000E+00
  0.183830664114E-02  0.246225214005E+01  0.000000000000E+00
  0.174581819542E-02  0.269171094894E+01  0.370648277606E-18
  0.164282618113E-02  0.290802383423E+01  0.000000000000E+00
  0.153302818423E-02  0.310986590385E+01  0.000000000000E+00
  0.141992384673E-02  0.329641318321E+01  0.000000000000E+00
  0.130663581474E-02  0.346730756760E+01  0.000000000000E+00
  0.119580047662E-02  0.362259936333E+01  0.000000000000E+00
  0.108952656797E-02  0.376267743111E+01  0.000000000000E+00
  0.989381096661E-03  0.388819599152E+01  0.000000000000E+00
  0.971479789355E-04  0.399949033288E+01 -0.325828402727E-19
  0.342666600534E-01  0.000000000000E+00 -0.119376002534E-02
  0.342666600534E-01  0.000000000000E+00  0.119376002534E-02
  0.342698824337E-01  0.217527970672E+00 -0.115692804277E-02
  0.342698824337E-01  0.217527970672E+00  0.115692804277E-02
  0.342775173423E-01  0.448061168194E+00 -0.106966063919E-02
  0.342775173423E-01  0.448061168194E+00  0.106966063919E-02
  0.342838248119E-01  0.689725637436E+00 -0.997565933343E-03
  0.342838248119E-01  0.689725637436E+00  0.997565933343E-03
  0.342885274612E-01  0.940178275108E+00 -0.943814406113E-03
  0.342885274612E-01  0.940178275108E+00  0.943814406113E-03
  0.342914074361E-01  0.119668114185E+01 -0.910896143339E-03
  0.342914074361E-01  0.119668114185E+01  0.910896143339E-03
  0.342923267137E-01  0.145621216297E+01 -0.900388752406E-03
  0.342923267137E-01  0.145621216297E+01  0.900388752406E-03
  0.342912407103E-01  0.171560299397E+01 -0.912801828255E-03
  0.342912407103E-01  0.171560299397E+01  0.912801828255E-03
  0.342882027576E-01  0.197169232368E+01 -0.947525785931E-03
  0.342882027576E-01  0.197169232368E+01  0.947525785931E-03
  0.342833586936E-01  0.222147774696E+01 -0.100289368959E-02
  0.342833586936E-01  0.222147774696E+01  0.100289368959E-02
  0.342769326198E-01  0.246225214005E+01 -0.107634404818E-02
  0.342769326198E-01  0.246225214005E+01  0.107634404818E-02
  0.342692062149E-01  0.269171094894E+01 -0.116465725981E-02
  0.342692062149E-01  0.269171094894E+01  0.116465725981E-02
  0.342604944343E-01  0.290802383423E+01 -0.126423336595E-02
  0.342604944343E-01  0.290802383423E+01  0.126423336595E-02
  0.342511211565E-01  0.310986590385E+01 -0.137137042041E-02
  0.342511211565E-01  0.310986590385E+01  0.137137042041E-02
  0.342413979750E-01  0.329641318321E+01 -0.148250689126E-02
  0.342413979750E-01  0.329641318321E+01  0.148250689126E-02
  0.342316072375E-01  0.346730756760E+01 -0.159441553133E-02
  0.342316072375E-01  0.346730756760E+01  0.159441553133E-02
  0.342219908292E-01  0.362259936333E+01 -0.170433158034E-02
  0.342219908292E-01  0.362259936333E+01  0.170433158034E-02
  0.342127449763E-01  0.376267743111E+01 -0.181001216133E-02
  0.342127449763E-01  0.376267743111E+01  0.181001216133E-02
  0.342040185398E-01  0.388819599152E+01 -0.190975578472E-02
  0.342040185398E-01  0.388819599152E+01  0.190975578472E-02
  0.341703651092E-01  0.399986265213E+01 -0.229442133769E-02
  0.341703651092E-01  0.399986265213E+01  0.229442133769E-02
  0.341403165739E-01  0.400184427598E+01 -0.188507548451E-02
  0.341403165739E-01  0.400184427598E+01  0.188507548451E-02
  0.341336570292E-01  0.400271379329E+01 -0.122196032094E-19
  0.938944796530E-01  0.000000000000E+00 -0.624850703535E-02
  0.938944796530E-01  0.000000000000E+00  0.624850703535E-02
  0.938964513531E-01  0.217527970672E+00 -0.622597040666E-02
  0.938964513531E-01  0.217527970672E+00  0.622597040666E-02
  0.939039605542E-01  0.448061168194E+00 -0.614013984579E-02
  0.939039605542E-01  0.448061168194E+00  0.614013984579E-02
  0.939101736757E-01  0.689725637436E+00 -0.606912354413E-02
  0.939101736757E-01  0.689725637436E+00  0.606912354413E-02
  0.939148118631E-01  0.940178275108E+00 -0.601610882013E-02
  0.939148118631E-01  0.940178275108E+00  0.601610882013E-02
  0.939176561901E-01  0.119668114185E+01 -0.598359801449E-02
  0.939176561901E-01  0.119668114185E+01  0.598359801449E-02
  0.939185680090E-01  0.145621216297E+01 -0.597317587732E-02
  0.939185680090E-01  0.145621216297E+01  0.597317587732E-02
  0.939175025749E-01  0.171560299397E+01 -0.598535384381E-02
  0.939175025749E-01  0.171560299397E+01  0.598535384381E-02
  0.939145135250E-01  0.197169232368E+01 -0.601951884018E-02
  0.939145135250E-01  0.197169232368E+01  0.601951884018E-02
  0.939097474483E-01  0.222147774696E+01 -0.607399534563E-02
  0.939097474483E-01  0.222147774696E+01  0.607399534563E-02
  0.939034296032E-01  0.246225214005E+01 -0.614620864342E-02
  0.939034296032E-01  0.246225214005E+01  0.614620864342E-02
  0.938958431551E-01  0.269171094894E+01 -0.623292214103E-02
  0.938958431551E-01  0.269171094894E+01  0.623292214103E-02
  0.938873047692E-01  0.290802383423E+01 -0.633051633640E-02
  0.938873047692E-01  0.290802383423E+01  0.633051633640E-02
  0.938781400889E-01  0.310986590385E+01 -0.643526911029E-02
  0.938781400889E-01  0.310986590385E+01  0.643526911029E-02
  0.938686622919E-01  0.329641318321E+01 -0.654360082321E-02
  0.938686622919E-01  0.329641318321E+01  0.654360082321E-02
  0.938591548263E-01  0.346730756760E+01 -0.665227165035E-02
  0.938591548263E-01  0.346730756760E+01  0.665227165035E-02
  0.938498598112E-01  0.362259936333E+01 -0.675851415785E-02
  0.938498598112E-01  0.362259936333E+01  0.675851415785E-02
  0.938409723865E-01  0.376267743111E+01 -0.686009788503E-02
  0.938409723865E-01  0.376267743111E+01  0.686009788503E-02
  0.938326386285E-01  0.388819599152E+01 -0.695535317288E-02
  0.938326386285E-01  0.388819599152E+01  0.695535317288E-02
  0.938020228261E-01  0.399982191417E+01 -0.730529285109E-02
  0.938020228261E-01  0.399982191417E+01  0.730529285109E-02
  0.937759936759E-01  0.400537471243E+01 -0.537478190946E-02
  0.937759936759E-01  0.400537471243E+01  0.537478190946E-02
  0.937700081870E-01  0.400767115840E+01 -0.531059685571E-20
  0.190622368231E+00  0.000000000000E+00 -0.144884656727E-01
  0.190622368231E+00  0.000000000000E+00  0.144884656727E-01
  0.190622942239E+00  0.217527970672E+00 -0.144819047741E-01
  0.190622942239E+00  0.217527970672E+00  0.144819047741E-01
  0.190630235509E+00  0.448061168194E+00 -0.143985423066E-01
  0.190630235509E+00  0.448061168194E+00  0.143985423066E-01
  0.190636283885E+00  0.689725637436E+00 -0.143294090565E-01
  0.190636283885E+00  0.689725637436E+00  0.143294090565E-01
  0.190640807385E+00  0.940178275108E+00 -0.142777052053E-01
  0.190640807385E+00  0.940178275108E+00  0.142777052053E-01
  0.190643586096E+00  0.119668114185E+01 -0.142459443984E-01
  0.190643586096E+00  0.119668114185E+01  0.142459443984E-01
  0.190644480696E+00  0.145621216297E+01 -0.142357190716E-01
  0.190644480696E+00  0.145621216297E+01  0.142357190716E-01
  0.190643446174E+00  0.171560299397E+01 -0.142475437125E-01
  0.190643446174E+00  0.171560299397E+01  0.142475437125E-01
  0.190640536323E+00  0.197169232368E+01 -0.142808034669E-01
  0.190640536323E+00  0.197169232368E+01  0.142808034669E-01
  0.190635898251E+00  0.222147774696E+01 -0.143338168751E-01
  0.190635898251E+00  0.222147774696E+01  0.143338168751E-01
  0.190629757966E+00  0.246225214005E+01 -0.144040006542E-01
  0.190629757966E+00  0.246225214005E+01  0.144040006542E-01
  0.190622399387E+00  0.269171094894E+01 -0.144881095980E-01
  0.190622399387E+00  0.269171094894E+01  0.144881095980E-01
  0.190614139635E+00  0.290802383423E+01 -0.145825190040E-01
  0.190614139635E+00  0.290802383423E+01  0.145825190040E-01
  0.190605304110E+00  0.310986590385E+01 -0.146835095219E-01
  0.190605304110E+00  0.310986590385E+01  0.146835095219E-01
  0.190596204576E+00  0.329641318321E+01 -0.147875176743E-01
  0.190596204576E+00  0.329641318321E+01  0.147875176743E-01
  0.190587121410E+00  0.346730756760E+01 -0.148913387449E-01
  0.190587121410E+00  0.346730756760E+01  0.148913387449E-01
  0.190578291561E+00  0.362259936333E+01 -0.149922643858E-01
  0.190578291561E+00  0.362259936333E+01  0.149922643858E-01
  0.190569902593E+00  0.376267743111E+01 -0.150881507315E-01
  0.190569902593E+00  0.376267743111E+01  0.150881507315E-01
  0.190562090635E+00  0.388819599152E+01 -0.151774418214E-01
  0.190562090635E+00  0.388819599152E+01  0.151774418214E-01
  0.190534290081E+00  0.399976796102E+01 -0.154952050037E-01
  0.190534290081E+00  0.399976796102E+01  0.154952050037E-01
  0.190512351166E+00  0.401113143599E+01 -0.111316370339E-01
  0.190512351166E+00  0.401113143599E+01  0.111316370339E-01
  0.190505425757E+00  0.401582515114E+01 -0.268219081496E-17
  0.330039544037E+00  0.000000000000E+00 -0.264841781860E-01
  0.330039544037E+00  0.000000000000E+00  0.264841781860E-01
  0.330040409116E+00  0.217527970672E+00 -0.264742901773E-01
  0.330040409116E+00  0.217527970672E+00  0.264742901773E-01
  0.330047469038E+00  0.448061168194E+00 -0.263935949007E-01
  0.330047469038E+00  0.448061168194E+00  0.263935949007E-01
  0.330053335330E+00  0.689725637436E+00 -0.263265428815E-01
  0.330053335330E+00  0.689725637436E+00  0.263265428815E-01
  0.330057728574E+00  0.940178275108E+00 -0.262763278701E-01
  0.330057728574E+00  0.940178275108E+00  0.262763278701E-01
  0.330060428946E+00  0.119668114185E+01 -0.262454624787E-01
  0.330060428946E+00  0.119668114185E+01  0.262454624787E-01
[...]
POINT_DATA                 446
SCALARS phi float 1
LOOKUP_TABLE default
  0.162630325873E-18
  0.894466792301E-18
  0.758941520740E-18
 -0.216840434497E-18
  0.325260651746E-18
  0.975781955237E-18
  0.000000000000E+00
  0.325260651746E-18
 -0.542101086243E-18
 -0.596311194867E-18
 -0.704731412116E-18
  0.271050543121E-19
 -0.413352078260E-18
  0.352365706058E-18
 -0.325260651746E-18
  0.433680868994E-18
 -0.758941520740E-18
  0.542101086243E-18
  0.433680868994E-18
  0.508219768353E-20
 -0.867361737988E-18
  0.867361737988E-18
  0.173472347598E-17
  0.000000000000E+00
 -0.173472347598E-17
  0.173472347598E-17
  0.000000000000E+00
 -0.173472347598E-17
 -0.173472347598E-17
  0.173472347598E-17
  0.173472347598E-17
 -0.520417042793E-17
  0.173472347598E-17
  0.000000000000E+00
  0.000000000000E+00
  0.173472347598E-17
  0.173472347598E-17
  0.000000000000E+00
 -0.173472347598E-17
 -0.520417042793E-17
  0.173472347598E-17
  0.173472347598E-17
 -0.346944695195E-17
 -0.867361737988E-18
 -0.173472347598E-17
  0.000000000000E+00
 -0.433680868994E-17
 -0.260208521397E-17
 -0.867361737988E-18
  0.173472347598E-17
  0.173472347598E-17
  0.346944695195E-17
 -0.353016227361E-15
 -0.260208521397E-17
  0.867361737988E-18
 -0.199493199737E-15
 -0.260208521397E-17
  0.893382590128E-16
  0.151788304148E-17
  0.867361737988E-18
  0.867361737988E-18
 -0.596744875736E-15
  0.665700133906E-15
  0.173472347598E-17
  0.329597460436E-16
  0.000000000000E+00
 -0.225514051877E-16
 -0.346944695195E-17
 -0.520417042793E-17
 -0.520417042793E-17
 -0.346944695195E-17
  0.520417042793E-17
 -0.520417042793E-17
 -0.520417042793E-17
 -0.520417042793E-17
 -0.693889390391E-17
 -0.173472347598E-17
  0.173472347598E-17
  0.000000000000E+00
  0.173472347598E-17
 -0.693889390391E-17
  0.520417042793E-17
  0.520417042793E-17
 -0.346944695195E-17
 -0.138777878078E-16
  0.346944695195E-17
  0.867361737988E-17
 -0.693889390391E-17
  0.000000000000E+00
  0.346944695195E-17
  0.520417042793E-17
 -0.520417042793E-17
 -0.346944695195E-17
  0.693889390391E-17
 -0.867361737988E-17
  0.208166817117E-16
  0.152655665886E-15
 -0.607153216592E-16
 -0.284494650060E-15
 -0.433680868994E-17
 -0.867361737988E-18
  0.130104260698E-17
  0.173472347598E-17
  0.303576608296E-17
  0.173472347598E-17
 -0.234231037344E-14
  0.693889390391E-17
  0.520417042793E-17
 -0.173472347598E-17
  0.000000000000E+00
 -0.346944695195E-17
  0.242861286637E-16
 -0.693889390391E-17
  0.346944695195E-17
 -0.104083408559E-16
 -0.138777878078E-16
  0.104083408559E-16
  0.104083408559E-16
 -0.693889390391E-17
 -0.693889390391E-17
  0.104083408559E-16
  0.138777878078E-16
  0.000000000000E+00
 -0.104083408559E-16
 -0.693889390391E-17
  0.173472347598E-16
 -0.104083408559E-16
  0.520417042793E-17
 -0.173472347598E-17
 -0.346944695195E-17
 -0.867361737988E-17
  0.104083408559E-16
  0.693889390391E-17
  0.000000000000E+00
 -0.173472347598E-17
  0.520417042793E-17
  0.520417042793E-17
  0.173472347598E-17
 -0.416333634234E-16
  0.364291929955E-16
  0.225514051877E-16
  0.225514051877E-16
  0.745931094670E-16
 -0.988792381307E-16
  0.316587034366E-16
 -0.329597460436E-16
  0.121430643318E-16
  0.108420217249E-15
  0.156125112838E-16
 -0.277555756156E-16
  0.104083408559E-16
  0.138777878078E-16
  0.346944695195E-17
 -0.242861286637E-16
  0.104083408559E-16
  0.138777878078E-16
 -0.451028103754E-16
  0.173472347598E-16
  0.138777878078E-16
  0.346944695195E-17
 -0.138777878078E-16
 -0.173472347598E-16
  0.346944695195E-17
  0.346944695195E-17
 -0.173472347598E-16
 -0.693889390391E-17
  0.346944695195E-17
  0.346944695195E-17
 -0.208166817117E-16
  0.242861286637E-16
  0.346944695195E-17
 -0.346944695195E-17
  0.000000000000E+00
  0.693889390391E-17
 -0.242861286637E-16
  0.000000000000E+00
 -0.346944695195E-17
 -0.208166817117E-15
 -0.138777878078E-15
 -0.763278329430E-16
  0.416333634234E-16
  0.416333634234E-16
 -0.500988139862E-14
 -0.416333634234E-16
  0.922872889220E-15
 -0.180411241502E-15
  0.119869392190E-14
  0.624500451352E-16
 -0.251534904017E-16
  0.659194920871E-16
  0.182145964978E-15
 -0.277555756156E-16
  0.763278329430E-16
  0.346944695195E-17
 -0.346944695195E-17
 -0.451028103754E-16
  0.000000000000E+00
 -0.312250225676E-16
  0.208166817117E-16
  0.242861286637E-16
  0.000000000000E+00
  0.000000000000E+00
 -0.346944695195E-17
  0.000000000000E+00
  0.000000000000E+00
  0.485722573274E-16
 -0.416333634234E-16
  0.000000000000E+00
 -0.173472347598E-16
 -0.346944695195E-17
 -0.208166817117E-16
  0.208166817117E-16
  0.416333634234E-16
  0.346944695195E-16
  0.104083408559E-16
  0.111022302463E-15
  0.326128013484E-15
  0.104083408559E-14
  0.204697370165E-15
 -0.246330733589E-15
  0.943689570931E-15
 -0.136349265212E-14
  0.728583859910E-16
 -0.264371857739E-14
 -0.241473507856E-14
  0.269576028167E-14
 -0.417721413015E-14
  0.168268177170E-14
  0.183880688454E-15
  0.475314232418E-15
  0.132532873565E-14
 -0.281025203108E-15
  0.306699110553E-14
 -0.235922392733E-15
 -0.104083408559E-16
 -0.659194920871E-16
 -0.832667268469E-16
 -0.138777878078E-16
 -0.364291929955E-16
  0.173472347598E-16
 -0.208166817117E-16
  0.867361737988E-17
 -0.173472347598E-16
 -0.867361737988E-17
 -0.138777878078E-16
  0.173472347598E-16
  0.190819582357E-16
  0.346944695195E-17
  0.693889390391E-17
 -0.346944695195E-17
 -0.208166817117E-16
  0.138777878078E-16
  0.156125112838E-16
  0.693889390391E-17
  0.260208521397E-16
  0.312250225676E-16
  0.173472347598E-16
 -0.277555756156E-15
 -0.537764277553E-16
  0.667868538251E-15
  0.843075609325E-15
 -0.205044314860E-14
 -0.392047505571E-15
  0.118828558104E-14
  0.113103970634E-14
  0.593275428784E-15
 -0.126808286094E-14
 -0.248238929412E-14
 -0.145716771982E-14
 -0.692154666915E-15
  0.537764277553E-16
 -0.893382590128E-16
  0.177028530723E-14
  0.260902410787E-14
  0.118394877235E-14
  0.869096461464E-15
 -0.152221985017E-15
  0.627102536566E-15
 -0.216840434497E-16
 -0.876035355368E-16
  0.346944695195E-17
  0.112757025938E-16
  0.260208521397E-16
  0.693889390391E-17
 -0.164798730218E-16
 -0.954097911787E-17
 -0.867361737988E-17
  0.260208521397E-17
  0.954097911787E-17
 -0.121430643318E-16
 -0.693889390391E-17
 -0.147451495458E-16
  0.000000000000E+00
 -0.780625564190E-17
  0.173472347598E-17
  0.693889390391E-17
  0.780625564190E-17
  0.771951946810E-16
  0.485722573274E-16
  0.346944695195E-17
 -0.763278329430E-16
 -0.138777878078E-16
  0.511743425413E-16
  0.385108611667E-15
 -0.719910242530E-16
  0.183013326716E-15
 -0.125680715835E-14
  0.763278329430E-15
 -0.122991894447E-14
 -0.169829428298E-14
  0.512610787151E-14
  0.311729808633E-14
  0.121430643318E-14
 -0.230371277610E-14
 -0.609755301806E-15
  0.279463951980E-14
 -0.681746326059E-15
 -0.449727061147E-15
 -0.507580089071E-14
  0.509813545546E-14
  0.244487589895E-14
 -0.390312782095E-17
 -0.650521303491E-17
  0.242861286637E-16
 -0.173472347598E-16
  0.433680868994E-17
 -0.997465998687E-17
 -0.203830008427E-16
 -0.351281503885E-16
  0.628837260042E-17
  0.136609473733E-16
 -0.823993651089E-17
 -0.492227786308E-16
 -0.329597460436E-16
 -0.130104260698E-16
  0.134441069388E-16
 -0.394649590785E-16
 -0.867361737988E-17
  0.173472347598E-17
  0.118178036801E-16
  0.454280710271E-16
 -0.754604712050E-16
 -0.789299181569E-16
  0.207299455379E-15
 -0.183880688454E-15
 -0.218575157973E-15
  0.261075883135E-15
  0.504804531509E-15
 -0.123382207229E-14
 -0.483554168929E-15
  0.124206200880E-14
  0.330898503043E-15
 -0.905091973591E-15
 -0.116920362281E-14
 -0.338271077815E-14
 -0.624500451352E-16
  0.135308431126E-15
 -0.873346533981E-14
  0.110640663298E-13
  0.246417469763E-14
 -0.686083134749E-15
 -0.974047231761E-14
 -0.115922896282E-14
  0.348679418671E-15
 -0.147451495458E-16
 -0.208166817117E-16
 -0.173472347598E-16
  0.346944695195E-17
  0.173472347598E-17
 -0.164798730218E-16
 -0.260208521397E-17
 -0.130104260698E-16
  0.520417042793E-17
  0.260208521397E-17
  0.216840434497E-16
 -0.867361737988E-17
 -0.607153216592E-17
 -0.173472347598E-16
 -0.138777878078E-16
 -0.173472347598E-16
 -0.867361737988E-17
 -0.156125112838E-16
  0.208166817117E-16
  0.867361737988E-17
  0.000000000000E+00
 -0.884708972748E-16
  0.185615411930E-15
 -0.988792381307E-16
  0.317454396104E-15
  0.245463371851E-15
 -0.123165366794E-15
 -0.615826833972E-15
  0.279810896675E-14
 -0.234274405431E-14
  0.725114412958E-15
 -0.534815247644E-14
 -0.381639164715E-16
 -0.183533743758E-14
  0.125593979661E-14
  0.554417622922E-14
  0.589112092442E-14
  0.348852891019E-14
 -0.118394877235E-14
  0.192727778181E-14
  0.354750950837E-15
  0.244942954808E-14
  0.321791204794E-15
 -0.121430643318E-16
 -0.138777878078E-16
 -0.802309607639E-17
 -0.182145964978E-16
  0.867361737988E-18
  0.260208521397E-17
 -0.563785129692E-17
  0.216840434497E-17
 -0.477048955894E-17
  0.511743425413E-16
  0.780625564190E-17
 -0.280157841370E-15
  0.798840160687E-15
  0.306612374379E-15
  0.557691913483E-14
  0.251014486974E-14
 -0.898586760556E-15
 -0.257432963835E-14
  0.274953670942E-15
 -0.717568365838E-14
 -0.329597460436E-16
 -0.147451495458E-16
 -0.346944695195E-16
 -0.195156391047E-16
 -0.147451495458E-16
 -0.130104260698E-17
 -0.867361737988E-18
 -0.780625564190E-17
  0.737257477290E-17
 -0.260208521397E-16
 -0.980118763927E-16
  0.997465998687E-16
  0.116963730368E-14
  0.274173045378E-14
  0.604551131378E-14
  0.251534904017E-15
  0.444089209850E-14
 -0.184227633149E-14
  0.287096735274E-14
SCALARS phi_mu float 1
LOOKUP_TABLE default
 -0.411736382226E-03
 -0.224647877389E-03
 -0.376248162013E-03
 -0.504626447944E-03
 -0.600397959465E-03
 -0.656126158959E-03
 -0.667221195863E-03
 -0.632533435121E-03
 -0.554510591031E-03
 -0.438902274607E-03
 -0.294056110582E-03
 -0.129950726851E-03
  0.428916109478E-04
  0.214413133948E-03
  0.375834356886E-03
  0.520200354840E-03
  0.642628067063E-03
  0.740290845695E-03
  0.812241141295E-03
 -0.118974565702E-04
 -0.738875546843E-02
 -0.737379406553E-02
 -0.783220584110E-02
 -0.782502242341E-02
 -0.814056618333E-02
 -0.813398887807E-02
 -0.839675914568E-02
 -0.839067824498E-02
 -0.858875508710E-02
 -0.858303874031E-02
 -0.870704796637E-02
 -0.870154938958E-02
 -0.874557544539E-02
 -0.874013938029E-02
 -0.870234892523E-02
 -0.869681772532E-02
 -0.857966745270E-02
 -0.857388728341E-02
 -0.838387230147E-02
 -0.837769995860E-02
 -0.812469800306E-02
 -0.811800870982E-02
 -0.781434481725E-02
 -0.780704109299E-02
 -0.746642929380E-02
 -0.745845052300E-02
 -0.709499986091E-02
 -0.708633173563E-02
 -0.671381211457E-02
 -0.670449467291E-02
 -0.633604045285E-02
 -0.632617312224E-02
 -0.597489292846E-02
 -0.596463506471E-02
 -0.564682660874E-02
 -0.563639232611E-02
 -0.538869373825E-02
 -0.537834037059E-02
 -0.176293374030E-02
 -0.173675140533E-02
 -0.253254527616E-02
 -0.251740706482E-02
 -0.231300840104E-02
 -0.105089998758E-01
 -0.104065993838E-01
 -0.114099037829E-01
 -0.113338274766E-01
 -0.116643095329E-01
 -0.115873079285E-01
 -0.118861824265E-01
 -0.118087437000E-01
 -0.120561943850E-01
 -0.119786083051E-01
 -0.121623497529E-01
 -0.120847599189E-01
 -0.121978245229E-01
 -0.121202867927E-01
 -0.121605632244E-01
 -0.120831068622E-01
 -0.120532583416E-01
 -0.119759472159E-01
 -0.118834522693E-01
 -0.118064435535E-01
 -0.116641239525E-01
 -0.115877216030E-01
 -0.114164154339E-01
 -0.113411149208E-01
 -0.111829519386E-01
 -0.111094721229E-01
 -0.111552945442E-01
 -0.110845918607E-01
 -0.992812578425E-02
 -0.986138608235E-02
 -0.914502746291E-02
 -0.908363189290E-02
 -0.854342497917E-02
 -0.848888809720E-02
 -0.802009634224E-02
 -0.797397685980E-02
 -0.755266462418E-02
 -0.751645327428E-02
 -0.233269970485E-02
 -0.228519027026E-02
 -0.362889906310E-02
 -0.343405370820E-02
 -0.351400083464E-02
 -0.152200915153E-01
 -0.150335837184E-01
 -0.150321510517E-01
 -0.149101941353E-01
 -0.154603581606E-01
 -0.153257514760E-01
 -0.158253732792E-01
 -0.156813391021E-01
 -0.161060120126E-01
 -0.159554933126E-01
 -0.162819948117E-01
 -0.161276924156E-01
 -0.163378568907E-01
 -0.161823023413E-01
 -0.162676421814E-01
 -0.161132911470E-01
 -0.160771578074E-01
 -0.159264884592E-01
 -0.157818385942E-01
 -0.156374398419E-01
 -0.154021545873E-01
 -0.152667896548E-01
 -0.149597078844E-01
 -0.148363405557E-01
 -0.144751383547E-01
 -0.143669122269E-01
 -0.139673440449E-01
 -0.138775091496E-01
 -0.134533321196E-01
 -0.133851160704E-01
 -0.129483967999E-01
 -0.129048208716E-01
 -0.124669045930E-01
 -0.124505385403E-01
 -0.120250326645E-01
 -0.120376565710E-01
 -0.116536258166E-01
 -0.116957056018E-01
 -0.325645640213E-02
 -0.319630742708E-02
 -0.522061855910E-02
 -0.480767393777E-02
 -0.526700731487E-02
 -0.217536971654E-01
 -0.214702154071E-01
 -0.206744025415E-01
 -0.206320457272E-01
 -0.210510512406E-01
 -0.209734316953E-01
 -0.213682813363E-01
 -0.212631222248E-01
 -0.216065876507E-01
 -0.214815641211E-01
 -0.217512966368E-01
 -0.216139357684E-01
 -0.217932003004E-01
 -0.216508682672E-01
 -0.217292697122E-01
 -0.215892091168E-01
 -0.215629375838E-01
 -0.214323222711E-01
 -0.213037950824E-01
 -0.211897755210E-01
 -0.209668420782E-01
 -0.208765541878E-01
 -0.205717767254E-01
 -0.205122911596E-01
 -0.201433856894E-01
 -0.201215681194E-01
 -0.199363650862E-01
 -0.199557744974E-01
 -0.197879013534E-01
 -0.198563182549E-01
 -0.186285011344E-01
 -0.187434120238E-01
 -0.180185600573E-01
 -0.181740112546E-01
 -0.177668731681E-01
 -0.179520686576E-01
 -0.859324782120E-02
 -0.877911435917E-02
 -0.598421149064E-02
 -0.568901935937E-02
 -0.882748143519E-02
 -0.800130186382E-02
 -0.818988361405E-02
 -0.267462174785E-01
 -0.260596864390E-01
 -0.269874622646E-01
 -0.270800287152E-01
 -0.269669571606E-01
 -0.270805114722E-01
 -0.272149767577E-01
 -0.271770231985E-01
 -0.275675652834E-01
 -0.274840323687E-01
 -0.277806428542E-01
 -0.276690468301E-01
 -0.278450658759E-01
 -0.277216927393E-01
 -0.277666693762E-01
 -0.276459623680E-01
 -0.275502390280E-01
 -0.274467026496E-01
 -0.272019207951E-01
 -0.271317826401E-01
 -0.269607982056E-01
 -0.269387057238E-01
 -0.268439692347E-01
 -0.269967413853E-01
 -0.266570835176E-01
 -0.267695921879E-01
 -0.260116110910E-01
 -0.262083178850E-01
 -0.257041394599E-01
 -0.260057781446E-01
 -0.257617874107E-01
 -0.266045454709E-01
 -0.262513607233E-01
 -0.264355036615E-01
 -0.169140122354E-01
 -0.170257744094E-01
 -0.101425011220E-01
 -0.102897298827E-01
 -0.817959055244E-02
 -0.755527181392E-02
 -0.121481778091E-01
 -0.104537653849E-01
 -0.124427866715E-01
 -0.103845897403E-01
 -0.104040329655E-01
 -0.107955892482E-01
 -0.109844467712E-01
 -0.110599720078E-01
 -0.111763733332E-01
 -0.112125086650E-01
 -0.112599508221E-01
 -0.113181968670E-01
 -0.113193273709E-01
 -0.113730221618E-01
 -0.113476783912E-01
 -0.113875310632E-01
 -0.113510089085E-01
 -0.113748673912E-01
 -0.113382861778E-01
 -0.113330399357E-01
 -0.113076840104E-01
 -0.112489851784E-01
 -0.112502538256E-01
 -0.111180465701E-01
 -0.111653730785E-01
 -0.109510803651E-01
 -0.110661144201E-01
 -0.107707506555E-01
 -0.109736682387E-01
 -0.116649505596E-01
 -0.119775108419E-01
 -0.132256499631E-01
 -0.137393768874E-01
 -0.133877525430E-01
 -0.135250156757E-01
 -0.898735768878E-02
 -0.911294281510E-02
  0.465507633609E-02
  0.447997314455E-02
  0.757831706402E-02
  0.733583414570E-02
 -0.500178194583E-02
 -0.338030415585E-02
 -0.429409518422E-02
 -0.295378505357E-02
 -0.333566999283E-02
 -0.553433426224E-02
 -0.571976658335E-02
 -0.592565920679E-02
 -0.597539303217E-02
 -0.584858616542E-02
 -0.589490317148E-02
 -0.564693279323E-02
 -0.567540636822E-02
 -0.565186722619E-02
 -0.567299816543E-02
 -0.564291613965E-02
 -0.566537477683E-02
 -0.563843842708E-02
 -0.566650271676E-02
 -0.565781002891E-02
 -0.569129639338E-02
 -0.569656265879E-02
 -0.573587429281E-02
 -0.573223773266E-02
 -0.578267233447E-02
 -0.601133683484E-02
 -0.608099750159E-02
 -0.593161564038E-02
 -0.603176884004E-02
 -0.645126639255E-02
 -0.658896875344E-02
 -0.640927659867E-02
 -0.658187663388E-02
 -0.560797645641E-02
 -0.701194235466E-02
 -0.480703458895E-02
 -0.467980209076E-02
  0.976537958365E-02
  0.988378657254E-02
  0.183619061827E-01
  0.183652018115E-01
  0.664648693606E-02
  0.656835719215E-02
 -0.196778317476E-02
 -0.546878159147E-03
 -0.657147414176E-03
  0.619072372700E-03
  0.471153369504E-03
  0.217159323016E-02
  0.195646582199E-02
  0.100776454162E-02
  0.691987058556E-03
 -0.500255849124E-03
 -0.369480086377E-03
 -0.639364359027E-03
 -0.623457119677E-03
 -0.611248506765E-03
 -0.589086735806E-03
 -0.449117898441E-03
 -0.423663170947E-03
 -0.445075808431E-03
 -0.419089390521E-03
 -0.446722413164E-03
 -0.422960790492E-03
 -0.573815134201E-03
 -0.554811131619E-03
 -0.607760866290E-03
 -0.596551036646E-03
 -0.740435157923E-04
 -0.553045966634E-03
  0.913534270428E-03
  0.101750471786E-02
  0.673338516996E-03
  0.675341963536E-03
  0.188637233970E-03
  0.166352695167E-03
 -0.108942427409E-02
 -0.113878680510E-02
 -0.124608154379E-02
 -0.132510313018E-02
  0.180215929906E-01
  0.178963801138E-01
  0.232101817539E-01
  0.233810317802E-01
  0.690578096082E-02
  0.686647789516E-02
  0.178629351557E-02
  0.227727785026E-02
  0.282985945567E-02
  0.334220795636E-02
  0.344447120891E-02
  0.467303482950E-02
  0.467010497940E-02
  0.415849582453E-02
  0.416446472240E-02
  0.476511091468E-02
  0.477264673981E-02
  0.512040631125E-02
  0.512735348752E-02
  0.532167414247E-02
  0.532680915805E-02
  0.569305439057E-02
  0.569668726891E-02
  0.573076347825E-02
  0.573652407856E-02
  0.569724800976E-02
  0.570656727379E-02
  0.537752364699E-02
  0.538835469630E-02
  0.514882636025E-02
  0.515991605067E-02
  0.428013885441E-02
  0.429088838319E-02
  0.392238890430E-02
  0.393184314425E-02
  0.319789306749E-02
  0.320308141275E-02
  0.222782983277E-02
  0.223195053581E-02
  0.189388154392E-02
  0.189430184384E-02
  0.110527070905E-01
  0.110537672894E-01
  0.238455050504E-01
  0.237548925287E-01
  0.277199125165E-01
  0.277343763839E-01
  0.667187892152E-02
  0.667858412303E-02
  0.447559831807E-02
  0.462270030621E-02
  0.495270556736E-02
  0.517037482170E-02
  0.522292155096E-02
  0.702028962406E-03
  0.739935933101E-03
  0.725203804513E-03
  0.125670799510E-02
  0.137247619910E-02
  0.145736469389E-02
  0.149481989658E-02
  0.145842100589E-02
  0.132551644886E-02
  0.113344490149E-02
  0.653243426737E-03
  0.462931058498E-03
 -0.354372113678E-03
 -0.104263265585E-03
  0.525751512851E-03
  0.108922922374E-01
  0.227373989109E-01
  0.209518166998E-01
  0.465820311749E-02
  0.452083097264E-02
  0.703609726376E-03
  0.767884586458E-03
  0.754765679060E-03
  0.128779218402E-02
  0.140464898183E-02
  0.149019039891E-02
  0.152783058413E-02
  0.149115635418E-02
  0.135761401253E-02
  0.116446248800E-02
  0.682797591267E-03
  0.490694824682E-03
 -0.328620030076E-03
 -0.802272896760E-04
  0.547224537936E-03
  0.109128026363E-01
  0.227546200984E-01
  0.209615154044E-01
  0.467197721350E-02
SCALARS phi_sigma float 1
LOOKUP_TABLE default
  0.411736382226E-03
  0.224647877389E-03
  0.376248162013E-03
  0.504626447944E-03
  0.600397959465E-03
  0.656126158959E-03
  0.667221195863E-03
  0.632533435121E-03
  0.554510591031E-03
  0.438902274607E-03
  0.294056110582E-03
  0.129950726851E-03
 -0.428916109478E-04
 -0.214413133948E-03
 -0.375834356886E-03
 -0.520200354840E-03
 -0.642628067063E-03
 -0.740290845695E-03
 -0.812241141295E-03
  0.118974565702E-04
  0.738875546843E-02
  0.737379406553E-02
  0.783220584110E-02
  0.782502242341E-02
  0.814056618333E-02
  0.813398887807E-02
  0.839675914568E-02
  0.839067824498E-02
  0.858875508710E-02
  0.858303874031E-02
  0.870704796637E-02
  0.870154938958E-02
  0.874557544539E-02
  0.874013938029E-02
  0.870234892523E-02
  0.869681772532E-02
  0.857966745270E-02
  0.857388728341E-02
  0.838387230147E-02
  0.837769995860E-02
  0.812469800306E-02
  0.811800870982E-02
  0.781434481725E-02
  0.780704109299E-02
  0.746642929380E-02
  0.745845052300E-02
  0.709499986091E-02
  0.708633173563E-02
  0.671381211457E-02
  0.670449467291E-02
  0.633604045285E-02
  0.632617312224E-02