# vtk DataFile Version 3.0
MachLine results file. Generated by MachLine, USU AeroLab (c) 2022.
ASCII
DATASET POLYDATA
POINTS                1127 float
  0.100000000000E+01  0.000000000000E+00  0.000000000000E+00
  0.973034464140E+00  0.105263157890E+00 -0.235917869390E-02
  0.100000000000E+01  0.105263157890E+00  0.000000000000E+00
  0.973034464140E+00  0.000000000000E+00 -0.235917869390E-02
  0.929717765040E+00  0.105263157890E+00 -0.614889880620E-02
  0.929717765040E+00  0.000000000000E+00 -0.614889880620E-02
  0.863184801440E+00  0.105263157890E+00 -0.119697788720E-01
  0.863184801440E+00  0.000000000000E+00 -0.119697788720E-01
  0.767714243180E+00  0.105263157890E+00 -0.203223704200E-01
  0.767714243180E+00  0.000000000000E+00 -0.203223704200E-01
  0.643290544900E+00  0.105263157890E+00 -0.312080334940E-01
  0.643290544900E+00  0.000000000000E+00 -0.312080334940E-01
  0.500000000000E+00  0.105263157890E+00 -0.437443317630E-01
  0.500000000000E+00  0.000000000000E+00 -0.437443317630E-01
  0.356709455100E+00  0.000000000000E+00 -0.312080334940E-01
  0.356709455100E+00  0.105263157890E+00 -0.312080334940E-01
  0.232285756820E+00  0.000000000000E+00 -0.203223704200E-01
  0.232285756820E+00  0.105263157890E+00 -0.203223704200E-01
  0.136815198560E+00  0.000000000000E+00 -0.119697788720E-01
  0.136815198560E+00  0.105263157890E+00 -0.119697788720E-01
  0.702822349590E-01  0.000000000000E+00 -0.614889880620E-02
  0.702822349590E-01  0.105263157890E+00 -0.614889880620E-02
  0.269655358630E-01  0.000000000000E+00 -0.235917869390E-02
  0.269655358630E-01  0.105263157890E+00 -0.235917869390E-02
  0.000000000000E+00  0.000000000000E+00  0.000000000000E+00
  0.000000000000E+00  0.105263157890E+00  0.000000000000E+00
  0.269655358630E-01  0.105263157890E+00  0.235917869390E-02
  0.269655358630E-01  0.000000000000E+00  0.235917869390E-02
  0.702822349590E-01  0.105263157890E+00  0.614889880620E-02
  0.702822349590E-01  0.000000000000E+00  0.614889880620E-02
  0.136815198560E+00  0.105263157890E+00  0.119697788720E-01
  0.136815198560E+00  0.000000000000E+00  0.119697788720E-01
  0.232285756820E+00  0.105263157890E+00  0.203223704200E-01
  0.232285756820E+00  0.000000000000E+00  0.203223704200E-01
  0.356709455100E+00  0.105263157890E+00  0.312080334940E-01
  0.356709455100E+00  0.000000000000E+00  0.312080334940E-01
  0.500000000000E+00  0.105263157890E+00  0.437443317630E-01
  0.500000000000E+00  0.000000000000E+00  0.437443317630E-01
  0.643290544900E+00  0.000000000000E+00  0.312080334940E-01
  0.643290544900E+00  0.105263157890E+00  0.312080334940E-01
  0.767714243180E+00  0.000000000000E+00  0.203223704200E-01
  0.767714243180E+00  0.105263157890E+00  0.203223704200E-01
  0.863184801440E+00  0.000000000000E+00  0.119697788720E-01
  0.863184801440E+00  0.105263157890E+00  0.119697788720E-01
  0.929717765040E+00  0.000000000000E+00  0.614889880620E-02
  0.929717765040E+00  0.105263157890E+00  0.614889880620E-02
  0.973034464140E+00  0.000000000000E+00  0.235917869390E-02
  0.973034464140E+00  0.105263157890E+00  0.235917869390E-02
  0.973034464140E+00  0.210526315790E+00 -0.235917869390E-02
  0.100000000000E+01  0.210526315790E+00  0.000000000000E+00
  0.929717765040E+00  0.210526315790E+00 -0.614889880620E-02
  0.863184801440E+00  0.210526315790E+00 -0.119697788720E-01
  0.767714243180E+00  0.210526315790E+00 -0.203223704200E-01
  0.643290544900E+00  0.210526315790E+00 -0.312080334940E-01
  0.500000000000E+00  0.210526315790E+00 -0.437443317630E-01
  0.356709455100E+00  0.210526315790E+00 -0.312080334940E-01
  0.232285756820E+00  0.210526315790E+00 -0.203223704200E-01
  0.136815198560E+00  0.210526315790E+00 -0.119697788720E-01
  0.702822349590E-01  0.210526315790E+00 -0.614889880620E-02
  0.269655358630E-01  0.210526315790E+00 -0.235917869390E-02
  0.000000000000E+00  0.210526315790E+00  0.000000000000E+00
  0.269655358630E-01  0.210526315790E+00  0.235917869390E-02
  0.702822349590E-01  0.210526315790E+00  0.614889880620E-02
  0.136815198560E+00  0.210526315790E+00  0.119697788720E-01
  0.232285756820E+00  0.210526315790E+00  0.203223704200E-01
  0.356709455100E+00  0.210526315790E+00  0.312080334940E-01
  0.500000000000E+00  0.210526315790E+00  0.437443317630E-01
  0.643290544900E+00  0.210526315790E+00  0.312080334940E-01
  0.767714243180E+00  0.210526315790E+00  0.203223704200E-01
  0.863184801440E+00  0.210526315790E+00  0.119697788720E-01
  0.929717765040E+00  0.210526315790E+00  0.614889880620E-02
  0.973034464140E+00  0.210526315790E+00  0.235917869390E-02
  0.973034464140E+00  0.315789473680E+00 -0.235917869390E-02
  0.100000000000E+01  0.315789473680E+00  0.000000000000E+00
  0.929717765040E+00  0.315789473680E+00 -0.614889880620E-02
  0.863184801440E+00  0.315789473680E+00 -0.119697788720E-01
  0.767714243180E+00  0.315789473680E+00 -0.203223704200E-01
  0.643290544900E+00  0.315789473680E+00 -0.312080334940E-01
  0.500000000000E+00  0.315789473680E+00 -0.437443317630E-01
  0.356709455100E+00  0.315789473680E+00 -0.312080334940E-01
  0.232285756820E+00  0.315789473680E+00 -0.203223704200E-01
  0.136815198560E+00  0.315789473680E+00 -0.119697788720E-01
  0.702822349590E-01  0.315789473680E+00 -0.614889880620E-02
  0.269655358630E-01  0.315789473680E+00 -0.235917869390E-02
  0.000000000000E+00  0.315789473680E+00  0.000000000000E+00
  0.269655358630E-01  0.315789473680E+00  0.235917869390E-02
  0.702822349590E-01  0.315789473680E+00  0.614889880620E-02
  0.136815198560E+00  0.315789473680E+00  0.119697788720E-01
  0.232285756820E+00  0.315789473680E+00  0.203223704200E-01
  0.356709455100E+00  0.315789473680E+00  0.312080334940E-01
  0.500000000000E+00  0.315789473680E+00  0.437443317630E-01
  0.643290544900E+00  0.315789473680E+00  0.312080334940E-01
  0.767714243180E+00  0.315789473680E+00  0.203223704200E-01
  0.863184801440E+00  0.315789473680E+00  0.119697788720E-01
  0.929717765040E+00  0.315789473680E+00  0.614889880620E-02
  0.973034464140E+00  0.315789473680E+00  0.235917869390E-02
  0.973034464140E+00  0.421052631580E+00 -0.235917869390E-02
  0.100000000000E+01  0.421052631580E+00  0.000000000000E+00
  0.929717765040E+00  0.421052631580E+00 -0.614889880620E-02
  0.863184801440E+00  0.421052631580E+00 -0.119697788720E-01
  0.767714243180E+00  0.421052631580E+00 -0.203223704200E-01
  0.643290544900E+00  0.421052631580E+00 -0.312080334940E-01
  0.500000000000E+00  0.421052631580E+00 -0.437443317630E-01
  0.356709455100E+00  0.421052631580E+00 -0.312080334940E-01
  0.232285756820E+00  0.421052631580E+00 -0.203223704200E-01
  0.136815198560E+00  0.421052631580E+00 -0.119697788720E-01
  0.702822349590E-01  0.421052631580E+00 -0.614889880620E-02
  0.269655358630E-01  0.421052631580E+00 -0.235917869390E-02
  0.000000000000E+00  0.421052631580E+00  0.000000000000E+00
  0.269655358630E-01  0.421052631580E+00  0.235917869390E-02
  0.702822349590E-01  0.421052631580E+00  0.614889880620E-02
  0.136815198560E+00  0.421052631580E+00  0.119697788720E-01
  0.232285756820E+00  0.421052631580E+00  0.203223704200E-01
  0.356709455100E+00  0.421052631580E+00  0.312080334940E-01
  0.500000000000E+00  0.421052631580E+00  0.437443317630E-01
  0.643290544900E+00  0.421052631580E+00  0.312080334940E-01
  0.767714243180E+00  0.421052631580E+00  0.203223704200E-01
  0.863184801440E+00  0.421052631580E+00  0.119697788720E-01
  0.929717765040E+00  0.421052631580E+00  0.614889880620E-02
  0.973034464140E+00  0.421052631580E+00  0.235917869390E-02
  0.973034464140E+00  0.526315789470E+00 -0.235917869390E-02
  0.100000000000E+01  0.526315789470E+00  0.000000000000E+00
  0.929717765040E+00  0.526315789470E+00 -0.614889880620E-02
  0.863184801440E+00  0.526315789470E+00 -0.119697788720E-01
  0.767714243180E+00  0.526315789470E+00 -0.203223704200E-01
  0.643290544900E+00  0.526315789470E+00 -0.312080334940E-01
  0.500000000000E+00  0.526315789470E+00 -0.437443317630E-01
  0.356709455100E+00  0.526315789470E+00 -0.312080334940E-01
  0.232285756820E+00  0.526315789470E+00 -0.203223704200E-01
  0.136815198560E+00  0.526315789470E+00 -0.119697788720E-01
  0.702822349590E-01  0.526315789470E+00 -0.614889880620E-02
  0.269655358630E-01  0.526315789470E+00 -0.235917869390E-02
  0.000000000000E+00  0.526315789470E+00  0.000000000000E+00
  0.269655358630E-01  0.526315789470E+00  0.235917869390E-02
  0.702822349590E-01  0.526315789470E+00  0.614889880620E-02
  0.136815198560E+00  0.526315789470E+00  0.119697788720E-01
  0.232285756820E+00  0.526315789470E+00  0.203223704200E-01
  0.356709455100E+00  0.526315789470E+00  0.312080334940E-01
  0.500000000000E+00  0.526315789470E+00  0.437443317630E-01
  0.643290544900E+00  0.526315789470E+00  0.312080334940E-01
  0.767714243180E+00  0.526315789470E+00  0.203223704200E-01
  0.863184801440E+00  0.526315789470E+00  0.119697788720E-01
  0.929717765040E+00  0.526315789470E+00  0.614889880620E-02
  0.973034464140E+00  0.526315789470E+00  0.235917869390E-02
  0.973034464140E+00  0.631578947370E+00 -0.235917869390E-02
  0.100000000000E+01  0.631578947370E+00  0.000000000000E+00
  0.929717765040E+00  0.631578947370E+00 -0.614889880620E-02
  0.863184801440E+00  0.631578947370E+00 -0.119697788720E-01
  0.767714243180E+00  0.631578947370E+00 -0.203223704200E-01
  0.643290544900E+00  0.631578947370E+00 -0.312080334940E-01
  0.500000000000E+00  0.631578947370E+00 -0.437443317630E-01
  0.356709455100E+00  0.631578947370E+00 -0.312080334940E-01
  0.232285756820E+00  0.631578947370E+00 -0.203223704200E-01
  0.136815198560E+00  0.631578947370E+00 -0.119697788720E-01
  0.702822349590E-01  0.631578947370E+00 -0.614889880620E-02
  0.269655358630E-01  0.631578947370E+00 -0.235917869390E-02
  0.000000000000E+00  0.631578947370E+00  0.000000000000E+00
  0.269655358630E-01  0.631578947370E+00  0.235917869390E-02
  0.702822349590E-01  0.631578947370E+00  0.614889880620E-02
  0.136815198560E+00  0.631578947370E+00  0.119697788720E-01
  0.232285756820E+00  0.631578947370E+00  0.203223704200E-01
[...]
CELL_DATA                2176
SCALARS C_p_ise float 1
LOOKUP_TABLE default
 -0.866637851627E-01
 -0.866637849553E-01
 -0.866637850294E-01
 -0.866637850294E-01
 -0.866637850357E-01
 -0.866637850357E-01
 -0.866637850334E-01
 -0.866637850334E-01
 -0.866637850391E-01
 -0.866637850391E-01
 -0.866637850343E-01
 -0.866637850343E-01
  0.116357274787E+00
  0.116357274787E+00
  0.116357274796E+00
  0.116357274796E+00
  0.116357274786E+00
  0.116357274786E+00
  0.116357274788E+00
  0.116357274788E+00
  0.116357274791E+00
  0.116357274791E+00
  0.116357274789E+00
  0.116357274789E+00
  0.116357274789E+00
  0.116357274789E+00
  0.116357274791E+00
  0.116357274791E+00
  0.116357274788E+00
  0.116357274788E+00
  0.116357274786E+00
  0.116357274786E+00
  0.116357274796E+00
  0.116357274796E+00
  0.116357274787E+00
  0.116357274787E+00
 -0.866637850343E-01
 -0.866637850343E-01
 -0.866637850391E-01
 -0.866637850391E-01
 -0.866637850334E-01
 -0.866637850334E-01
 -0.866637850357E-01
 -0.866637850357E-01
 -0.866637850294E-01
 -0.866637850294E-01
 -0.866637851312E-01
 -0.866637849238E-01
 -0.866637872598E-01
 -0.866637851627E-01
 -0.866637850294E-01
 -0.866637850294E-01
 -0.866637850357E-01
 -0.866637850357E-01
 -0.866637850334E-01
 -0.866637850334E-01
 -0.866637850391E-01
 -0.866637850391E-01
 -0.866637850343E-01
 -0.866637850343E-01
  0.116357274787E+00
  0.116357274787E+00
  0.116357274796E+00
  0.116357274796E+00
  0.116357274786E+00
  0.116357274786E+00
  0.116357274788E+00
  0.116357274788E+00
  0.116357274791E+00
  0.116357274791E+00
  0.116357274789E+00
  0.116357274789E+00
  0.116357274789E+00
  0.116357274789E+00
  0.116357274791E+00
  0.116357274791E+00
  0.116357274788E+00
  0.116357274788E+00
  0.116357274786E+00
  0.116357274786E+00
  0.116357274796E+00
  0.116357274796E+00
  0.116357274787E+00
  0.116357274787E+00
 -0.866637850343E-01
 -0.866637850343E-01
 -0.866637850391E-01
 -0.866637850391E-01
 -0.866637850334E-01
 -0.866637850334E-01
 -0.866637850357E-01
 -0.866637850357E-01
 -0.866637850294E-01
 -0.866637850294E-01
 -0.866637849238E-01
 -0.866637828267E-01
 -0.866637876672E-01
 -0.866637872598E-01
 -0.866637850293E-01
 -0.866637850294E-01
 -0.866637850357E-01
 -0.866637850357E-01
 -0.866637850334E-01
 -0.866637850334E-01
 -0.866637850391E-01
 -0.866637850391E-01
 -0.866637850343E-01
 -0.866637850343E-01
  0.116357274787E+00
  0.116357274787E+00
  0.116357274796E+00
  0.116357274796E+00
  0.116357274786E+00
  0.116357274786E+00
  0.116357274788E+00
  0.116357274788E+00
  0.116357274791E+00
  0.116357274791E+00
  0.116357274789E+00
  0.116357274789E+00
  0.116357274789E+00
  0.116357274789E+00
  0.116357274791E+00
  0.116357274791E+00
  0.116357274788E+00
  0.116357274788E+00
  0.116357274786E+00
  0.116357274786E+00
  0.116357274796E+00
  0.116357274796E+00
  0.116357274787E+00
  0.116357274787E+00
 -0.866637850343E-01
 -0.866637850343E-01
 -0.866637850391E-01
 -0.866637850391E-01
 -0.866637850334E-01
 -0.866637850334E-01
 -0.866637850357E-01
 -0.866637850357E-01
 -0.866637850294E-01
 -0.866637850295E-01
 -0.866637828267E-01
 -0.866637824193E-01
 -0.866637845280E-01
 -0.866637876672E-01
 -0.866637850294E-01
 -0.866637850293E-01
 -0.866637850357E-01
 -0.866637850357E-01
 -0.866637850334E-01
 -0.866637850334E-01
 -0.866637850391E-01
 -0.866637850391E-01
 -0.866637850343E-01
 -0.866637850343E-01
  0.116357274787E+00
  0.116357274787E+00
  0.116357274796E+00
  0.116357274796E+00
  0.116357274786E+00
  0.116357274786E+00
  0.116357274788E+00
  0.116357274788E+00
  0.116357274791E+00
  0.116357274791E+00
  0.116357274789E+00
  0.116357274789E+00
  0.116357274789E+00
  0.116357274789E+00
  0.116357274791E+00
  0.116357274791E+00
  0.116357274788E+00
  0.116357274788E+00
  0.116357274786E+00
  0.116357274786E+00
  0.116357274796E+00
  0.116357274796E+00
  0.116357274787E+00
  0.116357274787E+00
 -0.866637850343E-01
 -0.866637850343E-01
 -0.866637850391E-01
 -0.866637850391E-01
 -0.866637850334E-01
 -0.866637850334E-01
 -0.866637850357E-01
 -0.866637850357E-01
 -0.866637850295E-01
 -0.866637850295E-01
 -0.866637824193E-01
 -0.866637855584E-01
 -0.866637869492E-01
 -0.866637845280E-01
 -0.866637850294E-01
 -0.866637850294E-01
 -0.866637850357E-01
 -0.866637850357E-01
 -0.866637850334E-01
 -0.866637850334E-01
 -0.866637850391E-01
 -0.866637850391E-01
 -0.866637850343E-01
 -0.866637850343E-01
  0.116357274787E+00
  0.116357274787E+00
  0.116357274796E+00
  0.116357274796E+00
  0.116357274786E+00
  0.116357274786E+00
  0.116357274788E+00
  0.116357274788E+00
  0.116357274791E+00
  0.116357274791E+00
  0.116357274789E+00
  0.116357274789E+00
  0.116357274789E+00
  0.116357274789E+00
  0.116357274791E+00
  0.116357274791E+00
  0.116357274788E+00
  0.116357274788E+00
  0.116357274786E+00
  0.116357274786E+00
  0.116357274796E+00
  0.116357274796E+00
  0.116357274787E+00
  0.116357274787E+00
 -0.866637850343E-01
 -0.866637850343E-01
 -0.866637850391E-01
 -0.866637850391E-01
 -0.866637850334E-01
 -0.866637850334E-01
 -0.866637850357E-01
 -0.866637850358E-01
 -0.866637850295E-01
 -0.866637850293E-01
 -0.866637855584E-01
 -0.866637831367E-01
 -0.866637878641E-01
 -0.866637869492E-01
 -0.866637850299E-01
 -0.866637850294E-01
 -0.866637850349E-01
 -0.866637850357E-01
 -0.866637850331E-01
 -0.866637850334E-01
 -0.866637850391E-01
 -0.866637850391E-01
 -0.866637850343E-01
 -0.866637850343E-01
  0.116357274787E+00
  0.116357274787E+00
  0.116357274796E+00
  0.116357274796E+00
  0.116357274786E+00
  0.116357274786E+00
  0.116357274788E+00
  0.116357274788E+00
  0.116357274791E+00
  0.116357274791E+00
  0.116357274789E+00
  0.116357274789E+00
  0.116357274789E+00
  0.116357274789E+00
  0.116357274791E+00
  0.116357274791E+00
  0.116357274788E+00
  0.116357274788E+00
  0.116357274786E+00
  0.116357274786E+00
  0.116357274796E+00
  0.116357274796E+00
  0.116357274787E+00
  0.116357274787E+00
 -0.866637850343E-01
 -0.866637850343E-01
 -0.866637850391E-01
 -0.866637850391E-01
 -0.866637850334E-01
 -0.866637850331E-01
 -0.866637850358E-01
 -0.866637850348E-01
 -0.866637850293E-01
 -0.866637850301E-01
 -0.866637831367E-01
 -0.866637822305E-01
 -0.866637860976E-01
 -0.866637878641E-01
 -0.866637850190E-01
 -0.866637850299E-01
 -0.866637850489E-01
 -0.866637850349E-01
 -0.866637850381E-01
 -0.866637850331E-01
 -0.866637850381E-01
 -0.866637850391E-01
 -0.866637850342E-01
 -0.866637850343E-01
  0.116357274787E+00
  0.116357274787E+00
  0.116357274796E+00
  0.116357274796E+00
  0.116357274786E+00
  0.116357274786E+00
  0.116357274788E+00
  0.116357274788E+00
  0.116357274791E+00
  0.116357274791E+00
  0.116357274789E+00
  0.116357274789E+00
  0.116357274789E+00
  0.116357274789E+00
  0.116357274791E+00
  0.116357274791E+00
  0.116357274788E+00
  0.116357274788E+00
  0.116357274786E+00
  0.116357274786E+00
  0.116357274796E+00
  0.116357274796E+00
  0.116357274787E+00
  0.116357274787E+00
 -0.866637850343E-01
 -0.866637850342E-01
 -0.866637850391E-01
 -0.866637850381E-01
 -0.866637850331E-01
 -0.866637850381E-01
 -0.866637850348E-01
 -0.866637850489E-01
 -0.866637850301E-01
 -0.866637850191E-01
 -0.866637822305E-01
 -0.866637838577E-01
 -0.866637873980E-01
 -0.866637860976E-01
 -0.866637852116E-01
 -0.866637850190E-01
 -0.866637848291E-01
 -0.866637850489E-01
 -0.866637849557E-01
 -0.866637850381E-01
 -0.866637850538E-01
 -0.866637850381E-01
 -0.866637850357E-01
 -0.866637850342E-01
  0.116357274787E+00
  0.116357274788E+00
  0.116357274796E+00
  0.116357274796E+00
  0.116357274786E+00
  0.116357274786E+00
  0.116357274788E+00
  0.116357274788E+00
  0.116357274791E+00
  0.116357274791E+00
  0.116357274789E+00
  0.116357274789E+00
  0.116357274789E+00
  0.116357274789E+00
  0.116357274791E+00
  0.116357274791E+00
  0.116357274788E+00
  0.116357274788E+00
  0.116357274786E+00
  0.116357274786E+00
  0.116357274796E+00
  0.116357274796E+00
  0.116357274788E+00
  0.116357274787E+00
 -0.866637850342E-01
 -0.866637850357E-01
 -0.866637850381E-01
 -0.866637850538E-01
 -0.866637850381E-01
 -0.866637849557E-01
 -0.866637850489E-01
 -0.866637848291E-01
 -0.866637850191E-01
 -0.866637852116E-01
 -0.866637838577E-01
 -0.866637847745E-01
 -0.866637665240E-01
 -0.866637873980E-01
 -0.866637818289E-01
 -0.866637852116E-01
 -0.866637882261E-01
 -0.866637848291E-01
 -0.866637863027E-01
 -0.866637849557E-01
 -0.866637848074E-01
 -0.866637850538E-01
 -0.866637850114E-01
 -0.866637850357E-01
  0.116357274788E+00
  0.116357274781E+00
  0.116357274796E+00
  0.116357274798E+00
  0.116357274786E+00
  0.116357274785E+00
  0.116357274788E+00
  0.116357274788E+00
  0.116357274791E+00
  0.116357274791E+00
  0.116357274789E+00
  0.116357274789E+00
  0.116357274789E+00
  0.116357274789E+00
  0.116357274791E+00
  0.116357274791E+00
  0.116357274788E+00
  0.116357274788E+00
  0.116357274785E+00
  0.116357274786E+00
  0.116357274798E+00
  0.116357274796E+00
  0.116357274781E+00
  0.116357274788E+00
 -0.866637850357E-01
 -0.866637850114E-01
 -0.866637850538E-01
 -0.866637848074E-01
 -0.866637849557E-01
 -0.866637863027E-01
 -0.866637848291E-01
 -0.866637882261E-01
 -0.866637852116E-01
 -0.866637818289E-01
 -0.866637847745E-01
 -0.866637707644E-01
 -0.866640377306E-01
 -0.866637665240E-01
 -0.866638411052E-01
 -0.866637818289E-01
 -0.866637368027E-01
 -0.866637882261E-01
 -0.866637644205E-01
 -0.866637863027E-01
 -0.866637886206E-01
 -0.866637848074E-01
 -0.866637854150E-01
 -0.866637850114E-01
  0.116357274781E+00
  0.116357274882E+00
  0.116357274798E+00
  0.116357274766E+00
  0.116357274785E+00
  0.116357274788E+00
  0.116357274788E+00
  0.116357274788E+00
  0.116357274791E+00
  0.116357274791E+00
  0.116357274789E+00
  0.116357274789E+00
  0.116357274789E+00
  0.116357274789E+00
  0.116357274791E+00
  0.116357274791E+00
  0.116357274788E+00
  0.116357274788E+00
  0.116357274788E+00
  0.116357274785E+00
  0.116357274766E+00
  0.116357274798E+00
  0.116357274882E+00
  0.116357274781E+00
 -0.866637850114E-01
 -0.866637854150E-01
 -0.866637848074E-01
 -0.866637886206E-01
 -0.866637863027E-01
 -0.866637644206E-01
 -0.866637882261E-01
 -0.866637368027E-01
 -0.866637818289E-01
 -0.866638411052E-01
 -0.866637707644E-01
 -0.866640387640E-01
 -0.866599832776E-01
 -0.866640377306E-01
 -0.866628133299E-01
 -0.866638411053E-01
 -0.866644919072E-01
 -0.866637368028E-01
 -0.866641155172E-01
 -0.866637644205E-01
 -0.866637307815E-01
 -0.866637886206E-01
 -0.866637787290E-01
 -0.866637854150E-01
  0.116357274882E+00
  0.116357273239E+00
  0.116357274766E+00
  0.116357275264E+00
  0.116357274788E+00
  0.116357274754E+00
  0.116357274788E+00
  0.116357274784E+00
  0.116357274791E+00
  0.116357274791E+00
  0.116357274789E+00
  0.116357274789E+00
  0.116357274789E+00
  0.116357274789E+00
  0.116357274791E+00
  0.116357274791E+00
  0.116357274784E+00
  0.116357274788E+00
  0.116357274754E+00
  0.116357274788E+00
  0.116357275264E+00
  0.116357274766E+00
  0.116357273239E+00
  0.116357274882E+00
 -0.866637854150E-01
 -0.866637787290E-01
 -0.866637886206E-01
 -0.866637307815E-01
 -0.866637644206E-01
 -0.866641155172E-01
 -0.866637368028E-01
 -0.866644919072E-01
 -0.866638411054E-01
 -0.866628133298E-01
 -0.866640387640E-01
 -0.866599835091E-01
 -0.867180834089E-01
 -0.866599832804E-01
 -0.866805785587E-01
 -0.866628133610E-01
 -0.866538433912E-01
 -0.866644919112E-01
 -0.866586095174E-01
 -0.866641155176E-01
 -0.866645828588E-01
 -0.866637307815E-01
 -0.866638882125E-01
 -0.866637787290E-01
  0.116357273239E+00
  0.116357299868E+00
  0.116357275264E+00
  0.116357267483E+00
  0.116357274754E+00
  0.116357275240E+00
  0.116357274784E+00
  0.116357274873E+00
  0.116357274791E+00
  0.116357274793E+00
  0.116357274789E+00
  0.116357274789E+00
  0.116357274789E+00
  0.116357274789E+00
  0.116357274793E+00
  0.116357274791E+00
  0.116357274873E+00
  0.116357274784E+00
  0.116357275240E+00
  0.116357274754E+00
  0.116357267483E+00
  0.116357275264E+00
  0.116357299868E+00
  0.116357273239E+00
 -0.866637787290E-01
 -0.866638882125E-01
 -0.866637307815E-01
 -0.866645828588E-01
 -0.866641155176E-01
 -0.866586095174E-01
 -0.866644919112E-01
 -0.866538433912E-01
 -0.866628133609E-01
 -0.866805785587E-01
 -0.866599835120E-01
 -0.867180834511E-01
 -0.859667335325E-01
 -0.867180833829E-01
 -0.863399650509E-01
 -0.866805845154E-01
 -0.867910900947E-01
 -0.866538443517E-01
 -0.867423537182E-01
 -0.866586095861E-01
 -0.866526142556E-01
 -0.866645828596E-01
 -0.866621381870E-01
 -0.866638882125E-01
  0.116357299868E+00
  0.116356872966E+00
  0.116357267483E+00
  0.116357386881E+00
  0.116357275240E+00
  0.116357268649E+00
  0.116357274873E+00
  0.116357273028E+00
  0.116357274793E+00
  0.116357274724E+00
  0.116357274789E+00
  0.116357274788E+00
  0.116357274788E+00
  0.116357274789E+00
  0.116357274724E+00
  0.116357274793E+00
  0.116357273028E+00
  0.116357274873E+00
  0.116357268649E+00
  0.116357275240E+00
  0.116357386881E+00
  0.116357267483E+00
  0.116356872966E+00
  0.116357299868E+00
 -0.866638882125E-01
 -0.866621381870E-01
 -0.866645828596E-01
 -0.866526142556E-01
 -0.866586095861E-01
 -0.867423537182E-01
 -0.866538443517E-01
 -0.867910900946E-01
 -0.866805845154E-01
 -0.863399650510E-01
 -0.867180834251E-01
 -0.859667337094E-01
 -0.944166933323E-01
 -0.859669980455E-01
 -0.927770138531E-01
 -0.863407415192E-01
 -0.855747677725E-01
 -0.867913105109E-01
 -0.855157696732E-01
 -0.867423647728E-01
 -0.868025349975E-01
 -0.866526144514E-01
 -0.866889194870E-01
 -0.866621381938E-01
  0.116356872954E+00
  0.116363582834E+00
  0.116357386880E+00
  0.116355599957E+00
  0.116357268649E+00
  0.116357349200E+00
  0.116357273028E+00
  0.116357310762E+00
  0.116357274724E+00
  0.116357276982E+00
  0.116357274788E+00
  0.116357274821E+00
  0.116357274821E+00
  0.116357274788E+00
  0.116357276982E+00
  0.116357274724E+00
  0.116357310762E+00
  0.116357273028E+00
  0.116357349200E+00
  0.116357268649E+00
  0.116355599957E+00
  0.116357386880E+00
  0.116363582834E+00
  0.116356872954E+00
 -0.866621381938E-01
 -0.866889194870E-01
 -0.866526144514E-01
 -0.868025349975E-01
 -0.867423647728E-01
 -0.855157696732E-01
 -0.867913105109E-01
 -0.855747677726E-01
 -0.863407415193E-01
 -0.927770138530E-01
 -0.859669982225E-01
 -0.944166925207E-01
 -0.102733211286E+00
 -0.945245683698E-01
 -0.101480396627E+00
 -0.928516048458E-01
 -0.985733658297E-01
 -0.855931495718E-01
 -0.965620819522E-01
 -0.855164411349E-01
 -0.856923252955E-01
 -0.868025880053E-01
 -0.862729853871E-01
 -0.866889210812E-01
  0.116363580056E+00
  0.116262035399E+00
  0.116355599758E+00
  0.116381355692E+00
  0.116357349200E+00
  0.116356567685E+00
  0.116357310762E+00
  0.116356554633E+00
  0.116357276982E+00
  0.116357203527E+00
  0.116357274821E+00
  0.116357272624E+00
  0.116357272624E+00
  0.116357274821E+00
  0.116357203527E+00
  0.116357276982E+00
  0.116356554633E+00
  0.116357310762E+00
  0.116356567685E+00
  0.116357349200E+00
  0.116381355692E+00
  0.116355599758E+00
  0.116262035399E+00
  0.116363580056E+00
 -0.866889210812E-01
 -0.862729853871E-01
 -0.868025880053E-01
 -0.856923252955E-01
 -0.855164411349E-01
 -0.965620819522E-01
 -0.855931495718E-01
 -0.985733658296E-01
 -0.928516048457E-01
 -0.101480396627E+00
 -0.945245675589E-01
 -0.102733213477E+00
 -0.110229441584E+00
 -0.102978717722E+00
 -0.108874045853E+00
 -0.101692286240E+00
 -0.106854350588E+00
 -0.987322016085E-01
 -0.103905795897E+00
 -0.966834788215E-01
 -0.101283631486E+00
 -0.856964187706E-01
 -0.902287189986E-01
 -0.862732945758E-01
  0.116261477834E+00
  0.117691340107E+00
  0.116381318264E+00
  0.116032205839E+00
  0.116356567647E+00
  0.116359283893E+00
  0.116356554609E+00
  0.116371186289E+00
  0.116357203527E+00
  0.116359553660E+00
  0.116357272624E+00
  0.116357418852E+00
  0.116357418852E+00
  0.116357272624E+00
  0.116359553660E+00
  0.116357203527E+00
  0.116371186289E+00
  0.116356554609E+00
  0.116359283893E+00
  0.116356567647E+00
  0.116032205839E+00
  0.116381318264E+00
  0.117691340107E+00
  0.116261477834E+00
 -0.862732945758E-01
 -0.902287189986E-01
 -0.856964187706E-01
 -0.101283631486E+00
 -0.966834788215E-01
 -0.103905795897E+00
 -0.987322016084E-01
 -0.106854350588E+00
 -0.101692286240E+00
 -0.108874045853E+00
 -0.102978719902E+00
 -0.110229441003E+00
 -0.873934800731E-01
 -0.110503375731E+00
 -0.102036039484E+00
 -0.109272321468E+00
 -0.113072142720E+00
 -0.107207585279E+00
 -0.112713448392E+00
 -0.104155468592E+00
 -0.107417130858E+00
 -0.101480003792E+00
 -0.104634515125E+00
 -0.902926234943E-01
  0.117587502341E+00
  0.987677309969E-01
  0.116026574662E+00
  0.120266297653E+00
  0.116359282119E+00
  0.116483438516E+00
  0.116371176905E+00
  0.116105475040E+00
  0.116359553416E+00
  0.116287007176E+00
  0.116357418851E+00
  0.116347685566E+00
  0.116347685566E+00
  0.116357418851E+00
  0.116287007176E+00
  0.116359553416E+00
  0.116105475040E+00
  0.116371176905E+00
  0.116483438516E+00
  0.116359282119E+00
  0.120266297653E+00
  0.116026574662E+00
  0.987677309969E-01
  0.117587502341E+00
 -0.902926234943E-01
 -0.104634515125E+00
 -0.101480003792E+00
 -0.107417130858E+00
 -0.104155468592E+00
 -0.112713448392E+00
 -0.107207585279E+00
 -0.113072142720E+00
 -0.109272321468E+00
 -0.102036039484E+00
 -0.110503375167E+00
 -0.873934799994E-01
 -0.552969885928E-01
 -0.868291955878E-01
 -0.616387920211E-01
 -0.101432687724E+00
 -0.748431818007E-01
 -0.112790605540E+00
 -0.820806023931E-01
 -0.113370046754E+00
 -0.116807432326E+00
 -0.107908595461E+00
 -0.111080933037E+00
 -0.105028999262E+00
  0.976666663951E-01
  0.781955213023E-01
  0.119862021404E+00
  0.855116126014E-01
  0.116483439713E+00
  0.112615715232E+00
  0.116102277746E+00
  0.120361880544E+00
  0.116286767281E+00
  0.118347006892E+00
  0.116347679124E+00
  0.116995763689E+00
  0.116995763690E+00
  0.116347679124E+00
  0.118347006892E+00
  0.116286767281E+00
  0.120361880544E+00
  0.116102277746E+00
  0.112615715232E+00
  0.116483439713E+00
  0.855116126015E-01
  0.119862021404E+00
  0.781955213023E-01
  0.976666663951E-01
 -0.105028999262E+00
 -0.111080933037E+00
 -0.107908595461E+00
 -0.116807432326E+00
 -0.113370046754E+00
 -0.820806023926E-01
 -0.112790605540E+00
 -0.748431818013E-01
 -0.101432687724E+00
 -0.616387920224E-01
 -0.868291955107E-01
 -0.552969899080E-01
 -0.221842610435E-01
 -0.570761194085E-01
 -0.293718763431E-01
 -0.628539119828E-01
 -0.332257940822E-01
 -0.751700329150E-01
 -0.383500098052E-01
 -0.815586837170E-01
 -0.451019210461E-01
 -0.117193326602E+00
 -0.976658277397E-01
 -0.112785647908E+00
  0.745795282548E-01
  0.673830079128E-01
  0.821128782887E-01
  0.650721201601E-01
  0.110242131328E+00
  0.684792109211E-01
  0.119491968037E+00
  0.720030907800E-01
  0.118139422886E+00
  0.738092837805E-01
  0.116967195321E+00
  0.747720897478E-01
  0.747720897478E-01
  0.116967195321E+00
  0.738092837804E-01
  0.118139422886E+00
  0.720030907799E-01
  0.119491968037E+00
  0.684792109211E-01
  0.110242131328E+00
  0.650721201608E-01
  0.821128782888E-01
  0.673830079122E-01
  0.745795282548E-01
 -0.112785647908E+00
 -0.976658277395E-01
 -0.117193326602E+00
 -0.451019210443E-01
 -0.815586837165E-01
 -0.383500098092E-01
 -0.751700329156E-01
 -0.332257940833E-01
 -0.628539119841E-01
 -0.293718763422E-01
 -0.570761207191E-01
 -0.221842610538E-01
 -0.551247865928E-01
 -0.569864870668E-01
 -0.464816068892E-01
 -0.448828050016E-01
 -0.409053138937E-01
 -0.394500888866E-01
 -0.403646557069E-01
 -0.373670278216E-01
 -0.451072004270E-01
 -0.812614555639E-01
 -0.100086427760E+00
  0.576627748936E-01
  0.576246776946E-01
  0.547357856230E-01
  0.546449553015E-01
  0.558739928718E-01
  0.555153107986E-01
  0.574207479501E-01
  0.570726589851E-01
  0.581743983572E-01
  0.578976564105E-01
  0.585803502502E-01
  0.585803502495E-01
  0.578976564098E-01
  0.581743983566E-01
  0.570726589855E-01
  0.574207479511E-01
  0.555153107985E-01
  0.558739928712E-01
  0.546449553012E-01
  0.547357856227E-01
  0.576246776973E-01
  0.576627748960E-01
 -0.100086427759E+00
 -0.812614555650E-01
 -0.451072004251E-01