# vtk DataFile Version 3.0
MachLine results file. Generated by MachLine, USU AeroLab (c) 2022.
ASCII
DATASET POLYDATA
POINTS                 160 float
  0.100000000000E+01  0.400000000000E+01  0.000000000000E+00
  0.100000000000E+01  0.400000000000E+01  0.000000000000E+00
  0.100000000000E+01  0.394718551636E+01  0.000000000000E+00
  0.100522915680E+01  0.394770843204E+01  0.000000000000E+00
  0.100000000000E+01  0.389123010635E+01  0.000000000000E+00
  0.101076929640E+01  0.389230703599E+01  0.000000000000E+00
  0.100000000000E+01  0.383202338219E+01  0.000000000000E+00
  0.101663134830E+01  0.383368651702E+01  0.000000000000E+00
  0.100000000000E+01  0.376946210861E+01  0.000000000000E+00
  0.102282553380E+01  0.377174466199E+01  0.000000000000E+00
  0.100000000000E+01  0.370345163345E+01  0.000000000000E+00
  0.102936122441E+01  0.370638775589E+01  0.000000000000E+00
  0.100000000000E+01  0.363390779495E+01  0.000000000000E+00
  0.103624675298E+01  0.363753247025E+01  0.000000000000E+00
  0.100000000000E+01  0.356075930595E+01  0.000000000000E+00
  0.104348917763E+01  0.356510822371E+01  0.000000000000E+00
  0.100000000000E+01  0.348394894600E+01  0.000000000000E+00
  0.105109416376E+01  0.348905836238E+01  0.000000000000E+00
  0.100000000000E+01  0.340343642235E+01  0.000000000000E+00
  0.105906570076E+01  0.340934299243E+01  0.000000000000E+00
  0.100000000000E+01  0.331920027733E+01  0.000000000000E+00
  0.106740591314E+01  0.332594086864E+01  0.000000000000E+00
  0.100000000000E+01  0.323123931885E+01  0.000000000000E+00
  0.107611491893E+01  0.323885081074E+01  0.000000000000E+00
  0.100000000000E+01  0.313957524300E+01  0.000000000000E+00
  0.108519057000E+01  0.314809430000E+01  0.000000000000E+00
  0.100000000000E+01  0.304425406456E+01  0.000000000000E+00
  0.109462831044E+01  0.305371689560E+01  0.000000000000E+00
  0.100000000000E+01  0.294534778595E+01  0.000000000000E+00
  0.110442101129E+01  0.295578988708E+01  0.000000000000E+00
  0.100000000000E+01  0.284295582771E+01  0.000000000000E+00
  0.111455882894E+01  0.285441171060E+01  0.000000000000E+00
  0.100000000000E+01  0.273720526695E+01  0.000000000000E+00
  0.112502918149E+01  0.274970818510E+01  0.000000000000E+00
  0.100000000000E+01  0.262825274467E+01  0.000000000000E+00
  0.113581655993E+01  0.264183440066E+01  0.000000000000E+00
  0.100000000000E+01  0.251628303528E+01  0.000000000000E+00
  0.114690266977E+01  0.253097330226E+01  0.000000000000E+00
  0.100000000000E+01  0.240150952339E+01  0.000000000000E+00
  0.115826638382E+01  0.241733616177E+01  0.000000000000E+00
  0.100000000000E+01  0.228417348862E+01  0.000000000000E+00
  0.116988381301E+01  0.230116186992E+01  0.000000000000E+00
  0.100000000000E+01  0.216454195976E+01  0.000000000000E+00
  0.118172851884E+01  0.218271481164E+01  0.000000000000E+00
  0.100000000000E+01  0.204290652275E+01  0.000000000000E+00
  0.119377163141E+01  0.206228368589E+01  0.000000000000E+00
  0.100000000000E+01  0.191958034039E+01  0.000000000000E+00
  0.120598214452E+01  0.194017855484E+01  0.000000000000E+00
  0.100000000000E+01  0.179489517212E+01  0.000000000000E+00
  0.121832721068E+01  0.181672789319E+01  0.000000000000E+00
  0.100000000000E+01  0.166919851303E+01  0.000000000000E+00
  0.123077242445E+01  0.169227575548E+01  0.000000000000E+00
  0.100000000000E+01  0.154284906387E+01  0.000000000000E+00
  0.124328227090E+01  0.156717729096E+01  0.000000000000E+00
  0.100000000000E+01  0.141621339321E+01  0.000000000000E+00
  0.125582045612E+01  0.144179543882E+01  0.000000000000E+00
  0.100000000000E+01  0.128966128826E+01  0.000000000000E+00
  0.126835036750E+01  0.131649632501E+01  0.000000000000E+00
  0.100000000000E+01  0.116356134415E+01  0.000000000000E+00
  0.128083551048E+01  0.119164489520E+01  0.000000000000E+00
  0.100000000000E+01  0.103827738762E+01  0.000000000000E+00
  0.129323986261E+01  0.106760137388E+01  0.000000000000E+00
  0.100000000000E+01  0.914163351059E+00  0.000000000000E+00
  0.130552838108E+01  0.944716189167E+00  0.000000000000E+00
  0.100000000000E+01  0.791560173035E+00  0.000000000000E+00
  0.131766730960E+01  0.823326903995E+00  0.000000000000E+00
  0.100000000000E+01  0.670791566372E+00  0.000000000000E+00
  0.132962459739E+01  0.703754026111E+00  0.000000000000E+00
  0.100000000000E+01  0.552161276340E+00  0.000000000000E+00
  0.134137017066E+01  0.586298293406E+00  0.000000000000E+00
  0.100000000000E+01  0.435950160027E+00  0.000000000000E+00
  0.135287622178E+01  0.471237782205E+00  0.000000000000E+00
  0.100000000000E+01  0.322413772345E+00  0.000000000000E+00
  0.136411744828E+01  0.358825517173E+00  0.000000000000E+00
  0.100000000000E+01  0.211780935526E+00  0.000000000000E+00
  0.137507119450E+01  0.249288054976E+00  0.000000000000E+00
  0.100000000000E+01  0.104252345860E+00  0.000000000000E+00
  0.138571758952E+01  0.142824104812E+00  0.000000000000E+00
  0.100000000000E+01  0.000000000000E+00  0.000000000000E+00
  0.139603960396E+01  0.396039603960E-01  0.000000000000E+00
  0.100000000000E+01 -0.400000000000E+01  0.000000000000E+00
  0.179207920792E+01 -0.392079207921E+01  0.000000000000E+00
  0.100000000000E+01 -0.394718551636E+01  0.000000000000E+00
  0.178685005112E+01 -0.386850051125E+01  0.000000000000E+00
  0.100000000000E+01 -0.389123010635E+01  0.000000000000E+00
  0.178130991152E+01 -0.381309911520E+01  0.000000000000E+00
  0.100000000000E+01 -0.383202338219E+01  0.000000000000E+00
  0.177544785962E+01 -0.375447859623E+01  0.000000000000E+00
  0.100000000000E+01 -0.376946210861E+01  0.000000000000E+00
  0.176925367412E+01 -0.369253674120E+01  0.000000000000E+00
  0.100000000000E+01 -0.370345163345E+01  0.000000000000E+00
  0.176271798351E+01 -0.362717983510E+01  0.000000000000E+00
  0.100000000000E+01 -0.363390779495E+01  0.000000000000E+00
  0.175583245495E+01 -0.355832454946E+01  0.000000000000E+00
  0.100000000000E+01 -0.356075930595E+01  0.000000000000E+00
  0.174859003029E+01 -0.348590030292E+01  0.000000000000E+00
  0.100000000000E+01 -0.348394894600E+01  0.000000000000E+00
  0.174098504416E+01 -0.340985044158E+01  0.000000000000E+00
  0.100000000000E+01 -0.340343642235E+01  0.000000000000E+00
  0.173301350716E+01 -0.333013507163E+01  0.000000000000E+00
  0.100000000000E+01 -0.331920027733E+01  0.000000000000E+00
  0.172467329479E+01 -0.324673294785E+01  0.000000000000E+00
  0.100000000000E+01 -0.323123931885E+01  0.000000000000E+00
  0.171596428900E+01 -0.315964288995E+01  0.000000000000E+00
  0.100000000000E+01 -0.313957524300E+01  0.000000000000E+00
  0.170688863792E+01 -0.306888637921E+01  0.000000000000E+00
  0.100000000000E+01 -0.304425406456E+01  0.000000000000E+00
  0.169745089748E+01 -0.297450897481E+01  0.000000000000E+00
  0.100000000000E+01 -0.294534778595E+01  0.000000000000E+00
  0.168765819663E+01 -0.287658196629E+01  0.000000000000E+00
  0.100000000000E+01 -0.284295582771E+01  0.000000000000E+00
  0.167752037898E+01 -0.277520378981E+01  0.000000000000E+00
  0.100000000000E+01 -0.273720526695E+01  0.000000000000E+00
  0.166705002643E+01 -0.267050026431E+01  0.000000000000E+00
  0.100000000000E+01 -0.262825274467E+01  0.000000000000E+00
  0.165626264799E+01 -0.256262647987E+01  0.000000000000E+00
  0.100000000000E+01 -0.251628303528E+01  0.000000000000E+00
  0.164517653815E+01 -0.245176538147E+01  0.000000000000E+00
  0.100000000000E+01 -0.240150952339E+01  0.000000000000E+00
  0.163381282410E+01 -0.233812824098E+01  0.000000000000E+00
  0.100000000000E+01 -0.228417348862E+01  0.000000000000E+00
  0.162219539491E+01 -0.222195394913E+01  0.000000000000E+00
  0.100000000000E+01 -0.216454195976E+01  0.000000000000E+00
  0.161035068909E+01 -0.210350689085E+01  0.000000000000E+00
  0.100000000000E+01 -0.204290652275E+01  0.000000000000E+00
  0.159830757651E+01 -0.198307576510E+01  0.000000000000E+00
  0.100000000000E+01 -0.191958034039E+01  0.000000000000E+00
  0.158609706340E+01 -0.186097063405E+01  0.000000000000E+00
  0.100000000000E+01 -0.179489517212E+01  0.000000000000E+00
  0.157375199724E+01 -0.173751997240E+01  0.000000000000E+00
  0.100000000000E+01 -0.166919851303E+01  0.000000000000E+00
  0.156130678347E+01 -0.161306783468E+01  0.000000000000E+00
  0.100000000000E+01 -0.154284906387E+01  0.000000000000E+00
  0.154879693702E+01 -0.148796937017E+01  0.000000000000E+00
  0.100000000000E+01 -0.141621339321E+01  0.000000000000E+00
  0.153625875180E+01 -0.136258751803E+01  0.000000000000E+00
  0.100000000000E+01 -0.128966128826E+01  0.000000000000E+00
  0.152372884042E+01 -0.123728840422E+01  0.000000000000E+00
  0.100000000000E+01 -0.116356134415E+01  0.000000000000E+00
  0.151124369744E+01 -0.111243697441E+01  0.000000000000E+00
  0.100000000000E+01 -0.103827738762E+01  0.000000000000E+00
  0.149883934531E+01 -0.988393453089E+00  0.000000000000E+00
  0.100000000000E+01 -0.914163351059E+00  0.000000000000E+00
  0.148655082684E+01 -0.865508268375E+00  0.000000000000E+00
  0.100000000000E+01 -0.791560173035E+00  0.000000000000E+00
  0.147441189832E+01 -0.744118983203E+00  0.000000000000E+00
  0.100000000000E+01 -0.670791566372E+00  0.000000000000E+00
  0.146245461053E+01 -0.624546105319E+00  0.000000000000E+00
  0.100000000000E+01 -0.552161276340E+00  0.000000000000E+00
  0.145070903726E+01 -0.507090372614E+00  0.000000000000E+00
  0.100000000000E+01 -0.435950160027E+00  0.000000000000E+00
  0.143920298614E+01 -0.392029861413E+00  0.000000000000E+00
  0.100000000000E+01 -0.322413772345E+00  0.000000000000E+00
  0.142796175964E+01 -0.279617596381E+00  0.000000000000E+00
  0.100000000000E+01 -0.211780935526E+00  0.000000000000E+00
  0.141700801342E+01 -0.170080134184E+00  0.000000000000E+00
  0.100000000000E+01 -0.104252345860E+00  0.000000000000E+00
  0.140636161840E+01 -0.636161840198E-01  0.000000000000E+00
  0.100000000000E+01  0.000000000000E+00  0.000000000000E+00
  0.139603960396E+01  0.396039603960E-01  0.000000000000E+00
POLYGONS                 155                 620
3                  76                  77                  79
3                  76                  79                  78
3                  74                  75                  77
3                  74                  77                  76
3                  72                  73                  75
3                  72                  75                  74
3                  70                  71                  73
3                  70                  73                  72
3                  68                  69                  71
3                  68                  71                  70
3                  66                  67                  69
3                  66                  69                  68
3                  64                  65                  67
3                  64                  67                  66
3                  62                  63                  65
3                  62                  65                  64
3                  60                  61                  63
3                  60                  63                  62
3                  58                  59                  61
3                  58                  61                  60
3                  56                  57                  59
3                  56                  59                  58
3                  54                  55                  57
3                  54                  57                  56
3                  52                  53                  55
3                  52                  55                  54
3                  50                  51                  53
3                  50                  53                  52
3                  48                  49                  51
3                  48                  51                  50
3                  46                  47                  49
3                  46                  49                  48
3                  44                  45                  47
3                  44                  47                  46
3                  42                  43                  45
3                  42                  45                  44
3                  40                  41                  43
3                  40                  43                  42
3                  38                  39                  41
3                  38                  41                  40
3                  36                  37                  39
3                  36                  39                  38
3                  34                  35                  37
3                  34                  37                  36
3                  32                  33                  35
3                  32                  35                  34
3                  30                  31                  33
3                  30                  33                  32
3                  28                  29                  31
3                  28                  31                  30
3                  26                  27                  29
3                  26                  29                  28
3                  24                  25                  27
3                  24                  27                  26
3                  22                  23                  25
3                  22                  25                  24
3                  20                  21                  23
3                  20                  23                  22
3                  18                  19                  21
3                  18                  21                  20
3                  16                  17                  19
3                  16                  19                  18
3                  14                  15                  17
3                  14                  17                  16
3                  12                  13                  15
3                  12                  15                  14
3                  10                  11                  13
3                  10                  13                  12
3                   8                   9                  11
3                   8                  11                  10
3                   6                   7                   9
3                   6                   9                   8
3                   4                   5                   7
3                   4                   7                   6
3                   2                   3                   5
3                   2                   5                   4
3                   0                   3                   2
3                 159                 157                 156
3                 158                 159                 156
3                 157                 155                 154
3                 156                 157                 154
3                 155                 153                 152
3                 154                 155                 152
3                 153                 151                 150
3                 152                 153                 150
3                 151                 149                 148
3                 150                 151                 148
3                 149                 147                 146
3                 148                 149                 146
3                 147                 145                 144
3                 146                 147                 144
3                 145                 143                 142
3                 144                 145                 142
3                 143                 141                 140
3                 142                 143                 140
3                 141                 139                 138
3                 140                 141                 138
3                 139                 137                 136
3                 138                 139                 136
3                 137                 135                 134
3                 136                 137                 134
3                 135                 133                 132
3                 134                 135                 132
3                 133                 131                 130
3                 132                 133                 130
3                 131                 129                 128
3                 130                 131                 128
3                 129                 127                 126
3                 128                 129                 126
3                 127                 125                 124
3                 126                 127                 124
3                 125                 123                 122
3                 124                 125                 122
3                 123                 121                 120
3                 122                 123                 120
3                 121                 119                 118
3                 120                 121                 118
3                 119                 117                 116
3                 118                 119                 116
3                 117                 115                 114
3                 116                 117                 114
3                 115                 113                 112
3                 114                 115                 112
3                 113                 111                 110
3                 112                 113                 110
3                 111                 109                 108
3                 110                 111                 108
3                 109                 107                 106
3                 108                 109                 106
3                 107                 105                 104
3                 106                 107                 104
3                 105                 103                 102
3                 104                 105                 102
3                 103                 101                 100
3                 102                 103                 100
3                 101                  99                  98
3                 100                 101                  98
3                  99                  97                  96
3                  98                  99                  96
3                  97                  95                  94
3                  96                  97                  94
3                  95                  93                  92
3                  94                  95                  92
3                  93                  91                  90
3                  92                  93                  90
3                  91                  89                  88
3                  90                  91                  88
3                  89                  87                  86
3                  88                  89                  86
3                  87                  85                  84
3                  86                  87                  84
3                  85                  83                  82
3                  84                  85                  82
3                  83                  81                  80
3                  82                  83                  80
CELL_DATA                 155
NORMALS normals float
  0.000000000000E+00  0.000000000000E+00 -0.100000000000E+01
  0.000000000000E+00 -0.000000000000E+00 -0.100000000000E+01
  0.000000000000E+00  0.000000000000E+00 -0.100000000000E+01
  0.000000000000E+00 -0.000000000000E+00 -0.100000000000E+01
  0.000000000000E+00  0.000000000000E+00 -0.100000000000E+01
  0.000000000000E+00 -0.000000000000E+00 -0.100000000000E+01
  0.000000000000E+00  0.000000000000E+00 -0.100000000000E+01
  0.000000000000E+00 -0.000000000000E+00 -0.100000000000E+01
  0.000000000000E+00  0.000000000000E+00 -0.100000000000E+01
  0.000000000000E+00 -0.000000000000E+00 -0.100000000000E+01
  0.000000000000E+00  0.000000000000E+00 -0.100000000000E+01
  0.000000000000E+00 -0.000000000000E+00 -0.100000000000E+01
  0.000000000000E+00  0.000000000000E+00 -0.100000000000E+01
  0.000000000000E+00 -0.000000000000E+00 -0.100000000000E+01
  0.000000000000E+00  0.000000000000E+00 -0.100000000000E+01
  0.000000000000E+00 -0.000000000000E+00 -0.100000000000E+01
  0.000000000000E+00  0.000000000000E+00 -0.100000000000E+01
  0.000000000000E+00 -0.000000000000E+00 -0.100000000000E+01
  0.000000000000E+00  0.000000000000E+00 -0.100000000000E+01
  0.000000000000E+00 -0.000000000000E+00 -0.100000000000E+01
  0.000000000000E+00  0.000000000000E+00 -0.100000000000E+01
  0.000000000000E+00 -0.000000000000E+00 -0.100000000000E+01
  0.000000000000E+00  0.000000000000E+00 -0.100000000000E+01
  0.000000000000E+00 -0.000000000000E+00 -0.100000000000E+01
  0.000000000000E+00  0.000000000000E+00 -0.100000000000E+01
  0.000000000000E+00 -0.000000000000E+00 -0.100000000000E+01
  0.000000000000E+00  0.000000000000E+00 -0.100000000000E+01
  0.000000000000E+00 -0.000000000000E+00 -0.100000000000E+01
  0.000000000000E+00  0.000000000000E+00 -0.100000000000E+01
  0.000000000000E+00 -0.000000000000E+00 -0.100000000000E+01
  0.000000000000E+00  0.000000000000E+00 -0.100000000000E+01
  0.000000000000E+00 -0.000000000000E+00 -0.100000000000E+01
  0.000000000000E+00  0.000000000000E+00 -0.100000000000E+01
  0.000000000000E+00 -0.000000000000E+00 -0.100000000000E+01
  0.000000000000E+00  0.000000000000E+00 -0.100000000000E+01
  0.000000000000E+00 -0.000000000000E+00 -0.100000000000E+01
  0.000000000000E+00  0.000000000000E+00 -0.100000000000E+01
  0.000000000000E+00 -0.000000000000E+00 -0.100000000000E+01
  0.000000000000E+00  0.000000000000E+00 -0.100000000000E+01
  0.000000000000E+00 -0.000000000000E+00 -0.100000000000E+01
  0.000000000000E+00  0.000000000000E+00 -0.100000000000E+01
  0.000000000000E+00 -0.000000000000E+00 -0.100000000000E+01
  0.000000000000E+00  0.000000000000E+00 -0.100000000000E+01
  0.000000000000E+00 -0.000000000000E+00 -0.100000000000E+01
  0.000000000000E+00  0.000000000000E+00 -0.100000000000E+01
  0.000000000000E+00 -0.000000000000E+00 -0.100000000000E+01
  0.000000000000E+00  0.000000000000E+00 -0.100000000000E+01
  0.000000000000E+00 -0.000000000000E+00 -0.100000000000E+01
  0.000000000000E+00  0.000000000000E+00 -0.100000000000E+01
  0.000000000000E+00 -0.000000000000E+00 -0.100000000000E+01
  0.000000000000E+00  0.000000000000E+00 -0.100000000000E+01
  0.000000000000E+00 -0.000000000000E+00 -0.100000000000E+01
  0.000000000000E+00  0.000000000000E+00 -0.100000000000E+01
  0.000000000000E+00 -0.000000000000E+00 -0.100000000000E+01
  0.000000000000E+00  0.000000000000E+00 -0.100000000000E+01
  0.000000000000E+00 -0.000000000000E+00 -0.100000000000E+01
  0.000000000000E+00  0.000000000000E+00 -0.100000000000E+01
  0.000000000000E+00 -0.000000000000E+00 -0.100000000000E+01
  0.000000000000E+00  0.000000000000E+00 -0.100000000000E+01
  0.000000000000E+00 -0.000000000000E+00 -0.100000000000E+01
  0.000000000000E+00  0.000000000000E+00 -0.100000000000E+01
  0.000000000000E+00 -0.000000000000E+00 -0.100000000000E+01
  0.000000000000E+00  0.000000000000E+00 -0.100000000000E+01
  0.000000000000E+00 -0.000000000000E+00 -0.100000000000E+01
  0.000000000000E+00  0.000000000000E+00 -0.100000000000E+01
  0.000000000000E+00 -0.000000000000E+00 -0.100000000000E+01
  0.000000000000E+00  0.000000000000E+00 -0.100000000000E+01
  0.000000000000E+00 -0.000000000000E+00 -0.100000000000E+01
  0.000000000000E+00  0.000000000000E+00 -0.100000000000E+01
  0.000000000000E+00 -0.000000000000E+00 -0.100000000000E+01
  0.000000000000E+00  0.000000000000E+00 -0.100000000000E+01
  0.000000000000E+00 -0.000000000000E+00 -0.100000000000E+01
  0.000000000000E+00  0.000000000000E+00 -0.100000000000E+01
  0.000000000000E+00 -0.000000000000E+00 -0.100000000000E+01
  0.000000000000E+00  0.000000000000E+00 -0.100000000000E+01
  0.000000000000E+00 -0.000000000000E+00 -0.100000000000E+01
  0.000000000000E+00 -0.000000000000E+00 -0.100000000000E+01
  0.000000000000E+00 -0.000000000000E+00 -0.100000000000E+01
  0.000000000000E+00 -0.000000000000E+00 -0.100000000000E+01
  0.000000000000E+00 -0.000000000000E+00 -0.100000000000E+01
  0.000000000000E+00 -0.000000000000E+00 -0.100000000000E+01
  0.000000000000E+00 -0.000000000000E+00 -0.100000000000E+01
  0.000000000000E+00 -0.000000000000E+00 -0.100000000000E+01
  0.000000000000E+00 -0.000000000000E+00 -0.100000000000E+01
  0.000000000000E+00 -0.000000000000E+00 -0.100000000000E+01
  0.000000000000E+00 -0.000000000000E+00 -0.100000000000E+01
  0.000000000000E+00 -0.000000000000E+00 -0.100000000000E+01
  0.000000000000E+00 -0.000000000000E+00 -0.100000000000E+01
  0.000000000000E+00 -0.000000000000E+00 -0.100000000000E+01
  0.000000000000E+00 -0.000000000000E+00 -0.100000000000E+01
  0.000000000000E+00 -0.000000000000E+00 -0.100000000000E+01
  0.000000000000E+00 -0.000000000000E+00 -0.100000000000E+01
  0.000000000000E+00 -0.000000000000E+00 -0.100000000000E+01
  0.000000000000E+00 -0.000000000000E+00 -0.100000000000E+01
  0.000000000000E+00 -0.000000000000E+00 -0.100000000000E+01
  0.000000000000E+00 -0.000000000000E+00 -0.100000000000E+01
  0.000000000000E+00 -0.000000000000E+00 -0.100000000000E+01
  0.000000000000E+00 -0.000000000000E+00 -0.100000000000E+01
  0.000000000000E+00 -0.000000000000E+00 -0.100000000000E+01
  0.000000000000E+00 -0.000000000000E+00 -0.100000000000E+01
  0.000000000000E+00 -0.000000000000E+00 -0.100000000000E+01
  0.000000000000E+00 -0.000000000000E+00 -0.100000000000E+01
  0.000000000000E+00 -0.000000000000E+00 -0.100000000000E+01
  0.000000000000E+00 -0.000000000000E+00 -0.100000000000E+01
  0.000000000000E+00 -0.000000000000E+00 -0.100000000000E+01
  0.000000000000E+00 -0.000000000000E+00 -0.100000000000E+01
  0.000000000000E+00 -0.000000000000E+00 -0.100000000000E+01
  0.000000000000E+00 -0.000000000000E+00 -0.100000000000E+01
  0.000000000000E+00 -0.000000000000E+00 -0.100000000000E+01
  0.000000000000E+00 -0.000000000000E+00 -0.100000000000E+01
  0.000000000000E+00 -0.000000000000E+00 -0.100000000000E+01
  0.000000000000E+00 -0.000000000000E+00 -0.100000000000E+01
  0.000000000000E+00 -0.000000000000E+00 -0.100000000000E+01
  0.000000000000E+00 -0.000000000000E+00 -0.100000000000E+01
  0.000000000000E+00 -0.000000000000E+00 -0.100000000000E+01
  0.000000000000E+00 -0.000000000000E+00 -0.100000000000E+01
  0.000000000000E+00 -0.000000000000E+00 -0.100000000000E+01
  0.000000000000E+00 -0.000000000000E+00 -0.100000000000E+01
  0.000000000000E+00 -0.000000000000E+00 -0.100000000000E+01
  0.000000000000E+00 -0.000000000000E+00 -0.100000000000E+01
  0.000000000000E+00 -0.000000000000E+00 -0.100000000000E+01
  0.000000000000E+00 -0.000000000000E+00 -0.100000000000E+01
  0.000000000000E+00 -0.000000000000E+00 -0.100000000000E+01
  0.000000000000E+00 -0.000000000000E+00 -0.100000000000E+01
  0.000000000000E+00 -0.000000000000E+00 -0.100000000000E+01
  0.000000000000E+00 -0.000000000000E+00 -0.100000000000E+01
  0.000000000000E+00 -0.000000000000E+00 -0.100000000000E+01
  0.000000000000E+00 -0.000000000000E+00 -0.100000000000E+01
  0.000000000000E+00 -0.000000000000E+00 -0.100000000000E+01
  0.000000000000E+00 -0.000000000000E+00 -0.100000000000E+01
  0.000000000000E+00 -0.000000000000E+00 -0.100000000000E+01
  0.000000000000E+00 -0.000000000000E+00 -0.100000000000E+01
  0.000000000000E+00 -0.000000000000E+00 -0.100000000000E+01
  0.000000000000E+00 -0.000000000000E+00 -0.100000000000E+01
  0.000000000000E+00 -0.000000000000E+00 -0.100000000000E+01
  0.000000000000E+00 -0.000000000000E+00 -0.100000000000E+01
  0.000000000000E+00 -0.000000000000E+00 -0.100000000000E+01
  0.000000000000E+00 -0.000000000000E+00 -0.100000000000E+01
  0.000000000000E+00 -0.000000000000E+00 -0.100000000000E+01
  0.000000000000E+00 -0.000000000000E+00 -0.100000000000E+01
  0.000000000000E+00 -0.000000000000E+00 -0.100000000000E+01
  0.000000000000E+00 -0.000000000000E+00 -0.100000000000E+01
  0.000000000000E+00 -0.000000000000E+00 -0.100000000000E+01
  0.000000000000E+00 -0.000000000000E+00 -0.100000000000E+01
  0.000000000000E+00 -0.000000000000E+00 -0.100000000000E+01
  0.000000000000E+00 -0.000000000000E+00 -0.100000000000E+01
  0.000000000000E+00 -0.000000000000E+00 -0.100000000000E+01
  0.000000000000E+00 -0.000000000000E+00 -0.100000000000E+01
  0.000000000000E+00 -0.000000000000E+00 -0.100000000000E+01
  0.000000000000E+00 -0.000000000000E+00 -0.100000000000E+01
  0.000000000000E+00 -0.000000000000E+00 -0.100000000000E+01
  0.000000000000E+00 -0.000000000000E+00 -0.100000000000E+01
  0.000000000000E+00 -0.000000000000E+00 -0.100000000000E+01
  0.000000000000E+00 -0.000000000000E+00 -0.100000000000E+01
  0.000000000000E+00 -0.000000000000E+00 -0.100000000000E+01
POINT_DATA                 160
SCALARS mu float 1
LOOKUP_TABLE default
  0.000000000000E+00
  0.000000000000E+00
  0.252405986511E-07
  0.252405986511E-07
  0.394136822329E-07
  0.394136822329E-07
  0.560280072467E-07
  0.560280072467E-07
  0.367567434788E-07
  0.367567434788E-07
  0.342823430451E-07
  0.342823430451E-07
  0.258252280373E-07
  0.258252280373E-07
  0.120491048862E-07
  0.120491048862E-07
  0.382248474769E-08
  0.382248474769E-08
  0.109055289723E-08
  0.109055289723E-08
  0.220633994005E-09
  0.220633994005E-09
  0.188668267376E-10
  0.188668267376E-10
 -0.354714922371E-12
 -0.354714922371E-12
 -0.131300683707E-11
 -0.131300683707E-11
 -0.305754503957E-12
 -0.305754503957E-12
  0.457808663720E-12
  0.457808663720E-12
 -0.646702789535E-12
 -0.646702789535E-12
 -0.120725033091E-11
 -0.120725033091E-11
  0.220164411422E-11
  0.220164411422E-11
  0.228809052263E-11
  0.228809052263E-11