# vtk DataFile Version 3.0
MachLine results file. Generated by MachLine, USU AeroLab (c) 2022.
ASCII
DATASET POLYDATA
POINTS                 446 float
  0.173045222151E-06  0.000000000000E+00  0.000000000000E+00
  0.163777672222E-06  0.217527970672E+00  0.000000000000E+00
  0.171472410752E-06  0.448061168194E+00  0.000000000000E+00
  0.177693741107E-06  0.689725637436E+00  0.000000000000E+00
  0.182165395985E-06  0.940178275108E+00  0.000000000000E+00
  0.184679072057E-06  0.119668114185E+01  0.000000000000E+00
  0.185114071064E-06  0.145621216297E+01  0.000000000000E+00
  0.183449540272E-06  0.171560299397E+01  0.000000000000E+00
  0.179766332476E-06  0.197169232368E+01  0.000000000000E+00
  0.174239021560E-06  0.222147774696E+01  0.000000000000E+00
  0.167118785558E-06  0.246225214005E+01  0.000000000000E+00
  0.158710745038E-06  0.269171094894E+01  0.000000000000E+00
  0.149347834648E-06  0.290802383423E+01  0.000000000000E+00
  0.139366198567E-06  0.310986590385E+01  0.000000000000E+00
  0.129083986066E-06  0.329641318321E+01  0.000000000000E+00
  0.118785074068E-06  0.346730756760E+01  0.000000000000E+00
  0.108709134239E-06  0.362259936333E+01  0.000000000000E+00
  0.990478698158E-07  0.376267743111E+01  0.000000000000E+00
  0.899437360601E-07  0.388819599152E+01  0.000000000000E+00
  0.883163444868E-08  0.399999995367E+01  0.000000000000E+00
  0.341100276361E-01  0.000000000000E+00 -0.298407671612E-02
  0.341100276361E-01  0.000000000000E+00  0.298407671612E-02
  0.341100279290E-01  0.217527970672E+00 -0.298407336776E-02
  0.341100279290E-01  0.217527970672E+00  0.298407336776E-02
  0.341100286231E-01  0.448061168194E+00 -0.298406543436E-02
  0.341100286231E-01  0.448061168194E+00  0.298406543436E-02
  0.341100291965E-01  0.689725637436E+00 -0.298405888029E-02
  0.341100291965E-01  0.689725637436E+00  0.298405888029E-02
  0.341100296241E-01  0.940178275108E+00 -0.298405399379E-02
  0.341100296241E-01  0.940178275108E+00  0.298405399379E-02
  0.341100298859E-01  0.119668114185E+01 -0.298405100122E-02
  0.341100298859E-01  0.119668114185E+01  0.298405100122E-02
  0.341100299694E-01  0.145621216297E+01 -0.298405004600E-02
  0.341100299694E-01  0.145621216297E+01  0.298405004600E-02
  0.341100298707E-01  0.171560299397E+01 -0.298405117447E-02
  0.341100298707E-01  0.171560299397E+01  0.298405117447E-02
  0.341100295945E-01  0.197169232368E+01 -0.298405433119E-02
  0.341100295945E-01  0.197169232368E+01  0.298405433119E-02
  0.341100291542E-01  0.222147774696E+01 -0.298405936463E-02
  0.341100291542E-01  0.222147774696E+01  0.298405936463E-02
  0.341100285700E-01  0.246225214005E+01 -0.298406604194E-02
  0.341100285700E-01  0.246225214005E+01  0.298406604194E-02
  0.341100278676E-01  0.269171094894E+01 -0.298407407041E-02
  0.341100278676E-01  0.269171094894E+01  0.298407407041E-02
  0.341100270756E-01  0.290802383423E+01 -0.298408312279E-02
  0.341100270756E-01  0.290802383423E+01  0.298408312279E-02
  0.341100262235E-01  0.310986590385E+01 -0.298409286252E-02
  0.341100262235E-01  0.310986590385E+01  0.298409286252E-02
  0.341100253396E-01  0.329641318321E+01 -0.298410296583E-02
  0.341100253396E-01  0.329641318321E+01  0.298410296583E-02
  0.341100244495E-01  0.346730756760E+01 -0.298411313935E-02
  0.341100244495E-01  0.346730756760E+01  0.298411313935E-02
  0.341100235753E-01  0.362259936333E+01 -0.298412313172E-02
  0.341100235753E-01  0.362259936333E+01  0.298412313172E-02
  0.341100227347E-01  0.376267743111E+01 -0.298413273904E-02
  0.341100227347E-01  0.376267743111E+01  0.298413273904E-02
  0.341100219414E-01  0.388819599152E+01 -0.298414180664E-02
  0.341100219414E-01  0.388819599152E+01  0.298414180664E-02
  0.341100188820E-01  0.399999998751E+01 -0.298417677624E-02
  0.341100188820E-01  0.399999998751E+01  0.298417677624E-02
  0.341100161503E-01  0.400210950348E+01 -0.210974185511E-02
  0.341100161503E-01  0.400210950348E+01  0.210974185511E-02
  0.341100155449E-01  0.400298402237E+01 -0.370291006346E-24
  0.937237820251E-01  0.000000000000E+00 -0.819958982230E-02
  0.937237820251E-01  0.000000000000E+00  0.819958982230E-02
  0.937237822043E-01  0.217527970672E+00 -0.819958777352E-02
  0.937237822043E-01  0.217527970672E+00  0.819958777352E-02
  0.937237828870E-01  0.448061168194E+00 -0.819957997074E-02
  0.937237828870E-01  0.448061168194E+00  0.819957997074E-02
  0.937237834518E-01  0.689725637436E+00 -0.819957351471E-02
  0.937237834518E-01  0.689725637436E+00  0.819957351471E-02
  0.937237838735E-01  0.940178275108E+00 -0.819956869519E-02
  0.937237838735E-01  0.940178275108E+00  0.819956869519E-02
  0.937237841320E-01  0.119668114185E+01 -0.819956573966E-02
  0.937237841320E-01  0.119668114185E+01  0.819956573966E-02
  0.937237842149E-01  0.145621216297E+01 -0.819956479220E-02
  0.937237842149E-01  0.145621216297E+01  0.819956479220E-02
  0.937237841181E-01  0.171560299397E+01 -0.819956589928E-02
  0.937237841181E-01  0.171560299397E+01  0.819956589928E-02
  0.937237838463E-01  0.197169232368E+01 -0.819956900519E-02
  0.937237838463E-01  0.197169232368E+01  0.819956900519E-02
  0.937237834131E-01  0.222147774696E+01 -0.819957395760E-02
  0.937237834131E-01  0.222147774696E+01  0.819957395760E-02
  0.937237828387E-01  0.246225214005E+01 -0.819958052245E-02
  0.937237828387E-01  0.246225214005E+01  0.819958052245E-02
  0.937237821490E-01  0.269171094894E+01 -0.819958840549E-02
  0.937237821490E-01  0.269171094894E+01  0.819958840549E-02
  0.937237813728E-01  0.290802383423E+01 -0.819959727769E-02
  0.937237813728E-01  0.290802383423E+01  0.819959727769E-02
  0.937237805397E-01  0.310986590385E+01 -0.819960680067E-02
  0.937237805397E-01  0.310986590385E+01  0.819960680067E-02
  0.937237796780E-01  0.329641318321E+01 -0.819961664901E-02
  0.937237796780E-01  0.329641318321E+01  0.819961664901E-02
  0.937237788137E-01  0.346730756760E+01 -0.819962652818E-02
  0.937237788137E-01  0.346730756760E+01  0.819962652818E-02
  0.937237779687E-01  0.362259936333E+01 -0.819963618659E-02
  0.937237779687E-01  0.362259936333E+01  0.819963618659E-02
  0.937237771608E-01  0.376267743111E+01 -0.819964542147E-02
  0.937237771608E-01  0.376267743111E+01  0.819964542147E-02
  0.937237764032E-01  0.388819599152E+01 -0.819965408104E-02
  0.937237764032E-01  0.388819599152E+01  0.819965408104E-02
  0.937237736199E-01  0.399999998381E+01 -0.819968589374E-02
  0.937237736199E-01  0.399999998381E+01  0.819968589374E-02
  0.937237712536E-01  0.400579687095E+01 -0.579693567809E-02
  0.937237712536E-01  0.400579687095E+01  0.579693567809E-02
  0.937237707095E-01  0.400819964372E+01  0.193112612935E-23
  0.190432342283E+00  0.000000000000E+00 -0.166604723454E-01
  0.190432342283E+00  0.000000000000E+00  0.166604723454E-01
  0.190432342335E+00  0.217527970672E+00 -0.166604717490E-01
  0.190432342335E+00  0.217527970672E+00  0.166604717490E-01
  0.190432342998E+00  0.448061168194E+00 -0.166604641705E-01
  0.190432342998E+00  0.448061168194E+00  0.166604641705E-01
  0.190432343548E+00  0.689725637436E+00 -0.166604578857E-01
  0.190432343548E+00  0.689725637436E+00  0.166604578857E-01
  0.190432343959E+00  0.940178275108E+00 -0.166604531854E-01
  0.190432343959E+00  0.940178275108E+00  0.166604531854E-01
  0.190432344212E+00  0.119668114185E+01 -0.166604502980E-01
  0.190432344212E+00  0.119668114185E+01  0.166604502980E-01
  0.190432344293E+00  0.145621216297E+01 -0.166604493684E-01
  0.190432344293E+00  0.145621216297E+01  0.166604493684E-01
  0.190432344199E+00  0.171560299397E+01 -0.166604504434E-01
  0.190432344199E+00  0.171560299397E+01  0.166604504434E-01
  0.190432343934E+00  0.197169232368E+01 -0.166604534670E-01
  0.190432343934E+00  0.197169232368E+01  0.166604534670E-01
  0.190432343513E+00  0.222147774696E+01 -0.166604582864E-01
  0.190432343513E+00  0.222147774696E+01  0.166604582864E-01
  0.190432342954E+00  0.246225214005E+01 -0.166604646668E-01
  0.190432342954E+00  0.246225214005E+01  0.166604646668E-01
  0.190432342285E+00  0.269171094894E+01 -0.166604723130E-01
  0.190432342285E+00  0.269171094894E+01  0.166604723130E-01
  0.190432341535E+00  0.290802383423E+01 -0.166604808957E-01
  0.190432341535E+00  0.290802383423E+01  0.166604808957E-01
  0.190432340731E+00  0.310986590385E+01 -0.166604900767E-01
  0.190432340731E+00  0.310986590385E+01  0.166604900767E-01
  0.190432339904E+00  0.329641318321E+01 -0.166604995319E-01
  0.190432339904E+00  0.329641318321E+01  0.166604995319E-01
  0.190432339078E+00  0.346730756760E+01 -0.166605089702E-01
  0.190432339078E+00  0.346730756760E+01  0.166605089702E-01
  0.190432338276E+00  0.362259936333E+01 -0.166605181453E-01
  0.190432338276E+00  0.362259936333E+01  0.166605181453E-01
  0.190432337513E+00  0.376267743111E+01 -0.166605268622E-01
  0.190432337513E+00  0.376267743111E+01  0.166605268622E-01
  0.190432336803E+00  0.388819599152E+01 -0.166605349796E-01
  0.190432336803E+00  0.388819599152E+01  0.166605349796E-01
  0.190432334276E+00  0.399999997891E+01 -0.166605638672E-01
  0.190432334276E+00  0.399999997891E+01  0.166605638672E-01
  0.190432332281E+00  0.401177829583E+01 -0.117785035183E-01
  0.190432332281E+00  0.401177829583E+01  0.117785035183E-01
  0.190432331652E+00  0.401666061435E+01 -0.272416069088E-17
  0.329832006488E+00  0.000000000000E+00 -0.288563430542E-01
  0.329832006488E+00  0.000000000000E+00  0.288563430542E-01
  0.329832006566E+00  0.217527970672E+00 -0.288563421553E-01
  0.329832006566E+00  0.217527970672E+00  0.288563421553E-01
  0.329832007208E+00  0.448061168194E+00 -0.288563348194E-01
  0.329832007208E+00  0.448061168194E+00  0.288563348194E-01
  0.329832007742E+00  0.689725637436E+00 -0.288563287238E-01
  0.329832007742E+00  0.689725637436E+00  0.288563287238E-01
  0.329832008141E+00  0.940178275108E+00 -0.288563241588E-01
  0.329832008141E+00  0.940178275108E+00  0.288563241588E-01
  0.329832008386E+00  0.119668114185E+01 -0.288563213528E-01
  0.329832008386E+00  0.119668114185E+01  0.288563213528E-01
[...]
POINT_DATA                 446
SCALARS phi float 1
LOOKUP_TABLE default
  0.000000000000E+00
  0.206795153138E-22
  0.774241053350E-21
 -0.101792846181E-18
  0.540976120610E-19
  0.134403614650E-18
 -0.804896366851E-19
  0.616117207454E-19
  0.840498220415E-19
  0.124957212055E-18
  0.960108536990E-20
  0.744561812971E-19
  0.177264805270E-18
 -0.215773371507E-18
  0.219403867215E-18
 -0.204082827910E-18
  0.891237479189E-19
  0.391777553523E-19
 -0.118366236934E-18
 -0.831227593700E-19
  0.433680868994E-18
  0.216840434497E-18
  0.650521303491E-18
 -0.216840434497E-18
  0.433680868994E-18
  0.000000000000E+00
 -0.433680868994E-18
  0.000000000000E+00
 -0.216840434497E-18
  0.216840434497E-18
 -0.433680868994E-18
  0.216840434497E-18
  0.000000000000E+00
  0.650521303491E-18
 -0.108420217249E-17
 -0.108420217249E-17
 -0.650521303491E-18
 -0.867361737988E-18
  0.650521303491E-18
  0.216840434497E-18
 -0.216840434497E-18
 -0.216840434497E-18
 -0.650521303491E-18
  0.433680868994E-18
  0.650521303491E-18
  0.108420217249E-17
  0.216840434497E-18
  0.433680868994E-18
 -0.216840434497E-18
  0.216840434497E-18
 -0.216840434497E-18
 -0.650521303491E-18
  0.433680868994E-18
  0.216840434497E-18
 -0.216840434497E-18
  0.000000000000E+00
  0.000000000000E+00
 -0.433680868994E-18
 -0.216840434497E-18
  0.325260651746E-18
  0.216840434497E-18
 -0.325260651746E-18
  0.108420217249E-18
 -0.867361737988E-18
  0.867361737988E-18
 -0.867361737988E-18
 -0.867361737988E-18
 -0.260208521397E-17
 -0.433680868994E-18
 -0.867361737988E-18
  0.433680868994E-18
 -0.867361737988E-18
  0.867361737988E-18
 -0.173472347598E-17
  0.000000000000E+00
  0.867361737988E-18
 -0.433680868994E-18
 -0.173472347598E-17
  0.000000000000E+00
 -0.867361737988E-18
  0.867361737988E-18
  0.867361737988E-18
  0.867361737988E-18
  0.173472347598E-17
  0.433680868994E-18
  0.867361737988E-18
  0.433680868994E-18
 -0.260208521397E-17
  0.000000000000E+00
  0.000000000000E+00
 -0.130104260698E-17
 -0.867361737988E-18
  0.173472347598E-17
  0.173472347598E-17
 -0.867361737988E-18
 -0.173472347598E-17
  0.130104260698E-17
  0.867361737988E-18
  0.433680868994E-18
  0.867361737988E-18
 -0.130104260698E-17
  0.867361737988E-18
  0.000000000000E+00
  0.433680868994E-18
  0.867361737988E-18
 -0.433680868994E-18
  0.173472347598E-17
  0.260208521397E-17
  0.520417042793E-17
 -0.346944695195E-17
 -0.173472347598E-17
 -0.173472347598E-17
  0.000000000000E+00
 -0.260208521397E-17
 -0.693889390391E-17
  0.867361737988E-18
  0.346944695195E-17
 -0.520417042793E-17
 -0.173472347598E-17
 -0.260208521397E-17
  0.000000000000E+00
 -0.867361737988E-18
  0.000000000000E+00
 -0.346944695195E-17
 -0.346944695195E-17
  0.867361737988E-18
 -0.520417042793E-17
  0.000000000000E+00
  0.520417042793E-17
  0.867361737988E-18
  0.000000000000E+00
 -0.346944695195E-17
  0.000000000000E+00
  0.000000000000E+00
 -0.346944695195E-17
  0.433680868994E-17
  0.000000000000E+00
 -0.173472347598E-17
  0.520417042793E-17
  0.000000000000E+00
  0.173472347598E-17
  0.260208521397E-17
  0.000000000000E+00
  0.867361737988E-18
  0.000000000000E+00
 -0.173472347598E-17
 -0.433680868994E-17
  0.000000000000E+00
  0.867361737988E-18
 -0.121430643318E-16
  0.000000000000E+00
  0.000000000000E+00
 -0.346944695195E-17
  0.000000000000E+00
 -0.173472347598E-17
 -0.346944695195E-17
  0.346944695195E-17
  0.173472347598E-17
 -0.173472347598E-17
 -0.520417042793E-17
  0.173472347598E-17
 -0.173472347598E-17
 -0.121430643318E-16
  0.346944695195E-17
  0.520417042793E-17
  0.346944695195E-17
  0.520417042793E-17
 -0.346944695195E-17
 -0.346944695195E-17
  0.693889390391E-17
  0.000000000000E+00
  0.173472347598E-17
  0.520417042793E-17
 -0.346944695195E-17
 -0.173472347598E-17
 -0.173472347598E-17
  0.693889390391E-17
  0.173472347598E-17
 -0.173472347598E-17
  0.104083408559E-16
 -0.346944695195E-17
  0.520417042793E-17
 -0.173472347598E-17
  0.173472347598E-17
  0.346944695195E-17
 -0.346944695195E-17
 -0.520417042793E-17
 -0.520417042793E-17
  0.000000000000E+00
  0.000000000000E+00
 -0.173472347598E-17
  0.867361737988E-18
  0.104083408559E-16
 -0.346944695195E-17
 -0.138777878078E-16
  0.346944695195E-17
 -0.104083408559E-16
 -0.693889390391E-17
 -0.104083408559E-16
  0.000000000000E+00
  0.000000000000E+00
  0.000000000000E+00
  0.277555756156E-16
 -0.346944695195E-17
 -0.208166817117E-16
 -0.104083408559E-16
  0.693889390391E-17
 -0.346944695195E-17
 -0.138777878078E-16
  0.346944695195E-17
  0.138777878078E-16
  0.346944695195E-17
 -0.104083408559E-16
  0.000000000000E+00
 -0.104083408559E-16
 -0.346944695195E-17
 -0.138777878078E-16
  0.138777878078E-16
 -0.138777878078E-16
 -0.346944695195E-17
  0.346944695195E-17
  0.104083408559E-16
 -0.242861286637E-16
  0.208166817117E-16
  0.693889390391E-17
  0.000000000000E+00
 -0.138777878078E-16
 -0.173472347598E-16
  0.138777878078E-16
  0.000000000000E+00
 -0.346944695195E-17
 -0.693889390391E-17
 -0.693889390391E-17
 -0.173472347598E-17
  0.000000000000E+00
 -0.693889390391E-17
 -0.104083408559E-16
  0.346944695195E-17
 -0.104083408559E-16
  0.346944695195E-17
  0.693889390391E-17
 -0.104083408559E-16
  0.346944695195E-17
 -0.693889390391E-17
  0.693889390391E-17
 -0.346944695195E-17
  0.346944695195E-17
  0.346944695195E-17
 -0.104083408559E-16
 -0.346944695195E-17
  0.104083408559E-16
 -0.104083408559E-16
  0.693889390391E-17
  0.000000000000E+00
 -0.346944695195E-17
 -0.693889390391E-17
 -0.104083408559E-16
 -0.138777878078E-16
 -0.693889390391E-17
  0.346944695195E-17
  0.000000000000E+00
 -0.693889390391E-17
  0.000000000000E+00
  0.104083408559E-16
 -0.346944695195E-17
 -0.173472347598E-16
 -0.346944695195E-17
  0.000000000000E+00
  0.693889390391E-17
 -0.138777878078E-16
  0.693889390391E-17
 -0.346944695195E-17
  0.000000000000E+00
  0.520417042793E-17
 -0.260208521397E-17
  0.000000000000E+00
  0.173472347598E-17
 -0.867361737988E-18
  0.173472347598E-17
 -0.693889390391E-17
  0.000000000000E+00
 -0.693889390391E-17
  0.346944695195E-17
 -0.346944695195E-17
 -0.346944695195E-17
  0.520417042793E-17
  0.693889390391E-17
  0.173472347598E-17
  0.693889390391E-17
 -0.520417042793E-17
 -0.693889390391E-17
  0.346944695195E-17
 -0.346944695195E-17
  0.520417042793E-17
  0.000000000000E+00
 -0.520417042793E-17
 -0.346944695195E-17
 -0.173472347598E-17
 -0.173472347598E-17
 -0.346944695195E-17
 -0.104083408559E-16
  0.173472347598E-17
 -0.173472347598E-17
  0.867361737988E-17
  0.173472347598E-16
 -0.867361737988E-17
 -0.346944695195E-17
  0.173472347598E-17
  0.173472347598E-17
 -0.346944695195E-17
 -0.693889390391E-17
  0.867361737988E-17
  0.173472347598E-17
  0.000000000000E+00
 -0.607153216592E-17
  0.390312782095E-17
  0.216840434497E-17
 -0.151788304148E-17
 -0.346944695195E-17
 -0.216840434497E-18
 -0.216840434497E-17
  0.433680868994E-17
  0.520417042793E-17
  0.867361737988E-18
 -0.346944695195E-17
  0.433680868994E-17
 -0.780625564190E-17
 -0.693889390391E-17
 -0.780625564190E-17
 -0.260208521397E-17
 -0.173472347598E-17
 -0.867361737988E-18
 -0.260208521397E-17
  0.173472347598E-17
 -0.954097911787E-17
 -0.260208521397E-17
 -0.346944695195E-17
  0.520417042793E-17
  0.000000000000E+00
  0.000000000000E+00
  0.607153216592E-17
  0.173472347598E-17
  0.112757025938E-16
  0.693889390391E-17
  0.867361737988E-18
  0.520417042793E-17
  0.867361737988E-18
  0.867361737988E-18
  0.433680868994E-17
 -0.346944695195E-17
  0.173472347598E-17
  0.260208521397E-17
 -0.433680868994E-17
  0.346944695195E-17
  0.000000000000E+00
 -0.325260651746E-17
 -0.737257477290E-17
 -0.867361737988E-18
  0.000000000000E+00
 -0.596311194867E-18
 -0.303576608296E-17
  0.311708124590E-18
  0.758941520740E-18
 -0.650521303491E-18
  0.125767452008E-16
  0.166967134563E-16
  0.563785129692E-17
  0.433680868994E-17
  0.693889390391E-17
  0.845677694539E-17
 -0.823993651089E-17
 -0.130104260698E-16
  0.433680868994E-18
 -0.520417042793E-17
 -0.997465998687E-17
 -0.845677694539E-17
  0.867361737988E-18
 -0.455364912444E-17
  0.303576608296E-17
  0.368628738645E-17
  0.130104260698E-17
 -0.346944695195E-17
  0.390312782095E-17
  0.110588621594E-16
 -0.203830008427E-16
 -0.214672030152E-16
  0.607153216592E-17
  0.563785129692E-17
 -0.130104260698E-16
 -0.182145964978E-16
  0.607153216592E-17
  0.112757025938E-16
 -0.346944695195E-17
  0.715573433840E-17
 -0.650521303491E-17
  0.542101086243E-17
 -0.184314369323E-17
 -0.308997619158E-17
  0.433680868994E-18
 -0.130104260698E-17
 -0.520417042793E-17
  0.607153216592E-17
  0.000000000000E+00
 -0.216840434497E-17
 -0.108420217249E-17
  0.000000000000E+00
 -0.108420217249E-17
 -0.840377617482E-17
 -0.589740568389E-17
 -0.103979084540E-17
 -0.313196139794E-17
 -0.119457205444E-16
 -0.135178136945E-16
 -0.356575062759E-17
 -0.615661265500E-17
 -0.583641765733E-17
 -0.624214643906E-17
 -0.771425661417E-17
 -0.956417657097E-17
 -0.670251546334E-17
 -0.525917132122E-17
 -0.517041815022E-17
 -0.284510095177E-17
  0.508935114146E-17
  0.457562565895E-17
 -0.362860973670E-18
 -0.880451044001E-20
 -0.280506871884E-18
 -0.587132798790E-18
  0.807233648390E-17
  0.912858656912E-17
  0.146051905862E-16
  0.145238754232E-16
  0.408918390177E-17
  0.259078261808E-17
 -0.361166907775E-17
 -0.481890278583E-17
  0.864512266214E-17
  0.783451213162E-17
 -0.628837260042E-17
 -0.563785129692E-17
 -0.260208521397E-17
  0.173472347598E-17
  0.520417042793E-17
 -0.346944695195E-17
  0.867361737988E-18
SCALARS phi_mu float 1
LOOKUP_TABLE default
  0.764371820272E-08
  0.723435387897E-08
  0.757424429770E-08
  0.784905163224E-08
  0.804657265701E-08
  0.815760624305E-08
  0.817682093011E-08
  0.810329561705E-08
  0.794060171392E-08
  0.769645046483E-08
  0.738193685617E-08
  0.701053860733E-08
  0.659696204344E-08
  0.615605525233E-08
  0.570187146343E-08
  0.524695002539E-08
  0.480187767054E-08
  0.437512227207E-08
  0.397297633557E-08
  0.390109152636E-09
  0.161412027331E-02
  0.139928207184E-02
  0.161412016572E-02
  0.139928220532E-02
  0.161411991080E-02
  0.139928252156E-02
  0.161411970020E-02
  0.139928278281E-02
  0.161411954318E-02
  0.139928297760E-02
  0.161411944702E-02
  0.139928309689E-02
  0.161411941633E-02
  0.139928313497E-02
  0.161411945259E-02
  0.139928308998E-02
  0.161411955402E-02
  0.139928296415E-02
  0.161411971576E-02
  0.139928276351E-02
  0.161411993032E-02
  0.139928249734E-02
  0.161412018830E-02
  0.139928217731E-02
  0.161412047918E-02
  0.139928181646E-02
  0.161412079215E-02
  0.139928142822E-02
  0.161412111679E-02
  0.139928102548E-02
  0.161412144370E-02
  0.139928061994E-02
  0.161412176478E-02
  0.139928022163E-02
  0.161412207349E-02
  0.139927983866E-02
  0.161412236486E-02
  0.139927947721E-02
  0.102392728538E-02
  0.848484440901E-03
  0.854395130478E-03
  0.748245349871E-03
  0.751215309871E-03
  0.443511198609E-02
  0.384478362536E-02
  0.443511192025E-02
  0.384478370703E-02
  0.443511166953E-02
  0.384478401807E-02
  0.443511146208E-02
  0.384478427541E-02
  0.443511130721E-02
  0.384478446753E-02
  0.443511121224E-02
  0.384478458534E-02
  0.443511118180E-02
  0.384478462311E-02
  0.443511121737E-02
  0.384478457898E-02
  0.443511131717E-02
  0.384478445517E-02
  0.443511147631E-02
  0.384478425776E-02
  0.443511168726E-02
  0.384478399607E-02
  0.443511194056E-02
  0.384478368184E-02
  0.443511222565E-02
  0.384478332818E-02
  0.443511253165E-02
  0.384478294857E-02
  0.443511284811E-02
  0.384478255600E-02
  0.443511316555E-02
  0.384478216219E-02
  0.443511347591E-02
  0.384478177719E-02
  0.443511377265E-02
  0.384478140907E-02
  0.443511405091E-02
  0.384478106388E-02
  0.281347124810E-02
  0.233140323332E-02
  0.234762223111E-02
  0.205596187870E-02
  0.206413937140E-02
  0.901147284292E-02
  0.781200438226E-02
  0.901147282375E-02
  0.781200440603E-02
  0.901147258024E-02
  0.781200470812E-02
  0.901147237829E-02
  0.781200495865E-02
  0.901147222725E-02
  0.781200514601E-02
  0.901147213447E-02
  0.781200526111E-02
  0.901147210460E-02
  0.781200529816E-02
  0.901147213915E-02
  0.781200525531E-02
  0.901147223630E-02
  0.781200513479E-02
  0.901147239116E-02
  0.781200494267E-02
  0.901147259618E-02
  0.781200468834E-02
  0.901147284188E-02
  0.781200438355E-02
  0.901147311767E-02
  0.781200404142E-02
  0.901147341268E-02
  0.781200367545E-02
  0.901147371650E-02
  0.781200329855E-02
  0.901147401978E-02
  0.781200292232E-02
  0.901147431460E-02
  0.781200255658E-02
  0.901147459470E-02
  0.781200220911E-02
  0.901147485554E-02
  0.781200188553E-02
  0.571653701206E-02
  0.473704648766E-02
  0.477000051422E-02
  0.417738611281E-02
  0.419397925219E-02
  0.156080259707E-01
  0.135305173677E-01
  0.156080259418E-01
  0.135305174035E-01
  0.156080257061E-01
  0.135305176959E-01
  0.156080255102E-01
  0.135305179389E-01
  0.156080253635E-01
  0.135305181209E-01
  0.156080252733E-01
  0.135305182327E-01
  0.156080252443E-01
  0.135305182687E-01
  0.156080252780E-01
  0.135305182269E-01
  0.156080253726E-01
  0.135305181095E-01
  0.156080255232E-01
  0.135305179227E-01
  0.156080257223E-01
  0.135305176758E-01
  0.156080259603E-01
  0.135305173805E-01
  0.156080262268E-01
  0.135305170499E-01
  0.156080265110E-01
  0.135305166973E-01
  0.156080268027E-01
  0.135305163355E-01
  0.156080270926E-01
  0.135305159758E-01
  0.156080273733E-01
  0.135305156277E-01
  0.156080276387E-01
  0.135305152984E-01
  0.148490372661E-01
  0.126623464317E-01
  0.990114745505E-02
  0.820465323053E-02
  0.826172406148E-02
  0.723531059735E-02
  0.726405998296E-02
  0.236605746577E-01
  0.205112214249E-01
  0.236605735908E-01
  0.205112224917E-01
  0.236605733220E-01
  0.205112227606E-01
  0.236605730942E-01
  0.205112229883E-01
  0.236605729186E-01
  0.205112231640E-01
  0.236605728039E-01
  0.205112232787E-01
  0.236605727563E-01
  0.205112233263E-01
  0.236605727784E-01
  0.205112233042E-01
  0.236605728690E-01
  0.205112232136E-01
  0.236605730236E-01
  0.205112230590E-01
  0.236605732343E-01
  0.205112228483E-01
  0.236605734908E-01
  0.205112225917E-01
  0.236605737817E-01
  0.205112223009E-01
  0.236605740948E-01
  0.205112219878E-01
  0.236605744182E-01
  0.205112216644E-01
  0.236605747415E-01
  0.205112213411E-01
  0.236605750556E-01
  0.205112210270E-01
  0.236159442024E-01
  0.203824819313E-01
  0.208171399756E-01
  0.175304099950E-01
  0.150093782148E-01
  0.124376223252E-01
  0.125241185878E-01
  0.109681624117E-01
  0.110117532258E-01
  0.220193227196E-01
  0.177618104277E-01
  0.220193226580E-01
  0.177618104987E-01
  0.220193221556E-01
  0.177618110786E-01
  0.220193217381E-01
  0.177618115605E-01
  0.220193214254E-01
  0.177618119213E-01
  0.220193212332E-01
  0.177618121431E-01
  0.220193211714E-01
  0.177618122144E-01
  0.220193212432E-01
  0.177618121315E-01
  0.220193214449E-01
  0.177618118988E-01
  0.220193217659E-01
  0.177618115284E-01
  0.220193221901E-01
  0.177618110387E-01
  0.220193226975E-01
  0.177618104531E-01
  0.220193232656E-01
  0.177618097975E-01
  0.220193238715E-01
  0.177618090984E-01
  0.220193244932E-01
  0.177618083809E-01
  0.220193251112E-01
  0.177618076676E-01
  0.220193257094E-01
  0.177618069772E-01
  0.205674956988E-01
  0.162028707974E-01
  0.165266454446E-01
  0.122265247216E-01
  0.962119933356E-02
  0.631639910411E-02
  0.809478132441E-02
  0.612279053348E-02
  0.666076046065E-02
  0.127131071339E-01
  0.102549936378E-01
  0.127131070931E-01
  0.102549936849E-01
  0.127131065740E-01
  0.102549942840E-01
  0.127131061435E-01
  0.102549947808E-01
  0.127131058215E-01
  0.102549951523E-01
  0.127131056238E-01
  0.102549953805E-01
  0.127131055601E-01
  0.102549954540E-01
  0.127131056337E-01
  0.102549953690E-01
  0.127131058408E-01
  0.102549951300E-01
  0.127131061709E-01
  0.102549947491E-01
  0.127131066080E-01
  0.102549942447E-01
  0.127131071317E-01
  0.102549936403E-01
  0.127131077196E-01
  0.102549929619E-01
  0.127131083484E-01
  0.102549922362E-01
  0.127131089960E-01
  0.102549914887E-01
  0.127131096425E-01
  0.102549907427E-01
  0.124747905562E-01
  0.997776444339E-02
  0.961586512537E-02
  0.709651110930E-02
  0.459607307885E-02
  0.197239887391E-02
  0.306276887119E-02
  0.142257566426E-02
  0.297631493921E-02
  0.194865787654E-02
  0.248235135458E-02
  0.625691726107E-02
  0.504713617279E-02
  0.625691712074E-02
  0.504713633474E-02
  0.625691658629E-02
  0.504713695153E-02
  0.625691614409E-02
  0.504713746186E-02
  0.625691581397E-02
  0.504713784283E-02
  0.625691561154E-02
  0.504713807645E-02
  0.625691554664E-02
  0.504713815135E-02
  0.625691562247E-02
  0.504713806383E-02
  0.625691583521E-02
  0.504713781832E-02
  0.625691617442E-02
  0.504713742685E-02
  0.625691662408E-02
  0.504713690792E-02
  0.625691716403E-02
  0.504713628479E-02
  0.625691777173E-02
  0.504713558347E-02
  0.625691842400E-02
  0.504713483071E-02
  0.625691909856E-02
  0.504713405223E-02
  0.625691977523E-02
  0.504713327131E-02
  0.533615520090E-02
  0.410000508822E-02
  0.189843936555E-02
  0.660525547129E-03
 -0.258757796466E-02
 -0.371756890366E-02
 -0.112102166005E-03
 -0.870148825755E-03
  0.684139730106E-04
 -0.407749565419E-03
 -0.719081258602E-04
  0.227714792145E-02
  0.183687236361E-02
  0.227714557723E-02
  0.183687506897E-02
  0.227714242773E-02
  0.183687870367E-02
  0.227713909673E-02
  0.183688254784E-02
  0.227713579169E-02
  0.183688636203E-02
  0.227713244747E-02
  0.183689022145E-02
  0.227712926402E-02
  0.183689389534E-02
  0.227712619056E-02
  0.183689744227E-02
  0.227712339445E-02
  0.183690066914E-02
  0.227712083637E-02
  0.183690362131E-02
  0.227711863370E-02
  0.183690616332E-02
  0.227711675506E-02
  0.183690833137E-02
  0.227711525927E-02
  0.183691005760E-02
  0.227711412505E-02
  0.183691136655E-02
  0.227711335293E-02
  0.183691225762E-02
  0.227711293811E-02
  0.183691273635E-02
  0.830055898482E-03
  0.379460214099E-03
 -0.289116990010E-02
 -0.334103030579E-02
 -0.606492168932E-02
 -0.646860245244E-02
 -0.160778738169E-02
 -0.186760979809E-02
 -0.145921033140E-02
 -0.162183277944E-02
 -0.147172398928E-02
  0.858154209519E-08
  0.771291576673E-08
  0.793232544501E-08
  0.712941303523E-08
  0.130272940916E-07
  0.117086673708E-07
  0.135828417731E-07
  0.122079823420E-07
  0.189920783241E-07
  0.170696943361E-07
  0.194857756678E-07
  0.175134194447E-07
  0.249571018980E-07
  0.224309364014E-07
  0.251692864320E-07
  0.226216435471E-07
  0.304391835842E-07
  0.273581200603E-07
  0.301730589814E-07
  0.271189327001E-07
  0.350154999958E-07
  0.314712203285E-07
  0.341390588993E-07
  0.306834929146E-07
  0.384005076333E-07
  0.345135964526E-07
  0.368674564905E-07
  0.331357212155E-07
  0.404780201247E-07
  0.363808224907E-07
  0.383241267556E-07
  0.344449468778E-07
 -0.177426918538E-02
 -0.177427346604E-02
 -0.564948080938E-02
 -0.564948482201E-02
 -0.790423723227E-02
 -0.790424101390E-02
 -0.211942935297E-02
SCALARS phi_sigma float 1
LOOKUP_TABLE default
 -0.764371820272E-08
 -0.723435387897E-08
 -0.757424429770E-08
 -0.784905163234E-08
 -0.804657265696E-08
 -0.815760624292E-08
 -0.817682093019E-08
 -0.810329561699E-08
 -0.794060171384E-08
 -0.769645046470E-08
 -0.738193685616E-08
 -0.701053860726E-08
 -0.659696204326E-08
 -0.615605525254E-08
 -0.570187146322E-08
 -0.524695002559E-08
 -0.480187767045E-08
 -0.437512227203E-08
 -0.397297633569E-08
 -0.390109152720E-09
 -0.161412027331E-02
 -0.139928207184E-02
 -0.161412016572E-02
 -0.139928220532E-02
 -0.161411991080E-02
 -0.139928252156E-02
 -0.161411970020E-02
 -0.139928278281E-02
 -0.161411954318E-02
 -0.139928297760E-02
 -0.161411944702E-02
 -0.139928309689E-02
 -0.161411941633E-02
 -0.139928313497E-02
 -0.161411945259E-02
 -0.139928308998E-02
 -0.161411955402E-02
 -0.139928296415E-02
 -0.161411971576E-02
 -0.139928276351E-02
 -0.161411993032E-02
 -0.139928249734E-02
 -0.161412018830E-02
 -0.139928217731E-02
 -0.161412047918E-02
 -0.139928181646E-02
 -0.161412079215E-02
 -0.139928142822E-02
 -0.161412111679E-02
 -0.139928102548E-02
 -0.161412144370E-02
 -0.139928061994E-02