# vtk DataFile Version 3.0
MachLine results file. Generated by MachLine, USU AeroLab (c) 2022.
ASCII
DATASET POLYDATA
POINTS                1127 float
  0.000000000000E+00  0.000000000000E+00  0.000000000000E+00
  0.000000000000E+00  0.105263157890E+00  0.000000000000E+00
  0.000000000000E+00  0.210526315790E+00  0.000000000000E+00
  0.000000000000E+00  0.315789473680E+00  0.000000000000E+00
  0.000000000000E+00  0.421052631580E+00  0.000000000000E+00
  0.000000000000E+00  0.526315789470E+00  0.000000000000E+00
  0.000000000000E+00  0.631578947370E+00  0.000000000000E+00
  0.000000000000E+00  0.736842105260E+00  0.000000000000E+00
  0.000000000000E+00  0.842105263160E+00  0.000000000000E+00
  0.000000000000E+00  0.947368421050E+00  0.000000000000E+00
  0.000000000000E+00  0.105263157890E+01  0.000000000000E+00
  0.000000000000E+00  0.115789473680E+01  0.000000000000E+00
  0.000000000000E+00  0.126315789470E+01  0.000000000000E+00
  0.000000000000E+00  0.136842105260E+01  0.000000000000E+00
  0.000000000000E+00  0.147368421050E+01  0.000000000000E+00
  0.000000000000E+00  0.157894736840E+01  0.000000000000E+00
  0.000000000000E+00  0.168421052630E+01  0.000000000000E+00
  0.000000000000E+00  0.178947368420E+01  0.000000000000E+00
  0.000000000000E+00  0.189473684210E+01  0.000000000000E+00
  0.000000000000E+00  0.200000000000E+01  0.000000000000E+00
  0.000000000000E+00 -0.105263157890E+00  0.000000000000E+00
  0.000000000000E+00 -0.210526315790E+00  0.000000000000E+00
  0.000000000000E+00 -0.315789473680E+00  0.000000000000E+00
  0.000000000000E+00 -0.421052631580E+00  0.000000000000E+00
  0.000000000000E+00 -0.526315789470E+00  0.000000000000E+00
  0.000000000000E+00 -0.631578947370E+00  0.000000000000E+00
  0.000000000000E+00 -0.736842105260E+00  0.000000000000E+00
  0.000000000000E+00 -0.842105263160E+00  0.000000000000E+00
  0.000000000000E+00 -0.947368421050E+00  0.000000000000E+00
  0.000000000000E+00 -0.105263157890E+01  0.000000000000E+00
  0.000000000000E+00 -0.115789473680E+01  0.000000000000E+00
  0.000000000000E+00 -0.126315789470E+01  0.000000000000E+00
  0.000000000000E+00 -0.136842105260E+01  0.000000000000E+00
  0.000000000000E+00 -0.147368421050E+01  0.000000000000E+00
  0.000000000000E+00 -0.157894736840E+01  0.000000000000E+00
  0.000000000000E+00 -0.168421052630E+01  0.000000000000E+00
  0.000000000000E+00 -0.178947368420E+01  0.000000000000E+00
  0.000000000000E+00 -0.189473684210E+01  0.000000000000E+00
  0.000000000000E+00 -0.200000000000E+01  0.000000000000E+00
  0.269655358630E-01  0.000000000000E+00 -0.235917869390E-02
  0.269655358630E-01  0.105263157890E+00 -0.235917869390E-02
  0.269655358630E-01  0.105263157890E+00  0.235917869390E-02
  0.269655358630E-01  0.000000000000E+00  0.235917869390E-02
  0.269655358630E-01  0.210526315790E+00 -0.235917869390E-02
  0.269655358630E-01  0.210526315790E+00  0.235917869390E-02
  0.269655358630E-01  0.315789473680E+00 -0.235917869390E-02
  0.269655358630E-01  0.315789473680E+00  0.235917869390E-02
  0.269655358630E-01  0.421052631580E+00 -0.235917869390E-02
  0.269655358630E-01  0.421052631580E+00  0.235917869390E-02
  0.269655358630E-01  0.526315789470E+00 -0.235917869390E-02
  0.269655358630E-01  0.526315789470E+00  0.235917869390E-02
  0.269655358630E-01  0.631578947370E+00 -0.235917869390E-02
  0.269655358630E-01  0.631578947370E+00  0.235917869390E-02
  0.269655358630E-01  0.736842105260E+00 -0.235917869390E-02
  0.269655358630E-01  0.736842105260E+00  0.235917869390E-02
  0.269655358630E-01  0.842105263160E+00 -0.235917869390E-02
  0.269655358630E-01  0.842105263160E+00  0.235917869390E-02
  0.269655358630E-01  0.947368421050E+00 -0.235917869390E-02
  0.269655358630E-01  0.947368421050E+00  0.235917869390E-02
  0.269655358630E-01  0.105263157890E+01 -0.235917869390E-02
  0.269655358630E-01  0.105263157890E+01  0.235917869390E-02
  0.269655358630E-01  0.115789473680E+01 -0.235917869390E-02
  0.269655358630E-01  0.115789473680E+01  0.235917869390E-02
  0.269655358630E-01  0.126315789470E+01 -0.235917869390E-02
  0.269655358630E-01  0.126315789470E+01  0.235917869390E-02
  0.269655358630E-01  0.136842105260E+01 -0.235917869390E-02
  0.269655358630E-01  0.136842105260E+01  0.235917869390E-02
  0.269655358630E-01  0.147368421050E+01 -0.235917869390E-02
  0.269655358630E-01  0.147368421050E+01  0.235917869390E-02
  0.269655358630E-01  0.157894736840E+01 -0.235917869390E-02
  0.269655358630E-01  0.157894736840E+01  0.235917869390E-02
  0.269655358630E-01  0.168421052630E+01 -0.235917869390E-02
  0.269655358630E-01  0.168421052630E+01  0.235917869390E-02
  0.269655358630E-01  0.178947368420E+01 -0.235917869390E-02
  0.269655358630E-01  0.178947368420E+01  0.235917869390E-02
  0.269655358630E-01  0.189473684210E+01 -0.235917869390E-02
  0.269655358630E-01  0.189473684210E+01  0.235917869390E-02
  0.269655358630E-01  0.200000000000E+01 -0.235917869390E-02
  0.269655358630E-01  0.200000000000E+01  0.235917869390E-02
  0.269655358630E-01  0.200091793080E+01 -0.217366007760E-02
  0.269655358630E-01  0.200091793080E+01  0.217366007760E-02
  0.269655358630E-01  0.200166786420E+01 -0.166786415940E-02
  0.269655358630E-01  0.200166786420E+01  0.166786415940E-02
  0.269655358630E-01  0.200217366010E+01 -0.917930834960E-03
  0.269655358630E-01  0.200217366010E+01  0.917930834960E-03
  0.269655358630E-01  0.200235917870E+01  0.000000000000E+00
  0.269655358630E-01 -0.105263157890E+00 -0.235917869390E-02
  0.269655358630E-01 -0.105263157890E+00  0.235917869390E-02
  0.269655358630E-01 -0.210526315790E+00 -0.235917869390E-02
  0.269655358630E-01 -0.210526315790E+00  0.235917869390E-02
  0.269655358630E-01 -0.315789473680E+00 -0.235917869390E-02
  0.269655358630E-01 -0.315789473680E+00  0.235917869390E-02
  0.269655358630E-01 -0.421052631580E+00 -0.235917869390E-02
  0.269655358630E-01 -0.421052631580E+00  0.235917869390E-02
  0.269655358630E-01 -0.526315789470E+00 -0.235917869390E-02
  0.269655358630E-01 -0.526315789470E+00  0.235917869390E-02
  0.269655358630E-01 -0.631578947370E+00 -0.235917869390E-02
  0.269655358630E-01 -0.631578947370E+00  0.235917869390E-02
  0.269655358630E-01 -0.736842105260E+00 -0.235917869390E-02
  0.269655358630E-01 -0.736842105260E+00  0.235917869390E-02
  0.269655358630E-01 -0.842105263160E+00 -0.235917869390E-02
  0.269655358630E-01 -0.842105263160E+00  0.235917869390E-02
  0.269655358630E-01 -0.947368421050E+00 -0.235917869390E-02
  0.269655358630E-01 -0.947368421050E+00  0.235917869390E-02
  0.269655358630E-01 -0.105263157890E+01 -0.235917869390E-02
  0.269655358630E-01 -0.105263157890E+01  0.235917869390E-02
  0.269655358630E-01 -0.115789473680E+01 -0.235917869390E-02
  0.269655358630E-01 -0.115789473680E+01  0.235917869390E-02
  0.269655358630E-01 -0.126315789470E+01 -0.235917869390E-02
  0.269655358630E-01 -0.126315789470E+01  0.235917869390E-02
  0.269655358630E-01 -0.136842105260E+01 -0.235917869390E-02
  0.269655358630E-01 -0.136842105260E+01  0.235917869390E-02
  0.269655358630E-01 -0.147368421050E+01 -0.235917869390E-02
  0.269655358630E-01 -0.147368421050E+01  0.235917869390E-02
  0.269655358630E-01 -0.157894736840E+01 -0.235917869390E-02
  0.269655358630E-01 -0.157894736840E+01  0.235917869390E-02
  0.269655358630E-01 -0.168421052630E+01 -0.235917869390E-02
  0.269655358630E-01 -0.168421052630E+01  0.235917869390E-02
  0.269655358630E-01 -0.178947368420E+01 -0.235917869390E-02
  0.269655358630E-01 -0.178947368420E+01  0.235917869390E-02
  0.269655358630E-01 -0.189473684210E+01 -0.235917869390E-02
  0.269655358630E-01 -0.189473684210E+01  0.235917869390E-02
  0.269655358630E-01 -0.200000000000E+01 -0.235917869390E-02
  0.269655358630E-01 -0.200000000000E+01  0.235917869390E-02
  0.269655358630E-01 -0.200091793080E+01 -0.217366007760E-02
  0.269655358630E-01 -0.200091793080E+01  0.217366007760E-02
  0.269655358630E-01 -0.200166786420E+01 -0.166786415940E-02
  0.269655358630E-01 -0.200166786420E+01  0.166786415940E-02
  0.269655358630E-01 -0.200217366010E+01 -0.917930834960E-03
  0.269655358630E-01 -0.200217366010E+01  0.917930834960E-03
  0.269655358630E-01 -0.200235917870E+01  0.000000000000E+00
  0.702822349590E-01  0.000000000000E+00 -0.614889880620E-02
  0.702822349590E-01  0.105263157890E+00 -0.614889880620E-02
  0.702822349590E-01  0.105263157890E+00  0.614889880620E-02
  0.702822349590E-01  0.000000000000E+00  0.614889880620E-02
  0.702822349590E-01  0.210526315790E+00 -0.614889880620E-02
  0.702822349590E-01  0.210526315790E+00  0.614889880620E-02
  0.702822349590E-01  0.315789473680E+00 -0.614889880620E-02
  0.702822349590E-01  0.315789473680E+00  0.614889880620E-02
  0.702822349590E-01  0.421052631580E+00 -0.614889880620E-02
  0.702822349590E-01  0.421052631580E+00  0.614889880620E-02
  0.702822349590E-01  0.526315789470E+00 -0.614889880620E-02
  0.702822349590E-01  0.526315789470E+00  0.614889880620E-02
  0.702822349590E-01  0.631578947370E+00 -0.614889880620E-02
  0.702822349590E-01  0.631578947370E+00  0.614889880620E-02
  0.702822349590E-01  0.736842105260E+00 -0.614889880620E-02
  0.702822349590E-01  0.736842105260E+00  0.614889880620E-02
  0.702822349590E-01  0.842105263160E+00 -0.614889880620E-02
  0.702822349590E-01  0.842105263160E+00  0.614889880620E-02
  0.702822349590E-01  0.947368421050E+00 -0.614889880620E-02
  0.702822349590E-01  0.947368421050E+00  0.614889880620E-02
  0.702822349590E-01  0.105263157890E+01 -0.614889880620E-02
  0.702822349590E-01  0.105263157890E+01  0.614889880620E-02
  0.702822349590E-01  0.115789473680E+01 -0.614889880620E-02
  0.702822349590E-01  0.115789473680E+01  0.614889880620E-02
  0.702822349590E-01  0.126315789470E+01 -0.614889880620E-02
  0.702822349590E-01  0.126315789470E+01  0.614889880620E-02
  0.702822349590E-01  0.136842105260E+01 -0.614889880620E-02
  0.702822349590E-01  0.136842105260E+01  0.614889880620E-02
  0.702822349590E-01  0.147368421050E+01 -0.614889880620E-02
  0.702822349590E-01  0.147368421050E+01  0.614889880620E-02
[...]
CELL_DATA                2176
SCALARS C_p_ise float 1
LOOKUP_TABLE default
 -0.866637848424E-01
 -0.866637855610E-01
 -0.866637850293E-01
 -0.866637850295E-01
 -0.866637850358E-01
 -0.866637850357E-01
 -0.866637850334E-01
 -0.866637850334E-01
 -0.866637850391E-01
 -0.866637850391E-01
 -0.866637850343E-01
 -0.866637850343E-01
  0.116357274787E+00
  0.116357274787E+00
  0.116357274796E+00
  0.116357274796E+00
  0.116357274786E+00
  0.116357274786E+00
  0.116357274788E+00
  0.116357274788E+00
  0.116357274791E+00
  0.116357274791E+00
  0.116357274789E+00
  0.116357274789E+00
  0.116357274789E+00
  0.116357274789E+00
  0.116357274791E+00
  0.116357274791E+00
  0.116357274788E+00
  0.116357274788E+00
  0.116357274786E+00
  0.116357274786E+00
  0.116357274796E+00
  0.116357274796E+00
  0.116357274787E+00
  0.116357274787E+00
 -0.866637850343E-01
 -0.866637850343E-01
 -0.866637850391E-01
 -0.866637850390E-01
 -0.866637850334E-01
 -0.866637850334E-01
 -0.866637850357E-01
 -0.866637850357E-01
 -0.866637850293E-01
 -0.866637850294E-01
 -0.866637845254E-01
 -0.866637852442E-01
 -0.866637849360E-01
 -0.866637848424E-01
 -0.866637850295E-01
 -0.866637850293E-01
 -0.866637850357E-01
 -0.866637850358E-01
 -0.866637850334E-01
 -0.866637850334E-01
 -0.866637850391E-01
 -0.866637850391E-01
 -0.866637850343E-01
 -0.866637850343E-01
  0.116357274787E+00
  0.116357274787E+00
  0.116357274796E+00
  0.116357274796E+00
  0.116357274786E+00
  0.116357274786E+00
  0.116357274788E+00
  0.116357274788E+00
  0.116357274791E+00
  0.116357274791E+00
  0.116357274789E+00
  0.116357274789E+00
  0.116357274789E+00
  0.116357274789E+00
  0.116357274791E+00
  0.116357274791E+00
  0.116357274788E+00
  0.116357274788E+00
  0.116357274786E+00
  0.116357274786E+00
  0.116357274796E+00
  0.116357274796E+00
  0.116357274787E+00
  0.116357274787E+00
 -0.866637850343E-01
 -0.866637850343E-01
 -0.866637850390E-01
 -0.866637850390E-01
 -0.866637850334E-01
 -0.866637850334E-01
 -0.866637850357E-01
 -0.866637850357E-01
 -0.866637850294E-01
 -0.866637850294E-01
 -0.866637852442E-01
 -0.866637851504E-01
 -0.866637850768E-01
 -0.866637849360E-01
 -0.866637850292E-01
 -0.866637850295E-01
 -0.866637850357E-01
 -0.866637850357E-01
 -0.866637850334E-01
 -0.866637850334E-01
 -0.866637850391E-01
 -0.866637850391E-01
 -0.866637850343E-01
 -0.866637850343E-01
  0.116357274787E+00
  0.116357274787E+00
  0.116357274796E+00
  0.116357274796E+00
  0.116357274786E+00
  0.116357274786E+00
  0.116357274788E+00
  0.116357274788E+00
  0.116357274791E+00
  0.116357274791E+00
  0.116357274789E+00
  0.116357274789E+00
  0.116357274789E+00
  0.116357274789E+00
  0.116357274791E+00
  0.116357274791E+00
  0.116357274788E+00
  0.116357274788E+00
  0.116357274786E+00
  0.116357274786E+00
  0.116357274796E+00
  0.116357274796E+00
  0.116357274787E+00
  0.116357274787E+00
 -0.866637850343E-01
 -0.866637850343E-01
 -0.866637850390E-01
 -0.866637850390E-01
 -0.866637850334E-01
 -0.866637850334E-01
 -0.866637850357E-01
 -0.866637850357E-01
 -0.866637850294E-01
 -0.866637850295E-01
 -0.866637851504E-01
 -0.866637850097E-01
 -0.866637850854E-01
 -0.866637850768E-01
 -0.866637850294E-01
 -0.866637850292E-01
 -0.866637850358E-01
 -0.866637850357E-01
 -0.866637850333E-01
 -0.866637850334E-01
 -0.866637850391E-01
 -0.866637850391E-01
 -0.866637850343E-01
 -0.866637850343E-01
  0.116357274787E+00
  0.116357274787E+00
  0.116357274796E+00
  0.116357274796E+00
  0.116357274786E+00
  0.116357274786E+00
  0.116357274788E+00
  0.116357274788E+00
  0.116357274791E+00
  0.116357274791E+00
  0.116357274789E+00
  0.116357274789E+00
  0.116357274789E+00
  0.116357274789E+00
  0.116357274791E+00
  0.116357274791E+00
  0.116357274788E+00
  0.116357274788E+00
  0.116357274786E+00
  0.116357274786E+00
  0.116357274796E+00
  0.116357274796E+00
  0.116357274787E+00
  0.116357274787E+00
 -0.866637850343E-01
 -0.866637850343E-01
 -0.866637850390E-01
 -0.866637850391E-01
 -0.866637850334E-01
 -0.866637850334E-01
 -0.866637850357E-01
 -0.866637850357E-01
 -0.866637850295E-01
 -0.866637850294E-01
 -0.866637850097E-01
 -0.866637850011E-01
 -0.866637849802E-01
 -0.866637850854E-01
 -0.866637850300E-01
 -0.866637850294E-01
 -0.866637850360E-01
 -0.866637850358E-01
 -0.866637850335E-01
 -0.866637850333E-01
 -0.866637850391E-01
 -0.866637850391E-01
 -0.866637850343E-01
 -0.866637850343E-01
  0.116357274787E+00
  0.116357274787E+00
  0.116357274796E+00
  0.116357274796E+00
  0.116357274786E+00
  0.116357274786E+00
  0.116357274788E+00
  0.116357274788E+00
  0.116357274791E+00
  0.116357274791E+00
  0.116357274789E+00
  0.116357274789E+00
  0.116357274789E+00
  0.116357274789E+00
  0.116357274791E+00
  0.116357274791E+00
  0.116357274788E+00
  0.116357274788E+00
  0.116357274786E+00
  0.116357274786E+00
  0.116357274796E+00
  0.116357274796E+00
  0.116357274787E+00
  0.116357274787E+00
 -0.866637850343E-01
 -0.866637850343E-01
 -0.866637850391E-01
 -0.866637850390E-01
 -0.866637850334E-01
 -0.866637850333E-01
 -0.866637850357E-01
 -0.866637850355E-01
 -0.866637850294E-01
 -0.866637850288E-01
 -0.866637850011E-01
 -0.866637851056E-01
 -0.866637849435E-01
 -0.866637849802E-01
 -0.866637850343E-01
 -0.866637850300E-01
 -0.866637850365E-01
 -0.866637850360E-01
 -0.866637850336E-01
 -0.866637850335E-01
 -0.866637850393E-01
 -0.866637850391E-01
 -0.866637850343E-01
 -0.866637850343E-01
  0.116357274787E+00
  0.116357274787E+00
  0.116357274796E+00
  0.116357274796E+00
  0.116357274786E+00
  0.116357274786E+00
  0.116357274788E+00
  0.116357274788E+00
  0.116357274791E+00
  0.116357274791E+00
  0.116357274789E+00
  0.116357274789E+00
  0.116357274789E+00
  0.116357274789E+00
  0.116357274791E+00
  0.116357274791E+00
  0.116357274788E+00
  0.116357274788E+00
  0.116357274786E+00
  0.116357274786E+00
  0.116357274796E+00
  0.116357274796E+00
  0.116357274787E+00
  0.116357274787E+00
 -0.866637850343E-01
 -0.866637850343E-01
 -0.866637850390E-01
 -0.866637850390E-01
 -0.866637850333E-01
 -0.866637850325E-01
 -0.866637850355E-01
 -0.866637850331E-01
 -0.866637850288E-01
 -0.866637850258E-01
 -0.866637851056E-01
 -0.866637851514E-01
 -0.866637852269E-01
 -0.866637849435E-01
 -0.866637850475E-01
 -0.866637850343E-01
 -0.866637850606E-01
 -0.866637850365E-01
 -0.866637850420E-01
 -0.866637850336E-01
 -0.866637850391E-01
 -0.866637850393E-01
 -0.866637850344E-01
 -0.866637850343E-01
  0.116357274787E+00
  0.116357274787E+00
  0.116357274796E+00
  0.116357274796E+00
  0.116357274786E+00
  0.116357274786E+00
  0.116357274788E+00
  0.116357274788E+00
  0.116357274791E+00
  0.116357274791E+00
  0.116357274789E+00
  0.116357274789E+00
  0.116357274789E+00
  0.116357274789E+00
  0.116357274791E+00
  0.116357274791E+00
  0.116357274788E+00
  0.116357274788E+00
  0.116357274786E+00
  0.116357274786E+00
  0.116357274796E+00
  0.116357274796E+00
  0.116357274787E+00
  0.116357274787E+00
 -0.866637850343E-01
 -0.866637850340E-01
 -0.866637850390E-01
 -0.866637850371E-01
 -0.866637850325E-01
 -0.866637850345E-01
 -0.866637850331E-01
 -0.866637850383E-01
 -0.866637850258E-01
 -0.866637849901E-01
 -0.866637851514E-01
 -0.866637847239E-01
 -0.866637870196E-01
 -0.866637852269E-01
 -0.866637853930E-01
 -0.866637850475E-01
 -0.866637848937E-01
 -0.866637850606E-01
 -0.866637849784E-01
 -0.866637850420E-01
 -0.866637850612E-01
 -0.866637850391E-01
 -0.866637850373E-01
 -0.866637850344E-01
  0.116357274787E+00
  0.116357274787E+00
  0.116357274796E+00
  0.116357274795E+00
  0.116357274786E+00
  0.116357274786E+00
  0.116357274788E+00
  0.116357274788E+00
  0.116357274791E+00
  0.116357274791E+00
  0.116357274789E+00
  0.116357274789E+00
  0.116357274789E+00
  0.116357274789E+00
  0.116357274791E+00
  0.116357274791E+00
  0.116357274788E+00
  0.116357274788E+00
  0.116357274786E+00
  0.116357274786E+00
  0.116357274796E+00
  0.116357274796E+00
  0.116357274788E+00
  0.116357274787E+00
 -0.866637850340E-01
 -0.866637850341E-01
 -0.866637850371E-01
 -0.866637850476E-01
 -0.866637850345E-01
 -0.866637849284E-01
 -0.866637850383E-01
 -0.866637847507E-01
 -0.866637849901E-01
 -0.866637850370E-01
 -0.866637847239E-01
 -0.866637852121E-01
 -0.866637722955E-01
 -0.866637870196E-01
 -0.866637827925E-01
 -0.866637853930E-01
 -0.866637887474E-01
 -0.866637848937E-01
 -0.866637864931E-01
 -0.866637849784E-01
 -0.866637848446E-01
 -0.866637850612E-01
 -0.866637850215E-01
 -0.866637850373E-01
  0.116357274787E+00
  0.116357274777E+00
  0.116357274795E+00
  0.116357274796E+00
  0.116357274786E+00
  0.116357274785E+00
  0.116357274788E+00
  0.116357274788E+00
  0.116357274791E+00
  0.116357274791E+00
  0.116357274789E+00
  0.116357274789E+00
  0.116357274789E+00
  0.116357274789E+00
  0.116357274791E+00
  0.116357274791E+00
  0.116357274788E+00
  0.116357274788E+00
  0.116357274786E+00
  0.116357274786E+00
  0.116357274799E+00
  0.116357274796E+00
  0.116357274785E+00
  0.116357274788E+00
 -0.866637850341E-01
 -0.866637850003E-01
 -0.866637850476E-01
 -0.866637847553E-01
 -0.866637849284E-01
 -0.866637861761E-01
 -0.866637847507E-01
 -0.866637878761E-01
 -0.866637850370E-01
 -0.866637807876E-01
 -0.866637852121E-01
 -0.866637642513E-01
 -0.866640586245E-01
 -0.866637722955E-01
 -0.866638458044E-01
 -0.866637827925E-01
 -0.866637380671E-01
 -0.866637887474E-01
 -0.866637649702E-01
 -0.866637864931E-01
 -0.866637889945E-01
 -0.866637848446E-01
 -0.866637854919E-01
 -0.866637850215E-01
  0.116357274777E+00
  0.116357274858E+00
  0.116357274796E+00
  0.116357274757E+00
  0.116357274785E+00
  0.116357274786E+00
  0.116357274788E+00
  0.116357274788E+00
  0.116357274791E+00
  0.116357274791E+00
  0.116357274789E+00
  0.116357274789E+00
  0.116357274789E+00
  0.116357274789E+00
  0.116357274791E+00
  0.116357274791E+00
  0.116357274788E+00
  0.116357274788E+00
  0.116357274790E+00
  0.116357274786E+00
  0.116357274773E+00
  0.116357274799E+00
  0.116357274913E+00
  0.116357274785E+00
 -0.866637850003E-01
 -0.866637853537E-01
 -0.866637847553E-01
 -0.866637884310E-01
 -0.866637861761E-01
 -0.866637631068E-01
 -0.866637878761E-01
 -0.866637334618E-01
 -0.866637807876E-01
 -0.866638366419E-01
 -0.866637642513E-01
 -0.866640259946E-01
 -0.866600152876E-01
 -0.866640586245E-01
 -0.866628296770E-01
 -0.866638458045E-01
 -0.866645127807E-01
 -0.866637380671E-01
 -0.866641242136E-01
 -0.866637649702E-01
 -0.866637312544E-01
 -0.866637889945E-01
 -0.866637790751E-01
 -0.866637854919E-01
  0.116357274858E+00
  0.116357273012E+00
  0.116357274757E+00
  0.116357275228E+00
  0.116357274786E+00
  0.116357274738E+00
  0.116357274788E+00
  0.116357274780E+00
  0.116357274791E+00
  0.116357274790E+00
  0.116357274789E+00
  0.116357274788E+00
  0.116357274789E+00
  0.116357274789E+00
  0.116357274791E+00
  0.116357274791E+00
  0.116357274787E+00
  0.116357274788E+00
  0.116357274767E+00
  0.116357274790E+00
  0.116357275338E+00
  0.116357274773E+00
  0.116357273369E+00
  0.116357274913E+00
 -0.866637853537E-01
 -0.866637782199E-01
 -0.866637884310E-01
 -0.866637280158E-01
 -0.866637631068E-01
 -0.866641145336E-01
 -0.866637334618E-01
 -0.866644948778E-01
 -0.866638366420E-01
 -0.866627923518E-01
 -0.866640259946E-01
 -0.866598717960E-01
 -0.867187770018E-01
 -0.866600152905E-01
 -0.866806669428E-01
 -0.866628297083E-01
 -0.866537915258E-01
 -0.866645127846E-01
 -0.866585911091E-01
 -0.866641242140E-01
 -0.866646034025E-01
 -0.866637312544E-01
 -0.866638909717E-01
 -0.866637790751E-01
  0.116357273012E+00
  0.116357299453E+00
  0.116357275228E+00
  0.116357266887E+00
  0.116357274738E+00
  0.116357275157E+00
  0.116357274780E+00
  0.116357274851E+00
  0.116357274790E+00
  0.116357274788E+00
  0.116357274788E+00
  0.116357274788E+00
  0.116357274789E+00
  0.116357274789E+00
  0.116357274797E+00
  0.116357274791E+00
  0.116357274901E+00
  0.116357274787E+00
  0.116357275355E+00
  0.116357274767E+00
  0.116357267589E+00
  0.116357275338E+00
  0.116357301703E+00
  0.116357273369E+00
 -0.866637782200E-01
 -0.866638862344E-01
 -0.866637280158E-01
 -0.866645877423E-01
 -0.866641145340E-01
 -0.866585522447E-01
 -0.866644948819E-01
 -0.866536828647E-01
 -0.866627923838E-01
 -0.866805517461E-01
 -0.866598717991E-01
 -0.867180750686E-01
 -0.859658467411E-01
 -0.867187769810E-01
 -0.863414339253E-01
 -0.866806729797E-01
 -0.867922315930E-01
 -0.866537924937E-01
 -0.867426810592E-01
 -0.866585911785E-01
 -0.866525484878E-01
 -0.866646034033E-01
 -0.866621432631E-01
 -0.866638909717E-01
  0.116357299453E+00
  0.116356858431E+00
  0.116357266887E+00
  0.116357387633E+00
  0.116357275157E+00
  0.116357267818E+00
  0.116357274851E+00
  0.116357272775E+00
  0.116357274788E+00
  0.116357274679E+00
  0.116357274788E+00
  0.116357274782E+00
  0.116357274794E+00
  0.116357274789E+00
  0.116357274762E+00
  0.116357274797E+00
  0.116357273158E+00
  0.116357274901E+00
  0.116357269125E+00
  0.116357275355E+00
  0.116357391983E+00
  0.116357267589E+00
  0.116356870594E+00
  0.116357301703E+00
 -0.866638862345E-01
 -0.866621207375E-01
 -0.866645877431E-01
 -0.866524811480E-01
 -0.866585523150E-01
 -0.867424774646E-01
 -0.866536838237E-01
 -0.867915716143E-01
 -0.866805577339E-01
 -0.863411598804E-01
 -0.867180750467E-01
 -0.859655720339E-01
 -0.944300269136E-01
 -0.859661117254E-01
 -0.927845825357E-01
 -0.863422121612E-01
 -0.855683953892E-01
 -0.867924505119E-01
 -0.855180242919E-01
 -0.867426922320E-01
 -0.868033135063E-01
 -0.866525486844E-01
 -0.866890008442E-01
 -0.866621432699E-01
  0.116356858419E+00
  0.116363625967E+00
  0.116357387632E+00
  0.116355554001E+00
  0.116357267818E+00
  0.116357346883E+00
  0.116357272775E+00
  0.116357310380E+00
  0.116357274679E+00
  0.116357276693E+00
  0.116357274782E+00
  0.116357274759E+00
  0.116357274887E+00
  0.116357274794E+00
  0.116357277443E+00
  0.116357274762E+00
  0.116357313199E+00
  0.116357273158E+00
  0.116357355049E+00
  0.116357269125E+00
  0.116355578387E+00
  0.116357391982E+00
  0.116363680852E+00
  0.116356870582E+00
 -0.866621207445E-01
 -0.866889045306E-01
 -0.866524813407E-01
 -0.868029538418E-01
 -0.867424885861E-01
 -0.855171512043E-01
 -0.867917911422E-01
 -0.855717499202E-01
 -0.863419368049E-01
 -0.927791901249E-01
 -0.859658365638E-01
 -0.944239845746E-01
 -0.102735297238E+00
 -0.945379353868E-01
 -0.101481141328E+00
 -0.928592344539E-01
 -0.985761379816E-01
 -0.855867811100E-01
 -0.965645758518E-01
 -0.855186962654E-01
 -0.856900835877E-01
 -0.868033651927E-01
 -0.862758355411E-01
 -0.866890024689E-01
  0.116363623141E+00
  0.116261118584E+00
  0.116355553796E+00
  0.116381668092E+00
  0.116357346883E+00
  0.116356530836E+00
  0.116357310380E+00
  0.116356528089E+00
  0.116357276693E+00
  0.116357197902E+00
  0.116357274759E+00
  0.116357271789E+00
  0.116357273232E+00
  0.116357274887E+00
  0.116357204491E+00
  0.116357277443E+00
  0.116356547105E+00
  0.116357313199E+00
  0.116356577204E+00
  0.116357355049E+00
  0.116381810417E+00
  0.116355578179E+00
  0.116261229809E+00
  0.116363678039E+00
 -0.866889061491E-01
 -0.862752666001E-01
 -0.868030058121E-01
 -0.856886401555E-01
 -0.855178247402E-01
 -0.965617080901E-01
 -0.855901184643E-01
 -0.985719113303E-01
 -0.928537641803E-01
 -0.101484813820E+00
 -0.945318444248E-01
 -0.102741751429E+00
 -0.110235378651E+00
 -0.102980735516E+00
 -0.108875448888E+00
 -0.101692931670E+00
 -0.106853100957E+00
 -0.987349040215E-01
 -0.103912567802E+00
 -0.966859113432E-01
 -0.101273413903E+00
 -0.856941903646E-01
 -0.902404052967E-01
 -0.862761503782E-01
  0.116260554389E+00
  0.117700104075E+00
  0.116381629912E+00
  0.116029050665E+00
  0.116356530798E+00
  0.116359216605E+00
  0.116356528063E+00
  0.116371340090E+00
  0.116357197901E+00
  0.116359575562E+00
  0.116357271789E+00
  0.116357415826E+00
  0.116357432339E+00
  0.116357273232E+00
  0.116359633126E+00
  0.116357204491E+00
  0.116371472024E+00
  0.116356547079E+00
  0.116359448211E+00
  0.116356577164E+00
  0.116029314600E+00
  0.116381772314E+00
  0.117702548856E+00
  0.116260663012E+00
 -0.862755829608E-01
 -0.902403276539E-01
 -0.856927400688E-01
 -0.101273627367E+00
 -0.966830617155E-01
 -0.103911928889E+00
 -0.987307882624E-01
 -0.106852081329E+00
 -0.101696727709E+00
 -0.108872349505E+00
 -0.102987224929E+00
 -0.110243412640E+00
 -0.873600397940E-01
 -0.110509373538E+00
 -0.102037320811E+00
 -0.109273812559E+00
 -0.113079855843E+00
 -0.107206269276E+00
 -0.112716824092E+00
 -0.104162206970E+00
 -0.107404696867E+00
 -0.101469872093E+00
 -0.104655967874E+00
 -0.903041831165E-01
  0.117596435400E+00
  0.987800315505E-01
  0.116023391854E+00
  0.120275570559E+00
  0.116359214723E+00
  0.116482640511E+00
  0.116371330524E+00
  0.116103298377E+00
  0.116359575310E+00
  0.116286045065E+00
  0.116357415825E+00
  0.116347418766E+00
  0.116347606568E+00
  0.116357432337E+00
  0.116286482161E+00
  0.116359632877E+00
  0.116103967430E+00
  0.116371462508E+00
  0.116483532216E+00
  0.116359446377E+00
  0.120276143100E+00
  0.116023652337E+00
  0.987806174909E-01
  0.117598869798E+00
 -0.903041167628E-01
 -0.104656679182E+00
 -0.101470120316E+00
 -0.107405140407E+00
 -0.104161584040E+00
 -0.112717762928E+00
 -0.107205271627E+00
 -0.113078820828E+00
 -0.109270794820E+00
 -0.102042286819E+00
 -0.110517553345E+00
 -0.873857190276E-01
 -0.552908454499E-01
 -0.867959194358E-01
 -0.616194055417E-01
 -0.101433960498E+00
 -0.748418155732E-01
 -0.112798471683E+00
 -0.821015428399E-01
 -0.113373277106E+00
 -0.116801936570E+00
 -0.107895714146E+00
 -0.111080261269E+00
 -0.105050813012E+00
  0.976783470822E-01
  0.781855777632E-01
  0.119871517749E+00
  0.855171055594E-01
  0.116482640435E+00
  0.112624149919E+00
  0.116100088040E+00
  0.120367907097E+00
  0.116285804044E+00
  0.118350683496E+00
  0.116347412288E+00
  0.116997190089E+00
  0.116999331055E+00
  0.116347600050E+00
  0.118353668813E+00
  0.116286240405E+00
  0.120370529682E+00
  0.116100752277E+00
  0.112626014102E+00
  0.116483531737E+00
  0.855159739319E-01
  0.119872121333E+00
  0.781807358021E-01
  0.976787417451E-01
 -0.105051616624E+00
 -0.111079324456E+00
 -0.107896181032E+00
 -0.116802500933E+00
 -0.113374208084E+00
 -0.821062687786E-01
 -0.112797464062E+00
 -0.748491901480E-01
 -0.101438858285E+00
 -0.616665305054E-01
 -0.868213990643E-01
 -0.552281950489E-01
 -0.221918381691E-01
 -0.570666429970E-01
 -0.294189177289E-01
 -0.628328343187E-01
 -0.332427891436E-01
 -0.751678730819E-01
 -0.383715933456E-01
 -0.815794306730E-01
 -0.450902235406E-01
 -0.117189788215E+00
 -0.977081443416E-01
 -0.112784643729E+00
  0.745706747007E-01
  0.673710794932E-01
  0.821197564230E-01
  0.650590705595E-01
  0.110252968662E+00
  0.684664569069E-01
  0.119500083153E+00
  0.720015697390E-01
  0.118144196599E+00
  0.738089709348E-01
  0.116969037120E+00
  0.750870945912E-01
  0.750994289911E-01
  0.116971192120E+00
  0.738168049381E-01
  0.118147249085E+00
  0.720057341422E-01
  0.119502873127E+00
  0.684671055201E-01
  0.110255052283E+00
  0.650582925670E-01
  0.821188984978E-01
  0.673697135725E-01
  0.745663895293E-01
 -0.112783271867E+00
 -0.977149556364E-01
 -0.117190418432E+00
 -0.450928168196E-01
 -0.815840232748E-01
 -0.383750779466E-01
 -0.751750189417E-01
 -0.332474158942E-01
 -0.628796632810E-01
 -0.293728880588E-01
 -0.570058059878E-01
 -0.222127089327E-01
 -0.569448428584E-01
 -0.584656268772E-01
 -0.469146723694E-01
 -0.451627450224E-01
 -0.410196836958E-01
 -0.395097313033E-01
 -0.404019512680E-01
 -0.373555893490E-01
 -0.450951260863E-01
 -0.812734596652E-01
 -0.100133831408E+00
  0.576346380881E-01
  0.575992871989E-01
  0.546805450685E-01
  0.545821491267E-01
  0.557684832404E-01
  0.553729789403E-01
  0.572121060139E-01
  0.567641374430E-01
  0.577394290336E-01
  0.570719029538E-01
  0.577588593335E-01
  0.577373853383E-01
  0.570495617009E-01
  0.577224974625E-01
  0.567481368462E-01
  0.572000380634E-01
  0.553618813895E-01
  0.557597375174E-01
  0.545758722780E-01
  0.546749966831E-01
  0.575967621202E-01
  0.576317683359E-01
 -0.100141037236E+00
 -0.812760765915E-01
 -0.450976482374E-01