# vtk DataFile Version 3.0
MachLine results file. Generated by MachLine, USU AeroLab (c) 2023.
ASCII
DATASET POLYDATA
POINTS                1127 float
  0.990009553985E+00  0.000000000000E+00 -0.437022220829E-03
  0.972162906713E+00  0.105263157890E+00  0.760276828702E-02
  0.990009553985E+00  0.105263157890E+00 -0.437022220829E-03
  0.972162906713E+00  0.000000000000E+00  0.760276828702E-02
  0.928846207613E+00  0.105263157890E+00  0.381304817472E-02
  0.928846207613E+00  0.000000000000E+00  0.381304817472E-02
  0.862313244013E+00  0.105263157890E+00 -0.200783189108E-02
  0.862313244013E+00  0.000000000000E+00 -0.200783189108E-02
  0.766842685753E+00  0.105263157890E+00 -0.103604234391E-01
  0.766842685753E+00  0.000000000000E+00 -0.103604234391E-01
  0.642418987473E+00  0.105263157890E+00 -0.212460865131E-01
  0.642418987473E+00  0.000000000000E+00 -0.212460865131E-01
  0.500000000000E+00  0.105263157890E+00 -0.337443317630E-01
  0.500000000000E+00  0.000000000000E+00 -0.337443317630E-01
  0.357581012527E+00  0.000000000000E+00 -0.212460865131E-01
  0.357581012527E+00  0.105263157890E+00 -0.212460865131E-01
  0.233157314247E+00  0.000000000000E+00 -0.103604234391E-01
  0.233157314247E+00  0.105263157890E+00 -0.103604234391E-01
  0.137686755987E+00  0.000000000000E+00 -0.200783189108E-02
  0.137686755987E+00  0.105263157890E+00 -0.200783189108E-02
  0.711537923865E-01  0.000000000000E+00  0.381304817472E-02
  0.711537923865E-01  0.105263157890E+00  0.381304817472E-02
  0.278370932905E-01  0.000000000000E+00  0.760276828702E-02
  0.278370932905E-01  0.105263157890E+00  0.760276828702E-02
  0.100000000000E-01  0.000000000000E+00  0.000000000000E+00
  0.100000000000E-01  0.105263157890E+00  0.000000000000E+00
  0.278370932905E-01  0.105263157890E+00 -0.760276828702E-02
  0.278370932905E-01  0.000000000000E+00 -0.760276828702E-02
  0.711537923865E-01  0.105263157890E+00 -0.381304817472E-02
  0.711537923865E-01  0.000000000000E+00 -0.381304817472E-02
  0.137686755987E+00  0.105263157890E+00  0.200783189108E-02
  0.137686755987E+00  0.000000000000E+00  0.200783189108E-02
  0.233157314247E+00  0.105263157890E+00  0.103604234391E-01
  0.233157314247E+00  0.000000000000E+00  0.103604234391E-01
  0.357581012527E+00  0.105263157890E+00  0.212460865131E-01
  0.357581012527E+00  0.000000000000E+00  0.212460865131E-01
  0.500000000000E+00  0.105263157890E+00  0.337443317630E-01
  0.500000000000E+00  0.000000000000E+00  0.337443317630E-01
  0.642418987473E+00  0.000000000000E+00  0.212460865131E-01
  0.642418987473E+00  0.105263157890E+00  0.212460865131E-01
  0.766842685753E+00  0.000000000000E+00  0.103604234391E-01
  0.766842685753E+00  0.105263157890E+00  0.103604234391E-01
  0.862313244013E+00  0.000000000000E+00  0.200783189108E-02
  0.862313244013E+00  0.105263157890E+00  0.200783189108E-02
  0.928846207613E+00  0.000000000000E+00 -0.381304817472E-02
  0.928846207613E+00  0.105263157890E+00 -0.381304817472E-02
  0.972162906713E+00  0.000000000000E+00 -0.760276828702E-02
  0.972162906713E+00  0.105263157890E+00 -0.760276828702E-02
  0.972162906713E+00  0.210526315790E+00  0.760276828702E-02
  0.990009553985E+00  0.210526315790E+00 -0.437022220829E-03
  0.928846207613E+00  0.210526315790E+00  0.381304817472E-02
  0.862313244013E+00  0.210526315790E+00 -0.200783189108E-02
  0.766842685753E+00  0.210526315790E+00 -0.103604234391E-01
  0.642418987473E+00  0.210526315790E+00 -0.212460865131E-01
  0.500000000000E+00  0.210526315790E+00 -0.337443317630E-01
  0.357581012527E+00  0.210526315790E+00 -0.212460865131E-01
  0.233157314247E+00  0.210526315790E+00 -0.103604234391E-01
  0.137686755987E+00  0.210526315790E+00 -0.200783189108E-02
  0.711537923865E-01  0.210526315790E+00  0.381304817472E-02
  0.278370932905E-01  0.210526315790E+00  0.760276828702E-02
  0.100000000000E-01  0.210526315790E+00  0.000000000000E+00
  0.278370932905E-01  0.210526315790E+00 -0.760276828702E-02
  0.711537923865E-01  0.210526315790E+00 -0.381304817472E-02
  0.137686755987E+00  0.210526315790E+00  0.200783189108E-02
  0.233157314247E+00  0.210526315790E+00  0.103604234391E-01
  0.357581012527E+00  0.210526315790E+00  0.212460865131E-01
  0.500000000000E+00  0.210526315790E+00  0.337443317630E-01
  0.642418987473E+00  0.210526315790E+00  0.212460865131E-01
  0.766842685753E+00  0.210526315790E+00  0.103604234391E-01
  0.862313244013E+00  0.210526315790E+00  0.200783189108E-02
  0.928846207613E+00  0.210526315790E+00 -0.381304817472E-02
  0.972162906713E+00  0.210526315790E+00 -0.760276828702E-02
  0.972162906713E+00  0.315789473680E+00  0.760276828702E-02
  0.990009553985E+00  0.315789473680E+00 -0.437022220829E-03
  0.928846207613E+00  0.315789473680E+00  0.381304817472E-02
  0.862313244013E+00  0.315789473680E+00 -0.200783189108E-02
  0.766842685753E+00  0.315789473680E+00 -0.103604234391E-01
  0.642418987473E+00  0.315789473680E+00 -0.212460865131E-01
  0.500000000000E+00  0.315789473680E+00 -0.337443317630E-01
  0.357581012527E+00  0.315789473680E+00 -0.212460865131E-01
  0.233157314247E+00  0.315789473680E+00 -0.103604234391E-01
  0.137686755987E+00  0.315789473680E+00 -0.200783189108E-02
  0.711537923865E-01  0.315789473680E+00  0.381304817472E-02
  0.278370932905E-01  0.315789473680E+00  0.760276828702E-02
  0.100000000000E-01  0.315789473680E+00  0.000000000000E+00
  0.278370932905E-01  0.315789473680E+00 -0.760276828702E-02
  0.711537923865E-01  0.315789473680E+00 -0.381304817472E-02
  0.137686755987E+00  0.315789473680E+00  0.200783189108E-02
  0.233157314247E+00  0.315789473680E+00  0.103604234391E-01
  0.357581012527E+00  0.315789473680E+00  0.212460865131E-01
  0.500000000000E+00  0.315789473680E+00  0.337443317630E-01
  0.642418987473E+00  0.315789473680E+00  0.212460865131E-01
  0.766842685753E+00  0.315789473680E+00  0.103604234391E-01
  0.862313244013E+00  0.315789473680E+00  0.200783189108E-02
  0.928846207613E+00  0.315789473680E+00 -0.381304817472E-02
  0.972162906713E+00  0.315789473680E+00 -0.760276828702E-02
  0.972162906713E+00  0.421052631580E+00  0.760276828702E-02
  0.990009553985E+00  0.421052631580E+00 -0.437022220829E-03
  0.928846207613E+00  0.421052631580E+00  0.381304817472E-02
  0.862313244013E+00  0.421052631580E+00 -0.200783189108E-02
  0.766842685753E+00  0.421052631580E+00 -0.103604234391E-01
  0.642418987473E+00  0.421052631580E+00 -0.212460865131E-01
  0.500000000000E+00  0.421052631580E+00 -0.337443317630E-01
  0.357581012527E+00  0.421052631580E+00 -0.212460865131E-01
  0.233157314247E+00  0.421052631580E+00 -0.103604234391E-01
  0.137686755987E+00  0.421052631580E+00 -0.200783189108E-02
  0.711537923865E-01  0.421052631580E+00  0.381304817472E-02
  0.278370932905E-01  0.421052631580E+00  0.760276828702E-02
  0.100000000000E-01  0.421052631580E+00  0.000000000000E+00
  0.278370932905E-01  0.421052631580E+00 -0.760276828702E-02
  0.711537923865E-01  0.421052631580E+00 -0.381304817472E-02
  0.137686755987E+00  0.421052631580E+00  0.200783189108E-02
  0.233157314247E+00  0.421052631580E+00  0.103604234391E-01
  0.357581012527E+00  0.421052631580E+00  0.212460865131E-01
  0.500000000000E+00  0.421052631580E+00  0.337443317630E-01
  0.642418987473E+00  0.421052631580E+00  0.212460865131E-01
  0.766842685753E+00  0.421052631580E+00  0.103604234391E-01
  0.862313244013E+00  0.421052631580E+00  0.200783189108E-02
  0.928846207613E+00  0.421052631580E+00 -0.381304817472E-02
  0.972162906713E+00  0.421052631580E+00 -0.760276828702E-02
  0.972162906713E+00  0.526315789470E+00  0.760276828702E-02
  0.990009553985E+00  0.526315789470E+00 -0.437022220829E-03
  0.928846207613E+00  0.526315789470E+00  0.381304817472E-02
  0.862313244013E+00  0.526315789470E+00 -0.200783189108E-02
  0.766842685753E+00  0.526315789470E+00 -0.103604234391E-01
  0.642418987473E+00  0.526315789470E+00 -0.212460865131E-01
  0.500000000000E+00  0.526315789470E+00 -0.337443317630E-01
  0.357581012527E+00  0.526315789470E+00 -0.212460865131E-01
  0.233157314247E+00  0.526315789470E+00 -0.103604234391E-01
  0.137686755987E+00  0.526315789470E+00 -0.200783189108E-02
  0.711537923865E-01  0.526315789470E+00  0.381304817472E-02
  0.278370932905E-01  0.526315789470E+00  0.760276828702E-02
  0.100000000000E-01  0.526315789470E+00  0.000000000000E+00
  0.278370932905E-01  0.526315789470E+00 -0.760276828702E-02
  0.711537923865E-01  0.526315789470E+00 -0.381304817472E-02
  0.137686755987E+00  0.526315789470E+00  0.200783189108E-02
  0.233157314247E+00  0.526315789470E+00  0.103604234391E-01
  0.357581012527E+00  0.526315789470E+00  0.212460865131E-01
  0.500000000000E+00  0.526315789470E+00  0.337443317630E-01
  0.642418987473E+00  0.526315789470E+00  0.212460865131E-01
  0.766842685753E+00  0.526315789470E+00  0.103604234391E-01
  0.862313244013E+00  0.526315789470E+00  0.200783189108E-02
  0.928846207613E+00  0.526315789470E+00 -0.381304817472E-02
  0.972162906713E+00  0.526315789470E+00 -0.760276828702E-02
  0.972162906713E+00  0.631578947370E+00  0.760276828702E-02
  0.990009553985E+00  0.631578947370E+00 -0.437022220829E-03
  0.928846207613E+00  0.631578947370E+00  0.381304817472E-02
  0.862313244013E+00  0.631578947370E+00 -0.200783189108E-02
  0.766842685753E+00  0.631578947370E+00 -0.103604234391E-01
  0.642418987473E+00  0.631578947370E+00 -0.212460865131E-01
  0.500000000000E+00  0.631578947370E+00 -0.337443317630E-01
  0.357581012527E+00  0.631578947370E+00 -0.212460865131E-01
  0.233157314247E+00  0.631578947370E+00 -0.103604234391E-01
  0.137686755987E+00  0.631578947370E+00 -0.200783189108E-02
  0.711537923865E-01  0.631578947370E+00  0.381304817472E-02
  0.278370932905E-01  0.631578947370E+00  0.760276828702E-02
  0.100000000000E-01  0.631578947370E+00  0.000000000000E+00
  0.278370932905E-01  0.631578947370E+00 -0.760276828702E-02
  0.711537923865E-01  0.631578947370E+00 -0.381304817472E-02
  0.137686755987E+00  0.631578947370E+00  0.200783189108E-02
  0.233157314247E+00  0.631578947370E+00  0.103604234391E-01
[...]
POINT_DATA                1127
SCALARS BC_type int 1
LOOKUP_TABLE default
           7
           7
           7
           7
           7
           7
           7
           7
           7
           7
           7
           7
           7
           7
           7
           7
           7
           7
           7
           7
           7
           7
           7
           7
           7
           7
           7
           7
           7
           7
           7
           7
           7
           7
           7
           7
           7
           7
           7
           7
           7
           7
           7
           7
           7
           7
           7
           7
           7
           7
           7
           7
           7
           7
           7
           7
           7
           7
           7
           7
           7
           7
           7
           7
           7
           7
           7
           7
           7
           7
           7
           7
           7
           7
           7
           7
           7
           7
           7
           7
           7
           7
           7
           7
           7
           7
           7
           7
           7
           7
           7
           7
           7
           7
           7
           7
           7
           7
           7
           7
           7
           7
           7
           7
           7
           7
           7
           7
           7
           7
           7
           7
           7
           7
           7
           7
           7
           7
           7
           7
           7
           7
           7
           7
           7
           7
           7
           7
           7
           7
           7
           7
           7
           7
           7
           7
           7
           7
           7
           7
           7
           7
           7
           7
           7
           7
           7
           7
           7
           7
           7
           7
           7
           7
           7
           7
           7
           7
           7
           7
           7
           7
           7
           7
           7
           7
           7
           7
           7
           7
           7
           7
           7
           7
           7
           7
           7
           7
           7
           7
           7
           7
           7
           7
           7
           7
           7
           7
           7
           7
           7
           7
           7
           7
           7
           7
           7
           7
           7
           7
           7
           7
           7
           7
           7
           7
           7
           7
           7
           7
           7
           7
           7
           7
           7
           7
           7
           7
           7
           7
           7
           7
           7
           7
           7
           7
           7
           7
           7
           7
           7
           7
           7
           7
           7
           7
           7
           7
           7
           7
           7
           7
           7
           7
           7
           7
           7
           7
           7
           7
           7
           7
           7
           7
           7
           7
           7
           7
           7
           7
           7
           7
           7
           7
           7
           7
           7
           7
           7
           7
           7
           7
           7
           7
           7
           7
           7
           7
           7
           7
           7
           7
           7
           7
           7
           7
           7
           7
           7
           7
           7
           7
           7
           7
           7
           7
           7
           7
           7
           7
           7
           7
           7
           7
           7
           7
           7
           7
           7
           7
           7
           7
           7
           7
           7
           7
           7
           7
           7
           7
           7
           7
           7
           7
           7
           7
           7
           7
           7
           7
           7
           7
           7
           7
           7
           7
           7
           7
           7
           7
           7
           7
           7
           7
           7
           7
           7
           7
           7
           7
           7
           7
           7
           7
           7
           7
           7
           7
           7
           7
           7
           7
           7
           7
           7
           7
           7
           7
           7
           7
           7
           7
           7
           7
           7
           7
           7
           7
           7
           7
           7
           7
           7
           7
           7
           7
           7
           7
           7
           7
           7
           7
           7
           7
           7
           7
           7
           7
           7
           7
           7
           7
           7
           7
           7
           7
           7
           7
           7
           7
           7
           7
           7
           7
           7
           7
           7
           7
           7
           7
           7
           7
           7
           7
           7
           7
           7
           7
           7
           7
           7
           7
           7
           7
           7
           7
           7
           7
           7
           7
           7
           7
           7
           7
           7
           7
           7
           7
           7
           7
           7
           7
           7
           7
           7
           7
           7
           7
           7
           7
           7
           7
           7
           7
           7
           7
           7
           7
           7
           7
           7
           7
           7
           7
           7
           7
           7
           7
           7
           7
           7
           7
           7
           7
           7
           7
           7
           7
           7
           7
           7
           7
           7
           7
           7
           7
           7
           7
           7
           7
           7
           7
           7
           7
           7
           7
           7
           7
           7
           7
           7
           7
           7
           7
           7
           7
           7
           7
           7
           7
           7
           7
           7
           7
           7
           7
           7
           7
           7
           7
           7
           7
           7
           7
           7
           7
           7
           7
           7
           7
           7
           7
           7
           7
           7
           7
           7
           7
           7
           7
           7
           7
           7
           7
           7
           7
           7
           7
           7
           7
           7
           7
           7
           7
           7
           7
           7
           7
           7
           7
           7
           7
           7
           7
           7
           7
           7
           7
           7
           7
           7
           7
           7
           7
           7
           7
           7
           7
           7
           7
           7
           7
           7
           7
           7
           7
           7
           7
           7
           7
           7
           7
           7
           7
           7
           7
           7
           7
           7
           7
           7
           7
           7
           7
           7
           7
           7
           7
           7
           7
           7
           7
           7
           7
           7
           7
           7
           7
           7
           7
           7
           7
           7
           7
           7
           7
           7
           7
           7
           7
           7
           7
           7
           7
           7
           7
           7
           7
           7
           7
           7
           7
           7
           7
           7
           7
           7
           7
           7
           7
           7
           7
           7
           7
           7
           7
           7
           7
           7
           7
           7
           7
           7
           7
           7
           7
           7
           7
           7
           7
           7
           7
           7
           7
           7
           7
           7
           7
           7
           7
           7
           7
           7
           7
           7
           7
           7
           7
           7
           7
           7
           7
           7
           7
           7
           7
           7
           7
           7
           7
           7
           7
           7
           7
           7
           7
           7
           7
           7
           7
           7
           7
           7
           7
           7
           7
           7
           7
           7
           7
           7
           7
           7
           7
           7
           7
           7
           7
           7
           7
           7
           7
           7
           7
           7
           7
           7
           7
           7
           7
           7
           7
           7
           7
           7
           7
           7
           7
           7
           7
           7
           7
           7
           7
           7
           7
           7
           7
           7
           7
           7
           7
           7
           7
           7
           7
           7
           7
           7
           7
           7
           7
           7
           7
           7
           7
           7
           7
           7
           7
           7
           7
           7
           7
           7
           7
           7
           7
           7
           7
           7
           7
           7
           7
           7
           7
           7
           7
           7
           7
           7
           7
           7
           7
           7
           7
           7
           7
           7
           7
           7
           7
           7
           7
           7
           7
           7
           7
           7
           7
           7
           7
           7
           7
           7
           7
           7
           7
           7
           7
           7
           7
           7
           7
           7
           7
           7
           7
           7
           7
           7
           7
           7
           7
           7
           7
           7
           7
           7
           7
           7
           7
           7
           7
           7
           7
           7
           7
           7
           7
           7
           7
           7
           7
           7
           7
           7
           7
           7
           7
           7
           7
           7
           7
           7
           7
           7
           7
           7
           7
           7
           7
           7
           7
           7
           7
           7
           7
           7
           7
           7
           7
           7
           7
           7
           7
           7
           7
           7
           7
           7
           7
           7
           7
           7
           7
           7
           7
           7
           7
           7
           7
           7
           7
           7
           7
           7
           7
           7
           7
           7
           7
           7
           7
           7
           7
           7
           7
           7
           7
           7
           7
           7
           7
           7
           7
           7
           7
           7
           7
           7
           7
           7
           7
           7
           7
           7
           7
           7
           7
           7
           7
           7
           7
           7
           7
           7
           7
           7
           7
           7
           7
           7
           7
           7
           7
           7
           7
           7
           7
           7
           7
           7
           7
           7
           7
           7
           7
           7
           7
           7
           7
           7
           7
           7
           7
           7
           7
           7
           7
           7
           7
           7
           7
           7
           7
           7
           7
           7
           7
           7
           7
           7
           7
           7
           7
           7
           7
           7
           7
           7
           7
           7
           7
           7
           7
           7
           7
           7
           7
           7
           7
           7
           7
           7
           7
           7
           7
           7
           7
           7
           7
           7
           7
           7
           7
           7
           7
           7
           7
           7
           7
           7
           7
           7
           7
           7
           7
           7
           7
           7
           7
           7
           7
           7
           7
           7
           7
           7
           7
           7
           7
           7
           7
           7
           7
           7
           7
           7
           7
           7
           7
           7
           7
           7
           7
           7
           7
           7
           7
           7
           7
           7
           7
           7
           7
           7
           7
           7
           7
           7
           7
           7
           7
           7
           7
           7
           7
           7
           7
           7
           7
           7
           7
           7
           7
           7
           7
           7
           7
           7
           7
           7
           7
           7
           7
           7
SCALARS residual float 1
LOOKUP_TABLE default
  0.284427239106E-05
  0.316910579172E-04
  0.537978689064E-04
  0.129513806016E-04
  0.676929806442E-05
 -0.295557242294E-04
 -0.165581650496E-04
 -0.339699579123E-04
 -0.162589646389E-04
 -0.339867799528E-04
 -0.928033789327E-05
  0.224084851669E-04
 -0.517556914803E-05
 -0.519772114815E-05
 -0.151880125534E-04
  0.169545756681E-04
 -0.330100098922E-05
  0.869417404104E-05
  0.493443070193E-05
 -0.227544755562E-04
 -0.192008590117E-03
  0.120593707413E-03
  0.148789166654E-03
 -0.897737661618E-04
 -0.519929987642E-04
 -0.208415235319E-04
  0.230697078777E-04
 -0.308759199845E-04
  0.117277982453E-04
  0.319871443577E-05
 -0.177080210072E-04
 -0.325824634917E-05
  0.165397988194E-06
 -0.898993675280E-05
 -0.601715981774E-05
 -0.102171891152E-04
 -0.689702996892E-05
 -0.512351546833E-05
 -0.533011499970E-05
  0.250327172893E-04
  0.328437698336E-04
 -0.257162098216E-05
 -0.792944865469E-05
 -0.171802435833E-06
  0.193050388453E-05
 -0.344500190419E-04
  0.612461870664E-05
 -0.376820941217E-05
  0.172862586665E-04
  0.275210639811E-05
  0.261726094331E-05
 -0.188117050159E-04
 -0.155530251263E-04
 -0.125061470438E-01
  0.106861414909E-01
  0.122084429691E-01
 -0.659625758378E-02
 -0.839531864278E-02
  0.202285334947E-02
  0.286181885715E-02
 -0.651069717300E-04
 -0.177349261368E-03
  0.116428965458E-04
  0.141767461913E-04
 -0.767240321153E-05
 -0.297503150104E-05
  0.192239109117E-04
  0.543977521505E-05
  0.214084163577E-04
  0.369310763677E-04
  0.513158097366E-04
  0.604174569029E-04
 -0.705808405987E-05
 -0.299637529289E-05
 -0.332467926512E-05
 -0.147714679433E-05
 -0.222550478433E-04
 -0.135630460085E-05
 -0.153027232191E-04
 -0.457341125005E-04
 -0.288090909450E-05
  0.112217506842E-06
 -0.630635911603E-05
 -0.157529276745E-05
 -0.402257503374E-05
  0.112521123279E-04
  0.622500171075E-04
  0.647289965749E-04
 -0.177604062268E-05
 -0.131135664283E-05
 -0.124050526240E-05
 -0.645331891147E-06
  0.288434768125E-05
  0.136176755985E-04
  0.405470494099E-04
  0.926414086966E-05
 -0.873598988815E-06
 -0.135512838728E-07
  0.735412248787E-05
  0.192505090384E-04
 -0.157997015080E-04
 -0.102568072424E-04
  0.329262411883E-04
 -0.128452822973E-04
  0.138863452659E-05
  0.116274142781E-05
  0.850384725182E-05
  0.557711889992E-05
  0.114733978913E-04
 -0.282226738513E-05
  0.874303061582E-05
  0.324383032113E-05
 -0.290335887123E-04
 -0.345839575311E-05
 -0.211312374216E-04
  0.168412985414E-04
  0.550230325114E-05
  0.142897935439E-04
  0.128454815193E-04
 -0.200246134926E-04
 -0.577410392483E-04
 -0.137874601491E-05
 -0.133507693512E-05
  0.216253782725E-05
  0.533673064740E-06
 -0.314567750545E-04
  0.254995857242E-04
 -0.149377443115E-05
  0.147251655881E-04
  0.863483660198E-04
 -0.171053607028E-03
 -0.230553009040E-05
 -0.267687949884E-05
  0.164660752944E-05
  0.605533093034E-05
  0.633986157440E-04
 -0.699973575906E-04
  0.464209241974E-04
  0.484305100432E-04
  0.291240992404E-03
 -0.301025767552E-03
  0.225234305495E-05
 -0.255414017558E-05
 -0.420073162932E-05
  0.105512185115E-04
 -0.928081433161E-04
  0.107085709645E-03
 -0.116878347062E-04
 -0.441763271708E-05
  0.828121711660E-03
 -0.894840126748E-03
  0.231762567804E-05
 -0.659746029152E-05
 -0.181687736358E-04
  0.227513451341E-04
  0.381116461553E-04
 -0.245920411944E-04
 -0.264871757214E-04
 -0.192317175680E-04
  0.128690687012E-02
 -0.128347693067E-02
  0.707383899778E-05
 -0.830108386374E-05
 -0.645515885037E-04
  0.708776018147E-04
  0.223373104052E-03
 -0.232858766807E-03
  0.989260343642E-06
  0.181986799586E-05
 -0.599199944492E-03
  0.548741919751E-03
 -0.188349589243E-04
  0.145965407709E-04
 -0.205612483245E-03
  0.212049821149E-03
 -0.732483625256E-03
  0.732591398451E-03
  0.273811003060E-05
  0.681251044066E-05
 -0.117101069379E-02
  0.116587675539E-02
  0.946995005213E-05
 -0.122796361409E-04
  0.118038738888E-04
 -0.122735492927E-04
 -0.420239056669E-03
  0.426332477849E-03
  0.102360948812E-02
 -0.102179783498E-02
  0.408484768222E-05
 -0.876825875240E-07
 -0.645803996215E-03
  0.749059919956E-03
 -0.113817171544E-04
  0.577638664312E-05
  0.221791914565E-03
 -0.215740475904E-03
 -0.197713479133E-02
  0.197668513080E-02
 -0.491717509932E-05
  0.121624714966E-05
 -0.152760761709E-03
  0.176858185738E-03
 -0.115403985081E-04
  0.813965516100E-06
 -0.194740711398E-03
  0.203756761806E-03
  0.219029033036E-03
 -0.200198752889E-03
  0.221026054965E-03
 -0.221171553475E-03
 -0.248488328424E-04
 -0.125762130453E-04
 -0.259889100874E-04
 -0.289306961937E-04
 -0.326514143869E-04
 -0.138749750036E-04
 -0.153038639970E-04
  0.229838671961E-05
  0.132038893915E-04
 -0.693938091807E-04
 -0.243960044392E-04
 -0.105625647842E-04
 -0.119139947574E-05
 -0.135354258542E-04
 -0.254367620518E-04
  0.344466833738E-03
 -0.339338224058E-03
  0.158527274775E-02
 -0.158411996910E-02
  0.303552813473E-04
 -0.194894210225E-04
 -0.127611037510E-04
 -0.427568201757E-04
 -0.758868191308E-05
  0.576952106768E-05
  0.282607443475E-04
  0.228783834234E-04
  0.160774711795E-03
 -0.126283204239E-03
 -0.181087223712E-02
  0.181248113252E-02
 -0.600800550441E-04
  0.550239254798E-04
 -0.364277048581E-05
  0.577638523788E-04
  0.647801366815E-05
  0.679175515306E-05
  0.278575050591E-04