# vtk DataFile Version 3.0
MachLine results file. Generated by MachLine, USU AeroLab (c) 2022.
ASCII
DATASET POLYDATA
POINTS                1127 float
  0.999999041957E+00  0.000000000000E+00 -0.417491494650E-07
  0.973034383663E+00  0.105263157890E+00 -0.235825883963E-02
  0.999999119618E+00  0.105263157890E+00 -0.383648804671E-07
  0.973034382832E+00  0.000000000000E+00 -0.235824933777E-02
  0.929717675664E+00  0.105263157890E+00 -0.614787723533E-02
  0.929717673943E+00  0.000000000000E+00 -0.614785756087E-02
  0.863184699151E+00  0.105263157890E+00 -0.119686097007E-01
  0.863184696324E+00  0.000000000000E+00 -0.119685773901E-01
  0.767714125425E+00  0.105263157890E+00 -0.203210244768E-01
  0.767714122072E+00  0.000000000000E+00 -0.203209861486E-01
  0.643290413741E+00  0.105263157890E+00 -0.312065343397E-01
  0.643290411360E+00  0.000000000000E+00 -0.312065071268E-01
  0.500000000000E+00  0.105263157890E+00 -0.437427648440E-01
  0.500000000000E+00  0.000000000000E+00 -0.437429617072E-01
  0.356709588640E+00  0.000000000000E+00 -0.312065071268E-01
  0.356709586259E+00  0.105263157890E+00 -0.312065343397E-01
  0.232285877928E+00  0.000000000000E+00 -0.203209861486E-01
  0.232285874575E+00  0.105263157890E+00 -0.203210244768E-01
  0.136815303676E+00  0.000000000000E+00 -0.119685773901E-01
  0.136815300849E+00  0.105263157890E+00 -0.119686097007E-01
  0.702823260562E-01  0.000000000000E+00 -0.614785756087E-02
  0.702823243349E-01  0.105263157890E+00 -0.614787723533E-02
  0.269656171711E-01  0.000000000000E+00 -0.235824933777E-02
  0.269656163398E-01  0.105263157890E+00 -0.235825883963E-02
  0.961695078561E-06  0.000000000000E+00  0.000000000000E+00
  0.883738164913E-06  0.105263157890E+00  0.000000000000E+00
  0.269656163398E-01  0.105263157890E+00  0.235825883963E-02
  0.269656171711E-01  0.000000000000E+00  0.235824933777E-02
  0.702823243349E-01  0.105263157890E+00  0.614787723533E-02
  0.702823260562E-01  0.000000000000E+00  0.614785756087E-02
  0.136815300849E+00  0.105263157890E+00  0.119686097007E-01
  0.136815303676E+00  0.000000000000E+00  0.119685773901E-01
  0.232285874575E+00  0.105263157890E+00  0.203210244768E-01
  0.232285877928E+00  0.000000000000E+00  0.203209861486E-01
  0.356709586259E+00  0.105263157890E+00  0.312065343397E-01
  0.356709588640E+00  0.000000000000E+00  0.312065071268E-01
  0.500000000000E+00  0.105263157890E+00  0.437427648440E-01
  0.500000000000E+00  0.000000000000E+00  0.437429617072E-01
  0.643290411360E+00  0.000000000000E+00  0.312065071268E-01
  0.643290413741E+00  0.105263157890E+00  0.312065343397E-01
  0.767714122072E+00  0.000000000000E+00  0.203209861486E-01
  0.767714125425E+00  0.105263157890E+00  0.203210244768E-01
  0.863184696324E+00  0.000000000000E+00  0.119685773901E-01
  0.863184699151E+00  0.105263157890E+00  0.119686097007E-01
  0.929717673943E+00  0.000000000000E+00  0.614785756087E-02
  0.929717675664E+00  0.105263157890E+00  0.614787723533E-02
  0.973034382832E+00  0.000000000000E+00  0.235824933777E-02
  0.973034383663E+00  0.105263157890E+00  0.235825883963E-02
  0.973034383663E+00  0.210526315790E+00 -0.235825883963E-02
  0.999999119618E+00  0.210526315790E+00 -0.383648804656E-07
  0.929717675664E+00  0.210526315790E+00 -0.614787723533E-02
  0.863184699151E+00  0.210526315790E+00 -0.119686097007E-01
  0.767714125425E+00  0.210526315790E+00 -0.203210244768E-01
  0.643290413741E+00  0.210526315790E+00 -0.312065343397E-01
  0.500000000000E+00  0.210526315790E+00 -0.437427648440E-01
  0.356709586259E+00  0.210526315790E+00 -0.312065343397E-01
  0.232285874575E+00  0.210526315790E+00 -0.203210244768E-01
  0.136815300849E+00  0.210526315790E+00 -0.119686097007E-01
  0.702823243349E-01  0.210526315790E+00 -0.614787723533E-02
  0.269656163398E-01  0.210526315790E+00 -0.235825883963E-02
  0.883738164878E-06  0.210526315790E+00  0.000000000000E+00
  0.269656163398E-01  0.210526315790E+00  0.235825883963E-02
  0.702823243349E-01  0.210526315790E+00  0.614787723533E-02
  0.136815300849E+00  0.210526315790E+00  0.119686097007E-01
  0.232285874575E+00  0.210526315790E+00  0.203210244768E-01
  0.356709586259E+00  0.210526315790E+00  0.312065343397E-01
  0.500000000000E+00  0.210526315790E+00  0.437427648440E-01
  0.643290413741E+00  0.210526315790E+00  0.312065343397E-01
  0.767714125425E+00  0.210526315790E+00  0.203210244768E-01
  0.863184699151E+00  0.210526315790E+00  0.119686097007E-01
  0.929717675664E+00  0.210526315790E+00  0.614787723533E-02
  0.973034383663E+00  0.210526315790E+00  0.235825883963E-02
  0.973034383663E+00  0.315789473680E+00 -0.235825883963E-02
  0.999999119618E+00  0.315789473680E+00 -0.383648804671E-07
  0.929717675664E+00  0.315789473680E+00 -0.614787723533E-02
  0.863184699151E+00  0.315789473680E+00 -0.119686097007E-01
  0.767714125425E+00  0.315789473680E+00 -0.203210244768E-01
  0.643290413741E+00  0.315789473680E+00 -0.312065343397E-01
  0.500000000000E+00  0.315789473680E+00 -0.437427648440E-01
  0.356709586259E+00  0.315789473680E+00 -0.312065343397E-01
  0.232285874575E+00  0.315789473680E+00 -0.203210244768E-01
  0.136815300849E+00  0.315789473680E+00 -0.119686097007E-01
  0.702823243349E-01  0.315789473680E+00 -0.614787723533E-02
  0.269656163398E-01  0.315789473680E+00 -0.235825883963E-02
  0.883738164913E-06  0.315789473680E+00  0.000000000000E+00
  0.269656163398E-01  0.315789473680E+00  0.235825883963E-02
  0.702823243349E-01  0.315789473680E+00  0.614787723533E-02
  0.136815300849E+00  0.315789473680E+00  0.119686097007E-01
  0.232285874575E+00  0.315789473680E+00  0.203210244768E-01
  0.356709586259E+00  0.315789473680E+00  0.312065343397E-01
  0.500000000000E+00  0.315789473680E+00  0.437427648440E-01
  0.643290413741E+00  0.315789473680E+00  0.312065343397E-01
  0.767714125425E+00  0.315789473680E+00  0.203210244768E-01
  0.863184699151E+00  0.315789473680E+00  0.119686097007E-01
  0.929717675664E+00  0.315789473680E+00  0.614787723533E-02
  0.973034383663E+00  0.315789473680E+00  0.235825883963E-02
  0.973034383663E+00  0.421052631580E+00 -0.235825883963E-02
  0.999999119618E+00  0.421052631580E+00 -0.383648804656E-07
  0.929717675664E+00  0.421052631580E+00 -0.614787723533E-02
  0.863184699151E+00  0.421052631580E+00 -0.119686097007E-01
  0.767714125425E+00  0.421052631580E+00 -0.203210244768E-01
  0.643290413741E+00  0.421052631580E+00 -0.312065343397E-01
  0.500000000000E+00  0.421052631580E+00 -0.437427648440E-01
  0.356709586259E+00  0.421052631580E+00 -0.312065343397E-01
  0.232285874575E+00  0.421052631580E+00 -0.203210244768E-01
  0.136815300849E+00  0.421052631580E+00 -0.119686097007E-01
  0.702823243349E-01  0.421052631580E+00 -0.614787723533E-02
  0.269656163398E-01  0.421052631580E+00 -0.235825883963E-02
  0.883738164878E-06  0.421052631580E+00  0.187623218593E-21
  0.269656163398E-01  0.421052631580E+00  0.235825883963E-02
  0.702823243349E-01  0.421052631580E+00  0.614787723533E-02
  0.136815300849E+00  0.421052631580E+00  0.119686097007E-01
  0.232285874575E+00  0.421052631580E+00  0.203210244768E-01
  0.356709586259E+00  0.421052631580E+00  0.312065343397E-01
  0.500000000000E+00  0.421052631580E+00  0.437427648440E-01
  0.643290413741E+00  0.421052631580E+00  0.312065343397E-01
  0.767714125425E+00  0.421052631580E+00  0.203210244768E-01
  0.863184699151E+00  0.421052631580E+00  0.119686097007E-01
  0.929717675664E+00  0.421052631580E+00  0.614787723533E-02
  0.973034383663E+00  0.421052631580E+00  0.235825883963E-02
  0.973034383663E+00  0.526315789470E+00 -0.235825883963E-02
  0.999999119618E+00  0.526315789470E+00 -0.383648804671E-07
  0.929717675664E+00  0.526315789470E+00 -0.614787723533E-02
  0.863184699151E+00  0.526315789470E+00 -0.119686097007E-01
  0.767714125425E+00  0.526315789470E+00 -0.203210244768E-01
  0.643290413741E+00  0.526315789470E+00 -0.312065343397E-01
  0.500000000000E+00  0.526315789470E+00 -0.437427648440E-01
  0.356709586259E+00  0.526315789470E+00 -0.312065343397E-01
  0.232285874575E+00  0.526315789470E+00 -0.203210244768E-01
  0.136815300849E+00  0.526315789470E+00 -0.119686097007E-01
  0.702823243349E-01  0.526315789470E+00 -0.614787723533E-02
  0.269656163398E-01  0.526315789470E+00 -0.235825883963E-02
  0.883738164913E-06  0.526315789470E+00  0.187623218601E-21
  0.269656163398E-01  0.526315789470E+00  0.235825883963E-02
  0.702823243349E-01  0.526315789470E+00  0.614787723533E-02
  0.136815300849E+00  0.526315789470E+00  0.119686097007E-01
  0.232285874575E+00  0.526315789470E+00  0.203210244768E-01
  0.356709586259E+00  0.526315789470E+00  0.312065343397E-01
  0.500000000000E+00  0.526315789470E+00  0.437427648440E-01
  0.643290413741E+00  0.526315789470E+00  0.312065343397E-01
  0.767714125425E+00  0.526315789470E+00  0.203210244768E-01
  0.863184699151E+00  0.526315789470E+00  0.119686097007E-01
  0.929717675664E+00  0.526315789470E+00  0.614787723533E-02
  0.973034383663E+00  0.526315789470E+00  0.235825883963E-02
  0.973034383663E+00  0.631578947370E+00 -0.235825883963E-02
  0.999999119618E+00  0.631578947370E+00 -0.383648804656E-07
  0.929717675664E+00  0.631578947370E+00 -0.614787723533E-02
  0.863184699151E+00  0.631578947370E+00 -0.119686097007E-01
  0.767714125425E+00  0.631578947370E+00 -0.203210244768E-01
  0.643290413741E+00  0.631578947370E+00 -0.312065343397E-01
  0.500000000000E+00  0.631578947370E+00 -0.437427648440E-01
  0.356709586259E+00  0.631578947370E+00 -0.312065343397E-01
  0.232285874575E+00  0.631578947370E+00 -0.203210244768E-01
  0.136815300849E+00  0.631578947370E+00 -0.119686097007E-01
  0.702823243349E-01  0.631578947370E+00 -0.614787723533E-02
  0.269656163398E-01  0.631578947370E+00 -0.235825883963E-02
  0.883738164878E-06  0.631578947370E+00  0.000000000000E+00
  0.269656163398E-01  0.631578947370E+00  0.235825883963E-02
  0.702823243349E-01  0.631578947370E+00  0.614787723533E-02
  0.136815300849E+00  0.631578947370E+00  0.119686097007E-01
  0.232285874575E+00  0.631578947370E+00  0.203210244768E-01
[...]
POINT_DATA                1127
SCALARS phi float 1
LOOKUP_TABLE default
  0.261190550220E-18
  0.346944695195E-17
  0.501445490008E-17
  0.195156391047E-17
  0.390312782095E-17
 -0.867361737988E-18
  0.173472347598E-17
  0.433680868994E-17
 -0.173472347598E-17
 -0.520417042793E-17
  0.693889390391E-17
  0.693889390391E-17
 -0.173472347598E-16
 -0.693889390391E-17
 -0.693889390391E-17
 -0.138777878078E-16
 -0.346944695195E-17
 -0.173472347598E-17
  0.173472347598E-17
  0.000000000000E+00
  0.000000000000E+00
 -0.867361737988E-18
 -0.216840434497E-18
  0.000000000000E+00
 -0.661744490042E-23
 -0.661744490042E-23
  0.216840434497E-18
  0.000000000000E+00
  0.000000000000E+00
  0.000000000000E+00
 -0.520417042793E-17
  0.173472347598E-17
 -0.346944695195E-17
 -0.173472347598E-17
  0.000000000000E+00
 -0.346944695195E-17
 -0.693889390391E-17
 -0.277555756156E-16
  0.693889390391E-17
  0.173472347598E-16
 -0.693889390391E-17
 -0.173472347598E-17
 -0.260208521397E-17
  0.433680868994E-17
 -0.433680868994E-17
  0.563785129692E-17
 -0.151788304148E-17
  0.390312782095E-17
  0.260208521397E-17
  0.195042570995E-18
  0.823993651089E-17
 -0.147451495458E-16
  0.693889390391E-17
  0.693889390391E-17
  0.104083408559E-16
  0.346944695195E-17
  0.520417042793E-17
 -0.520417042793E-17
  0.000000000000E+00
  0.216840434497E-18
  0.000000000000E+00
  0.433680868994E-18
  0.173472347598E-17
  0.173472347598E-17
  0.173472347598E-17
  0.693889390391E-17
 -0.346944695195E-17
  0.000000000000E+00
  0.138777878078E-16
 -0.607153216592E-17
  0.737257477290E-17
  0.758941520740E-17
 -0.108420217249E-17
 -0.371337920587E-17
  0.867361737988E-18
 -0.433680868994E-17
  0.000000000000E+00
  0.000000000000E+00
  0.000000000000E+00
  0.346944695195E-17
  0.000000000000E+00
 -0.173472347598E-17
 -0.867361737988E-18
  0.216840434497E-18
  0.000000000000E+00
  0.216840434497E-18
 -0.173472347598E-17
 -0.173472347598E-17
  0.000000000000E+00
  0.104083408559E-16
  0.138777878078E-16
 -0.693889390391E-17
  0.520417042793E-17
 -0.607153216592E-17
 -0.303576608296E-17
 -0.433680868994E-18
 -0.325260651746E-17
 -0.722344403463E-17
  0.433680868994E-18
  0.607153216592E-17
  0.346944695195E-17
  0.346944695195E-17
  0.346944695195E-17
  0.346944695195E-17
 -0.173472347598E-17
  0.000000000000E+00
  0.000000000000E+00
  0.433680868994E-18
  0.661744490042E-23
  0.216840434497E-18
 -0.867361737988E-18
 -0.173472347598E-17
  0.173472347598E-17
 -0.693889390391E-17
 -0.173472347598E-16
  0.104083408559E-16
  0.346944695195E-17
  0.520417042793E-17
 -0.173472347598E-17
 -0.585469173142E-17
 -0.650521303491E-18
 -0.291970271685E-17
  0.433680868994E-17
  0.867361737988E-18
  0.173472347598E-17
  0.173472347598E-16
  0.138777878078E-16
  0.104083408559E-16
 -0.173472347598E-17
 -0.173472347598E-17
  0.867361737988E-18
  0.216840434497E-18
  0.661744490042E-23
  0.216840434497E-18
  0.000000000000E+00
 -0.346944695195E-17
  0.173472347598E-17
  0.104083408559E-16
  0.104083408559E-16
  0.346944695195E-17
  0.173472347598E-17
  0.693889390391E-17
 -0.433680868994E-18
 -0.433680868994E-18
 -0.390312782095E-17
  0.621882325451E-17
  0.433680868994E-18
 -0.867361737988E-18
 -0.346944695195E-17
  0.693889390391E-17
 -0.173472347598E-16
 -0.693889390391E-17
 -0.346944695195E-17
  0.000000000000E+00
  0.000000000000E+00
  0.216840434497E-18
  0.000000000000E+00
  0.433680868994E-18
 -0.867361737988E-18
  0.000000000000E+00
  0.000000000000E+00
 -0.346944695195E-17
  0.346944695195E-17
  0.693889390391E-17
 -0.121430643318E-16
 -0.607153216592E-17
  0.173472347598E-17
 -0.433680868994E-18
 -0.151788304148E-17
 -0.528547235598E-17
  0.216840434497E-17
  0.260208521397E-17
  0.693889390391E-17
 -0.138777878078E-16
  0.104083408559E-16
  0.346944695195E-17
  0.173472347598E-17
  0.000000000000E+00
  0.867361737988E-18
  0.216840434497E-18
  0.000000000000E+00
 -0.216840434497E-18
  0.867361737988E-18
 -0.346944695195E-17
  0.173472347598E-17
  0.138777878078E-16
 -0.138777878078E-16
 -0.693889390391E-17
  0.520417042793E-17
  0.780625564190E-17
  0.216840434497E-17
  0.195156391047E-17
  0.216840434497E-18
  0.435271041004E-17
  0.867361737988E-18
  0.260208521397E-17
 -0.867361737988E-17
  0.208166817117E-16
  0.173472347598E-16
  0.693889390391E-17
  0.000000000000E+00
  0.000000000000E+00
 -0.867361737988E-18
  0.216840434497E-18
  0.661744490042E-23
  0.216840434497E-18
 -0.173472347598E-17
  0.000000000000E+00
  0.000000000000E+00
  0.693889390391E-17
  0.173472347598E-16
  0.000000000000E+00
 -0.693889390391E-17
 -0.433680868994E-17
 -0.173472347598E-17
  0.238524477947E-17
 -0.715573433840E-17
 -0.342262191184E-17
 -0.346944695195E-17
 -0.867361737988E-18
 -0.346944695195E-17
  0.104083408559E-16
  0.138777878078E-16
  0.000000000000E+00
  0.000000000000E+00
 -0.173472347598E-17
  0.000000000000E+00
  0.000000000000E+00
 -0.661744490042E-23
  0.000000000000E+00
 -0.867361737988E-18
  0.173472347598E-17
  0.520417042793E-17
  0.693889390391E-17
  0.138777878078E-16
  0.000000000000E+00
 -0.346944695195E-17
  0.520417042793E-17
 -0.477048955894E-17
 -0.455364912444E-17
 -0.542101086243E-17
  0.796568312444E-18
  0.000000000000E+00
 -0.260208521397E-17
  0.346944695195E-17
  0.346944695195E-17
 -0.173472347598E-16
 -0.138777878078E-16
 -0.173472347598E-17
  0.000000000000E+00
  0.867361737988E-18
  0.000000000000E+00
  0.661744490042E-23
  0.000000000000E+00
  0.000000000000E+00
  0.000000000000E+00
 -0.173472347598E-17
 -0.346944695195E-17
 -0.346944695195E-17
  0.346944695195E-17
 -0.104083408559E-16
 -0.173472347598E-17
 -0.303576608296E-17
 -0.411996825544E-17
  0.000000000000E+00
  0.937447096929E-18
  0.173472347598E-17
  0.780625564190E-17
 -0.520417042793E-17
 -0.346944695195E-17
  0.346944695195E-17
  0.346944695195E-17
 -0.346944695195E-17
 -0.173472347598E-17
  0.000000000000E+00
  0.000000000000E+00
  0.000000000000E+00
  0.216840434497E-18
  0.000000000000E+00
 -0.173472347598E-17
  0.346944695195E-17
  0.104083408559E-16
  0.104083408559E-16
 -0.104083408559E-16
 -0.520417042793E-17
  0.780625564190E-17
 -0.173472347598E-17
  0.173472347598E-17
 -0.867361737988E-18
 -0.170084215809E-17
 -0.216840434497E-17
 -0.346944695195E-17
  0.104083408559E-16
  0.000000000000E+00
  0.173472347598E-16
  0.000000000000E+00
  0.000000000000E+00
 -0.173472347598E-17
 -0.867361737988E-18
  0.433680868994E-18
  0.000000000000E+00
  0.650521303491E-18
 -0.260208521397E-17
 -0.173472347598E-17
  0.000000000000E+00
  0.346944695195E-17
  0.173472347598E-16
 -0.346944695195E-17
 -0.173472347598E-17
 -0.260208521397E-17
 -0.173472347598E-17
  0.151788304148E-17
 -0.390312782095E-17
 -0.529226185444E-17
  0.607153216592E-17
  0.260208521397E-17
 -0.346944695195E-17
 -0.104083408559E-16
  0.242861286637E-16
 -0.346944695195E-17
  0.000000000000E+00
  0.173472347598E-17
  0.000000000000E+00
  0.433680868994E-18
  0.333044222786E-16
  0.433680868994E-18
 -0.867361737988E-18
 -0.173472347598E-17
  0.173472347598E-17
  0.000000000000E+00
 -0.208166817117E-16
 -0.346944695195E-17
  0.693889390391E-17
 -0.607153216592E-17
  0.346944695195E-17
 -0.325260651746E-17
 -0.390312782095E-17
 -0.867361737988E-18
 -0.260208521397E-17
  0.000000000000E+00
 -0.156125112838E-16
 -0.346944695195E-17
  0.138777878078E-16
  0.000000000000E+00
  0.346944695195E-17
 -0.173472347598E-17
  0.520417042793E-17
  0.000000000000E+00
  0.264697796017E-22
  0.650521303491E-18
  0.346944695195E-17
 -0.173472347598E-17
  0.190819582357E-16
 -0.104083408559E-16
  0.173472347598E-16
 -0.346944695195E-17
  0.173472347598E-17
 -0.346944695195E-17
  0.000000000000E+00
 -0.260208521397E-17
 -0.260208521397E-17
  0.607153216592E-17
 -0.346944695195E-17
 -0.112757025938E-16
  0.346944695195E-17
  0.000000000000E+00
  0.000000000000E+00
  0.693889390391E-17
  0.121430643318E-16
 -0.867361737988E-17
 -0.260208521397E-17
  0.000000000000E+00
 -0.264697796017E-22
  0.000000000000E+00
 -0.867361737988E-18
 -0.867361737988E-17
  0.693889390391E-17
  0.173472347598E-16
  0.000000000000E+00
  0.104083408559E-16
 -0.156125112838E-16
 -0.260208521397E-17
  0.867361737988E-18
 -0.173472347598E-17
 -0.390312782095E-17
 -0.650521303491E-17
 -0.294902990916E-16
 -0.693889390391E-17
  0.520417042793E-17
  0.208166817117E-16
  0.346944695195E-17
 -0.173472347598E-16
  0.520417042793E-17
  0.693889390391E-17
 -0.867361737988E-18
  0.000000000000E+00
  0.000000000000E+00
 -0.216840434497E-18
 -0.173472347598E-17
  0.693889390391E-17
 -0.104083408559E-16
 -0.104083408559E-16
 -0.104083408559E-16
 -0.138777878078E-16
  0.520417042793E-17
  0.693889390391E-17
  0.173472347598E-17
 -0.867361737988E-18
  0.121430643318E-16
 -0.173472347598E-17
  0.000000000000E+00
  0.000000000000E+00
  0.346944695195E-17
  0.693889390391E-17
 -0.346944695195E-16
  0.693889390391E-17
  0.867361737988E-17
 -0.346944695195E-17
 -0.173472347598E-17
  0.433680868994E-18
 -0.661744490042E-23
  0.216840434497E-18
 -0.173472347598E-17
  0.173472347598E-17
  0.104083408559E-16
  0.104083408559E-16
 -0.242861286637E-16
  0.693889390391E-17
  0.138777878078E-16
  0.867361737988E-18
  0.138777878078E-16
  0.867361737988E-17
 -0.138777878078E-15
 -0.208166817117E-16
  0.190819582357E-16
 -0.780625564190E-17
 -0.225514051877E-16
 -0.173472347598E-17
  0.000000000000E+00
 -0.346944695195E-17
  0.346944695195E-17
 -0.173472347598E-17
  0.867361737988E-18
  0.000000000000E+00
  0.661744490042E-23
  0.000000000000E+00
  0.867361737988E-18
  0.000000000000E+00
  0.138777878078E-16
 -0.138777878078E-16
 -0.277555756156E-16
  0.173472347598E-16
 -0.346944695195E-17
 -0.173472347598E-17
  0.416333634234E-16
 -0.100613961607E-15
  0.116009632456E-16
 -0.433680868994E-18
  0.176584007833E-14
 -0.889045781438E-15
  0.599346960950E-15
 -0.319449328101E-14
 -0.416333634234E-16
  0.693889390391E-17
  0.693889390391E-17
 -0.216840434497E-16
 -0.520417042793E-17
  0.000000000000E+00
 -0.103397576569E-24
  0.542101086243E-17
  0.303576608296E-17
  0.000000000000E+00
 -0.572458747072E-16
 -0.693889390391E-17
  0.000000000000E+00
  0.872565908416E-15
  0.115619319674E-14
  0.410218733982E-14
 -0.111000618419E-14
 -0.327103795439E-15
  0.837871438897E-15
 -0.159724664051E-14
 -0.152677349929E-14
 -0.120899384254E-14
 -0.405715229208E-15
 -0.149186218934E-15
 -0.204697370165E-15
  0.190819582357E-16
  0.693889390391E-17
 -0.299239799606E-16
  0.672205346941E-17
 -0.620163642662E-16
 -0.105818132035E-15
 -0.780625564190E-17
 -0.346944695195E-17
  0.329597460436E-16
  0.471844785466E-15
  0.147288865132E-15
  0.157859836314E-15
  0.464667367084E-14
 -0.163606107828E-14
 -0.366026653431E-15
  0.125381476035E-13
 -0.484595003014E-14
  0.896418356211E-15
 -0.407063705660E-15
  0.255871712707E-16
  0.176941794550E-15
 -0.170002900646E-15
  0.451028103754E-16
  0.346944695195E-17
  0.607153216592E-17
 -0.173472347598E-16
 -0.823993651089E-17
  0.433680868994E-18
 -0.867361737988E-18
 -0.478783679370E-15
 -0.182145964978E-15
  0.215105711021E-15
  0.390312782095E-16
 -0.194831130396E-15
  0.180682292045E-14
 -0.259492947963E-14
 -0.144047100636E-14
 -0.100180280738E-14
 -0.330638294521E-14
  0.802499343019E-15
 -0.171043734731E-14
 -0.284494650060E-15
 -0.121430643318E-15
 -0.329597460436E-15
 -0.173472347598E-17
  0.156125112838E-16
 -0.563785129692E-17
  0.108420217249E-18
 -0.285145171364E-16
  0.520417042793E-17
  0.433680868994E-17
  0.272351585728E-15
  0.485722573274E-15
  0.277555756156E-15
 -0.319189119580E-15
  0.408744219027E-16
  0.809140081326E-15
 -0.223074596989E-14
 -0.220288197406E-14
 -0.271744432512E-14
 -0.439622296899E-14
  0.119808744631E-14
  0.101741531866E-14
 -0.542101086243E-16
 -0.902056207508E-16
 -0.225514051877E-16
 -0.286229373536E-16
  0.126634813746E-15
 -0.962771529167E-16
 -0.359955121265E-16
  0.494030642997E-17
  0.693889390391E-17
 -0.346944695195E-17
  0.433680868994E-17
 -0.173472347598E-17
 -0.104083408559E-16
 -0.346944695195E-17
  0.173472347598E-16
 -0.173472347598E-17
 -0.520417042793E-17
 -0.867361737988E-18
  0.216840434497E-18
 -0.661744490042E-23
  0.000000000000E+00
 -0.867361737988E-18
  0.867361737988E-17
  0.867361737988E-17
 -0.242861286637E-16
 -0.173472347598E-16
 -0.138777878078E-16
  0.000000000000E+00
  0.867361737988E-18
 -0.260208521397E-17
  0.130104260698E-17
  0.307311494198E-17
 -0.216840434497E-17
  0.303576608296E-17
 -0.607153216592E-17
  0.173472347598E-17
  0.208166817117E-16
  0.138777878078E-16
 -0.346944695195E-17
  0.000000000000E+00
 -0.520417042793E-17
 -0.867361737988E-18
  0.000000000000E+00
  0.000000000000E+00
  0.000000000000E+00
  0.000000000000E+00
 -0.173472347598E-17
  0.173472347598E-17
  0.693889390391E-17
  0.208166817117E-16
  0.693889390391E-17
  0.520417042793E-17
 -0.112757025938E-16
  0.260208521397E-17
 -0.628837260042E-17
 -0.376576951715E-17
 -0.477048955894E-17
 -0.607153216592E-17
  0.520417042793E-17
  0.000000000000E+00
 -0.346944695195E-17
  0.693889390391E-17
 -0.346944695195E-17
  0.693889390391E-17
  0.000000000000E+00
  0.867361737988E-18
  0.216840434497E-18
  0.000000000000E+00
 -0.216840434497E-18
  0.000000000000E+00
 -0.346944695195E-17
  0.173472347598E-17
 -0.346944695195E-17
 -0.693889390391E-17
 -0.104083408559E-16
  0.000000000000E+00
 -0.260208521397E-17
  0.867361737988E-18
 -0.325260651746E-17
  0.306236821146E-17
 -0.281892564846E-17
  0.303576608296E-17
  0.693889390391E-17
  0.121430643318E-16
  0.346944695195E-17
  0.173472347598E-16
  0.000000000000E+00
 -0.346944695195E-17
 -0.173472347598E-17
 -0.867361737988E-18
  0.433680868994E-18
  0.000000000000E+00
  0.433680868994E-18
 -0.867361737988E-18
 -0.346944695195E-17
  0.173472347598E-17
 -0.346944695195E-17
  0.138777878078E-16
  0.346944695195E-17
  0.121430643318E-16
  0.173472347598E-17
  0.867361737988E-18
 -0.346944695195E-17
  0.657382932109E-17
  0.151788304148E-17
  0.000000000000E+00
 -0.867361737988E-18
 -0.173472347598E-17
 -0.693889390391E-17
  0.138777878078E-16
 -0.693889390391E-17
  0.000000000000E+00
 -0.173472347598E-17
  0.000000000000E+00
  0.216840434497E-18
  0.000000000000E+00
 -0.216840434497E-18
  0.000000000000E+00
 -0.520417042793E-17
  0.346944695195E-17
  0.693889390391E-17
  0.693889390391E-17
  0.104083408559E-16
  0.173472347598E-17
 -0.520417042793E-17
 -0.303576608296E-17
  0.303576608296E-17
 -0.431197341923E-17
  0.000000000000E+00
  0.867361737988E-18
  0.000000000000E+00
  0.693889390391E-17
  0.000000000000E+00
  0.173472347598E-16
 -0.173472347598E-16
 -0.346944695195E-17
  0.000000000000E+00
  0.867361737988E-18
  0.433680868994E-18
  0.000000000000E+00
  0.216840434497E-18
 -0.867361737988E-18
  0.000000000000E+00
  0.173472347598E-17
  0.346944695195E-17
  0.138777878078E-16
  0.138777878078E-16
  0.000000000000E+00
  0.346944695195E-17
 -0.433680868994E-17
 -0.563785129692E-17
  0.116976573505E-17
  0.260208521397E-17
 -0.390312782095E-17
  0.346944695195E-17
  0.000000000000E+00
 -0.346944695195E-17
  0.208166817117E-16
  0.693889390391E-17
  0.173472347598E-17
 -0.173472347598E-17
  0.000000000000E+00
  0.216840434497E-18
  0.000000000000E+00
  0.216840434497E-18
 -0.867361737988E-18
 -0.346944695195E-17
  0.173472347598E-17
  0.346944695195E-17
  0.104083408559E-16
  0.173472347598E-16
 -0.173472347598E-17
  0.867361737988E-18
 -0.216840434497E-17
  0.260208521397E-17
 -0.509547227800E-17
 -0.346944695195E-17
  0.216840434497E-17
 -0.260208521397E-17
 -0.867361737988E-17
 -0.346944695195E-17
  0.000000000000E+00
  0.138777878078E-16
 -0.173472347598E-17
 -0.173472347598E-17
  0.000000000000E+00
  0.433680868994E-18
  0.661744490042E-23
  0.216840434497E-18
  0.000000000000E+00
 -0.346944695195E-17
  0.173472347598E-17
  0.346944695195E-17
 -0.693889390391E-17
 -0.104083408559E-16
  0.000000000000E+00
 -0.954097911787E-17
  0.216840434497E-17
 -0.303576608296E-17
  0.329356850139E-18
 -0.281892564846E-17
 -0.303576608296E-17
  0.520417042793E-17
  0.173472347598E-17
  0.000000000000E+00
  0.693889390391E-17
  0.104083408559E-16
  0.520417042793E-17
 -0.173472347598E-17
  0.000000000000E+00
  0.216840434497E-18
 -0.661744490042E-23
  0.216840434497E-18
 -0.867361737988E-18
  0.000000000000E+00
  0.173472347598E-17
  0.346944695195E-17
  0.173472347598E-16
  0.693889390391E-17
  0.520417042793E-17
  0.346944695195E-17
 -0.130104260698E-17
 -0.173472347598E-17
 -0.246516366153E-17
 -0.238524477947E-17
  0.130104260698E-17
 -0.433680868994E-17
  0.693889390391E-17
  0.693889390391E-17
  0.693889390391E-17
 -0.346944695195E-17
  0.346944695195E-17
  0.173472347598E-17
  0.867361737988E-18
  0.000000000000E+00
 -0.661744490042E-23
  0.000000000000E+00
  0.000000000000E+00
 -0.173472347598E-17
 -0.693889390391E-17
  0.000000000000E+00
 -0.346944695195E-17
 -0.693889390391E-17
  0.520417042793E-17
 -0.433680868994E-17
 -0.433680868994E-18
 -0.195156391047E-17
 -0.373343668137E-17
 -0.260208521397E-17
 -0.867361737988E-18
  0.433680868994E-17
 -0.520417042793E-17
 -0.693889390391E-17
  0.693889390391E-17
  0.346944695195E-17
  0.346944695195E-17
  0.000000000000E+00
  0.000000000000E+00
  0.650521303491E-18
  0.661744490042E-23
  0.216840434497E-18
  0.000000000000E+00
 -0.346944695195E-17
  0.693889390391E-17
  0.693889390391E-17
  0.138777878078E-16
  0.346944695195E-17
  0.346944695195E-17
 -0.260208521397E-17
 -0.216840434497E-17
 -0.281892564846E-17
  0.120744546631E-17
  0.108420217249E-17
 -0.867361737988E-18
  0.346944695195E-17
  0.000000000000E+00
  0.104083408559E-16
  0.312250225676E-16
 -0.693889390391E-17
 -0.173472347598E-17
  0.000000000000E+00
  0.000000000000E+00
  0.216840434497E-18
  0.000000000000E+00
  0.000000000000E+00
 -0.867361737988E-18
  0.000000000000E+00
 -0.173472347598E-17
  0.346944695195E-17
  0.000000000000E+00
 -0.693889390391E-17
 -0.867361737988E-17
  0.433680868994E-17
 -0.346944695195E-17
  0.130104260698E-17
 -0.308997619158E-17
  0.867361737988E-18
  0.563785129692E-17
 -0.867361737988E-17
  0.000000000000E+00
  0.693889390391E-17
  0.277555756156E-16
 -0.138777878078E-16
  0.104083408559E-16
 -0.520417042793E-17
 -0.260208521397E-17
  0.130104260698E-17
  0.197602860427E-17
  0.216840434497E-18
 -0.173472347598E-17
  0.000000000000E+00
  0.346944695195E-17
  0.346944695195E-17
 -0.138777878078E-16
  0.104083408559E-16
 -0.520417042793E-17
  0.867361737988E-18
  0.303576608296E-17
  0.130104260698E-17
 -0.260208521397E-17
 -0.433680868994E-18
  0.867361737988E-18
 -0.346944695195E-17
 -0.346944695195E-17
  0.104083408559E-16
  0.416333634234E-16
  0.693889390391E-17
 -0.867361737988E-17
  0.000000000000E+00
  0.260208521397E-17
  0.108420217249E-17
  0.595570041038E-22
  0.216840434497E-17
  0.260208521397E-17
 -0.346944695195E-17
  0.693889390391E-17
  0.104083408559E-16
  0.104083408559E-16
  0.000000000000E+00
  0.121430643318E-16
 -0.693889390391E-17
  0.000000000000E+00
 -0.520417042793E-17
 -0.260208521397E-17
 -0.563785129692E-17
 -0.693889390391E-17
 -0.112757025938E-16
 -0.121430643318E-16
  0.138777878078E-16
 -0.208166817117E-16
 -0.173472347598E-16
 -0.173472347598E-17
 -0.346944695195E-17
 -0.867361737988E-18
  0.000000000000E+00
 -0.198523347013E-22
  0.000000000000E+00
 -0.867361737988E-18
 -0.173472347598E-17
  0.000000000000E+00
 -0.416333634234E-16
  0.346944695195E-17
  0.346944695195E-17
 -0.156125112838E-16
 -0.216840434497E-16
  0.173472347598E-17
 -0.563785129692E-17
 -0.346944695195E-17
 -0.910729824888E-17
 -0.364291929955E-16
  0.346944695195E-17
 -0.520417042793E-17
  0.242861286637E-16
 -0.416333634234E-16
 -0.138777878078E-16
  0.173472347598E-17
  0.173472347598E-17
 -0.867361737988E-18
 -0.433680868994E-18
  0.000000000000E+00
 -0.216840434497E-18
 -0.173472347598E-17
  0.121430643318E-16
 -0.138777878078E-16
 -0.346944695195E-17
  0.346944695195E-17
 -0.693889390391E-17
 -0.208166817117E-16
  0.130104260698E-16
  0.173472347598E-17
  0.303576608296E-17
 -0.346944695195E-17
 -0.173472347598E-16
 -0.138777878078E-16
 -0.780625564190E-17
 -0.138777878078E-16
  0.104083408559E-16
 -0.138777878078E-16