# vtk DataFile Version 3.0
MachLine results file. Generated by MachLine, USU AeroLab (c) 2022.
ASCII
DATASET POLYDATA
POINTS                 156 float
  0.100000000000E+01  0.104252345860E+00  0.000000000000E+00
  0.100000000000E+01  0.000000000000E+00  0.000000000000E+00
  0.294663108147E+02  0.104252345860E+00  0.142331554074E+01
  0.294663108147E+02  0.000000000000E+00  0.142331554074E+01
  0.100000000000E+01  0.211780935526E+00  0.000000000000E+00
  0.100000000000E+01  0.104252345860E+00  0.000000000000E+00
  0.294663108147E+02  0.211780935526E+00  0.142331554074E+01
  0.294663108147E+02  0.104252345860E+00  0.142331554074E+01
  0.100000000000E+01  0.322413772345E+00  0.000000000000E+00
  0.100000000000E+01  0.211780935526E+00  0.000000000000E+00
  0.294663108147E+02  0.322413772345E+00  0.142331554074E+01
  0.294663108147E+02  0.211780935526E+00  0.142331554074E+01
  0.100000000000E+01  0.435950160027E+00  0.000000000000E+00
  0.100000000000E+01  0.322413772345E+00  0.000000000000E+00
  0.294663108147E+02  0.435950160027E+00  0.142331554074E+01
  0.294663108147E+02  0.322413772345E+00  0.142331554074E+01
  0.100000000000E+01  0.552161276340E+00  0.000000000000E+00
  0.100000000000E+01  0.435950160027E+00  0.000000000000E+00
  0.294663108147E+02  0.552161276340E+00  0.142331554074E+01
  0.294663108147E+02  0.435950160027E+00  0.142331554074E+01
  0.100000000000E+01  0.670791566372E+00  0.000000000000E+00
  0.100000000000E+01  0.552161276340E+00  0.000000000000E+00
  0.294663108147E+02  0.670791566372E+00  0.142331554074E+01
  0.294663108147E+02  0.552161276340E+00  0.142331554074E+01
  0.100000000000E+01  0.791560173035E+00  0.000000000000E+00
  0.100000000000E+01  0.670791566372E+00  0.000000000000E+00
  0.294663108147E+02  0.791560173035E+00  0.142331554074E+01
  0.294663108147E+02  0.670791566372E+00  0.142331554074E+01
  0.100000000000E+01  0.914163351059E+00  0.000000000000E+00
  0.100000000000E+01  0.791560173035E+00  0.000000000000E+00
  0.294663108147E+02  0.914163351059E+00  0.142331554074E+01
  0.294663108147E+02  0.791560173035E+00  0.142331554074E+01
  0.100000000000E+01  0.103827738762E+01  0.000000000000E+00
  0.100000000000E+01  0.914163351059E+00  0.000000000000E+00
  0.294663108147E+02  0.103827738762E+01  0.142331554074E+01
  0.294663108147E+02  0.914163351059E+00  0.142331554074E+01
  0.100000000000E+01  0.116356134415E+01  0.000000000000E+00
  0.100000000000E+01  0.103827738762E+01  0.000000000000E+00
  0.294663108147E+02  0.116356134415E+01  0.142331554074E+01
  0.294663108147E+02  0.103827738762E+01  0.142331554074E+01
  0.100000000000E+01  0.128966128826E+01  0.000000000000E+00
  0.100000000000E+01  0.116356134415E+01  0.000000000000E+00
  0.294663108147E+02  0.128966128826E+01  0.142331554074E+01
  0.294663108147E+02  0.116356134415E+01  0.142331554074E+01
  0.100000000000E+01  0.141621339321E+01  0.000000000000E+00
  0.100000000000E+01  0.128966128826E+01  0.000000000000E+00
  0.294663108147E+02  0.141621339321E+01  0.142331554074E+01
  0.294663108147E+02  0.128966128826E+01  0.142331554074E+01
  0.100000000000E+01  0.154284906387E+01  0.000000000000E+00
  0.100000000000E+01  0.141621339321E+01  0.000000000000E+00
  0.294663108147E+02  0.154284906387E+01  0.142331554074E+01
  0.294663108147E+02  0.141621339321E+01  0.142331554074E+01
  0.100000000000E+01  0.166919851303E+01  0.000000000000E+00
  0.100000000000E+01  0.154284906387E+01  0.000000000000E+00
  0.294663108147E+02  0.166919851303E+01  0.142331554074E+01
  0.294663108147E+02  0.154284906387E+01  0.142331554074E+01
  0.100000000000E+01  0.179489517212E+01  0.000000000000E+00
  0.100000000000E+01  0.166919851303E+01  0.000000000000E+00
  0.294663108147E+02  0.179489517212E+01  0.142331554074E+01
  0.294663108147E+02  0.166919851303E+01  0.142331554074E+01
  0.100000000000E+01  0.191958034039E+01  0.000000000000E+00
  0.100000000000E+01  0.179489517212E+01  0.000000000000E+00
  0.294663108147E+02  0.191958034039E+01  0.142331554074E+01
  0.294663108147E+02  0.179489517212E+01  0.142331554074E+01
  0.100000000000E+01  0.204290652275E+01  0.000000000000E+00
  0.100000000000E+01  0.191958034039E+01  0.000000000000E+00
  0.294663108147E+02  0.204290652275E+01  0.142331554074E+01
  0.294663108147E+02  0.191958034039E+01  0.142331554074E+01
  0.100000000000E+01  0.216454195976E+01  0.000000000000E+00
  0.100000000000E+01  0.204290652275E+01  0.000000000000E+00
  0.294663108147E+02  0.216454195976E+01  0.142331554074E+01
  0.294663108147E+02  0.204290652275E+01  0.142331554074E+01
  0.100000000000E+01  0.228417348862E+01  0.000000000000E+00
  0.100000000000E+01  0.216454195976E+01  0.000000000000E+00
  0.294663108147E+02  0.228417348862E+01  0.142331554074E+01
  0.294663108147E+02  0.216454195976E+01  0.142331554074E+01
  0.100000000000E+01  0.240150952339E+01  0.000000000000E+00
  0.100000000000E+01  0.228417348862E+01  0.000000000000E+00
  0.294663108147E+02  0.240150952339E+01  0.142331554074E+01
  0.294663108147E+02  0.228417348862E+01  0.142331554074E+01
  0.100000000000E+01  0.251628303528E+01  0.000000000000E+00
  0.100000000000E+01  0.240150952339E+01  0.000000000000E+00
  0.294663108147E+02  0.251628303528E+01  0.142331554074E+01
  0.294663108147E+02  0.240150952339E+01  0.142331554074E+01
  0.100000000000E+01  0.262825274467E+01  0.000000000000E+00
  0.100000000000E+01  0.251628303528E+01  0.000000000000E+00
  0.294663108147E+02  0.262825274467E+01  0.142331554074E+01
  0.294663108147E+02  0.251628303528E+01  0.142331554074E+01
  0.100000000000E+01  0.273720526695E+01  0.000000000000E+00
  0.100000000000E+01  0.262825274467E+01  0.000000000000E+00
  0.294663108147E+02  0.273720526695E+01  0.142331554074E+01
  0.294663108147E+02  0.262825274467E+01  0.142331554074E+01
  0.100000000000E+01  0.284295582771E+01  0.000000000000E+00
  0.100000000000E+01  0.273720526695E+01  0.000000000000E+00
  0.294663108147E+02  0.284295582771E+01  0.142331554074E+01
  0.294663108147E+02  0.273720526695E+01  0.142331554074E+01
  0.100000000000E+01  0.294534778595E+01  0.000000000000E+00
  0.100000000000E+01  0.284295582771E+01  0.000000000000E+00
  0.294663108147E+02  0.294534778595E+01  0.142331554074E+01
  0.294663108147E+02  0.284295582771E+01  0.142331554074E+01
  0.100000000000E+01  0.304425406456E+01  0.000000000000E+00
  0.100000000000E+01  0.294534778595E+01  0.000000000000E+00
  0.294663108147E+02  0.304425406456E+01  0.142331554074E+01
  0.294663108147E+02  0.294534778595E+01  0.142331554074E+01
  0.100000000000E+01  0.313957524300E+01  0.000000000000E+00
  0.100000000000E+01  0.304425406456E+01  0.000000000000E+00
  0.294663108147E+02  0.313957524300E+01  0.142331554074E+01
  0.294663108147E+02  0.304425406456E+01  0.142331554074E+01
  0.100000000000E+01  0.323123931885E+01  0.000000000000E+00
  0.100000000000E+01  0.313957524300E+01  0.000000000000E+00
  0.294663108147E+02  0.323123931885E+01  0.142331554074E+01
  0.294663108147E+02  0.313957524300E+01  0.142331554074E+01
  0.100000000000E+01  0.331920027733E+01  0.000000000000E+00
  0.100000000000E+01  0.323123931885E+01  0.000000000000E+00
  0.294663108147E+02  0.331920027733E+01  0.142331554074E+01
  0.294663108147E+02  0.323123931885E+01  0.142331554074E+01
  0.100000000000E+01  0.340343642235E+01  0.000000000000E+00
  0.100000000000E+01  0.331920027733E+01  0.000000000000E+00
  0.294663108147E+02  0.340343642235E+01  0.142331554074E+01
  0.294663108147E+02  0.331920027733E+01  0.142331554074E+01
  0.100000000000E+01  0.348394894600E+01  0.000000000000E+00
  0.100000000000E+01  0.340343642235E+01  0.000000000000E+00
  0.294663108147E+02  0.348394894600E+01  0.142331554074E+01
  0.294663108147E+02  0.340343642235E+01  0.142331554074E+01
  0.100000000000E+01  0.356075930595E+01  0.000000000000E+00
  0.100000000000E+01  0.348394894600E+01  0.000000000000E+00
  0.294663108147E+02  0.356075930595E+01  0.142331554074E+01
  0.294663108147E+02  0.348394894600E+01  0.142331554074E+01
  0.100000000000E+01  0.363390779495E+01  0.000000000000E+00
  0.100000000000E+01  0.356075930595E+01  0.000000000000E+00
  0.294663108147E+02  0.363390779495E+01  0.142331554074E+01
  0.294663108147E+02  0.356075930595E+01  0.142331554074E+01
  0.100000000000E+01  0.370345163345E+01  0.000000000000E+00
  0.100000000000E+01  0.363390779495E+01  0.000000000000E+00
  0.294663108147E+02  0.370345163345E+01  0.142331554074E+01
  0.294663108147E+02  0.363390779495E+01  0.142331554074E+01
  0.100000000000E+01  0.376946210861E+01  0.000000000000E+00
  0.100000000000E+01  0.370345163345E+01  0.000000000000E+00
  0.294663108147E+02  0.376946210861E+01  0.142331554074E+01
  0.294663108147E+02  0.370345163345E+01  0.142331554074E+01
  0.100000000000E+01  0.383202338219E+01  0.000000000000E+00
  0.100000000000E+01  0.376946210861E+01  0.000000000000E+00
  0.294663108147E+02  0.383202338219E+01  0.142331554074E+01
  0.294663108147E+02  0.376946210861E+01  0.142331554074E+01
  0.100000000000E+01  0.389123010635E+01  0.000000000000E+00
  0.100000000000E+01  0.383202338219E+01  0.000000000000E+00
  0.294663108147E+02  0.389123010635E+01  0.142331554074E+01
  0.294663108147E+02  0.383202338219E+01  0.142331554074E+01
  0.100000000000E+01  0.394718551636E+01  0.000000000000E+00
  0.100000000000E+01  0.389123010635E+01  0.000000000000E+00
  0.294663108147E+02  0.394718551636E+01  0.142331554074E+01
  0.294663108147E+02  0.389123010635E+01  0.142331554074E+01
  0.100000000000E+01  0.400000000000E+01  0.000000000000E+00
  0.100000000000E+01  0.394718551636E+01  0.000000000000E+00
  0.294663108147E+02  0.400000000000E+01  0.142331554074E+01
  0.294663108147E+02  0.394718551636E+01  0.142331554074E+01
POLYGONS                  78                 312
3                   0                   3                   1
3                   0                   2                   3
3                   4                   7                   5
3                   4                   6                   7
3                   8                  11                   9
3                   8                  10                  11
3                  12                  15                  13
3                  12                  14                  15
3                  16                  19                  17
3                  16                  18                  19
3                  20                  23                  21
3                  20                  22                  23
3                  24                  27                  25
3                  24                  26                  27
3                  28                  31                  29
3                  28                  30                  31
3                  32                  35                  33
3                  32                  34                  35
3                  36                  39                  37
3                  36                  38                  39
3                  40                  43                  41
3                  40                  42                  43
3                  44                  47                  45
3                  44                  46                  47
3                  48                  51                  49
3                  48                  50                  51
3                  52                  55                  53
3                  52                  54                  55
3                  56                  59                  57
3                  56                  58                  59
3                  60                  63                  61
3                  60                  62                  63
3                  64                  67                  65
3                  64                  66                  67
3                  68                  71                  69
3                  68                  70                  71
3                  72                  75                  73
3                  72                  74                  75
3                  76                  79                  77
3                  76                  78                  79
3                  80                  83                  81
3                  80                  82                  83
3                  84                  87                  85
3                  84                  86                  87
3                  88                  91                  89
3                  88                  90                  91
3                  92                  95                  93
3                  92                  94                  95
3                  96                  99                  97
3                  96                  98                  99
3                 100                 103                 101
3                 100                 102                 103
3                 104                 107                 105
3                 104                 106                 107
3                 108                 111                 109
3                 108                 110                 111
3                 112                 115                 113
3                 112                 114                 115
3                 116                 119                 117
3                 116                 118                 119
3                 120                 123                 121
3                 120                 122                 123
3                 124                 127                 125
3                 124                 126                 127
3                 128                 131                 129
3                 128                 130                 131
3                 132                 135                 133
3                 132                 134                 135
3                 136                 139                 137
3                 136                 138                 139
3                 140                 143                 141
3                 140                 142                 143
3                 144                 147                 145
3                 144                 146                 147
3                 148                 151                 149
3                 148                 150                 151
3                 152                 155                 153
3                 152                 154                 155
POINT_DATA                 156
SCALARS mu float 1
LOOKUP_TABLE default
 -0.893275191557E-01
 -0.893272510203E-01
 -0.893275191557E-01
 -0.893272510203E-01
 -0.893270635760E-01
 -0.893275191557E-01
 -0.893270635760E-01
 -0.893275191557E-01
 -0.893265696392E-01
 -0.893270635760E-01
 -0.893265696392E-01
 -0.893270635760E-01
 -0.893264056731E-01
 -0.893265696392E-01
 -0.893264056731E-01
 -0.893265696392E-01
 -0.893265936108E-01
 -0.893264056731E-01
 -0.893265936108E-01
 -0.893264056731E-01
 -0.893266416131E-01
 -0.893265936108E-01
 -0.893266416131E-01
 -0.893265936108E-01
 -0.893261079190E-01
 -0.893266416131E-01
 -0.893261079190E-01
 -0.893266416131E-01
 -0.893257254797E-01
 -0.893261079190E-01
 -0.893257254797E-01
 -0.893261079190E-01
 -0.893263384655E-01
 -0.893257254797E-01
 -0.893263384655E-01
 -0.893257254797E-01
 -0.893262607436E-01
 -0.893263384655E-01
 -0.893262607436E-01
 -0.893263384655E-01
 -0.893262990093E-01
 -0.893262607436E-01
 -0.893262990093E-01
 -0.893262607436E-01
 -0.893263015129E-01
 -0.893262990093E-01
 -0.893263015129E-01
 -0.893262990093E-01
 -0.893262806359E-01
 -0.893263015129E-01
 -0.893262806359E-01
 -0.893263015129E-01
 -0.893262457378E-01
 -0.893262806359E-01
 -0.893262457378E-01
 -0.893262806359E-01
 -0.893261981325E-01
 -0.893262457378E-01
 -0.893261981325E-01
 -0.893262457378E-01
 -0.893261561015E-01
 -0.893261981325E-01
 -0.893261561015E-01
 -0.893261981325E-01
 -0.893261356704E-01
 -0.893261561015E-01
 -0.893261356704E-01
 -0.893261561015E-01
 -0.893261443167E-01
 -0.893261356704E-01
 -0.893261443167E-01
 -0.893261356704E-01
 -0.893261617075E-01
 -0.893261443167E-01
 -0.893261617075E-01
 -0.893261443167E-01
 -0.893260578654E-01
 -0.893261617075E-01
 -0.893260578654E-01
 -0.893261617075E-01
 -0.893252608669E-01
 -0.893260578654E-01
 -0.893252608669E-01
 -0.893260578654E-01
 -0.893216453644E-01
 -0.893252608669E-01
 -0.893216453644E-01
 -0.893252608669E-01
 -0.893077886717E-01
 -0.893216453644E-01
 -0.893077886717E-01
 -0.893216453644E-01
 -0.892597854436E-01
 -0.893077886717E-01
 -0.892597854436E-01
 -0.893077886717E-01
 -0.891113585548E-01
 -0.892597854436E-01
 -0.891113585548E-01
 -0.892597854436E-01
 -0.887193004327E-01
 -0.891113585548E-01
 -0.887193004327E-01
 -0.891113585548E-01
 -0.878797501798E-01
 -0.887193004327E-01
 -0.878797501798E-01
 -0.887193004327E-01
 -0.864497104530E-01
 -0.878797501798E-01
 -0.864497104530E-01
 -0.878797501798E-01
 -0.844038541420E-01
 -0.864497104530E-01
 -0.844038541420E-01
 -0.864497104530E-01
 -0.817404829823E-01
 -0.844038541420E-01
 -0.817404829823E-01
 -0.844038541420E-01
 -0.784350055099E-01
 -0.817404829823E-01
 -0.784350055099E-01
 -0.817404829823E-01
 -0.744046086403E-01
 -0.784350055099E-01
 -0.744046086403E-01
 -0.784350055099E-01
 -0.694960908615E-01
 -0.744046086403E-01
 -0.694960908615E-01
 -0.744046086403E-01
 -0.634997004759E-01
 -0.694960908615E-01
 -0.634997004759E-01
 -0.694960908615E-01
 -0.561336711474E-01
 -0.634997004759E-01
 -0.561336711474E-01
 -0.634997004759E-01
 -0.469303987552E-01
 -0.561336711474E-01
 -0.469303987552E-01
 -0.561336711474E-01
 -0.351353200014E-01
 -0.469303987552E-01
 -0.351353200014E-01
 -0.469303987552E-01
 -0.197448225975E-01
 -0.351353200014E-01
 -0.197448225975E-01
 -0.351353200014E-01
  0.000000000000E+00
 -0.197448225975E-01
  0.000000000000E+00
 -0.197448225975E-01
