# vtk DataFile Version 3.0
MachLine results file. Generated by MachLine, USU AeroLab (c) 2022.
ASCII
DATASET POLYDATA
POINTS                 419 float
  0.999998893617E+00  0.000000000000E+00 -0.482134775958E-07
  0.999998893617E+00  0.000000000000E+00  0.482134775958E-07
  0.999998741613E+00  0.222222222220E+00 -0.548374108665E-07
  0.999998741613E+00  0.222222222220E+00  0.548374108665E-07
  0.999999024907E+00  0.444444444440E+00 -0.424921497375E-07
  0.999999024907E+00  0.444444444440E+00  0.424921497375E-07
  0.999998416161E+00  0.666666666670E+00 -0.690198216665E-07
  0.999998416161E+00  0.666666666670E+00  0.690198216665E-07
  0.999998084225E+00  0.888888888890E+00 -0.834847700294E-07
  0.999998084225E+00  0.888888888890E+00  0.834847700294E-07
  0.999998801332E+00  0.111111111110E+01 -0.522350100888E-07
  0.999998801332E+00  0.111111111110E+01  0.522350100888E-07
  0.999998399327E+00  0.133333333330E+01 -0.697533998376E-07
  0.999998399327E+00  0.133333333330E+01  0.697533998376E-07
  0.999997792700E+00  0.155555555560E+01 -0.961887258965E-07
  0.999997792700E+00  0.155555555560E+01  0.961887258965E-07
  0.999998486550E+00  0.177777777780E+01 -0.659524396655E-07
  0.999998486550E+00  0.177777777780E+01  0.659524396655E-07
  0.999999598522E+00  0.199999760770E+01 -0.129833500808E-21
  0.999998773303E+00 -0.222222222220E+00 -0.534564518227E-07
  0.999998773303E+00 -0.222222222220E+00  0.534564518227E-07
  0.999998197153E+00 -0.444444444440E+00 -0.785636554120E-07
  0.999998197153E+00 -0.444444444440E+00  0.785636554120E-07
  0.999998278742E+00 -0.666666666670E+00 -0.750082026623E-07
  0.999998278742E+00 -0.666666666670E+00  0.750082026623E-07
  0.999998581621E+00 -0.888888888890E+00 -0.618094882870E-07
  0.999998581621E+00 -0.888888888890E+00  0.618094882870E-07
  0.999998333647E+00 -0.111111111110E+01 -0.726156073503E-07
  0.999998333647E+00 -0.111111111110E+01  0.726156073503E-07
  0.999997638201E+00 -0.133333333330E+01 -0.102921440746E-06
  0.999997638201E+00 -0.133333333330E+01  0.102921440746E-06
  0.999997165843E+00 -0.155555555560E+01 -0.123505623015E-06
  0.999997165843E+00 -0.155555555560E+01  0.123505623015E-06
  0.999997858407E+00 -0.177777777780E+01 -0.933254044083E-07
  0.999997858407E+00 -0.177777777780E+01  0.933254044083E-07
  0.999999572567E+00 -0.199999745304E+01 -0.691135802966E-22
  0.953837365583E+00  0.222222222220E+00 -0.403791113363E-02
  0.953837353385E+00  0.000000000000E+00 -0.403777170645E-02
  0.953837344195E+00  0.000000000000E+00  0.403766666591E-02
  0.953837352192E+00  0.222222222220E+00  0.403775807648E-02
  0.953837320944E+00  0.444444444440E+00 -0.403740091052E-02
  0.953837317365E+00  0.444444444440E+00  0.403735999858E-02
  0.953837303304E+00  0.666666666670E+00 -0.403719928199E-02
  0.953837274843E+00  0.666666666670E+00  0.403687396458E-02
  0.953837285540E+00  0.888888888890E+00 -0.403699623405E-02
  0.953837338249E+00  0.888888888890E+00  0.403759870319E-02
  0.953837283776E+00  0.111111111110E+01 -0.403697607198E-02
  0.953837274320E+00  0.111111111110E+01  0.403686799124E-02
  0.953837295197E+00  0.133333333330E+01 -0.403710661146E-02
  0.953837263709E+00  0.133333333330E+01  0.403674670266E-02
  0.953837295323E+00  0.155555555560E+01 -0.403710805661E-02
  0.953837316136E+00  0.155555555560E+01  0.403734594585E-02
  0.953837273189E+00  0.177777777780E+01 -0.403685506552E-02
  0.953837281306E+00  0.177777777780E+01  0.403694784230E-02
  0.953837263629E+00  0.199999980437E+01 -0.403674578817E-02
  0.953837228436E+00  0.199999976412E+01  0.403634353263E-02
  0.953837254113E+00  0.200157054209E+01 -0.371923825463E-02
  0.953837194223E+00  0.200157025267E+01  0.371861751047E-02
  0.953837185484E+00  0.200285314003E+01 -0.285329671891E-02
  0.953837225752E+00  0.200285347822E+01  0.285360958578E-02
  0.953837233122E+00  0.200371894915E+01 -0.157061006173E-02
  0.953837265771E+00  0.200371929913E+01  0.157074040112E-02
  0.953837247371E+00  0.200403655992E+01  0.960616732927E-18
  0.953837326037E+00 -0.222222222220E+00 -0.403745911354E-02
  0.953837310748E+00 -0.222222222220E+00  0.403728436696E-02
  0.953837282572E+00 -0.444444444440E+00 -0.403696231092E-02
  0.953837296466E+00 -0.444444444440E+00  0.403712112142E-02
  0.953837298096E+00 -0.666666666670E+00 -0.403713975136E-02
  0.953837324667E+00 -0.666666666670E+00  0.403744345771E-02
  0.953837293689E+00 -0.888888888890E+00 -0.403708938176E-02
  0.953837284435E+00 -0.888888888890E+00  0.403698360795E-02
  0.953837286751E+00 -0.111111111110E+01 -0.403701008237E-02
  0.953837277980E+00 -0.111111111110E+01  0.403690982696E-02
  0.953837286534E+00 -0.133333333330E+01 -0.403700759319E-02
  0.953837242318E+00 -0.133333333330E+01  0.403650220169E-02
  0.953837239799E+00 -0.155555555560E+01 -0.403647341292E-02
  0.953837254951E+00 -0.155555555560E+01  0.403664660207E-02
  0.953837225570E+00 -0.177777777780E+01 -0.403631077248E-02
  0.953837182491E+00 -0.177777777780E+01  0.403581837705E-02
  0.953837191815E+00 -0.199999972225E+01 -0.403592495997E-02
  0.953837179450E+00 -0.199999970811E+01  0.403578362120E-02
  0.953837190915E+00 -0.200157023668E+01 -0.371858322077E-02
  0.953837232102E+00 -0.200157043572E+01  0.371901011935E-02
  0.953837234755E+00 -0.200285355383E+01 -0.285367953579E-02
  0.953837274118E+00 -0.200285388440E+01  0.285398536590E-02
  0.953837277476E+00 -0.200371942461E+01 -0.157078713071E-02
  0.953837335322E+00 -0.200372004470E+01  0.157101806168E-02
  0.953837336406E+00 -0.200403757759E+01  0.960847653505E-18
  0.863184715856E+00  0.222222222220E+00 -0.119688006456E-01
  0.863184702838E+00  0.000000000000E+00 -0.119686518503E-01
  0.863184704996E+00  0.000000000000E+00  0.119686765126E-01
  0.863184680132E+00  0.222222222220E+00  0.119683923112E-01
  0.863184685032E+00  0.444444444440E+00 -0.119684483205E-01
  0.863184672996E+00  0.444444444440E+00  0.119683107523E-01
  0.863184662545E+00  0.666666666670E+00 -0.119681912919E-01
  0.863184673074E+00  0.666666666670E+00  0.119683116381E-01
  0.863184648290E+00  0.888888888890E+00 -0.119680283546E-01
  0.863184666255E+00  0.888888888890E+00  0.119682337059E-01
  0.863184655292E+00  0.111111111110E+01 -0.119681083954E-01
  0.863184659150E+00  0.111111111110E+01  0.119681524946E-01
  0.863184648477E+00  0.133333333330E+01 -0.119680304954E-01
  0.863184673393E+00  0.133333333330E+01  0.119683152905E-01
  0.863184637925E+00  0.155555555560E+01 -0.119679098887E-01
  0.863184641121E+00  0.155555555560E+01  0.119679464167E-01
  0.863184644477E+00  0.177777777780E+01 -0.119679847777E-01
  0.863184638125E+00  0.177777777780E+01  0.119679121764E-01
  0.863184633636E+00  0.199999980811E+01 -0.119678608614E-01
  0.863184649453E+00  0.199999982619E+01  0.119680416538E-01
  0.863184650190E+00  0.200465664371E+01 -0.110269174587E-01
  0.863184578937E+00  0.200465632931E+01  0.110261662962E-01
  0.863184571267E+00  0.200846039151E+01 -0.846039154886E-02
  0.863184542622E+00  0.200846015995E+01  0.846015999010E-02
  0.863184548283E+00  0.201102584316E+01 -0.465619405265E-02
  0.863184603743E+00  0.201102642784E+01  0.465643876985E-02
  0.863184606870E+00  0.201196755495E+01  0.184288010636E-17
  0.863184680178E+00 -0.222222222220E+00 -0.119683928422E-01
  0.863184694424E+00 -0.222222222220E+00  0.119685556683E-01
  0.863184663293E+00 -0.444444444440E+00 -0.119681998443E-01
  0.863184682984E+00 -0.444444444440E+00  0.119684249148E-01
  0.863184671865E+00 -0.666666666670E+00 -0.119682978208E-01
  0.863184637655E+00 -0.666666666670E+00  0.119679068062E-01
  0.863184659476E+00 -0.888888888890E+00 -0.119681562119E-01
  0.863184633171E+00 -0.888888888890E+00  0.119678555443E-01
  0.863184654370E+00 -0.111111111110E+01 -0.119680978567E-01
  0.863184675348E+00 -0.111111111110E+01  0.119683376305E-01
  0.863184657163E+00 -0.133333333330E+01 -0.119681297733E-01
  0.863184592706E+00 -0.133333333330E+01  0.119673930317E-01
  0.863184637718E+00 -0.155555555560E+01 -0.119679075189E-01
  0.863184583306E+00 -0.155555555560E+01  0.119672855911E-01
  0.863184592872E+00 -0.177777777780E+01 -0.119673949288E-01
  0.863184586668E+00 -0.177777777780E+01  0.119673240120E-01
  0.863184593749E+00 -0.199999976249E+01 -0.119674049553E-01
  0.863184572820E+00 -0.199999973856E+01  0.119671657354E-01
  0.863184561080E+00 -0.200465625052E+01 -0.110259780498E-01
  0.863184545227E+00 -0.200465618057E+01  0.110258109235E-01
  0.863184543189E+00 -0.200846016454E+01 -0.846016457141E-02
  0.863184594813E+00 -0.200846058186E+01  0.846058189205E-02
  0.863184602861E+00 -0.201102641854E+01 -0.465643487817E-02
  0.863184698928E+00 -0.201102743130E+01  0.465685876932E-02
  0.863184704834E+00 -0.201196867468E+01  0.184309138127E-17
  0.708754327188E+00  0.222222222220E+00 -0.254798698738E-01
  0.708754283944E+00  0.000000000000E+00 -0.254793756012E-01
  0.708754319725E+00  0.000000000000E+00  0.254797845792E-01
  0.708754295675E+00  0.222222222220E+00  0.254795096802E-01
  0.708754307298E+00  0.444444444440E+00 -0.254796425394E-01
  0.708754274790E+00  0.444444444440E+00  0.254792709715E-01
  0.708754240346E+00  0.666666666670E+00 -0.254788772689E-01
  0.708754266944E+00  0.666666666670E+00  0.254791812827E-01
  0.708754236506E+00  0.888888888890E+00 -0.254788333806E-01
  0.708754265200E+00  0.888888888890E+00  0.254791613463E-01
  0.708754238283E+00  0.111111111110E+01 -0.254788536900E-01
  0.708754258659E+00  0.111111111110E+01  0.254790865934E-01
  0.708754235145E+00  0.133333333330E+01 -0.254788178224E-01
  0.708754269508E+00  0.133333333330E+01  0.254792105879E-01
  0.708754233772E+00  0.155555555560E+01 -0.254788021252E-01
  0.708754248446E+00  0.155555555560E+01  0.254789698496E-01
  0.708754212984E+00  0.177777777780E+01 -0.254785645236E-01
  0.708754245162E+00  0.177777777780E+01  0.254789323161E-01
  0.708754235110E+00  0.199999981281E+01 -0.254788174163E-01
  0.708754249482E+00  0.199999982925E+01  0.254789816948E-01
  0.708754251117E+00  0.200991360775E+01 -0.234754078837E-01
[...]
POINT_DATA                 419
SCALARS phi float 1
LOOKUP_TABLE default
  0.415629895015+244
  0.415650719298+244
 -0.255259302226+247
 -0.255259371359+247
 -0.268141982805+249
 -0.268161438338+249
  0.352453003410+252
  0.352456653823+252
 -0.115860045800+254
 -0.115829149214+254
 -0.402234646951+257
 -0.402239646470+257
  0.687969602588+259
  0.687982810442+259
 -0.172863863016+262
 -0.172863966891+262
  0.147350118349+303
  0.693065292942+302
 -0.100935007760+306
 -0.525943658956+244
 -0.525936988977+244
  0.264234239865+246
  0.264296153125+246
  0.631322417930+249
  0.631323834397+249
  0.812071382736+251
  0.812032192332+251
 -0.526829087842+254
 -0.526837687095+254
 -0.157752857233+257
 -0.157751235040+257
  0.125579879521+259
  0.125579782130+259
  0.116321801087+303
  0.275488041520+302
 -0.540507544182+305
 -0.225032023530+247
 -0.108886505764+243
  0.457492487782+244
 -0.310235050981+247
  0.134282745798+249
 -0.173687959324+249
  0.233252560075+252
  0.354945710747+252
 -0.286627086237+254
 -0.255809609338+254
 -0.241590028859+257
 -0.333059416144+257
  0.539432620065+259
  0.670193606080+259
 -0.143874191865+262
 -0.138996904823+262
  0.971277868996+263
  0.940071868132+262
           -Infinity
 -0.509940381366+306
           -Infinity
 -0.359463845191+308
           -Infinity
 -0.661446208802+308
           -Infinity
 -0.110118363211+309
 -0.161383512978+309
 -0.595099301501+244
 -0.457653566392+244
  0.216130743803+246
  0.949199436963+246
  0.635059225736+249
  0.604688411245+249
  0.734383572569+251
  0.209350206370+251
 -0.477341396286+254
 -0.473898168543+254
 -0.127354740322+257
 -0.109191787142+257
  0.109150725355+259
  0.103315732790+259
 -0.117370331059+261
  0.320861613954+260
           -Infinity
 -0.429712743061+306
           -Infinity
  0.235675974786+308
 -0.168258457348+309
 -0.222481885673+307
 -0.130206694997+309
 -0.398961139367+308
 -0.851262928977+308
 -0.210360267952+247
 -0.285559126168+244
  0.707915732074+243
 -0.314466065578+247
  0.492014621173+249
  0.320477386671+249
  0.114943745919+252
  0.230375171154+252
 -0.510774796734+254
 -0.608255311647+254
 -0.375397322175+255
 -0.654291522345+256
  0.371738182573+259
  0.479631097137+259
 -0.645276877452+261
 -0.578638034769+261
 -0.284164025191+262
 -0.256685691528+262
 -0.173621539652+266
 -0.130148259469+263
 -0.161881534652+266
 -0.273499788139+265
 -0.149221275009+266
 -0.468541165278+265
 -0.129508964433+266
 -0.735853249493+265
 -0.103081988291+266
 -0.602991530675+244
 -0.455596669613+244
  0.164113921546+246
  0.673544765751+246
  0.539864176773+249
  0.471692196328+249
  0.512397719318+251
  0.103172324975+251
 -0.328830063455+254
 -0.261337443460+254
 -0.448666860084+256
 -0.317916356383+256
  0.616003365076+258
  0.515719767065+258
  0.166288542002+259
  0.133747503909+259
  0.317541131549+263
  0.244968930172+260
  0.288118471803+263
 -0.458077101137+262
  0.246898608793+263
 -0.407149011447+261
  0.191067505430+263
  0.547842337709+262
  0.123751934116+263
 -0.636004316522+246
  0.782085389290+242
  0.247258768928+243
 -0.116636638936+247
  0.704080990493+248
  0.123246300024+249
  0.442102230387+251
  0.816336788968+251
 -0.125156370645+254
 -0.225701767822+254
 -0.306278540089+255
 -0.601192187107+255
  0.814451810580+258
  0.147981534374+259
  0.821384575761+259
  0.144354166277+260
 -0.219560373066+262
 -0.168010080739+262
 -0.544246911294+262
 -0.952492762548+261
 -0.508695985163+262
 -0.146157874910+262
 -0.474631858632+262
 -0.168274199589+262
 -0.428290844636+262
 -0.251837595131+262
 -0.328787796634+262
 -0.232955542549+244
 -0.122376363938+244
 -0.120080919687+245
  0.340172323167+244
  0.193453072007+249
  0.103771040228+249
  0.227644920582+251
  0.114167307704+251
 -0.926663443809+253
 -0.512403125190+253
  0.644189257278+254
  0.228615025188+254
 -0.276251442073+257
 -0.859555393965+256
  0.159594931123+259
  0.801160455317+258
  0.287546688933+259
  0.466465382178+258
  0.258952026121+259
  0.170576897091+258
  0.225036315759+259
  0.525321570577+258
  0.197533477567+259
  0.976163883302+258
  0.143161754121+259
 -0.548048029247+244
 -0.380077654776+241
  0.599645908976+243
 -0.127653071812+241
 -0.114169562685+246
 -0.235881507352+247
  0.493275601309+249
  0.223608038051+249
 -0.515936971746+251
  0.178535652543+252
 -0.346967161342+254
 -0.410605855725+254
  0.956948681493+256
 -0.917132322827+256
  0.277698466500+258
  0.427096759213+259
 -0.642018242213+261
 -0.345455420697+261
 -0.230247944884+262
 -0.229049900838+261
 -0.215272894115+262
 -0.362296146400+261
 -0.201963562532+262
 -0.657858363366+261
 -0.179108936287+262
 -0.103326802088+262
 -0.141154659772+262
 -0.651381093305+241
 -0.111886934523+242
 -0.469728899880+244
 -0.161591816174+242
 -0.448907012843+244
  0.986913715593+246
  0.414024362966+249
  0.125137026948+249
  0.520029146151+251
 -0.668757301491+251
 -0.279164237756+254
 -0.176586663775+254
 -0.716730150097+256
  0.186103092046+256
  0.764968940660+258
  0.173047991149+258
  0.190225728059+259
 -0.113667184569+258
  0.170705800571+259
 -0.216958325303+258
  0.142810234700+259
  0.747673371410+257
  0.113860964854+259
  0.420342806760+258
  0.766403363916+258
  0.613933800977+238
  0.102531165134+242
  0.137081684801+240
  0.211766149293+238
 -0.433664478924+242
  0.484086542405+244
 -0.148792146808+247
 -0.966869194771+246
  0.297144832238+249
 -0.513264000915+249
  0.156697844043+252
  0.239596232348+252
 -0.728645151445+254
  0.257919748236+254
 -0.766298882926+256
 -0.379566824657+257
  0.111478591545+260
  0.394987231034+259
 -0.112334503036+262
 -0.690990493244+260
 -0.105259741843+262
 -0.167152760096+261
 -0.986438061583+261
 -0.332512700081+261
 -0.874455860101+261
 -0.493931602520+261
 -0.682543188436+261
  0.105276501996+239
 -0.706072069420+238
 -0.335084271667+241
 -0.478443277899+241
 -0.226803933223+244
  0.395965469157+242
  0.169501070396+245
  0.715369810343+246
  0.333977202879+249
  0.143635807448+249
  0.664290257901+251
 -0.733429299663+251
 -0.325316399518+254
 -0.347868785284+254
 -0.145929179798+257
  0.305063412015+256
  0.119051790654+259
 -0.442766423624+257
  0.107467042916+259
 -0.139152651484+258
  0.912718255457+258
  0.489585539999+257
  0.743195300777+258
  0.277291232574+258
  0.506502324832+258
 -0.990757006192+235
  0.260199445465+239
 -0.130093049809+239
  0.541372266649+235
  0.780076730584+241
  0.250654209593+242
 -0.150832030132+245
 -0.426956575322+244
  0.264613131663+247
 -0.975448970290+247
  0.583562419864+250
  0.598250211589+250
 -0.357396705647+253
  0.197062611974+253
 -0.117142956825+256
 -0.348836849378+256
  0.205985493706+259
  0.544955852177+258
 -0.316678021434+261
 -0.154154741354+260
 -0.294927798266+261
 -0.503530444653+260
 -0.273355160124+261
 -0.788336992522+260
 -0.241720727393+261
 -0.133794743250+261
 -0.185881134527+261
  0.203730594538+236
 -0.402612732941+236
 -0.304460469884+239
 -0.299364219494+239
 -0.224377121326+242
  0.557661817648+241
  0.431648426411+244
  0.161214818433+245
  0.121887257024+248
  0.435836354372+247
  0.328710742151+250
 -0.554384796069+250
 -0.414498278609+253
 -0.437848272087+253
 -0.321827892053+256
  0.639372769066+255
  0.460920926653+258
 -0.111724190166+257
  0.417826261394+258
 -0.591523199198+257
  0.357959781316+258
  0.110153559738+257
  0.292588952621+258
  0.100524600951+258
  0.194262183689+258
  0.242815752053+233
 -0.206093045807+236
  0.207595602656+236
  0.115614589027+233
 -0.296932948088+239
 -0.589094862488+239
  0.313524983196+242
  0.379785843799+242
  0.111344571914+245
 -0.124090631051+245
  0.366408873758+248
  0.226190176087+248
 -0.331441589764+251
  0.340421161285+251
 -0.500515341145+254
 -0.935859503106+254
  0.137306179918+258
  0.257522751265+257
 -0.374475518922+260
 -0.865150711507+257
 -0.348263173458+260
 -0.601831790108+259
 -0.319886061690+260
 -0.101322084505+260
 -0.276714301646+260
 -0.157567283130+260
 -0.219985226651+260
  0.359913058020+233
 -0.725576266357+233
 -0.101329903447+237
 -0.146268212041+237
 -0.763331331392+239
 -0.532020291101+239
  0.171114530148+242
  0.370500796612+242
  0.771676954779+245
  0.177923698869+245
  0.288390194896+248
 -0.950067371023+248
 -0.154838463917+252
 -0.157586314932+252
 -0.256389947219+255
  0.442299385913+254
  0.725353547171+257
  0.103461565547+255
  0.652678573867+257
 -0.104353074241+257
  0.554748727839+257
 -0.108334576474+256
  0.426048559427+257
  0.120317255036+257
  0.274099231223+257
  0.285822545678+232
  0.252247660860+236
 -0.479561216085+238
 -0.693370408192+242
  0.101535122271+246
  0.163547762270+244
 -0.759705784452+244
 -0.647060023254+250
  0.576161738269+253
  0.387352705245+254
  0.483600691862+233
 -0.327445341848+236
 -0.177490471791+240
 -0.707666274269+242
  0.192706366959+241
 -0.229972602111+244
 -0.917440036074+247
 -0.359842083889+250
  0.847230572455+251
SCALARS phi_mu float 1
LOOKUP_TABLE default
  0.415629895015+244
  0.415650719298+244
 -0.255259302226+247
 -0.255259371359+247
 -0.268141982805+249
 -0.268161438338+249
  0.352453003410+252
  0.352456653823+252
 -0.115860045800+254
 -0.115829149214+254
 -0.402234646951+257
 -0.402239646470+257
  0.687969602588+259
  0.687982810442+259
 -0.172863863016+262
 -0.172863966891+262
  0.147350118349+303
  0.693065292942+302
 -0.100935007760+306
 -0.525943658956+244
 -0.525936988977+244
  0.264234239865+246
  0.264296153125+246
  0.631322417930+249
  0.631323834397+249
  0.812071382736+251
  0.812032192332+251
 -0.526829087842+254
 -0.526837687095+254
 -0.157752857233+257
 -0.157751235040+257
  0.125579879521+259
  0.125579782130+259
  0.116321801087+303
  0.275488041520+302
 -0.540507544182+305
 -0.225032023530+247
 -0.108886505764+243
  0.457492487782+244
 -0.310235050981+247
  0.134282745798+249
 -0.173687959324+249
  0.233252560075+252
  0.354945710747+252
 -0.286627086237+254
 -0.255809609338+254
 -0.241590028859+257
 -0.333059416144+257
  0.539432620065+259
  0.670193606080+259
 -0.143874191865+262
 -0.138996904823+262
  0.971277868996+263
  0.940071868132+262
           -Infinity
 -0.509940381366+306
           -Infinity
 -0.359463845191+308
           -Infinity
 -0.661446208802+308
           -Infinity
 -0.110118363211+309
 -0.161383512978+309
 -0.595099301501+244
 -0.457653566392+244
  0.216130743803+246
  0.949199436963+246
  0.635059225736+249
  0.604688411245+249
  0.734383572569+251
  0.209350206370+251
 -0.477341396286+254
 -0.473898168543+254
 -0.127354740322+257
 -0.109191787142+257
  0.109150725355+259
  0.103315732790+259
 -0.117370331059+261
  0.320861613954+260
           -Infinity
 -0.429712743061+306
           -Infinity
  0.235675974786+308
 -0.168258457348+309
 -0.222481885673+307
 -0.130206694997+309
 -0.398961139367+308
 -0.851262928977+308
 -0.210360267952+247
 -0.285559126168+244
  0.707915732074+243
 -0.314466065578+247
  0.492014621173+249
  0.320477386671+249
  0.114943745919+252
  0.230375171154+252
 -0.510774796734+254
 -0.608255311647+254
 -0.375397322175+255
 -0.654291522345+256
  0.371738182573+259
  0.479631097137+259
 -0.645276877452+261
 -0.578638034769+261
 -0.284164025191+262
 -0.256685691528+262
 -0.173621539652+266
 -0.130148259469+263
 -0.161881534652+266
 -0.273499788139+265
 -0.149221275009+266
 -0.468541165278+265
 -0.129508964433+266
 -0.735853249493+265
 -0.103081988291+266
 -0.602991530675+244
 -0.455596669613+244
  0.164113921546+246
  0.673544765751+246
  0.539864176773+249
  0.471692196328+249
  0.512397719318+251
  0.103172324975+251
 -0.328830063455+254
 -0.261337443460+254
 -0.448666860084+256
 -0.317916356383+256
  0.616003365076+258
  0.515719767065+258
  0.166288542002+259
  0.133747503909+259
  0.317541131549+263
  0.244968930172+260
  0.288118471803+263
 -0.458077101137+262
  0.246898608793+263
 -0.407149011447+261
  0.191067505430+263
  0.547842337709+262
  0.123751934116+263
 -0.636004316522+246
  0.782085389290+242
  0.247258768928+243
 -0.116636638936+247
  0.704080990493+248
  0.123246300024+249
  0.442102230387+251
  0.816336788968+251
 -0.125156370645+254
 -0.225701767822+254
 -0.306278540089+255
 -0.601192187107+255
  0.814451810580+258
  0.147981534374+259
  0.821384575761+259
  0.144354166277+260
 -0.219560373066+262
 -0.168010080739+262
 -0.544246911294+262
 -0.952492762548+261
 -0.508695985163+262
 -0.146157874910+262
 -0.474631858632+262
 -0.168274199589+262
 -0.428290844636+262
 -0.251837595131+262
 -0.328787796634+262
 -0.232955542549+244
 -0.122376363938+244
 -0.120080919687+245
  0.340172323167+244
  0.193453072007+249
  0.103771040228+249
  0.227644920582+251
  0.114167307704+251
 -0.926663443809+253
 -0.512403125190+253
  0.644189257278+254
  0.228615025188+254
 -0.276251442073+257
 -0.859555393965+256
  0.159594931123+259
  0.801160455317+258
  0.287546688933+259
  0.466465382178+258
  0.258952026121+259
  0.170576897091+258
  0.225036315759+259
  0.525321570577+258
  0.197533477567+259
  0.976163883302+258
  0.143161754121+259
 -0.548048029247+244
 -0.380077654776+241
  0.599645908976+243
 -0.127653071812+241
 -0.114169562685+246
 -0.235881507352+247
  0.493275601309+249
  0.223608038051+249
 -0.515936971746+251
  0.178535652543+252
 -0.346967161342+254
 -0.410605855725+254
  0.956948681493+256
 -0.917132322827+256
  0.277698466500+258
  0.427096759213+259
 -0.642018242213+261
 -0.345455420697+261
 -0.230247944884+262
 -0.229049900838+261
 -0.215272894115+262
 -0.362296146400+261
 -0.201963562532+262
 -0.657858363366+261
 -0.179108936287+262
 -0.103326802088+262
 -0.141154659772+262
 -0.651381093305+241
 -0.111886934523+242
 -0.469728899880+244
 -0.161591816174+242
 -0.448907012843+244
  0.986913715593+246
  0.414024362966+249
  0.125137026948+249
  0.520029146151+251
 -0.668757301491+251
 -0.279164237756+254
 -0.176586663775+254
 -0.716730150097+256
  0.186103092046+256
  0.764968940660+258
  0.173047991149+258
  0.190225728059+259
 -0.113667184569+258
  0.170705800571+259
 -0.216958325303+258
  0.142810234700+259
  0.747673371410+257
  0.113860964854+259
  0.420342806760+258
  0.766403363916+258
  0.613933800977+238
  0.102531165134+242
  0.137081684801+240
  0.211766149293+238
 -0.433664478924+242
  0.484086542405+244
 -0.148792146808+247
 -0.966869194771+246
  0.297144832238+249
 -0.513264000915+249
  0.156697844043+252
  0.239596232348+252
 -0.728645151445+254
  0.257919748236+254
 -0.766298882926+256
 -0.379566824657+257
  0.111478591545+260
  0.394987231034+259
 -0.112334503036+262
 -0.690990493244+260
 -0.105259741843+262
 -0.167152760096+261
 -0.986438061583+261
 -0.332512700081+261
 -0.874455860101+261
 -0.493931602520+261
 -0.682543188436+261
  0.105276501996+239
 -0.706072069420+238
 -0.335084271667+241
 -0.478443277899+241
 -0.226803933223+244
  0.395965469157+242
  0.169501070396+245
  0.715369810343+246
  0.333977202879+249
  0.143635807448+249
  0.664290257901+251
 -0.733429299663+251
 -0.325316399518+254
 -0.347868785284+254
 -0.145929179798+257
  0.305063412015+256
  0.119051790654+259
 -0.442766423624+257
  0.107467042916+259
 -0.139152651484+258
  0.912718255457+258
  0.489585539999+257
  0.743195300777+258
  0.277291232574+258
  0.506502324832+258
 -0.990757006192+235
  0.260199445465+239
 -0.130093049809+239
  0.541372266649+235
  0.780076730584+241
  0.250654209593+242
 -0.150832030132+245
 -0.426956575322+244
  0.264613131663+247
 -0.975448970290+247
  0.583562419864+250
  0.598250211589+250
 -0.357396705647+253
  0.197062611974+253
 -0.117142956825+256
 -0.348836849378+256
  0.205985493706+259
  0.544955852177+258
 -0.316678021434+261
 -0.154154741354+260
 -0.294927798266+261
 -0.503530444653+260
 -0.273355160124+261
 -0.788336992522+260
 -0.241720727393+261
 -0.133794743250+261
 -0.185881134527+261
  0.203730594538+236
 -0.402612732941+236
 -0.304460469884+239
 -0.299364219494+239
 -0.224377121326+242
  0.557661817648+241
  0.431648426411+244
  0.161214818433+245
  0.121887257024+248
  0.435836354372+247
  0.328710742151+250
 -0.554384796069+250
 -0.414498278609+253
 -0.437848272087+253
 -0.321827892053+256
  0.639372769066+255
  0.460920926653+258
 -0.111724190166+257
  0.417826261394+258
 -0.591523199198+257
  0.357959781316+258
  0.110153559738+257
  0.292588952621+258
  0.100524600951+258
  0.194262183689+258
  0.242815752053+233
 -0.206093045807+236
  0.207595602656+236
  0.115614589027+233
 -0.296932948088+239
 -0.589094862488+239
  0.313524983196+242
  0.379785843799+242
  0.111344571914+245
 -0.124090631051+245
  0.366408873758+248
  0.226190176087+248
 -0.331441589764+251
  0.340421161285+251
 -0.500515341145+254
 -0.935859503106+254
  0.137306179918+258
  0.257522751265+257
 -0.374475518922+260
 -0.865150711507+257
 -0.348263173458+260
 -0.601831790108+259
 -0.319886061690+260
 -0.101322084505+260
 -0.276714301646+260
 -0.157567283130+260
 -0.219985226651+260
  0.359913058020+233
 -0.725576266357+233
 -0.101329903447+237
 -0.146268212041+237
 -0.763331331392+239
 -0.532020291101+239
  0.171114530148+242
  0.370500796612+242
  0.771676954779+245
  0.177923698869+245
  0.288390194896+248
 -0.950067371023+248
 -0.154838463917+252
 -0.157586314932+252
 -0.256389947219+255
  0.442299385913+254
  0.725353547171+257
  0.103461565547+255
  0.652678573867+257
 -0.104353074241+257
  0.554748727839+257
 -0.108334576474+256
  0.426048559427+257
  0.120317255036+257
  0.274099231223+257
  0.285822545678+232
  0.252247660860+236
 -0.479561216085+238
 -0.693370408192+242
  0.101535122271+246
  0.163547762270+244
 -0.759705784452+244
 -0.647060023254+250
  0.576161738269+253
  0.387352705245+254
  0.483600691862+233
 -0.327445341848+236
 -0.177490471791+240
 -0.707666274269+242
  0.192706366959+241
 -0.229972602111+244
 -0.917440036074+247
 -0.359842083889+250
  0.847230572455+251
SCALARS phi_sigma float 1
LOOKUP_TABLE default
 -0.658662180544E-07
 -0.658662180466E-07
 -0.749154186715E-07
 -0.749154186854E-07
 -0.580501000715E-07
 -0.580501000949E-07
 -0.942905355420E-07
 -0.942905355528E-07
 -0.114051637431E-06
 -0.114051637433E-06
 -0.713601825542E-07
 -0.713601825749E-07
 -0.952927038660E-07
 -0.952927038592E-07
  0.125056204015E-01
  0.125056574991E-01
  0.130509212548E-01
  0.130509242796E-01
  0.381450046481E-02
 -0.730288393681E-07
 -0.730288393569E-07
 -0.107328720412E-06
 -0.107328720418E-06
 -0.102471484688E-06
 -0.102471484678E-06
 -0.844402319906E-07
 -0.844402319690E-07
 -0.992028715849E-07
 -0.992028715927E-07
 -0.140604793413E-06
 -0.140604793411E-06
  0.125056042204E-01
  0.125055565874E-01
  0.130509196884E-01
  0.130509154079E-01
  0.381450393154E-02
 -0.274819605032E-02
 -0.274819677652E-02
 -0.274819732362E-02
 -0.274819684751E-02
 -0.274819870777E-02
 -0.274819892090E-02
 -0.274819975799E-02
 -0.274820145235E-02
 -0.274820081556E-02
 -0.274819767757E-02
 -0.274820092055E-02
 -0.274820148347E-02
 -0.274820024044E-02
 -0.274820211541E-02
  0.745426196436E-02
  0.885060014318E-02
  0.136496061496E-01
  0.149681704322E-01
  0.670765059174E-02
 -0.200095121250E-02
  0.625858471913E-02
 -0.154047746045E-02
  0.527990910958E-02
 -0.539617036253E-03
  0.393449493978E-02
  0.827097695165E-03
  0.238518967945E-02
 -0.274819840465E-02
 -0.274819931480E-02
 -0.274820099224E-02
 -0.274820016504E-02
 -0.274820006801E-02
 -0.274819848621E-02
 -0.274820033035E-02
 -0.274820088132E-02
 -0.274820074340E-02
 -0.274820126559E-02
 -0.274820075657E-02
 -0.274820338848E-02
  0.885044241488E-02
  0.745433826127E-02
  0.149680630640E-01
  0.136497713990E-01
 -0.200055990243E-02
  0.670666613266E-02
 -0.154044638482E-02
  0.625835400926E-02
 -0.539676881983E-03
  0.528060986922E-02
  0.827062500706E-03
  0.393494389697E-02
  0.238525316664E-02
 -0.814501226554E-02
 -0.814501304053E-02
 -0.814501291208E-02
 -0.814501439234E-02
 -0.814501410060E-02
 -0.814501481714E-02
 -0.814501543935E-02
 -0.814501481250E-02
 -0.814501628801E-02
 -0.814501521839E-02
 -0.814501587107E-02
 -0.814501564144E-02
 -0.814501627670E-02
 -0.814501479363E-02
 -0.214606157855E-02
  0.547874735797E-03
  0.446814617514E-02
  0.132096734171E-01