# vtk DataFile Version 3.0
TriPan results file. Generated by TriPan, USU AeroLab (c) 2021.
ASCII
DATASET POLYDATA
POINTS                 446 float
  0.190349744366E-05  0.000000000000E+00  0.000000000000E+00
  0.180155439444E-05  0.217527970672E+00  0.000000000000E+00
  0.188619651827E-05  0.448061168194E+00  0.000000000000E+00
  0.195463115218E-05  0.689725637436E+00  0.000000000000E+00
  0.200381935583E-05  0.940178275108E+00  0.000000000000E+00
  0.203146979263E-05  0.119668114185E+01  0.000000000000E+00
  0.203625478170E-05  0.145621216297E+01  0.432309807279E-21
  0.201794494299E-05  0.171560299397E+01  0.000000000000E+00
  0.197742965724E-05  0.197169232368E+01  0.000000000000E+00
  0.191662923716E-05  0.222147774696E+01  0.000000000000E+00
  0.183830664114E-05  0.246225214005E+01  0.000000000000E+00
  0.174581819542E-05  0.269171094894E+01  0.370648277606E-21
  0.164282618113E-05  0.290802383423E+01  0.000000000000E+00
  0.153302818423E-05  0.310986590385E+01  0.000000000000E+00
  0.141992384673E-05  0.329641318321E+01  0.000000000000E+00
  0.130663581474E-05  0.346730756760E+01  0.000000000000E+00
  0.119580047662E-05  0.362259936333E+01  0.000000000000E+00
  0.108952656797E-05  0.376267743111E+01  0.000000000000E+00
  0.989381096661E-06  0.388819599152E+01  0.000000000000E+00
  0.971479789355E-07  0.399999949033E+01 -0.325828402727E-22
  0.341101700422E-01  0.000000000000E+00 -0.298244900752E-02
  0.341101700422E-01  0.000000000000E+00  0.298244900752E-02
  0.341101732645E-01  0.217527970672E+00 -0.298241217554E-02
  0.341101732645E-01  0.217527970672E+00  0.298241217554E-02
  0.341101808994E-01  0.448061168194E+00 -0.298232490813E-02
  0.341101808994E-01  0.448061168194E+00  0.298232490813E-02
  0.341101872069E-01  0.689725637436E+00 -0.298225281343E-02
  0.341101872069E-01  0.689725637436E+00  0.298225281343E-02
  0.341101919096E-01  0.940178275108E+00 -0.298219906190E-02
  0.341101919096E-01  0.940178275108E+00  0.298219906190E-02
  0.341101947895E-01  0.119668114185E+01 -0.298216614364E-02
  0.341101947895E-01  0.119668114185E+01  0.298216614364E-02
  0.341101957088E-01  0.145621216297E+01 -0.298215563625E-02
  0.341101957088E-01  0.145621216297E+01  0.298215563625E-02
  0.341101946228E-01  0.171560299397E+01 -0.298216804932E-02
  0.341101946228E-01  0.171560299397E+01  0.298216804932E-02
  0.341101915849E-01  0.197169232368E+01 -0.298220277328E-02
  0.341101915849E-01  0.197169232368E+01  0.298220277328E-02
  0.341101867408E-01  0.222147774696E+01 -0.298225814118E-02
  0.341101867408E-01  0.222147774696E+01  0.298225814118E-02
  0.341101803147E-01  0.246225214005E+01 -0.298233159154E-02
  0.341101803147E-01  0.246225214005E+01  0.298233159154E-02
  0.341101725883E-01  0.269171094894E+01 -0.298241990475E-02
  0.341101725883E-01  0.269171094894E+01  0.298241990475E-02
  0.341101638765E-01  0.290802383423E+01 -0.298251948086E-02
  0.341101638765E-01  0.290802383423E+01  0.298251948086E-02
  0.341101545033E-01  0.310986590385E+01 -0.298262661791E-02
  0.341101545033E-01  0.310986590385E+01  0.298262661791E-02
  0.341101447801E-01  0.329641318321E+01 -0.298273775438E-02
  0.341101447801E-01  0.329641318321E+01  0.298273775438E-02
  0.341101349893E-01  0.346730756760E+01 -0.298284966302E-02
  0.341101349893E-01  0.346730756760E+01  0.298284966302E-02
  0.341101253729E-01  0.362259936333E+01 -0.298295957907E-02
  0.341101253729E-01  0.362259936333E+01  0.298295957907E-02
  0.341101161271E-01  0.376267743111E+01 -0.298306525965E-02
  0.341101161271E-01  0.376267743111E+01  0.298306525965E-02
  0.341101074006E-01  0.388819599152E+01 -0.298316500328E-02
  0.341101074006E-01  0.388819599152E+01  0.298316500328E-02
  0.341100737472E-01  0.399999986265E+01 -0.298354966883E-02
  0.341100737472E-01  0.399999986265E+01  0.298354966883E-02
  0.341100436987E-01  0.400210926234E+01 -0.210953759438E-02
  0.341100436987E-01  0.400210926234E+01  0.210953759438E-02
  0.341100370391E-01  0.400298377669E+01 -0.122196032094E-22
  0.937239372188E-01  0.000000000000E+00 -0.819781594942E-02
  0.937239372188E-01  0.000000000000E+00  0.819781594942E-02
  0.937239391905E-01  0.217527970672E+00 -0.819779341279E-02
  0.937239391905E-01  0.217527970672E+00  0.819779341279E-02
  0.937239466997E-01  0.448061168194E+00 -0.819770758223E-02
  0.937239466997E-01  0.448061168194E+00  0.819770758223E-02
  0.937239529129E-01  0.689725637436E+00 -0.819763656592E-02
  0.937239529129E-01  0.689725637436E+00  0.819763656592E-02
  0.937239575511E-01  0.940178275108E+00 -0.819758355120E-02
  0.937239575511E-01  0.940178275108E+00  0.819758355120E-02
  0.937239603954E-01  0.119668114185E+01 -0.819755104039E-02
  0.937239603954E-01  0.119668114185E+01  0.819755104039E-02
  0.937239613072E-01  0.145621216297E+01 -0.819754061826E-02
  0.937239613072E-01  0.145621216297E+01  0.819754061826E-02
  0.937239602418E-01  0.171560299397E+01 -0.819755279622E-02
  0.937239602418E-01  0.171560299397E+01  0.819755279622E-02
  0.937239572527E-01  0.197169232368E+01 -0.819758696122E-02
  0.937239572527E-01  0.197169232368E+01  0.819758696122E-02
  0.937239524866E-01  0.222147774696E+01 -0.819764143773E-02
  0.937239524866E-01  0.222147774696E+01  0.819764143773E-02
  0.937239461688E-01  0.246225214005E+01 -0.819771365102E-02
  0.937239461688E-01  0.246225214005E+01  0.819771365102E-02
  0.937239385823E-01  0.269171094894E+01 -0.819780036452E-02
  0.937239385823E-01  0.269171094894E+01  0.819780036452E-02
  0.937239300440E-01  0.290802383423E+01 -0.819789795872E-02
  0.937239300440E-01  0.290802383423E+01  0.819789795872E-02
  0.937239208793E-01  0.310986590385E+01 -0.819800271149E-02
  0.937239208793E-01  0.310986590385E+01  0.819800271149E-02
  0.937239114015E-01  0.329641318321E+01 -0.819811104320E-02
  0.937239114015E-01  0.329641318321E+01  0.819811104320E-02
  0.937239018940E-01  0.346730756760E+01 -0.819821971403E-02
  0.937239018940E-01  0.346730756760E+01  0.819821971403E-02
  0.937238925990E-01  0.362259936333E+01 -0.819832595654E-02
  0.937238925990E-01  0.362259936333E+01  0.819832595654E-02
  0.937238837116E-01  0.376267743111E+01 -0.819842754027E-02
  0.937238837116E-01  0.376267743111E+01  0.819842754027E-02
  0.937238753778E-01  0.388819599152E+01 -0.819852279555E-02
  0.937238753778E-01  0.388819599152E+01  0.819852279555E-02
  0.937238447620E-01  0.399999982191E+01 -0.819887273523E-02
  0.937238447620E-01  0.399999982191E+01  0.819887273523E-02
  0.937238187329E-01  0.400579648713E+01 -0.579655186704E-02
  0.937238187329E-01  0.400579648713E+01  0.579655186704E-02
  0.937238127474E-01  0.400819916324E+01 -0.531059685571E-23
  0.190432515049E+00  0.000000000000E+00 -0.166584976144E-01
  0.190432515049E+00  0.000000000000E+00  0.166584976144E-01
  0.190432515623E+00  0.217527970672E+00 -0.166584910535E-01
  0.190432515623E+00  0.217527970672E+00  0.166584910535E-01
  0.190432522917E+00  0.448061168194E+00 -0.166584076910E-01
  0.190432522917E+00  0.448061168194E+00  0.166584076910E-01
  0.190432528965E+00  0.689725637436E+00 -0.166583385577E-01
  0.190432528965E+00  0.689725637436E+00  0.166583385577E-01
  0.190432533488E+00  0.940178275108E+00 -0.166582868539E-01
  0.190432533488E+00  0.940178275108E+00  0.166582868539E-01
  0.190432536267E+00  0.119668114185E+01 -0.166582550931E-01
  0.190432536267E+00  0.119668114185E+01  0.166582550931E-01
  0.190432537162E+00  0.145621216297E+01 -0.166582448678E-01
  0.190432537162E+00  0.145621216297E+01  0.166582448678E-01
  0.190432536127E+00  0.171560299397E+01 -0.166582566924E-01
  0.190432536127E+00  0.171560299397E+01  0.166582566924E-01
  0.190432533217E+00  0.197169232368E+01 -0.166582899521E-01
  0.190432533217E+00  0.197169232368E+01  0.166582899521E-01
  0.190432528579E+00  0.222147774696E+01 -0.166583429656E-01
  0.190432528579E+00  0.222147774696E+01  0.166583429656E-01
  0.190432522439E+00  0.246225214005E+01 -0.166584131493E-01
  0.190432522439E+00  0.246225214005E+01  0.166584131493E-01
  0.190432515080E+00  0.269171094894E+01 -0.166584972583E-01
  0.190432515080E+00  0.269171094894E+01  0.166584972583E-01
  0.190432506821E+00  0.290802383423E+01 -0.166585916677E-01
  0.190432506821E+00  0.290802383423E+01  0.166585916677E-01
  0.190432497985E+00  0.310986590385E+01 -0.166586926582E-01
  0.190432497985E+00  0.310986590385E+01  0.166586926582E-01
  0.190432488886E+00  0.329641318321E+01 -0.166587966664E-01
  0.190432488886E+00  0.329641318321E+01  0.166587966664E-01
  0.190432479802E+00  0.346730756760E+01 -0.166589004874E-01
  0.190432479802E+00  0.346730756760E+01  0.166589004874E-01
  0.190432470973E+00  0.362259936333E+01 -0.166590014131E-01
  0.190432470973E+00  0.362259936333E+01  0.166590014131E-01
  0.190432462584E+00  0.376267743111E+01 -0.166590972994E-01
  0.190432462584E+00  0.376267743111E+01  0.166590972994E-01
  0.190432454772E+00  0.388819599152E+01 -0.166591865905E-01
  0.190432454772E+00  0.388819599152E+01  0.166591865905E-01
  0.190432426971E+00  0.399999976796E+01 -0.166595043537E-01
  0.190432426971E+00  0.399999976796E+01  0.166595043537E-01
  0.190432405032E+00  0.401177770772E+01 -0.117779154044E-01
  0.190432405032E+00  0.401177770772E+01  0.117779154044E-01
  0.190432398107E+00  0.401665985477E+01 -0.272412558306E-17
  0.329832195175E+00  0.000000000000E+00 -0.288541863447E-01
  0.329832195175E+00  0.000000000000E+00  0.288541863447E-01
  0.329832196040E+00  0.217527970672E+00 -0.288541764567E-01
  0.329832196040E+00  0.217527970672E+00  0.288541764567E-01
  0.329832203100E+00  0.448061168194E+00 -0.288540957614E-01
  0.329832203100E+00  0.448061168194E+00  0.288540957614E-01
  0.329832208967E+00  0.689725637436E+00 -0.288540287094E-01
  0.329832208967E+00  0.689725637436E+00  0.288540287094E-01
  0.329832213360E+00  0.940178275108E+00 -0.288539784943E-01
  0.329832213360E+00  0.940178275108E+00  0.288539784943E-01
  0.329832216060E+00  0.119668114185E+01 -0.288539476290E-01
  0.329832216060E+00  0.119668114185E+01  0.288539476290E-01
[...]
POINT_DATA                 446
SCALARS phi float 1
LOOKUP_TABLE default
 -0.279641814144E-17
  0.241918743389E-17
  0.110044674833E-16
  0.131018179502E-16
  0.115524378555E-16
  0.868174073960E-16
  0.539512388805E-15
 -0.404846270204E-16
 -0.244734515316E-16
  0.133780839157E-16
  0.338515119491E-16
  0.404438706873E-16
 -0.390135278055E-16
 -0.101424597722E-16
  0.893502404704E-16
  0.558826882388E-16
 -0.530837886072E-16
  0.109493363261E-15
 -0.130030869895E-15
  0.995924797763E-16
 -0.345182866665E-15
  0.408269880577E-18
 -0.370112740369E-15
  0.268001224511E-17
  0.349343492502E-15
  0.376726373621E-16
 -0.304498180143E-15
  0.405593256463E-16
 -0.982646310242E-15
  0.121193474093E-16
 -0.104185052512E-14
  0.720147411756E-16
  0.198327682402E-15
  0.137558150634E-16
 -0.147315970186E-15
 -0.264545330086E-16
  0.856058930340E-15
  0.159062623099E-15
 -0.447368921422E-16
 -0.150436439564E-15
  0.107064964533E-17
  0.119025069748E-16
 -0.513017362966E-15
 -0.121837219133E-16
 -0.270291601601E-15
  0.277284705613E-16
  0.345318391937E-16
 -0.116053678169E-15
  0.309675245516E-17
 -0.546410789878E-15
 -0.218385422593E-15
 -0.658026015404E-16
  0.101047642476E-15
 -0.942552852716E-15
  0.307350987109E-15
  0.894246563734E-15
 -0.625449128253E-16
  0.199118811175E-15
 -0.414012763959E-16
  0.278065669991E-15
 -0.124080670597E-14
  0.824006885979E-17
  0.102045023771E-15
  0.834835672814E-16
  0.498732999343E-17
 -0.459701721134E-15
  0.240692882292E-16
  0.161654543918E-14
  0.555111512313E-16
 -0.416550474669E-15
 -0.267797936604E-15
 -0.303576608296E-15
 -0.702563007771E-16
  0.418502038579E-15
  0.673506389548E-15
  0.709501901675E-15
 -0.305745012641E-16
  0.233753988388E-15
  0.765663574209E-15
 -0.190169061054E-15
 -0.118611717670E-15
 -0.145499931548E-15
 -0.371881345163E-15
 -0.336536354340E-15
  0.142681005899E-15
  0.161589491787E-14
 -0.247198095327E-16
 -0.294469310047E-15
 -0.117093834628E-15
  0.222456601751E-14
  0.241126563161E-15
  0.444739731154E-15
  0.867361737988E-16
  0.827246257606E-15
 -0.604767971812E-15
 -0.868662780595E-15
 -0.109287578987E-15
 -0.343193355679E-14
 -0.889479462307E-15
  0.192218203160E-14
  0.216515173845E-15
 -0.116160065507E-14
  0.159974030550E-15
 -0.109558629530E-15
 -0.493583039024E-15
 -0.188363864437E-14
 -0.563785129692E-17
 -0.101915004214E-15
  0.892081547521E-15
 -0.224213009270E-15
 -0.104733929862E-14
 -0.178676518026E-15
  0.134874750257E-15
 -0.255438031838E-15
 -0.296377505871E-14
 -0.449293380278E-15
  0.176074432812E-15
  0.146757606068E-14
 -0.252749210450E-14
 -0.464038529824E-16
 -0.984455572617E-15
 -0.417634676841E-15
 -0.441053443767E-15
 -0.850448184098E-15
 -0.205998412772E-15
 -0.771084585072E-15
  0.628837260042E-16
 -0.537764277553E-15
  0.143548367637E-15
  0.235532079951E-14
 -0.135134958779E-14
 -0.750267903360E-16
  0.927209697910E-15
 -0.188217497143E-15
  0.178676518026E-14
 -0.301234731603E-14
  0.308000153160E-14
  0.244465905852E-14
 -0.231195271261E-14
  0.275040407116E-14
 -0.178546413765E-14
 -0.126504709486E-14
 -0.178199469070E-13
 -0.179595921468E-13
 -0.195210601156E-15
 -0.115188349310E-14
 -0.648027638495E-15
  0.628295158955E-15
 -0.648092690625E-14
 -0.128109328701E-14
 -0.298632646389E-14
  0.272351585728E-15
 -0.346944695195E-17
  0.405404876336E-14
 -0.100093544564E-14
 -0.260208521397E-16
  0.132706345912E-14
 -0.550427758927E-14
 -0.275127143290E-14
 -0.938485400503E-14
 -0.118672432992E-13
 -0.238351005599E-13
  0.379210551849E-14
 -0.618081974491E-14
 -0.279117007285E-14
 -0.511049536023E-14
  0.253096155145E-14
  0.291780488659E-14
 -0.377475828373E-14
 -0.537764277553E-15
  0.502896335686E-14
 -0.119869392190E-14
 -0.459007831743E-14
  0.197411531566E-14
  0.251534904017E-15
 -0.191860416443E-14
  0.305311331772E-15
  0.111022302463E-14
 -0.158900670399E-14
  0.410435574416E-14
 -0.756686380221E-14
  0.416333634234E-16
  0.389618892704E-14
  0.834575464292E-14
 -0.881239525796E-15
  0.190090998498E-13
  0.338548633572E-13
  0.201887118134E-13
  0.653990750443E-15
  0.143841102224E-14
 -0.153490501559E-13
 -0.175900960464E-13
 -0.693889390391E-16
 -0.351281503885E-14
  0.621031004400E-15
  0.162959923333E-13
 -0.415639744844E-14
 -0.144328993201E-14
 -0.975608482889E-14
  0.122540866343E-13
  0.124206200880E-14
 -0.154251611484E-13
 -0.335148575559E-14
  0.217187379192E-14
  0.126981758442E-14
 -0.199493199737E-13
 -0.787564458093E-14
 -0.581479309147E-14
 -0.230371277610E-14
 -0.292821322745E-14
 -0.562050406216E-14
 -0.119557141964E-13
 -0.304617442382E-14
 -0.752869988574E-14
  0.253269627493E-14
 -0.735522753814E-15
 -0.142420797378E-13
 -0.374734965281E-13
 -0.100058850094E-13
 -0.301599023533E-13
  0.341046635377E-14
 -0.161676227961E-14
  0.154806722996E-13
  0.210317874227E-13
  0.189431803577E-14
 -0.159629254259E-13
 -0.107344688693E-13
 -0.814626144319E-14
  0.126149091173E-13
 -0.493494134446E-13
  0.419803081186E-15
 -0.843249081672E-14
  0.107136521876E-13
  0.522672183312E-14
  0.674113542765E-14
 -0.125177646026E-13
 -0.257779908530E-14
 -0.144745326836E-13
 -0.181799020282E-13
 -0.228289609439E-14
 -0.307046055248E-14
 -0.273392419814E-14
  0.103007880004E-13
 -0.464558946867E-14
 -0.389965837400E-14
  0.876729244759E-14
  0.661970478433E-14
  0.149602552568E-13
  0.114526443884E-13
 -0.172570291390E-13
  0.225791607633E-13
 -0.176629544324E-13
 -0.699093560819E-14
  0.108593689596E-13
  0.357006091356E-14
 -0.378169717763E-15
 -0.987404602526E-14
  0.665092980690E-14
  0.228983498829E-14
 -0.571764857682E-14
  0.267147415300E-14
 -0.218158824339E-13
 -0.228081442621E-13
  0.222738494315E-14
  0.178260184391E-13
  0.172223346695E-13
  0.631265872908E-14
  0.123984156275E-12
  0.940914013370E-14
  0.147659662275E-13
 -0.198729921408E-13
 -0.273392419814E-13
  0.153765888911E-13
  0.839606162373E-15
 -0.375741104897E-13
 -0.212052597703E-13
 -0.360475538308E-13
 -0.161086421979E-13
  0.120736753928E-14
 -0.352495810318E-13
 -0.145751466452E-13
 -0.138777878078E-15
  0.625888230132E-14
  0.198591143530E-13
  0.897198981775E-14
  0.432986979604E-14
 -0.202459576881E-13
 -0.217716469852E-13
  0.679404449366E-14
 -0.463518112781E-14
 -0.334107741473E-14
 -0.107639591684E-14
 -0.575581249329E-14
  0.397069530034E-13
  0.118308141062E-14
 -0.420670442924E-15
 -0.434374758385E-14
 -0.575754721677E-14
  0.534641775296E-14
 -0.560315682741E-14
  0.135655375821E-13
  0.728583859910E-15
 -0.162534916082E-13
 -0.921138165744E-15
 -0.503416752728E-14
 -0.101620101223E-13
  0.137407446532E-13
  0.147139245232E-13
  0.340699690682E-14
  0.119557141964E-13
  0.652256026967E-13
  0.133226762955E-13
  0.104471986617E-12
  0.393018950717E-13
 -0.150990331349E-13
  0.186517468137E-13
 -0.284772205816E-13
  0.746208650426E-13
  0.258404408982E-13
  0.232036612147E-13
 -0.192484916894E-13
  0.240640840588E-13
 -0.194289029309E-15
  0.127953203588E-13
  0.213717932240E-14
  0.176143821751E-13
  0.234534613952E-13
  0.818789480661E-15
 -0.694236335086E-14
 -0.342781358853E-13
  0.144328993201E-14
  0.208166817117E-14
  0.464212002171E-14
 -0.112965192756E-13
  0.291433543964E-14
  0.929811783124E-15
  0.398292510084E-14
  0.499600361081E-14
  0.190680804479E-13
 -0.268465805142E-13
 -0.685562717706E-14
 -0.853483950181E-15
 -0.235228503342E-14
 -0.127259314198E-13
 -0.861047344536E-13
  0.419109191796E-14
  0.358046925442E-14
 -0.232591723659E-13
 -0.182701076490E-13
 -0.245498066320E-13
 -0.490441021128E-13
 -0.102251540568E-12
  0.598965321785E-13
 -0.593969318174E-13
 -0.207611705605E-13
  0.205946371068E-13
  0.116628928737E-12
  0.804911692853E-14
  0.393574062230E-13
 -0.718036741176E-13
 -0.475730566052E-13
 -0.807964806171E-13
 -0.430072644164E-13
 -0.320160564726E-13
 -0.727196081129E-14
  0.215660822533E-13
 -0.155708779204E-13
  0.412031520014E-13
  0.416333634234E-16
  0.139749323225E-13
 -0.425354196310E-14
 -0.185684800869E-13
  0.197619698383E-13
  0.807687250415E-14
  0.429170587957E-13
  0.239391839685E-13
  0.442978986825E-13
  0.327515792264E-13
  0.108732467474E-13
  0.123720478307E-13
 -0.513478148889E-14
  0.158900670399E-14
  0.125906229886E-13
  0.186482773668E-13
  0.596744875736E-15
  0.209693373776E-13
 -0.281719092499E-14
 -0.471844785466E-14
  0.211219930435E-13
  0.107830411267E-13
 -0.238697950294E-14
  0.435346203531E-13
 -0.563438184997E-14
 -0.455191440096E-14
  0.248412401760E-14
 -0.111577413975E-13
 -0.578426195830E-13
 -0.573985303731E-13
 -0.166533453694E-13
  0.636157793110E-13
 -0.233146835171E-14
  0.137667655054E-13
 -0.816013923099E-14
  0.120181642416E-13
 -0.221211937657E-13
  0.196231919602E-13
  0.105471187339E-14
  0.491273688397E-14
  0.437566649580E-13
 -0.964506252643E-14
  0.157512891619E-13
 -0.288519208524E-13
  0.258126853225E-14
  0.463240557025E-13
 -0.519029264012E-13
  0.166672231572E-13
  0.156055723899E-13
  0.102695629778E-14
 -0.116989751220E-13
  0.291433543964E-15
  0.120736753928E-14
 -0.314609449603E-13
 -0.159872115546E-13
 -0.299760216649E-13
 -0.422994972382E-13
 -0.286437540353E-13
 -0.507927033766E-13
 -0.132949207199E-13
  0.449362769217E-13
 -0.306005221162E-13
 -0.587724313661E-14
 -0.109495745804E-13
 -0.119626530903E-13
  0.720812298738E-13
 -0.154043444667E-13
  0.155570001326E-13
  0.830585600298E-14
  0.139332989590E-13
  0.721644966006E-15
 -0.129063426613E-14
  0.652256026967E-15
 -0.148075995909E-13
 -0.464073224293E-13
 -0.431876756579E-13
 -0.106581410364E-13
  0.502931030155E-13
SCALARS phi_mu float 1
LOOKUP_TABLE default
 -0.370854063604E-13
 -0.564930047187E-13
 -0.619184608100E-13
 -0.664922760948E-13
 -0.698835520702E-13
 -0.717507650516E-13
 -0.716369238235E-13
 -0.709246029962E-13
 -0.680904985173E-13
 -0.639308484623E-13
 -0.587904291222E-13
 -0.530129325854E-13
 -0.470166440503E-13
 -0.312798289874E-13
 -0.267350161107E-13
 -0.226574266076E-13
 -0.190750820223E-13
 -0.156803145772E-13
 -0.914603137149E-14
  0.616097884515E-16
 -0.571644682551E-04
 -0.952741619370E-05
 -0.571637684780E-04
 -0.238182412049E-04
 -0.571621094645E-04
 -0.238175503525E-04
 -0.571607389248E-04
 -0.238169796411E-04
 -0.571597171111E-04
 -0.238165541523E-04
 -0.571590913436E-04
 -0.238162935828E-04
 -0.571588916007E-04
 -0.238162104111E-04
 -0.571591275691E-04
 -0.238163086675E-04
 -0.571597876620E-04
 -0.238165835304E-04
 -0.571608402057E-04
 -0.238170218157E-04
 -0.571622365197E-04
 -0.238176032605E-04
 -0.571639154177E-04
 -0.238183023949E-04
 -0.476381732363E-04
 -0.142914554934E-04
 -0.381118960973E-04
 -0.476398974620E-05
 -0.381133048134E-04
 -0.142924915469E-04
 -0.381147233539E-04
 -0.142930231968E-04
 -0.381161166716E-04
 -0.142935454178E-04
 -0.285880918038E-04
 -0.476468301760E-05
 -0.285890401661E-04
 -0.476484090084E-05
 -0.953089902200E-05
  0.749217084441E-05
 -0.714838095069E-05
 -0.204752338330E-06
 -0.238327472750E-05
  0.134775968785E-02
  0.138347836815E-02
 -0.162339148311E-02
 -0.151674083105E-02
 -0.169930496618E-02
 -0.159250136121E-02
 -0.183391665889E-02
 -0.172697445304E-02
 -0.188060250621E-02
 -0.177353445288E-02
 -0.190918434070E-02
 -0.180200151803E-02
 -0.191831026645E-02
 -0.181102210225E-02
 -0.190754342941E-02
 -0.180015787356E-02
 -0.187740599358E-02
 -0.176992974687E-02
 -0.182932587725E-02
 -0.172176477025E-02
 -0.176549662177E-02
 -0.165785609229E-02
 -0.161671810530E-02
 -0.150900389406E-02
 -0.152997989460E-02
 -0.142219886846E-02
 -0.143648943111E-02
 -0.132865073656E-02
 -0.133928451702E-02
 -0.123140096172E-02
 -0.124111188574E-02
 -0.113320152573E-02
 -0.114431775160E-02
 -0.103640564945E-02
 -0.105079833385E-02
 -0.101487957400E-02
 -0.961985177773E-03
 -0.926142851960E-03
 -0.995985605993E-04
 -0.123677120776E-03
 -0.263056419113E-03
 -0.277550955532E-03
 -0.341225703434E-03
  0.196536850581E-03
  0.291337220773E-03
 -0.360645329731E-02
 -0.317611760626E-02
 -0.372155102196E-02
 -0.328960256110E-02
 -0.381665956520E-02
 -0.338319152731E-02
 -0.388766421772E-02
 -0.345277563723E-02
 -0.393133224996E-02
 -0.349512648239E-02
 -0.394561414031E-02
 -0.350819827962E-02
 -0.392984466142E-02
 -0.349133118142E-02
 -0.388480857107E-02
 -0.344531851210E-02
 -0.381265898108E-02
 -0.337232771495E-02
 -0.371670496110E-02
 -0.327568950809E-02
 -0.360110325718E-02
 -0.345668622361E-02
 -0.347049730062E-02
 -0.332581353976E-02
 -0.332965524231E-02
 -0.318498155903E-02
 -0.348025612074E-02
 -0.333592428946E-02
 -0.362934366003E-02
 -0.348574250619E-02
 -0.348335114627E-02
 -0.334092446529E-02
 -0.363934435561E-02
 -0.320147978873E-02
 -0.678219217599E-02
 -0.604941734231E-02
  0.140402183239E-03
  0.197271452286E-03
 -0.673533436688E-03
 -0.587764692735E-03
 -0.869362341981E-03
 -0.746692851176E-02
 -0.616665191731E-02
 -0.125134793915E-01
 -0.121592536881E-01
 -0.126623039106E-01
 -0.123002967925E-01
 -0.127857204814E-01
 -0.124164421173E-01
 -0.128783852377E-01
 -0.125023906337E-01
 -0.129360825751E-01
 -0.125539957227E-01
 -0.120648335410E-01
 -0.116773670863E-01
 -0.129375766901E-01
 -0.125455530737E-01
 -0.128814143483E-01
 -0.124857858252E-01
 -0.127903477225E-01
 -0.123922192931E-01
 -0.126685846652E-01
 -0.122692343107E-01
 -0.125214275685E-01
 -0.121223243403E-01
 -0.132461066050E-01
 -0.128489169394E-01
 -0.216649719464E-01
 -0.212825847709E-01
 -0.280878252041E-01
 -0.273949901672E-01
 -0.217600733575E-01
 -0.213490524247E-01
 -0.167734183987E-01
 -0.160746971686E-01
 -0.125576063864E-01
 -0.112669971945E-01
  0.240236737985E-01
  0.275562948235E-01
  0.295003386229E-02
  0.247303910444E-02
  0.548264475832E-03
  0.301792281924E-03
 -0.454412613097E-02
  0.311974335675E-01
  0.106098692979E-01
 -0.225046360949E-01
 -0.258125859920E-01
 -0.405965642992E-01
 -0.375095127476E-01
 -0.395116511274E-01
 -0.380373886306E-01
 -0.408702833330E-01
 -0.393915206738E-01
 -0.418055145507E-01
 -0.403236992261E-01
 -0.421079485679E-01
 -0.406215853981E-01
 -0.416984950863E-01
 -0.402011348731E-01
 -0.407012810913E-01
 -0.391883541448E-01
 -0.393221558678E-01
 -0.377949327802E-01
 -0.404548268757E-01
 -0.382572817448E-01
 -0.306220791034E-01
 -0.282146051927E-01
 -0.239839469739E-01
 -0.224926072969E-01
 -0.223550111559E-01
 -0.208139413194E-01
 -0.254454274923E-01
 -0.230934705017E-01
 -0.243867670339E-01
 -0.240935743536E-01
 -0.228243983081E-01
 -0.222012560308E-01
 -0.276691791220E-01
 -0.260305074606E-01
  0.695047376502E-01
  0.687034291190E-01
  0.179089862244E-01
  0.148386749947E-01
 -0.277208232874E-02
 -0.356168229191E-02
 -0.916336929395E-02
  0.200249955377E-01
  0.885266039460E-02
 -0.199829291501E-01
 -0.215829709665E-01
 -0.219830181916E-01
 -0.203838826609E-01
 -0.214291408600E-01
 -0.200582236256E-01
 -0.198158725957E-01
 -0.184560607684E-01
 -0.182694164842E-01
 -0.169233596058E-01
 -0.181605802818E-01
 -0.168183247280E-01
 -0.179448282547E-01
 -0.165864240032E-01
 -0.176478540727E-01
 -0.162562031934E-01
 -0.190889679434E-01
 -0.176593362444E-01
 -0.245282643955E-01
 -0.230671511980E-01
 -0.250808737306E-01
 -0.236133331114E-01
 -0.374805748473E-01
 -0.342049155491E-01
 -0.307708703684E-01
 -0.294238763248E-01
 -0.172095898267E-01
 -0.179269832366E-01
 -0.907862588080E-02
 -0.821789670559E-02
 -0.209037599877E+00
 -0.210688757929E+00
  0.237664235333E+00
  0.239221070468E+00
  0.144528584827E+00
  0.147471907125E+00
  0.417446861424E-01
  0.394417935821E-01
  0.331130382957E-01
  0.335580994316E-01
  0.254044051596E-01
  0.109755622407E+00
  0.903215285781E-01
  0.133470662108E-01
  0.113388647734E-01
 -0.293648452984E-01
 -0.334515692816E-01
 -0.145993064164E-01
 -0.154525521756E-01
 -0.660948218736E-02
 -0.541371804643E-02
 -0.723216917222E-02
 -0.592341695744E-02
 -0.777831918982E-02
 -0.646978743091E-02
 -0.759912700666E-02
 -0.627747436397E-02
 -0.667496194601E-02
 -0.533150698458E-02
 -0.104059975566E-01
 -0.922519380502E-02
 -0.152886459279E-01
 -0.172473230891E-01
 -0.236663441043E-01
 -0.255361021263E-01
 -0.709249638203E-02
 -0.846723389272E-02
 -0.647318336575E-02
 -0.691656227137E-02
  0.441079449389E-02
  0.519264464492E-02
  0.345944939599E-01
  0.345505267391E-01
  0.270430666170E+00
  0.269327232329E+00
  0.424089825811E+00
  0.423200745847E+00
  0.264267558210E+00
  0.263595000708E+00
  0.855273591777E-01
  0.846627781298E-01
  0.781132660889E-01
  0.780372495805E-01
  0.752971403440E-01
  0.128703045237E+00
  0.121405407753E+00
  0.780497338972E-01
  0.799549070054E-01
  0.299224584698E-01
  0.290371975388E-01
 -0.266217036919E-01
 -0.262886036395E-01
 -0.388285616378E-01
 -0.383540076334E-01
 -0.528142018388E-01
 -0.525457852639E-01
 -0.663538355414E-01
 -0.666135486441E-01
 -0.645888422560E-01
 -0.648328638806E-01
 -0.360971711588E-01
 -0.358531847002E-01
 -0.383502596659E-01
 -0.379808349315E-01
  0.130332304681E-01
  0.158544115915E-01
  0.407785788689E-01
  0.393778820406E-01
  0.632048035356E-01
  0.635319800803E-01
  0.444438222835E-01
  0.444176431364E-01
  0.752488105042E-01
  0.758193426024E-01
 -0.327853752676E+00
 -0.327158041569E+00
  0.572227940820E+00
  0.572037162751E+00
  0.495097315100E+00
  0.494860483853E+00
  0.291804317925E+00
  0.291868105594E+00
  0.108883776758E+00
  0.108432793282E+00
  0.103898085754E+00
  0.104546460668E+00
  0.101475824474E+00
  0.144617003527E+00
  0.142152113213E+00
  0.114656603240E+00
  0.114786460796E+00
  0.719648833426E-01
  0.712034099415E-01
  0.475289299689E-01
  0.475752709695E-01
  0.646531592277E-01
  0.645440331270E-01
  0.444069441368E-01
  0.443620672629E-01
  0.443015372027E-01
  0.442616355469E-01
  0.360850941407E-01
  0.360711758638E-01
  0.503007514763E-01
  0.502778565595E-01
  0.220861842879E-01
  0.216577936485E-01
  0.733946587414E-01
  0.735657967225E-01
  0.673398723000E-01
  0.673846597985E-01
  0.701038998789E-01
  0.702033533201E-01
  0.720650810461E-01
  0.720725754448E-01
  0.739203862665E-01
  0.739225786555E-01
 -0.123106159855E+00
 -0.123244467337E+00
  0.616419646612E+00
  0.615791717315E+00
  0.542967305146E+00
  0.546670940348E+00
  0.323328788750E+00
  0.323725841343E+00
  0.139576899220E+00
  0.139859118722E+00
  0.141617200699E+00
  0.141811876990E+00
  0.140913277299E+00
  0.139512636789E+00
  0.123224181616E+00
  0.102402732836E+00
  0.534756510798E-01
  0.643515234641E-01
  0.687955251681E-01
  0.701208155081E-01
  0.700167066687E-01
  0.696952104020E-01
  0.584836893898E-01
  0.758075467293E-01
  0.643211414144E-01
  0.552991494229E-01
  0.105129341197E+00
  0.104983743054E+00
 -0.164964837709E+00
  0.539865712886E+00
  0.734135275980E+00
  0.347215703804E+00
  0.165073031371E+00
  0.139512581280E+00
  0.123224177072E+00
  0.102402714995E+00
  0.534757214395E-01
  0.643515255185E-01
  0.687955347842E-01
  0.701208165002E-01
  0.700167079129E-01
  0.696952280037E-01
  0.584836898728E-01
  0.758075571427E-01
  0.643211418350E-01
  0.552991456090E-01
  0.105129342747E+00
  0.104983741091E+00
 -0.164964845994E+00
  0.539865709933E+00
  0.734135298145E+00
  0.347215712883E+00
SCALARS phi_sigma float 1
LOOKUP_TABLE default
  0.370826099423E-13
  0.564954239061E-13
  0.619294652775E-13
  0.665053779128E-13
  0.698951045080E-13
  0.718375824590E-13
  0.721764362123E-13
  0.708841183692E-13
  0.680660250658E-13
  0.639442265463E-13
  0.588242806341E-13
  0.530533764561E-13
  0.469776305225E-13
  0.312696865276E-13
  0.268243663511E-13
  0.227133092959E-13
  0.190219982337E-13
  0.157898079404E-13
  0.901600050160E-14
  0.379826913248E-16
  0.571644682548E-04
  0.952741619371E-05
  0.571637684777E-04
  0.238182412049E-04
  0.571621094649E-04
  0.238175503525E-04
  0.571607389245E-04
  0.238169796411E-04
  0.571597171101E-04
  0.238165541523E-04
  0.571590913425E-04
  0.238162935829E-04
  0.571588916009E-04
  0.238162104112E-04
  0.571591275690E-04
  0.238163086675E-04
  0.571597876628E-04
  0.238165835306E-04
  0.571608402057E-04
  0.238170218156E-04
  0.571622365197E-04
  0.238176032605E-04
  0.571639154172E-04
  0.238183023949E-04
  0.476381732361E-04
  0.142914554934E-04
  0.381118960974E-04
  0.476398974609E-05
  0.381133048134E-04
  0.142924915464E-04
  0.381147233537E-04
  0.142930231967E-04