# vtk DataFile Version 3.0
MachLine results file. Generated by MachLine, USU AeroLab (c) 2022.
ASCII
DATASET POLYDATA
POINTS                1696 float
  0.183790967763E-08  0.000000000000E+00  0.000000000000E+00
  0.241838599278E-08  0.104252345860E+00  0.000000000000E+00
  0.334163427387E-08  0.211780935526E+00  0.000000000000E+00
  0.430864864335E-08  0.322413772345E+00  0.000000000000E+00
  0.530252066879E-08  0.435950160027E+00  0.000000000000E+00
  0.630489445363E-08  0.552161276340E+00  0.000000000000E+00
  0.729640522959E-08  0.670791566372E+00  0.000000000000E+00
  0.825755442799E-08  0.791560173035E+00  0.000000000000E+00
  0.916965691960E-08  0.914163351059E+00  0.000000000000E+00
  0.100157351263E-07  0.103827738762E+01  0.000000000000E+00
  0.107812754586E-07  0.116356134415E+01  0.000000000000E+00
  0.114547691764E-07  0.128966128826E+01  0.000000000000E+00
  0.120280232105E-07  0.141621339321E+01  0.000000000000E+00
  0.124962194200E-07  0.154284906387E+01  0.000000000000E+00
  0.128577736019E-07  0.166919851303E+01  0.000000000000E+00
  0.131140208471E-07  0.179489517212E+01  0.000000000000E+00
  0.132687798716E-07  0.191958034039E+01  0.000000000000E+00
  0.133278693001E-07  0.204290652275E+01  0.000000000000E+00
  0.132986014588E-07  0.216454195976E+01  0.000000000000E+00
  0.129247911290E-07  0.228417348862E+01  0.000000000000E+00
  0.136260891379E-07  0.240150952339E+01  0.000000000000E+00
  0.163980343422E-07  0.251628303528E+01  0.000000000000E+00
  0.177094828181E-07  0.262825274467E+01  0.000000000000E+00
  0.168343980819E-07  0.273720526695E+01  0.000000000000E+00
  0.158610706627E-07  0.284295582771E+01  0.000000000000E+00
  0.148048003882E-07  0.294534778595E+01  0.000000000000E+00
  0.136835733244E-07  0.304425406456E+01  0.000000000000E+00
  0.125173101273E-07  0.313957524300E+01  0.000000000000E+00
  0.113269698549E-07  0.323123931885E+01  0.000000000000E+00
  0.101335618952E-07  0.331920027733E+01  0.000000000000E+00
  0.895717221640E-08  0.340343642235E+01  0.000000000000E+00
  0.781609319067E-08  0.348394894600E+01  0.000000000000E+00
  0.672612490062E-08  0.356075930595E+01  0.000000000000E+00
  0.570011206508E-08  0.363390779495E+01  0.000000000000E+00
  0.474771772867E-08  0.370345163345E+01  0.000000000000E+00
  0.387542363368E-08  0.376946210861E+01  0.000000000000E+00
  0.308673996133E-08  0.383202338219E+01  0.000000000000E+00
  0.238257391538E-08  0.389123010635E+01  0.000000000000E+00
  0.176178520148E-08  0.394718551636E+01  0.000000000000E+00
  0.216818181606E-09  0.399999999886E+01  0.000000000000E+00
  0.145739718820E-01  0.000000000000E+00 -0.127505570936E-02
  0.145739719003E-01  0.104252345860E+00 -0.127505550068E-02
  0.145739719433E-01  0.211780935526E+00 -0.127505500906E-02
  0.145739720241E-01  0.322413772345E+00 -0.127505408510E-02
  0.145739721081E-01  0.435950160027E+00 -0.127505312529E-02
  0.145739721937E-01  0.552161276340E+00 -0.127505214682E-02
  0.145739722793E-01  0.670791566372E+00 -0.127505116823E-02
  0.145739723633E-01  0.791560173035E+00 -0.127505020869E-02
  0.145739724439E-01  0.914163351059E+00 -0.127504928701E-02
  0.145739725197E-01  0.103827738762E+01 -0.127504842078E-02
  0.145739725893E-01  0.116356134415E+01 -0.127504762556E-02
  0.145739726515E-01  0.128966128826E+01 -0.127504691418E-02
  0.145739727055E-01  0.141621339321E+01 -0.127504629638E-02
  0.145739727508E-01  0.154284906387E+01 -0.127504577860E-02
  0.145739727871E-01  0.166919851303E+01 -0.127504536404E-02
  0.145739728143E-01  0.179489517212E+01 -0.127504505285E-02
  0.145739728327E-01  0.191958034039E+01 -0.127504484254E-02
  0.145739728427E-01  0.204290652275E+01 -0.127504472839E-02
  0.145739728449E-01  0.216454195976E+01 -0.127504470397E-02
  0.145739728244E-01  0.228417348862E+01 -0.127504493800E-02
  0.145739727762E-01  0.240150952339E+01 -0.127504548868E-02
  0.145739730072E-01  0.251628303528E+01 -0.127504284837E-02
  0.145739731208E-01  0.262825274467E+01 -0.127504154985E-02
  0.145739732657E-01  0.273720526695E+01 -0.127503989421E-02
  0.145739731847E-01  0.284295582771E+01 -0.127504081993E-02
  0.145739730958E-01  0.294534778595E+01 -0.127504183598E-02
  0.145739730004E-01  0.304425406456E+01 -0.127504292575E-02
  0.145739729003E-01  0.313957524300E+01 -0.127504407036E-02
  0.145739727971E-01  0.323123931885E+01 -0.127504524945E-02
  0.145739726928E-01  0.331920027733E+01 -0.127504644213E-02
  0.145739725891E-01  0.340343642235E+01 -0.127504762795E-02
  0.145739724876E-01  0.348394894600E+01 -0.127504878780E-02
  0.145739723899E-01  0.356075930595E+01 -0.127504990473E-02
  0.145739722971E-01  0.363390779495E+01 -0.127505096445E-02
  0.145739722104E-01  0.370345163345E+01 -0.127505195574E-02
  0.145739721304E-01  0.376946210861E+01 -0.127505287053E-02
  0.145739720575E-01  0.383202338219E+01 -0.127505370383E-02
  0.145739719919E-01  0.389123010635E+01 -0.127505445340E-02
  0.145739719336E-01  0.394718551636E+01 -0.127505511938E-02
  0.145739718798E-01  0.399999999968E+01 -0.127505573454E-02
  0.145739718135E-01  0.400090122159E+01 -0.901424369960E-03
  0.145739717885E-01  0.400127506202E+01 -0.820033305001E-26
  0.145739717908E-01  0.400090122179E+01  0.901424537828E-03
  0.145739719488E-01  0.000000000000E+00  0.127505494624E-02
  0.145739719387E-01  0.104252345860E+00  0.127505506168E-02
  0.145739720181E-01  0.211780935526E+00  0.127505415419E-02
  0.145739721016E-01  0.322413772345E+00  0.127505319922E-02
  0.145739721875E-01  0.435950160027E+00  0.127505221760E-02
  0.145739722741E-01  0.552161276340E+00  0.127505122737E-02
  0.145739723599E-01  0.670791566372E+00  0.127505024758E-02
  0.145739724430E-01  0.791560173035E+00  0.127504929740E-02
  0.145739725219E-01  0.914163351059E+00  0.127504839525E-02
  0.145739725952E-01  0.103827738762E+01  0.127504755784E-02
  0.145739726615E-01  0.116356134415E+01  0.127504679949E-02
  0.145739727200E-01  0.128966128826E+01  0.127504613157E-02
  0.145739727698E-01  0.141621339321E+01  0.127504556221E-02
  0.145739728105E-01  0.154284906387E+01  0.127504509621E-02
  0.145739728421E-01  0.166919851303E+01  0.127504473521E-02
  0.145739728646E-01  0.179489517212E+01  0.127504447797E-02
  0.145739728784E-01  0.191958034039E+01  0.127504432077E-02
  0.145739728839E-01  0.204290652275E+01  0.127504425796E-02
  0.145739728818E-01  0.216454195976E+01  0.127504428235E-02
  0.145739728425E-01  0.228417348862E+01  0.127504473112E-02
  0.145739730409E-01  0.240150952339E+01  0.127504246300E-02
  0.145739731375E-01  0.251628303528E+01  0.127504135858E-02
  0.145739732680E-01  0.262825274467E+01  0.127503986777E-02
  0.145739731924E-01  0.273720526695E+01  0.127504073128E-02
  0.145739731084E-01  0.284295582771E+01  0.127504169178E-02
  0.145739730172E-01  0.294534778595E+01  0.127504273418E-02
  0.145739729204E-01  0.304425406456E+01  0.127504384074E-02
  0.145739728197E-01  0.313957524300E+01  0.127504499181E-02
  0.145739727169E-01  0.323123931885E+01  0.127504616676E-02
  0.145739726138E-01  0.331920027733E+01  0.127504734489E-02
  0.145739725122E-01  0.340343642235E+01  0.127504850638E-02
  0.145739724136E-01  0.348394894600E+01  0.127504963320E-02
  0.145739723194E-01  0.356075930595E+01  0.127505070974E-02
  0.145739722308E-01  0.363390779495E+01  0.127505172327E-02
  0.145739721484E-01  0.370345163345E+01  0.127505266420E-02
  0.145739720730E-01  0.376946210861E+01  0.127505352607E-02
  0.145739720049E-01  0.383202338219E+01  0.127505430533E-02
  0.145739719440E-01  0.389123010635E+01  0.127505500098E-02
  0.145739718904E-01  0.394718551636E+01  0.127505561398E-02
  0.145739718419E-01  0.399999999977E+01  0.127505616821E-02
  0.341100135386E-01  0.000000000000E+00 -0.298423785078E-02
  0.341100135704E-01  0.104252345860E+00 -0.298423748773E-02
  0.341100136175E-01  0.211780935526E+00 -0.298423695006E-02
  0.341100137328E-01  0.322413772345E+00 -0.298423563136E-02
  0.341100138563E-01  0.435950160027E+00 -0.298423422028E-02
  0.341100139830E-01  0.552161276340E+00 -0.298423277202E-02
  0.341100141105E-01  0.670791566372E+00 -0.298423131470E-02
  0.341100142363E-01  0.791560173035E+00 -0.298422987699E-02
  0.341100143578E-01  0.914163351059E+00 -0.298422848736E-02
  0.341100144729E-01  0.103827738762E+01 -0.298422717270E-02
  0.341100145792E-01  0.116356134415E+01 -0.298422595716E-02
  0.341100146751E-01  0.128966128826E+01 -0.298422486105E-02
  0.341100147592E-01  0.141621339321E+01 -0.298422390015E-02
  0.341100148305E-01  0.154284906387E+01 -0.298422308537E-02
  0.341100148884E-01  0.166919851303E+01 -0.298422242270E-02
  0.341100149330E-01  0.179489517212E+01 -0.298422191349E-02
  0.341100149643E-01  0.191958034039E+01 -0.298422155498E-02
  0.341100149831E-01  0.204290652275E+01 -0.298422134091E-02
  0.341100149900E-01  0.216454195976E+01 -0.298422126231E-02
  0.341100149710E-01  0.228417348862E+01 -0.298422147940E-02
  0.341100149129E-01  0.240150952339E+01 -0.298422214311E-02
  0.341100151159E-01  0.251628303528E+01 -0.298421982220E-02
  0.341100153779E-01  0.262825274467E+01 -0.298421682786E-02
  0.341100157070E-01  0.273720526695E+01 -0.298421306677E-02
  0.341100155887E-01  0.284295582771E+01 -0.298421441843E-02
  0.341100154581E-01  0.294534778595E+01 -0.298421591118E-02
  0.341100153173E-01  0.304425406456E+01 -0.298421752115E-02
  0.341100151686E-01  0.313957524300E+01 -0.298421922076E-02
  0.341100150147E-01  0.323123931885E+01 -0.298422097988E-02
  0.341100148583E-01  0.331920027733E+01 -0.298422276723E-02
  0.341100147022E-01  0.340343642235E+01 -0.298422455182E-02
  0.341100145488E-01  0.348394894600E+01 -0.298422630435E-02
  0.341100144006E-01  0.356075930595E+01 -0.298422799843E-02
  0.341100142595E-01  0.363390779495E+01 -0.298422961157E-02
  0.341100141270E-01  0.370345163345E+01 -0.298423112571E-02
  0.341100140044E-01  0.376946210861E+01 -0.298423252756E-02
  0.341100138923E-01  0.383202338219E+01 -0.298423380843E-02
  0.341100137912E-01  0.389123010635E+01 -0.298423496393E-02
[...]
POINT_DATA                1696
SCALARS phi float 1
LOOKUP_TABLE default
  0.129246970711E-25
  0.000000000000E+00
 -0.258493941423E-25
  0.258493941423E-25
  0.000000000000E+00
  0.516987882846E-25
 -0.516987882846E-25
  0.516987882846E-25
  0.000000000000E+00
 -0.516987882846E-25
  0.206795153138E-24
  0.103397576569E-24
 -0.103397576569E-24
  0.000000000000E+00
 -0.103397576569E-24
  0.000000000000E+00
  0.103397576569E-24
 -0.103397576569E-24
 -0.103397576569E-24
  0.000000000000E+00
  0.000000000000E+00
 -0.103397576569E-24
 -0.103397576569E-24
 -0.103397576569E-24
  0.206795153138E-24
  0.103397576569E-24
  0.103397576569E-24
 -0.103397576569E-24
 -0.103397576569E-24
  0.155096364854E-24
  0.516987882846E-25
  0.000000000000E+00
 -0.516987882846E-25
  0.000000000000E+00
  0.000000000000E+00
  0.000000000000E+00
 -0.258493941423E-25
  0.000000000000E+00
  0.129246970711E-25
 -0.403896783473E-27
  0.000000000000E+00
 -0.108420217249E-18
  0.108420217249E-18
 -0.108420217249E-18
  0.000000000000E+00
  0.000000000000E+00
 -0.108420217249E-18
  0.000000000000E+00
  0.216840434497E-18
  0.000000000000E+00
  0.000000000000E+00
  0.108420217249E-18
  0.000000000000E+00
  0.000000000000E+00
 -0.108420217249E-18
 -0.108420217249E-18
 -0.216840434497E-18
  0.000000000000E+00
  0.000000000000E+00
 -0.216840434497E-18
  0.325260651746E-18
  0.108420217249E-18
  0.000000000000E+00
 -0.108420217249E-18
  0.108420217249E-18
  0.325260651746E-18
 -0.108420217249E-18
  0.000000000000E+00
  0.000000000000E+00
  0.000000000000E+00
 -0.108420217249E-18
  0.000000000000E+00
  0.000000000000E+00
  0.000000000000E+00
  0.216840434497E-18
  0.000000000000E+00
  0.216840434497E-18
  0.108420217249E-18
  0.000000000000E+00
  0.000000000000E+00
  0.000000000000E+00
 -0.542101086243E-19
  0.000000000000E+00
  0.000000000000E+00
  0.000000000000E+00
  0.000000000000E+00
 -0.108420217249E-18
  0.000000000000E+00
 -0.108420217249E-18
  0.108420217249E-18
  0.216840434497E-18
  0.433680868994E-18
  0.000000000000E+00
  0.975781955237E-18
 -0.325260651746E-18
  0.325260651746E-18
 -0.108420217249E-17
  0.216840434497E-18
  0.140946282423E-17
 -0.975781955237E-18
 -0.108420217249E-18
  0.975781955237E-18
  0.216840434497E-18
  0.108420217249E-18
  0.000000000000E+00
  0.108420217249E-18
  0.000000000000E+00
  0.108420217249E-18
  0.216840434497E-18
  0.108420217249E-18
  0.000000000000E+00
 -0.108420217249E-18
  0.000000000000E+00
 -0.108420217249E-18
 -0.216840434497E-18
  0.108420217249E-18
 -0.108420217249E-18
 -0.108420217249E-18
  0.000000000000E+00
  0.108420217249E-18
  0.108420217249E-18
  0.108420217249E-18
 -0.108420217249E-18
  0.216840434497E-18
  0.000000000000E+00
 -0.650521303491E-18
  0.000000000000E+00
  0.433680868994E-18
  0.000000000000E+00
  0.216840434497E-18
  0.000000000000E+00
 -0.433680868994E-18
 -0.650521303491E-18
  0.216840434497E-18
 -0.216840434497E-18
  0.216840434497E-18
 -0.216840434497E-18
  0.433680868994E-18
  0.000000000000E+00
  0.650521303491E-18
 -0.433680868994E-18
  0.000000000000E+00
  0.433680868994E-18
 -0.216840434497E-18
 -0.216840434497E-18
  0.000000000000E+00
 -0.216840434497E-18
 -0.216840434497E-18
 -0.650521303491E-18
 -0.650521303491E-18
  0.216840434497E-18
 -0.216840434497E-18
  0.216840434497E-18
 -0.216840434497E-18
  0.000000000000E+00
  0.000000000000E+00
 -0.216840434497E-18
  0.000000000000E+00
 -0.216840434497E-18
 -0.433680868994E-18
  0.216840434497E-18
  0.000000000000E+00
 -0.216840434497E-18
 -0.108420217249E-18
  0.153956708493E-16
  0.108420217249E-18
  0.433680868994E-18
  0.000000000000E+00
 -0.867361737988E-18
 -0.650521303491E-18
  0.433680868994E-18
  0.000000000000E+00
 -0.216840434497E-18
  0.216840434497E-18
 -0.433680868994E-18
  0.867361737988E-18
 -0.108420217249E-17
  0.216840434497E-18
 -0.650521303491E-18
  0.195156391047E-17
 -0.867361737988E-18
 -0.173472347598E-17
  0.216840434497E-18
 -0.216840434497E-18
 -0.216840434497E-18
  0.108420217249E-17
  0.216840434497E-18
  0.216840434497E-18
  0.650521303491E-18
 -0.433680868994E-18
 -0.216840434497E-18
  0.216840434497E-18
 -0.433680868994E-18
  0.000000000000E+00
  0.216840434497E-18
  0.433680868994E-18
  0.000000000000E+00
 -0.216840434497E-18
  0.433680868994E-18
  0.000000000000E+00
  0.000000000000E+00
  0.433680868994E-18
  0.216840434497E-18
 -0.216840434497E-18
 -0.216840434497E-18
 -0.119262238973E-17
  0.433680868994E-18
 -0.433680868994E-18
  0.000000000000E+00
 -0.130104260698E-17
  0.867361737988E-18
 -0.867361737988E-18
 -0.867361737988E-18
  0.433680868994E-18
  0.433680868994E-18
 -0.433680868994E-18
 -0.433680868994E-18
  0.000000000000E+00
 -0.433680868994E-18
 -0.867361737988E-18
  0.867361737988E-18
  0.433680868994E-18
  0.433680868994E-18
  0.130104260698E-17
 -0.433680868994E-18
  0.433680868994E-18
 -0.433680868994E-18
 -0.130104260698E-17
 -0.130104260698E-17
  0.000000000000E+00
  0.867361737988E-18
 -0.433680868994E-18
 -0.433680868994E-18
 -0.867361737988E-18
  0.130104260698E-17
  0.433680868994E-17
 -0.260208521397E-17
  0.130104260698E-17
 -0.130104260698E-17
 -0.303576608296E-17
 -0.867361737988E-18
  0.260208521397E-17
  0.867361737988E-18
 -0.433680868994E-18
 -0.130104260698E-17
  0.108420217249E-17
  0.000000000000E+00
  0.203830008427E-16
 -0.216840434497E-18
  0.000000000000E+00
  0.867361737988E-18
 -0.433680868994E-18
  0.433680868994E-18
  0.216840434497E-17
  0.433680868994E-18
 -0.867361737988E-18
  0.867361737988E-18
 -0.433680868994E-18
 -0.130104260698E-17
  0.433680868994E-18
  0.433680868994E-18
  0.433680868994E-18
  0.867361737988E-18
 -0.433680868994E-18
 -0.216840434497E-17
  0.867361737988E-18
  0.433680868994E-18
  0.000000000000E+00
  0.867361737988E-18
  0.867361737988E-18
  0.000000000000E+00
  0.867361737988E-18
  0.000000000000E+00
  0.130104260698E-17
  0.433680868994E-18
  0.433680868994E-18
 -0.130104260698E-17
  0.433680868994E-18
  0.173472347598E-17
 -0.867361737988E-18
  0.000000000000E+00
 -0.130104260698E-17
 -0.173472347598E-17
 -0.433680868994E-18
  0.000000000000E+00
  0.173472347598E-17
 -0.433680868994E-18
  0.000000000000E+00
  0.867361737988E-18
 -0.260208521397E-17
  0.260208521397E-17
  0.173472347598E-17
  0.260208521397E-17
  0.000000000000E+00
  0.173472347598E-17
  0.000000000000E+00
  0.520417042793E-17
  0.173472347598E-17
  0.000000000000E+00
  0.346944695195E-17
 -0.867361737988E-18
 -0.867361737988E-18
 -0.867361737988E-18
 -0.260208521397E-17
  0.867361737988E-18
 -0.867361737988E-18
  0.867361737988E-18
  0.000000000000E+00
 -0.867361737988E-18
 -0.433680868994E-17
 -0.260208521397E-17
  0.867361737988E-18
  0.867361737988E-18
 -0.867361737988E-18
 -0.173472347598E-17
  0.173472347598E-17
  0.867361737988E-18
  0.433680868994E-17
  0.520417042793E-17
 -0.867361737988E-18
 -0.346944695195E-17
  0.433680868994E-17
  0.000000000000E+00
  0.433680868994E-17
 -0.260208521397E-17
  0.000000000000E+00
  0.173472347598E-17
  0.346944695195E-17
  0.433680868994E-18
  0.000000000000E+00
  0.173472347598E-17
 -0.433680868994E-18
 -0.433680868994E-18
  0.433680868994E-18
  0.216840434497E-17
  0.433680868994E-18
 -0.433680868994E-18
  0.216840434497E-17
  0.433680868994E-18
  0.867361737988E-18
  0.867361737988E-18
  0.173472347598E-17
  0.867361737988E-18
  0.000000000000E+00
  0.000000000000E+00
 -0.130104260698E-17
  0.000000000000E+00
 -0.433680868994E-18
 -0.433680868994E-18
  0.867361737988E-18
  0.867361737988E-18
  0.130104260698E-17
 -0.216840434497E-17
  0.173472347598E-17
 -0.433680868994E-18
  0.000000000000E+00
 -0.130104260698E-17
  0.867361737988E-18
  0.000000000000E+00
 -0.433680868994E-18
  0.130104260698E-17
  0.433680868994E-18
  0.867361737988E-18
 -0.130104260698E-17
  0.433680868994E-18
 -0.867361737988E-18
 -0.867361737988E-18
  0.433680868994E-18
 -0.173472347598E-17
 -0.173472347598E-17
 -0.346944695195E-17
  0.867361737988E-18
 -0.433680868994E-17
 -0.346944695195E-17
  0.000000000000E+00
  0.346944695195E-17
  0.000000000000E+00
  0.173472347598E-17
 -0.433680868994E-17
  0.867361737988E-18
  0.000000000000E+00
  0.173472347598E-17
 -0.173472347598E-17
  0.867361737988E-18
  0.260208521397E-17
 -0.693889390391E-17
 -0.433680868994E-17
  0.867361737988E-18
  0.867361737988E-18
  0.260208521397E-17
 -0.867361737988E-18
  0.000000000000E+00
 -0.867361737988E-18
  0.433680868994E-17
 -0.867361737988E-18
  0.000000000000E+00
  0.867361737988E-18
  0.433680868994E-17
  0.000000000000E+00
  0.607153216592E-17
 -0.260208521397E-17
  0.780625564190E-17
 -0.346944695195E-17
 -0.693889390391E-17
 -0.867361737988E-18
 -0.520417042793E-17
  0.173472347598E-17
  0.520417042793E-17
  0.433680868994E-17
 -0.780625564190E-17
 -0.867361737988E-18
  0.173472347598E-17
  0.867361737988E-18
  0.867361737988E-18
  0.130104260698E-17
  0.867361737988E-18
  0.000000000000E+00
  0.000000000000E+00
 -0.867361737988E-18
  0.000000000000E+00
 -0.260208521397E-17
  0.173472347598E-17
 -0.260208521397E-17
 -0.260208521397E-17
  0.607153216592E-17
  0.867361737988E-18
 -0.867361737988E-18
  0.867361737988E-18
  0.433680868994E-17
  0.000000000000E+00
  0.000000000000E+00
  0.260208521397E-17
  0.346944695195E-17
  0.000000000000E+00
  0.173472347598E-17
  0.867361737988E-18
  0.000000000000E+00
  0.867361737988E-18
  0.867361737988E-18
  0.173472347598E-17
 -0.867361737988E-18
  0.173472347598E-17
 -0.173472347598E-17
  0.520417042793E-17
  0.173472347598E-17
  0.346944695195E-17
 -0.867361737988E-18
  0.173472347598E-17
  0.000000000000E+00
  0.000000000000E+00
  0.173472347598E-17
 -0.433680868994E-17
 -0.520417042793E-17
  0.346944695195E-17
 -0.173472347598E-17
 -0.346944695195E-17
  0.693889390391E-17
  0.693889390391E-17
  0.173472347598E-17
  0.173472347598E-17
  0.173472347598E-17
  0.346944695195E-17
  0.520417042793E-17
 -0.520417042793E-17
 -0.173472347598E-17
 -0.693889390391E-17
  0.173472347598E-17
  0.000000000000E+00
 -0.173472347598E-17
 -0.520417042793E-17
 -0.173472347598E-17
  0.000000000000E+00
 -0.693889390391E-17
  0.104083408559E-16
 -0.520417042793E-17
 -0.520417042793E-17
 -0.693889390391E-17
 -0.867361737988E-17
 -0.173472347598E-17
  0.520417042793E-17
  0.000000000000E+00
 -0.173472347598E-17
 -0.520417042793E-17
  0.156125112838E-16
 -0.520417042793E-17
  0.520417042793E-17
 -0.173472347598E-17
 -0.173472347598E-17
 -0.693889390391E-17
  0.346944695195E-17
  0.693889390391E-17
  0.173472347598E-17
 -0.104083408559E-16
  0.000000000000E+00
 -0.607153216592E-17
 -0.173472347598E-17
  0.867361737988E-18
 -0.346944695195E-17
 -0.173472347598E-17
 -0.346944695195E-17
 -0.173472347598E-17
 -0.867361737988E-18
  0.000000000000E+00
  0.867361737988E-18
 -0.173472347598E-17
 -0.260208521397E-17
 -0.173472347598E-17
 -0.173472347598E-17
  0.520417042793E-17
  0.173472347598E-17
  0.260208521397E-17
 -0.346944695195E-17
 -0.260208521397E-17
  0.433680868994E-17
  0.867361737988E-18
 -0.346944695195E-17
  0.433680868994E-17
 -0.260208521397E-17
  0.173472347598E-17
  0.173472347598E-17
  0.433680868994E-17
  0.173472347598E-17
 -0.260208521397E-17
  0.867361737988E-18
  0.173472347598E-17
  0.520417042793E-17
 -0.104083408559E-16
  0.000000000000E+00
  0.867361737988E-18
 -0.867361737988E-18
 -0.693889390391E-17
 -0.433680868994E-17
 -0.260208521397E-17
 -0.867361737988E-18
  0.260208521397E-17
  0.130104260698E-16
 -0.260208521397E-17
  0.173472347598E-17
  0.173472347598E-17
 -0.173472347598E-17
  0.000000000000E+00
 -0.138777878078E-16
 -0.346944695195E-17
  0.346944695195E-17
  0.346944695195E-17
  0.000000000000E+00
  0.520417042793E-17
 -0.173472347598E-17
 -0.173472347598E-17
 -0.173472347598E-17
  0.121430643318E-16
 -0.173472347598E-17
  0.520417042793E-17
  0.000000000000E+00
 -0.173472347598E-17
  0.000000000000E+00
  0.346944695195E-17
 -0.867361737988E-17
 -0.346944695195E-17
 -0.346944695195E-17
  0.520417042793E-17
  0.173472347598E-17
  0.104083408559E-16
  0.000000000000E+00
  0.000000000000E+00
  0.520417042793E-17
  0.520417042793E-17
  0.138777878078E-16
  0.867361737988E-17
 -0.121430643318E-16
 -0.520417042793E-17
  0.867361737988E-17
  0.520417042793E-17
 -0.104083408559E-16
 -0.173472347598E-16
  0.277555756156E-16
 -0.520417042793E-17
  0.867361737988E-18
 -0.346944695195E-17
  0.433680868994E-17
 -0.607153216592E-17
  0.173472347598E-17
 -0.520417042793E-17
  0.000000000000E+00
  0.346944695195E-17
 -0.693889390391E-17
  0.000000000000E+00
  0.138777878078E-16
 -0.173472347598E-17
  0.000000000000E+00
 -0.346944695195E-17
 -0.346944695195E-17
  0.173472347598E-17
  0.173472347598E-17
  0.520417042793E-17
  0.867361737988E-17
 -0.346944695195E-17
  0.520417042793E-17
  0.346944695195E-17
  0.693889390391E-17
  0.520417042793E-17
 -0.104083408559E-16
  0.000000000000E+00
  0.693889390391E-17
 -0.346944695195E-17
 -0.693889390391E-17
  0.000000000000E+00
  0.173472347598E-17
 -0.346944695195E-17
 -0.173472347598E-16
 -0.867361737988E-17
  0.693889390391E-17
 -0.520417042793E-17
 -0.173472347598E-16
  0.173472347598E-17
 -0.190819582357E-16
  0.000000000000E+00
 -0.520417042793E-17
 -0.104083408559E-16
 -0.520417042793E-17
 -0.260208521397E-17
 -0.693889390391E-17
 -0.173472347598E-17
 -0.520417042793E-17
 -0.520417042793E-17
  0.000000000000E+00
  0.104083408559E-16
 -0.867361737988E-17
 -0.520417042793E-17
 -0.693889390391E-17
  0.000000000000E+00
  0.867361737988E-17
  0.346944695195E-17
 -0.520417042793E-17
 -0.693889390391E-17
  0.693889390391E-17
  0.000000000000E+00
  0.000000000000E+00
  0.173472347598E-17
 -0.346944695195E-17
  0.173472347598E-17
 -0.156125112838E-16
  0.346944695195E-17
 -0.173472347598E-17
  0.346944695195E-17
  0.104083408559E-16
  0.867361737988E-17
  0.000000000000E+00
  0.173472347598E-16
 -0.867361737988E-17
 -0.104083408559E-16
  0.520417042793E-17
 -0.520417042793E-17
  0.520417042793E-17
  0.156125112838E-16
 -0.520417042793E-17
  0.104083408559E-16
  0.104083408559E-16
 -0.156125112838E-16
  0.138777878078E-16
  0.173472347598E-17
  0.520417042793E-17
  0.780625564190E-17
  0.867361737988E-18
  0.346944695195E-17
 -0.173472347598E-17
 -0.867361737988E-17
  0.693889390391E-17
  0.867361737988E-17
  0.520417042793E-17
  0.693889390391E-17
  0.104083408559E-16
 -0.173472347598E-17
  0.000000000000E+00
 -0.173472347598E-17
  0.693889390391E-17
  0.104083408559E-16
  0.000000000000E+00
 -0.173472347598E-17
  0.520417042793E-17
 -0.173472347598E-17
  0.000000000000E+00
 -0.121430643318E-16
  0.693889390391E-17
  0.173472347598E-17
 -0.173472347598E-17
  0.173472347598E-17
  0.173472347598E-17
  0.173472347598E-17
  0.138777878078E-16
  0.867361737988E-17
 -0.173472347598E-17
 -0.693889390391E-17
  0.173472347598E-16
  0.346944695195E-17
  0.346944695195E-17
 -0.156125112838E-16
  0.208166817117E-16
  0.520417042793E-17
  0.346944695195E-17
  0.520417042793E-17
  0.693889390391E-17
  0.173472347598E-16
  0.346944695195E-17
 -0.693889390391E-17
  0.104083408559E-16
 -0.242861286637E-16
  0.346944695195E-17
 -0.138777878078E-16
 -0.138777878078E-16
 -0.693889390391E-17
 -0.104083408559E-16
  0.693889390391E-17
  0.138777878078E-16
 -0.346944695195E-17
  0.693889390391E-17
 -0.346944695195E-17
 -0.173472347598E-16
  0.104083408559E-16
 -0.346944695195E-17
 -0.346944695195E-17
 -0.346944695195E-17
  0.000000000000E+00
  0.138777878078E-16
  0.693889390391E-17
 -0.138777878078E-16
  0.346944695195E-17
 -0.173472347598E-16
 -0.346944695195E-17
  0.312250225676E-16
  0.242861286637E-16
  0.104083408559E-16
 -0.346944695195E-17
  0.346944695195E-17
 -0.346944695195E-17
 -0.138777878078E-16
 -0.138777878078E-16
 -0.693889390391E-17
  0.277555756156E-16
  0.693889390391E-17
  0.242861286637E-16
 -0.138777878078E-16
  0.000000000000E+00
 -0.121430643318E-16
 -0.520417042793E-17
 -0.520417042793E-17
  0.173472347598E-17
  0.138777878078E-16
 -0.693889390391E-17
 -0.138777878078E-16
 -0.173472347598E-16
  0.693889390391E-17
 -0.693889390391E-17
  0.693889390391E-17
  0.242861286637E-16
  0.000000000000E+00
  0.693889390391E-17
  0.693889390391E-17
  0.138777878078E-16
 -0.104083408559E-16
  0.000000000000E+00
  0.104083408559E-16
  0.138777878078E-16
  0.346944695195E-17
 -0.416333634234E-16
  0.104083408559E-16
  0.208166817117E-16
  0.000000000000E+00
  0.346944695195E-17
  0.138777878078E-16
  0.138777878078E-16
 -0.104083408559E-16
  0.173472347598E-16
 -0.104083408559E-16
 -0.138777878078E-16
  0.242861286637E-16
  0.000000000000E+00
 -0.104083408559E-16
  0.104083408559E-16
  0.277555756156E-16
  0.000000000000E+00
 -0.346944695195E-17
  0.346944695195E-17
  0.242861286637E-16
  0.346944695195E-17
  0.173472347598E-17
  0.173472347598E-17
  0.000000000000E+00
 -0.242861286637E-16
 -0.693889390391E-17
 -0.208166817117E-16
  0.346944695195E-17
 -0.346944695195E-17
 -0.346944695195E-17
  0.000000000000E+00
 -0.693889390391E-17
  0.104083408559E-16
 -0.104083408559E-16
  0.277555756156E-16
  0.346944695195E-17
 -0.693889390391E-17
 -0.173472347598E-16
 -0.693889390391E-17
  0.277555756156E-16
  0.346944695195E-17
 -0.104083408559E-16
  0.346944695195E-17
 -0.693889390391E-17
 -0.346944695195E-17
 -0.346944695195E-17
 -0.208166817117E-16
  0.381639164715E-16
  0.346944695195E-17
  0.208166817117E-16
  0.138777878078E-16
  0.208166817117E-16
  0.173472347598E-16
 -0.381639164715E-16
  0.138777878078E-16
  0.000000000000E+00
 -0.138777878078E-16
  0.000000000000E+00
  0.346944695195E-16
 -0.346944695195E-17
  0.277555756156E-16
 -0.693889390391E-17
  0.173472347598E-17
 -0.173472347598E-17
 -0.173472347598E-17
  0.520417042793E-17
 -0.693889390391E-17
 -0.104083408559E-16
  0.104083408559E-16
  0.138777878078E-16
 -0.693889390391E-17
  0.138777878078E-16
 -0.104083408559E-16
  0.104083408559E-16
  0.693889390391E-17
  0.138777878078E-16
  0.000000000000E+00
 -0.346944695195E-17
  0.346944695195E-17
  0.104083408559E-16
  0.138777878078E-16
  0.173472347598E-16
 -0.693889390391E-17
  0.346944695195E-17
 -0.346944695195E-17
  0.000000000000E+00
 -0.693889390391E-17
  0.173472347598E-16
 -0.693889390391E-17
  0.138777878078E-16
 -0.104083408559E-16
  0.346944695195E-17
  0.346944695195E-17
  0.346944695195E-17
  0.000000000000E+00
 -0.104083408559E-16
 -0.208166817117E-16
  0.000000000000E+00
 -0.346944695195E-17
  0.104083408559E-16
 -0.693889390391E-17
 -0.346944695195E-17
 -0.173472347598E-16
  0.693889390391E-17
 -0.138777878078E-16
  0.000000000000E+00
  0.346944695195E-17
  0.173472347598E-16
 -0.173472347598E-16
 -0.138777878078E-16
  0.104083408559E-16
 -0.346944695195E-17
  0.173472347598E-16
  0.000000000000E+00
  0.693889390391E-17
 -0.346944695195E-16
 -0.208166817117E-16
  0.138777878078E-16
  0.346944695195E-17
  0.104083408559E-16
 -0.138777878078E-16
 -0.173472347598E-16
 -0.312250225676E-16
 -0.693889390391E-17
  0.346944695195E-17
 -0.104083408559E-16
 -0.346944695195E-16
 -0.138777878078E-16
 -0.346944695195E-17
  0.693889390391E-17
  0.381639164715E-16
  0.381639164715E-16
  0.242861286637E-16
  0.208166817117E-16
  0.346944695195E-17
 -0.520417042793E-16
  0.451028103754E-16
 -0.312250225676E-16
 -0.381639164715E-16
  0.104083408559E-16
 -0.104083408559E-16
 -0.173472347598E-16
 -0.693889390391E-17
  0.312250225676E-16
  0.138777878078E-16
 -0.104083408559E-16
  0.346944695195E-17
 -0.138777878078E-16
 -0.520417042793E-17
 -0.693889390391E-17
 -0.693889390391E-17
 -0.173472347598E-16
 -0.346944695195E-17
 -0.173472347598E-16
  0.693889390391E-17
  0.104083408559E-16
 -0.138777878078E-16
  0.208166817117E-16
  0.173472347598E-16
 -0.312250225676E-16
  0.693889390391E-17
  0.242861286637E-16
  0.346944695195E-17
 -0.173472347598E-16
 -0.693889390391E-17
  0.242861286637E-16
  0.000000000000E+00
 -0.138777878078E-16
  0.693889390391E-17
 -0.242861286637E-16
 -0.173472347598E-16
 -0.104083408559E-16
  0.693889390391E-17
 -0.693889390391E-17
 -0.693889390391E-17
  0.312250225676E-16
  0.138777878078E-16
  0.277555756156E-16
  0.138777878078E-16
 -0.138777878078E-16
  0.416333634234E-16
 -0.138777878078E-16
 -0.173472347598E-16
 -0.346944695195E-17