# vtk DataFile Version 3.0
MachLine results file. Generated by MachLine, USU AeroLab (c) 2022.
ASCII
DATASET POLYDATA
POINTS                1127 float
  0.999999041957E+00  0.000000000000E+00 -0.417491494650E-07
  0.973034383663E+00  0.105263157890E+00 -0.235825883963E-02
  0.999999119618E+00  0.105263157890E+00 -0.383648804671E-07
  0.973034382832E+00  0.000000000000E+00 -0.235824933777E-02
  0.929717675664E+00  0.105263157890E+00 -0.614787723533E-02
  0.929717673943E+00  0.000000000000E+00 -0.614785756087E-02
  0.863184699151E+00  0.105263157890E+00 -0.119686097007E-01
  0.863184696324E+00  0.000000000000E+00 -0.119685773901E-01
  0.767714125425E+00  0.105263157890E+00 -0.203210244768E-01
  0.767714122072E+00  0.000000000000E+00 -0.203209861486E-01
  0.643290413741E+00  0.105263157890E+00 -0.312065343397E-01
  0.643290411360E+00  0.000000000000E+00 -0.312065071268E-01
  0.500000000000E+00  0.105263157890E+00 -0.437427648440E-01
  0.500000000000E+00  0.000000000000E+00 -0.437429617072E-01
  0.356709588640E+00  0.000000000000E+00 -0.312065071268E-01
  0.356709586259E+00  0.105263157890E+00 -0.312065343397E-01
  0.232285877928E+00  0.000000000000E+00 -0.203209861486E-01
  0.232285874575E+00  0.105263157890E+00 -0.203210244768E-01
  0.136815303676E+00  0.000000000000E+00 -0.119685773901E-01
  0.136815300849E+00  0.105263157890E+00 -0.119686097007E-01
  0.702823260562E-01  0.000000000000E+00 -0.614785756087E-02
  0.702823243349E-01  0.105263157890E+00 -0.614787723533E-02
  0.269656171711E-01  0.000000000000E+00 -0.235824933777E-02
  0.269656163398E-01  0.105263157890E+00 -0.235825883963E-02
  0.961695078561E-06  0.000000000000E+00  0.000000000000E+00
  0.883738164913E-06  0.105263157890E+00  0.000000000000E+00
  0.269656163398E-01  0.105263157890E+00  0.235825883963E-02
  0.269656171711E-01  0.000000000000E+00  0.235824933777E-02
  0.702823243349E-01  0.105263157890E+00  0.614787723533E-02
  0.702823260562E-01  0.000000000000E+00  0.614785756087E-02
  0.136815300849E+00  0.105263157890E+00  0.119686097007E-01
  0.136815303676E+00  0.000000000000E+00  0.119685773901E-01
  0.232285874575E+00  0.105263157890E+00  0.203210244768E-01
  0.232285877928E+00  0.000000000000E+00  0.203209861486E-01
  0.356709586259E+00  0.105263157890E+00  0.312065343397E-01
  0.356709588640E+00  0.000000000000E+00  0.312065071268E-01
  0.500000000000E+00  0.105263157890E+00  0.437427648440E-01
  0.500000000000E+00  0.000000000000E+00  0.437429617072E-01
  0.643290411360E+00  0.000000000000E+00  0.312065071268E-01
  0.643290413741E+00  0.105263157890E+00  0.312065343397E-01
  0.767714122072E+00  0.000000000000E+00  0.203209861486E-01
  0.767714125425E+00  0.105263157890E+00  0.203210244768E-01
  0.863184696324E+00  0.000000000000E+00  0.119685773901E-01
  0.863184699151E+00  0.105263157890E+00  0.119686097007E-01
  0.929717673943E+00  0.000000000000E+00  0.614785756087E-02
  0.929717675664E+00  0.105263157890E+00  0.614787723533E-02
  0.973034382832E+00  0.000000000000E+00  0.235824933777E-02
  0.973034383663E+00  0.105263157890E+00  0.235825883963E-02
  0.973034383663E+00  0.210526315790E+00 -0.235825883963E-02
  0.999999119618E+00  0.210526315790E+00 -0.383648804656E-07
  0.929717675664E+00  0.210526315790E+00 -0.614787723533E-02
  0.863184699151E+00  0.210526315790E+00 -0.119686097007E-01
  0.767714125425E+00  0.210526315790E+00 -0.203210244768E-01
  0.643290413741E+00  0.210526315790E+00 -0.312065343397E-01
  0.500000000000E+00  0.210526315790E+00 -0.437427648440E-01
  0.356709586259E+00  0.210526315790E+00 -0.312065343397E-01
  0.232285874575E+00  0.210526315790E+00 -0.203210244768E-01
  0.136815300849E+00  0.210526315790E+00 -0.119686097007E-01
  0.702823243349E-01  0.210526315790E+00 -0.614787723533E-02
  0.269656163398E-01  0.210526315790E+00 -0.235825883963E-02
  0.883738164878E-06  0.210526315790E+00  0.000000000000E+00
  0.269656163398E-01  0.210526315790E+00  0.235825883963E-02
  0.702823243349E-01  0.210526315790E+00  0.614787723533E-02
  0.136815300849E+00  0.210526315790E+00  0.119686097007E-01
  0.232285874575E+00  0.210526315790E+00  0.203210244768E-01
  0.356709586259E+00  0.210526315790E+00  0.312065343397E-01
  0.500000000000E+00  0.210526315790E+00  0.437427648440E-01
  0.643290413741E+00  0.210526315790E+00  0.312065343397E-01
  0.767714125425E+00  0.210526315790E+00  0.203210244768E-01
  0.863184699151E+00  0.210526315790E+00  0.119686097007E-01
  0.929717675664E+00  0.210526315790E+00  0.614787723533E-02
  0.973034383663E+00  0.210526315790E+00  0.235825883963E-02
  0.973034383663E+00  0.315789473680E+00 -0.235825883963E-02
  0.999999119618E+00  0.315789473680E+00 -0.383648804671E-07
  0.929717675664E+00  0.315789473680E+00 -0.614787723533E-02
  0.863184699151E+00  0.315789473680E+00 -0.119686097007E-01
  0.767714125425E+00  0.315789473680E+00 -0.203210244768E-01
  0.643290413741E+00  0.315789473680E+00 -0.312065343397E-01
  0.500000000000E+00  0.315789473680E+00 -0.437427648440E-01
  0.356709586259E+00  0.315789473680E+00 -0.312065343397E-01
  0.232285874575E+00  0.315789473680E+00 -0.203210244768E-01
  0.136815300849E+00  0.315789473680E+00 -0.119686097007E-01
  0.702823243349E-01  0.315789473680E+00 -0.614787723533E-02
  0.269656163398E-01  0.315789473680E+00 -0.235825883963E-02
  0.883738164913E-06  0.315789473680E+00  0.000000000000E+00
  0.269656163398E-01  0.315789473680E+00  0.235825883963E-02
  0.702823243349E-01  0.315789473680E+00  0.614787723533E-02
  0.136815300849E+00  0.315789473680E+00  0.119686097007E-01
  0.232285874575E+00  0.315789473680E+00  0.203210244768E-01
  0.356709586259E+00  0.315789473680E+00  0.312065343397E-01
  0.500000000000E+00  0.315789473680E+00  0.437427648440E-01
  0.643290413741E+00  0.315789473680E+00  0.312065343397E-01
  0.767714125425E+00  0.315789473680E+00  0.203210244768E-01
  0.863184699151E+00  0.315789473680E+00  0.119686097007E-01
  0.929717675664E+00  0.315789473680E+00  0.614787723533E-02
  0.973034383663E+00  0.315789473680E+00  0.235825883963E-02
  0.973034383663E+00  0.421052631580E+00 -0.235825883963E-02
  0.999999119618E+00  0.421052631580E+00 -0.383648804656E-07
  0.929717675664E+00  0.421052631580E+00 -0.614787723533E-02
  0.863184699151E+00  0.421052631580E+00 -0.119686097007E-01
  0.767714125425E+00  0.421052631580E+00 -0.203210244768E-01
  0.643290413741E+00  0.421052631580E+00 -0.312065343397E-01
  0.500000000000E+00  0.421052631580E+00 -0.437427648440E-01
  0.356709586259E+00  0.421052631580E+00 -0.312065343397E-01
  0.232285874575E+00  0.421052631580E+00 -0.203210244768E-01
  0.136815300849E+00  0.421052631580E+00 -0.119686097007E-01
  0.702823243349E-01  0.421052631580E+00 -0.614787723533E-02
  0.269656163398E-01  0.421052631580E+00 -0.235825883963E-02
  0.883738164878E-06  0.421052631580E+00  0.187623218593E-21
  0.269656163398E-01  0.421052631580E+00  0.235825883963E-02
  0.702823243349E-01  0.421052631580E+00  0.614787723533E-02
  0.136815300849E+00  0.421052631580E+00  0.119686097007E-01
  0.232285874575E+00  0.421052631580E+00  0.203210244768E-01
  0.356709586259E+00  0.421052631580E+00  0.312065343397E-01
  0.500000000000E+00  0.421052631580E+00  0.437427648440E-01
  0.643290413741E+00  0.421052631580E+00  0.312065343397E-01
  0.767714125425E+00  0.421052631580E+00  0.203210244768E-01
  0.863184699151E+00  0.421052631580E+00  0.119686097007E-01
  0.929717675664E+00  0.421052631580E+00  0.614787723533E-02
  0.973034383663E+00  0.421052631580E+00  0.235825883963E-02
  0.973034383663E+00  0.526315789470E+00 -0.235825883963E-02
  0.999999119618E+00  0.526315789470E+00 -0.383648804671E-07
  0.929717675664E+00  0.526315789470E+00 -0.614787723533E-02
  0.863184699151E+00  0.526315789470E+00 -0.119686097007E-01
  0.767714125425E+00  0.526315789470E+00 -0.203210244768E-01
  0.643290413741E+00  0.526315789470E+00 -0.312065343397E-01
  0.500000000000E+00  0.526315789470E+00 -0.437427648440E-01
  0.356709586259E+00  0.526315789470E+00 -0.312065343397E-01
  0.232285874575E+00  0.526315789470E+00 -0.203210244768E-01
  0.136815300849E+00  0.526315789470E+00 -0.119686097007E-01
  0.702823243349E-01  0.526315789470E+00 -0.614787723533E-02
  0.269656163398E-01  0.526315789470E+00 -0.235825883963E-02
  0.883738164913E-06  0.526315789470E+00  0.187623218601E-21
  0.269656163398E-01  0.526315789470E+00  0.235825883963E-02
  0.702823243349E-01  0.526315789470E+00  0.614787723533E-02
  0.136815300849E+00  0.526315789470E+00  0.119686097007E-01
  0.232285874575E+00  0.526315789470E+00  0.203210244768E-01
  0.356709586259E+00  0.526315789470E+00  0.312065343397E-01
  0.500000000000E+00  0.526315789470E+00  0.437427648440E-01
  0.643290413741E+00  0.526315789470E+00  0.312065343397E-01
  0.767714125425E+00  0.526315789470E+00  0.203210244768E-01
  0.863184699151E+00  0.526315789470E+00  0.119686097007E-01
  0.929717675664E+00  0.526315789470E+00  0.614787723533E-02
  0.973034383663E+00  0.526315789470E+00  0.235825883963E-02
  0.973034383663E+00  0.631578947370E+00 -0.235825883963E-02
  0.999999119618E+00  0.631578947370E+00 -0.383648804656E-07
  0.929717675664E+00  0.631578947370E+00 -0.614787723533E-02
  0.863184699151E+00  0.631578947370E+00 -0.119686097007E-01
  0.767714125425E+00  0.631578947370E+00 -0.203210244768E-01
  0.643290413741E+00  0.631578947370E+00 -0.312065343397E-01
  0.500000000000E+00  0.631578947370E+00 -0.437427648440E-01
  0.356709586259E+00  0.631578947370E+00 -0.312065343397E-01
  0.232285874575E+00  0.631578947370E+00 -0.203210244768E-01
  0.136815300849E+00  0.631578947370E+00 -0.119686097007E-01
  0.702823243349E-01  0.631578947370E+00 -0.614787723533E-02
  0.269656163398E-01  0.631578947370E+00 -0.235825883963E-02
  0.883738164878E-06  0.631578947370E+00  0.000000000000E+00
  0.269656163398E-01  0.631578947370E+00  0.235825883963E-02
  0.702823243349E-01  0.631578947370E+00  0.614787723533E-02
  0.136815300849E+00  0.631578947370E+00  0.119686097007E-01
  0.232285874575E+00  0.631578947370E+00  0.203210244768E-01
[...]
POINT_DATA                1127
SCALARS phi float 1
LOOKUP_TABLE default
 -0.490306345007E-18
 -0.867361737988E-18
  0.132445512704E-17
 -0.108420217249E-17
  0.173472347598E-17
 -0.346944695195E-17
 -0.104083408559E-16
 -0.346944695195E-17
 -0.104083408559E-16
 -0.867361737988E-17
  0.000000000000E+00
  0.138777878078E-16
  0.693889390391E-17
  0.693889390391E-17
 -0.104083408559E-16
  0.346944695195E-17
 -0.173472347598E-17
  0.346944695195E-17
 -0.867361737988E-18
  0.867361737988E-18
 -0.867361737988E-18
  0.000000000000E+00
 -0.216840434497E-18
 -0.216840434497E-18
 -0.152730628302E-19
  0.213743470284E-20
  0.650521303491E-18
 -0.281892564846E-17
  0.000000000000E+00
  0.000000000000E+00
 -0.867361737988E-18
  0.867361737988E-18
 -0.173472347598E-17
 -0.173472347598E-17
 -0.346944695195E-17
  0.000000000000E+00
  0.346944695195E-17
  0.173472347598E-16
 -0.346944695195E-17
 -0.138777878078E-16
 -0.346944695195E-17
  0.156125112838E-16
 -0.346944695195E-17
 -0.693889390391E-17
 -0.867361737988E-18
  0.000000000000E+00
 -0.238524477947E-17
  0.130104260698E-17
 -0.433680868994E-17
 -0.225259809644E-17
  0.867361737988E-18
 -0.346944695195E-17
  0.173472347598E-17
 -0.138777878078E-16
  0.138777878078E-16
 -0.104083408559E-16
 -0.173472347598E-17
  0.000000000000E+00
  0.433680868994E-18
  0.216840434497E-18
 -0.123944742985E-19
 -0.433680868994E-18
  0.216840434497E-17
  0.000000000000E+00
  0.000000000000E+00
  0.693889390391E-17
 -0.104083408559E-16
  0.138777878078E-16
 -0.138777878078E-16
  0.173472347598E-17
 -0.346944695195E-17
 -0.238524477947E-17
  0.325260651746E-17
  0.368221104039E-18
  0.000000000000E+00
  0.346944695195E-17
  0.520417042793E-17
 -0.138777878078E-16
 -0.104083408559E-16
 -0.346944695195E-17
  0.693889390391E-17
  0.260208521397E-17
  0.433680868994E-18
  0.000000000000E+00
 -0.170862427329E-19
  0.650521303491E-18
  0.433680868994E-18
  0.867361737988E-18
  0.346944695195E-17
 -0.346944695195E-17
 -0.138777878078E-16
 -0.173472347598E-16
  0.138777878078E-16
  0.173472347598E-17
  0.000000000000E+00
 -0.151788304148E-17
  0.281892564846E-17
  0.450469326707E-17
 -0.867361737988E-18
 -0.867361737988E-17
  0.156125112838E-16
  0.693889390391E-17
  0.693889390391E-17
 -0.346944695195E-17
  0.346944695195E-17
  0.000000000000E+00
  0.433680868994E-18
  0.000000000000E+00
  0.258742095607E-20
  0.195156391047E-17
  0.433680868994E-18
  0.867361737988E-18
  0.346944695195E-17
  0.000000000000E+00
  0.000000000000E+00
  0.104083408559E-16
 -0.173472347598E-17
  0.000000000000E+00
 -0.433680868994E-17
  0.628837260042E-17
  0.195156391047E-17
 -0.190318377081E-17
 -0.607153216592E-17
  0.104083408559E-16
  0.000000000000E+00
  0.104083408559E-16
 -0.346944695195E-17
 -0.346944695195E-17
  0.173472347598E-17
 -0.867361737988E-18
 -0.867361737988E-18
  0.000000000000E+00
 -0.352709813193E-20
 -0.650521303491E-18
  0.000000000000E+00
  0.867361737988E-18
  0.000000000000E+00
  0.000000000000E+00
  0.346944695195E-17
 -0.242861286637E-16
  0.173472347598E-17
 -0.104083408559E-16
 -0.520417042793E-17
 -0.563785129692E-17
  0.260208521397E-17
  0.165927798667E-17
  0.346944695195E-17
 -0.693889390391E-17
  0.520417042793E-17
  0.693889390391E-17
 -0.346944695195E-17
 -0.346944695195E-17
  0.000000000000E+00
 -0.260208521397E-17
 -0.433680868994E-18
  0.216840434497E-18
  0.161333306672E-19
  0.216840434497E-18
  0.000000000000E+00
  0.000000000000E+00
  0.000000000000E+00
  0.104083408559E-16
  0.104083408559E-16
 -0.346944695195E-17
 -0.520417042793E-17
  0.520417042793E-17
 -0.173472347598E-17
 -0.216840434497E-17
  0.130104260698E-17
 -0.207487337875E-17
 -0.867361737988E-18
  0.693889390391E-17
  0.520417042793E-17
  0.000000000000E+00
 -0.346944695195E-17
  0.693889390391E-17
 -0.173472347598E-17
 -0.867361737988E-18
  0.000000000000E+00
 -0.216840434497E-18
  0.100254290241E-19
 -0.151788304148E-17
 -0.433680868994E-18
  0.867361737988E-18
 -0.173472347598E-17
  0.346944695195E-17
 -0.173472347598E-16
 -0.138777878078E-16
  0.173472347598E-17
 -0.173472347598E-17
 -0.346944695195E-17
  0.368628738645E-17
 -0.216840434497E-17
  0.402797253644E-18
 -0.173472347598E-17
 -0.173472347598E-17
  0.867361737988E-17
  0.346944695195E-17
  0.346944695195E-17
 -0.693889390391E-17
 -0.346944695195E-17
  0.000000000000E+00
  0.433680868994E-18
  0.000000000000E+00
  0.935044964430E-20
 -0.216840434497E-18
 -0.867361737988E-18
  0.867361737988E-18
  0.000000000000E+00
 -0.693889390391E-17
 -0.346944695195E-17
 -0.693889390391E-17
  0.693889390391E-17
  0.693889390391E-17
 -0.433680868994E-17
 -0.411996825544E-17
  0.108420217249E-17
  0.253342260568E-18
 -0.173472347598E-17
 -0.104083408559E-16
 -0.693889390391E-17
 -0.346944695195E-17
 -0.242861286637E-16
 -0.346944695195E-17
  0.000000000000E+00
  0.173472347598E-17
  0.433680868994E-18
  0.216840434497E-18
  0.546600948775E-20
 -0.108420217249E-17
  0.000000000000E+00
  0.867361737988E-18
  0.000000000000E+00
 -0.104083408559E-16
  0.000000000000E+00
  0.138777878078E-16
 -0.346944695195E-17
 -0.693889390391E-17
  0.867361737988E-18
  0.867361737988E-18
  0.281892564846E-17
  0.157442249071E-17
  0.520417042793E-17
 -0.693889390391E-17
 -0.104083408559E-16
  0.346944695195E-17
 -0.346944695195E-17
 -0.693889390391E-17
  0.346944695195E-17
  0.260208521397E-17
  0.433680868994E-18
 -0.216840434497E-18
 -0.486382200181E-20
  0.108420217249E-17
  0.867361737988E-18
 -0.173472347598E-17
  0.346944695195E-17
  0.000000000000E+00
 -0.173472347598E-16
  0.000000000000E+00
  0.520417042793E-17
 -0.693889390391E-17
  0.607153216592E-17
  0.520417042793E-17
 -0.238524477947E-17
 -0.227004829864E-18
 -0.260208521397E-17
 -0.520417042793E-17
  0.173472347598E-17
  0.104083408559E-16
 -0.138777878078E-16
  0.346944695195E-17
  0.520417042793E-17
  0.867361737988E-18
  0.000000000000E+00
 -0.433680868994E-18
  0.109386364204E-19
 -0.151788304148E-17
 -0.433680868994E-18
 -0.173472347598E-17
  0.000000000000E+00
  0.000000000000E+00
  0.000000000000E+00
  0.000000000000E+00
  0.173472347598E-16
  0.000000000000E+00
 -0.693889390391E-17
 -0.216840434497E-18
  0.867361737988E-18
 -0.287652388888E-17
  0.693889390391E-17
  0.520417042793E-17
  0.173472347598E-17
 -0.173472347598E-16
 -0.693889390391E-17
 -0.346944695195E-17
  0.000000000000E+00
  0.867361737988E-18
  0.867361737988E-18
  0.000000000000E+00
  0.109452538653E-19
  0.108420217249E-17
  0.130104260698E-17
 -0.173472347598E-17
  0.000000000000E+00
 -0.346944695195E-17
  0.693889390391E-17
 -0.173472347598E-16
 -0.121430643318E-16
 -0.520417042793E-17
  0.260208521397E-17
 -0.346944695195E-17
 -0.650521303491E-18
  0.151788304148E-17
 -0.607153216592E-17
  0.346944695195E-17
  0.121430643318E-16
  0.000000000000E+00
 -0.104083408559E-16
 -0.693889390391E-17
  0.000000000000E+00
  0.867361737988E-18
 -0.433680868994E-18
 -0.216840434497E-18
  0.109452538653E-19
 -0.650521303491E-18
  0.433680868994E-18
  0.000000000000E+00
 -0.346944695195E-17
 -0.346944695195E-17
 -0.693889390391E-17
 -0.346944695195E-17
  0.867361737988E-17
  0.104083408559E-16
 -0.173472347598E-17
 -0.260208521397E-17
 -0.260208521397E-17
  0.520417042793E-17
 -0.542101086243E-18
 -0.346944695195E-17
  0.104083408559E-16
  0.173472347598E-16
  0.346944695195E-17
  0.000000000000E+00
  0.346944695195E-17
  0.000000000000E+00
  0.867361737988E-18
  0.000000000000E+00
 -0.261389073567E-20
  0.433680868994E-18
  0.433680868994E-18
 -0.867361737988E-18
  0.173472347598E-17
  0.346944695195E-17
 -0.346944695195E-17
 -0.346944695195E-17
  0.693889390391E-17
  0.000000000000E+00
  0.108420217249E-18
  0.173472347598E-17
  0.242861286637E-16
  0.173472347598E-17
 -0.130104260698E-16
 -0.238524477947E-17
 -0.121430643318E-16
 -0.104083408559E-16
 -0.346944695195E-17
  0.000000000000E+00
  0.346944695195E-17
  0.000000000000E+00
  0.000000000000E+00
  0.433680868994E-18
 -0.161598004468E-19
  0.238524477947E-17
 -0.433680868994E-18
  0.000000000000E+00
 -0.173472347598E-17
  0.000000000000E+00
  0.138777878078E-16
  0.104083408559E-16
  0.173472347598E-17
 -0.336102673471E-17
 -0.173472347598E-17
  0.104083408559E-16
 -0.190819582357E-16
  0.138777878078E-16
 -0.346944695195E-17
  0.346944695195E-17
  0.173472347598E-17
  0.000000000000E+00
  0.000000000000E+00
  0.346944695195E-17
 -0.346944695195E-17
  0.000000000000E+00
 -0.433680868994E-18
  0.000000000000E+00
  0.416899028727E-20
  0.173472347598E-17
 -0.130104260698E-17
  0.867361737988E-18
  0.000000000000E+00
 -0.693889390391E-17
 -0.693889390391E-17
  0.104083408559E-16
  0.867361737988E-18
 -0.173472347598E-17
  0.000000000000E+00
 -0.190819582357E-16
 -0.520417042793E-17
 -0.104083408559E-16
 -0.693889390391E-17
 -0.867361737988E-17
 -0.130104260698E-17
 -0.173472347598E-17
  0.693889390391E-17
  0.346944695195E-17
  0.000000000000E+00
 -0.867361737988E-18
  0.867361737988E-18
  0.000000000000E+00
 -0.161664178917E-19
 -0.216840434497E-17
  0.867361737988E-18
  0.867361737988E-18
 -0.520417042793E-17
  0.346944695195E-17
  0.173472347598E-17
  0.173472347598E-17
  0.173472347598E-17
 -0.520417042793E-17
  0.520417042793E-17
 -0.520417042793E-17
 -0.867361737988E-18
 -0.693889390391E-17
  0.000000000000E+00
  0.867361737988E-18
 -0.271050543121E-17
  0.346944695195E-17
  0.693889390391E-17
  0.346944695195E-17
  0.000000000000E+00
  0.260208521397E-17
  0.867361737988E-18
  0.216840434497E-18
  0.416899028727E-20
 -0.867361737988E-18
  0.867361737988E-18
  0.867361737988E-18
  0.346944695195E-17
  0.520417042793E-17
  0.000000000000E+00
 -0.130104260698E-16
  0.498732999343E-17
  0.130104260698E-17
 -0.260208521397E-17
 -0.607153216592E-17
  0.260208521397E-17
 -0.130104260698E-17
  0.867361737988E-18
 -0.975781955237E-18
  0.216840434497E-17
  0.346944695195E-17
 -0.104083408559E-16
  0.000000000000E+00
  0.000000000000E+00
  0.173472347598E-17
 -0.216840434497E-18
  0.433680868994E-18
  0.827180612553E-24
  0.108420217249E-18
 -0.433680868994E-18
  0.130104260698E-17
 -0.173472347598E-17
  0.346944695195E-17
  0.173472347598E-17
  0.433680868994E-17
  0.477048955894E-17
 -0.975781955237E-18
  0.195156391047E-17
  0.607153216592E-17
 -0.260208521397E-17
 -0.216840434497E-18
 -0.162630325873E-18
  0.346944695195E-17
  0.867361737988E-18
  0.693889390391E-17
 -0.867361737988E-18
 -0.433680868994E-17
 -0.867361737988E-18
  0.000000000000E+00
  0.108420217249E-18
  0.000000000000E+00
  0.216840434497E-18
 -0.130104260698E-17
  0.000000000000E+00
 -0.260208521397E-17
  0.693889390391E-17
  0.260208521397E-17
 -0.173472347598E-17
 -0.975781955237E-18
  0.260208521397E-17
  0.650521303491E-17
  0.260208521397E-17
 -0.216840434497E-18
  0.379470760370E-18
  0.303576608296E-17
 -0.520417042793E-17
 -0.693889390391E-17
  0.260208521397E-17
  0.000000000000E+00
  0.433680868994E-18
  0.433680868994E-18
  0.108420217249E-18
  0.216840434497E-18
  0.000000000000E+00
  0.867361737988E-18
 -0.867361737988E-18
 -0.693889390391E-17
 -0.346944695195E-17
  0.433680868994E-17
  0.216840434497E-17
 -0.108420217249E-18
  0.130104260698E-17
 -0.303576608296E-17
  0.737257477290E-17
 -0.346944695195E-17
  0.173472347598E-17
  0.216840434497E-17
 -0.346944695195E-17
  0.173472347598E-17
 -0.520417042793E-17
 -0.346944695195E-17
  0.130104260698E-17
  0.108420217249E-17
  0.542101086243E-18
  0.108420217249E-18
  0.000000000000E+00
  0.433680868994E-18
 -0.173472347598E-17
 -0.346944695195E-17
 -0.173472347598E-17
  0.867361737988E-18
  0.303576608296E-17
  0.108420217249E-17
 -0.195156391047E-17
 -0.477048955894E-17
  0.130104260698E-17
 -0.368628738645E-17
 -0.271050543121E-18
  0.563785129692E-17
 -0.433680868994E-17
 -0.173472347598E-17
 -0.260208521397E-17
  0.520417042793E-17
 -0.130104260698E-17
 -0.216840434497E-18
  0.216840434497E-18
  0.994065955497E-18
 -0.867361737988E-18
  0.000000000000E+00
  0.867361737988E-17
 -0.693889390391E-17
 -0.346944695195E-17
  0.693889390391E-17
 -0.173472347598E-16
 -0.693889390391E-17
 -0.867361737988E-18
  0.433680868994E-18
  0.216840434497E-18
 -0.114150924532E-19
  0.216840434497E-17
  0.000000000000E+00
 -0.173472347598E-17
  0.693889390391E-17
  0.693889390391E-17
 -0.693889390391E-17
 -0.104083408559E-16
  0.520417042793E-17
 -0.867361737988E-17
 -0.260208521397E-17
 -0.173472347598E-17
  0.203930461241E-17
  0.867361737988E-18
 -0.867361737988E-18
  0.867361737988E-17
  0.173472347598E-17
  0.346944695195E-17
 -0.104083408559E-16
 -0.693889390391E-17
 -0.346944695195E-17
  0.000000000000E+00
  0.433680868994E-18
 -0.216840434497E-18
 -0.123812394087E-19
 -0.433680868994E-18
  0.433680868994E-18
 -0.867361737988E-18
 -0.173472347598E-17
  0.346944695195E-17
 -0.346944695195E-17
 -0.104083408559E-16
 -0.346944695195E-17
  0.000000000000E+00
  0.260208521397E-17
  0.281892564846E-17
 -0.282858050057E-17
 -0.108420217249E-17
 -0.867361737988E-18
 -0.173472347598E-17
  0.346944695195E-17
 -0.693889390391E-17
 -0.104083408559E-16
 -0.693889390391E-17
  0.346944695195E-17
 -0.260208521397E-17
 -0.433680868994E-18
 -0.216840434497E-18
  0.324254800121E-20
 -0.650521303491E-18
  0.000000000000E+00
 -0.867361737988E-18
  0.000000000000E+00
 -0.346944695195E-17
  0.693889390391E-17
 -0.104083408559E-16
  0.693889390391E-17
  0.104083408559E-16
  0.433680868994E-17
 -0.130104260698E-17
  0.453795916258E-17
 -0.433680868994E-18
  0.104083408559E-16
 -0.693889390391E-17
  0.693889390391E-17
 -0.346944695195E-17
  0.693889390391E-17
 -0.693889390391E-17
 -0.173472347598E-17
  0.867361737988E-18
 -0.130104260698E-17
  0.433680868994E-18
  0.258080351117E-20
 -0.108420217249E-17
 -0.867361737988E-18
 -0.173472347598E-17
  0.346944695195E-17
  0.346944695195E-17
 -0.346944695195E-17
 -0.173472347598E-16
 -0.520417042793E-17
  0.693889390391E-17
 -0.260208521397E-17
  0.151788304148E-17
 -0.299362619383E-17
 -0.260208521397E-17
 -0.607153216592E-17
 -0.121430643318E-16
  0.693889390391E-17
  0.000000000000E+00
  0.346944695195E-17
 -0.346944695195E-17
 -0.346944695195E-17
  0.000000000000E+00
  0.000000000000E+00
 -0.433680868994E-18
 -0.103033617100E-19
 -0.411996825544E-17
 -0.130104260698E-17
 -0.260208521397E-17
  0.000000000000E+00
 -0.346944695195E-17
  0.000000000000E+00
 -0.173472347598E-16
  0.520417042793E-17
  0.173472347598E-17
 -0.607153216592E-17
 -0.195156391047E-17
 -0.154714538283E-17
  0.173472347598E-17
 -0.867361737988E-18
  0.693889390391E-17
  0.693889390391E-17
 -0.104083408559E-16
  0.104083408559E-16
  0.000000000000E+00
  0.173472347598E-17
 -0.867361737988E-18
 -0.867361737988E-18
 -0.216840434497E-18
  0.935706708920E-20
 -0.585469173142E-17
 -0.433680868994E-18
 -0.260208521397E-17
  0.000000000000E+00
  0.693889390391E-17
  0.346944695195E-17
  0.173472347598E-16
 -0.520417042793E-17
  0.346944695195E-17
  0.000000000000E+00
  0.867361737988E-18
 -0.265863128064E-17
 -0.650521303491E-18
 -0.433680868994E-17
 -0.693889390391E-17
 -0.867361737988E-17
 -0.173472347598E-16
 -0.104083408559E-16
 -0.346944695195E-17
 -0.173472347598E-17
 -0.867361737988E-18
 -0.867361737988E-18
  0.216840434497E-18
  0.324916544611E-20
 -0.346944695195E-17
 -0.216840434497E-17
 -0.173472347598E-17
 -0.346944695195E-17
 -0.346944695195E-17
  0.693889390391E-17
  0.242861286637E-16
  0.346944695195E-17
  0.173472347598E-17
 -0.173472347598E-17
  0.151788304148E-17
  0.908932526853E-18
  0.650521303491E-18
 -0.433680868994E-17
 -0.173472347598E-17
  0.867361737988E-17
  0.000000000000E+00
  0.000000000000E+00
 -0.693889390391E-17
 -0.346944695195E-17
  0.867361737988E-18
 -0.130104260698E-17
 -0.433680868994E-18
 -0.109717236449E-19
  0.498732999343E-17
 -0.130104260698E-17
 -0.173472347598E-17
 -0.693889390391E-17
  0.000000000000E+00
 -0.104083408559E-16
 -0.346944695195E-17
 -0.346944695195E-17
 -0.520417042793E-17
  0.346944695195E-17
  0.216840434497E-17
 -0.452736463329E-17
  0.260208521397E-17
  0.867361737988E-18
 -0.520417042793E-17
 -0.138777878078E-16
 -0.346944695195E-17
  0.693889390391E-17
 -0.693889390391E-17
  0.520417042793E-17
  0.173472347598E-17
  0.130104260698E-17
 -0.216840434497E-18
 -0.131025409028E-20
 -0.867361737988E-18
  0.433680868994E-18
  0.173472347598E-17
 -0.346944695195E-17
 -0.173472347598E-16
 -0.242861286637E-16
  0.104083408559E-16
 -0.173472347598E-17
 -0.693889390391E-17
 -0.173472347598E-17
  0.433680868994E-18
  0.102618041560E-17
 -0.216840434497E-18
  0.693889390391E-17
 -0.867361737988E-17
 -0.867361737988E-17
 -0.173472347598E-16
  0.000000000000E+00
  0.693889390391E-17
  0.173472347598E-17
  0.867361737988E-18
  0.867361737988E-18
  0.216840434497E-18
  0.867547026446E-20
 -0.628837260042E-17
  0.000000000000E+00
  0.346944695195E-17
  0.000000000000E+00
  0.346944695195E-17
  0.346944695195E-17
  0.000000000000E+00
  0.000000000000E+00
 -0.346944695195E-17
 -0.260208521397E-17
  0.455364912444E-17
 -0.102321580028E-17
  0.173472347598E-17
  0.346944695195E-17
  0.000000000000E+00
 -0.121430643318E-16
  0.346944695195E-17
 -0.693889390391E-17
  0.000000000000E+00
  0.000000000000E+00
 -0.173472347598E-17
 -0.216840434497E-17
  0.216840434497E-18
 -0.938353686880E-20
  0.346944695195E-17
 -0.130104260698E-17
 -0.867361737988E-18
  0.693889390391E-17
  0.242861286637E-16
  0.693889390391E-17
  0.138777878078E-16
 -0.156125112838E-16
  0.000000000000E+00
  0.433680868994E-17
 -0.650521303491E-18
 -0.303576608296E-17
 -0.238524477947E-17
 -0.346944695195E-17
 -0.173472347598E-17
  0.173472347598E-17
  0.104083408559E-16
  0.000000000000E+00
  0.000000000000E+00
 -0.346944695195E-17
  0.260208521397E-17
  0.867361737988E-18
  0.216840434497E-18
 -0.161598004468E-19
  0.520417042793E-17
  0.867361737988E-18
  0.433680868994E-17
  0.173472347598E-17
 -0.104083408559E-16
  0.000000000000E+00
 -0.346944695195E-17
  0.173472347598E-17
  0.520417042793E-17
 -0.520417042793E-17
 -0.346944695195E-17
  0.325260651746E-17
  0.455364912444E-17
  0.693889390391E-17
  0.346944695195E-17
  0.000000000000E+00
 -0.693889390391E-17
  0.104083408559E-16
  0.346944695195E-17
  0.346944695195E-17
  0.867361737988E-18
  0.173472347598E-17
  0.000000000000E+00
 -0.260727329077E-20
 -0.303576608296E-17
  0.130104260698E-17
  0.867361737988E-18
 -0.346944695195E-17
  0.346944695195E-17
 -0.693889390391E-17
 -0.138777878078E-16
  0.138777878078E-16
  0.346944695195E-17
  0.520417042793E-17
  0.498732999343E-17
 -0.173472347598E-17
 -0.346944695195E-17
  0.346944695195E-17
  0.000000000000E+00
 -0.138777878078E-16
  0.138777878078E-16
  0.138777878078E-16
  0.000000000000E+00
  0.173472347598E-17
 -0.867361737988E-18
 -0.433680868994E-18
 -0.216840434497E-18
  0.416899028727E-20
 -0.281892564846E-17
 -0.130104260698E-17
  0.867361737988E-18
  0.173472347598E-17
  0.346944695195E-17
  0.000000000000E+00
 -0.346944695195E-17
 -0.173472347598E-17
 -0.173472347598E-17
  0.802309607639E-17
  0.520417042793E-17
 -0.520417042793E-17
  0.104083408559E-16
 -0.260208521397E-17
  0.119262238973E-17
 -0.173472347598E-17
  0.138777878078E-16
  0.104083408559E-16
  0.346944695195E-17
  0.000000000000E+00
 -0.173472347598E-17
  0.000000000000E+00
  0.216840434497E-18
 -0.938353686880E-20
 -0.693889390391E-17
 -0.433680868994E-18
 -0.173472347598E-17
 -0.173472347598E-17
  0.104083408559E-16
  0.693889390391E-17
 -0.693889390391E-17
  0.346944695195E-17
 -0.205998412772E-17
 -0.433680868994E-17
 -0.693889390391E-17
 -0.242861286637E-16
  0.867361737988E-17
  0.173472347598E-17
  0.520417042793E-17
 -0.563785129692E-17
  0.346944695195E-17
  0.346944695195E-17
  0.000000000000E+00
 -0.173472347598E-17
 -0.260208521397E-17
 -0.867361737988E-18
  0.433680868994E-18
  0.177215174433E-19
  0.000000000000E+00
 -0.867361737988E-18
 -0.173472347598E-17
 -0.173472347598E-17
 -0.693889390391E-17
 -0.693889390391E-17
  0.520417042793E-17
  0.780625564190E-17
  0.867361737988E-18
 -0.173472347598E-17
  0.346944695195E-17
  0.693889390391E-17
  0.520417042793E-17
  0.867361737988E-17
  0.346944695195E-17
  0.791467585914E-17
 -0.693889390391E-17
 -0.208166817117E-16