# vtk DataFile Version 3.0
MachLine results file. Generated by MachLine, USU AeroLab (c) 2022.
ASCII
DATASET POLYDATA
POINTS                1127 float
  0.999999041957E+00  0.000000000000E+00 -0.417491494650E-07
  0.973034383663E+00  0.105263157890E+00 -0.235825883963E-02
  0.999999119618E+00  0.105263157890E+00 -0.383648804671E-07
  0.973034382832E+00  0.000000000000E+00 -0.235824933777E-02
  0.929717675664E+00  0.105263157890E+00 -0.614787723533E-02
  0.929717673943E+00  0.000000000000E+00 -0.614785756087E-02
  0.863184699151E+00  0.105263157890E+00 -0.119686097007E-01
  0.863184696324E+00  0.000000000000E+00 -0.119685773901E-01
  0.767714125425E+00  0.105263157890E+00 -0.203210244768E-01
  0.767714122072E+00  0.000000000000E+00 -0.203209861486E-01
  0.643290413741E+00  0.105263157890E+00 -0.312065343397E-01
  0.643290411360E+00  0.000000000000E+00 -0.312065071268E-01
  0.500000000000E+00  0.105263157890E+00 -0.437427648440E-01
  0.500000000000E+00  0.000000000000E+00 -0.437429617072E-01
  0.356709588640E+00  0.000000000000E+00 -0.312065071268E-01
  0.356709586259E+00  0.105263157890E+00 -0.312065343397E-01
  0.232285877928E+00  0.000000000000E+00 -0.203209861486E-01
  0.232285874575E+00  0.105263157890E+00 -0.203210244768E-01
  0.136815303676E+00  0.000000000000E+00 -0.119685773901E-01
  0.136815300849E+00  0.105263157890E+00 -0.119686097007E-01
  0.702823260562E-01  0.000000000000E+00 -0.614785756087E-02
  0.702823243349E-01  0.105263157890E+00 -0.614787723533E-02
  0.269656171711E-01  0.000000000000E+00 -0.235824933777E-02
  0.269656163398E-01  0.105263157890E+00 -0.235825883963E-02
  0.961695078561E-06  0.000000000000E+00  0.000000000000E+00
  0.883738164913E-06  0.105263157890E+00  0.000000000000E+00
  0.269656163398E-01  0.105263157890E+00  0.235825883963E-02
  0.269656171711E-01  0.000000000000E+00  0.235824933777E-02
  0.702823243349E-01  0.105263157890E+00  0.614787723533E-02
  0.702823260562E-01  0.000000000000E+00  0.614785756087E-02
  0.136815300849E+00  0.105263157890E+00  0.119686097007E-01
  0.136815303676E+00  0.000000000000E+00  0.119685773901E-01
  0.232285874575E+00  0.105263157890E+00  0.203210244768E-01
  0.232285877928E+00  0.000000000000E+00  0.203209861486E-01
  0.356709586259E+00  0.105263157890E+00  0.312065343397E-01
  0.356709588640E+00  0.000000000000E+00  0.312065071268E-01
  0.500000000000E+00  0.105263157890E+00  0.437427648440E-01
  0.500000000000E+00  0.000000000000E+00  0.437429617072E-01
  0.643290411360E+00  0.000000000000E+00  0.312065071268E-01
  0.643290413741E+00  0.105263157890E+00  0.312065343397E-01
  0.767714122072E+00  0.000000000000E+00  0.203209861486E-01
  0.767714125425E+00  0.105263157890E+00  0.203210244768E-01
  0.863184696324E+00  0.000000000000E+00  0.119685773901E-01
  0.863184699151E+00  0.105263157890E+00  0.119686097007E-01
  0.929717673943E+00  0.000000000000E+00  0.614785756087E-02
  0.929717675664E+00  0.105263157890E+00  0.614787723533E-02
  0.973034382832E+00  0.000000000000E+00  0.235824933777E-02
  0.973034383663E+00  0.105263157890E+00  0.235825883963E-02
  0.973034383663E+00  0.210526315790E+00 -0.235825883963E-02
  0.999999119618E+00  0.210526315790E+00 -0.383648804656E-07
  0.929717675664E+00  0.210526315790E+00 -0.614787723533E-02
  0.863184699151E+00  0.210526315790E+00 -0.119686097007E-01
  0.767714125425E+00  0.210526315790E+00 -0.203210244768E-01
  0.643290413741E+00  0.210526315790E+00 -0.312065343397E-01
  0.500000000000E+00  0.210526315790E+00 -0.437427648440E-01
  0.356709586259E+00  0.210526315790E+00 -0.312065343397E-01
  0.232285874575E+00  0.210526315790E+00 -0.203210244768E-01
  0.136815300849E+00  0.210526315790E+00 -0.119686097007E-01
  0.702823243349E-01  0.210526315790E+00 -0.614787723533E-02
  0.269656163398E-01  0.210526315790E+00 -0.235825883963E-02
  0.883738164878E-06  0.210526315790E+00  0.000000000000E+00
  0.269656163398E-01  0.210526315790E+00  0.235825883963E-02
  0.702823243349E-01  0.210526315790E+00  0.614787723533E-02
  0.136815300849E+00  0.210526315790E+00  0.119686097007E-01
  0.232285874575E+00  0.210526315790E+00  0.203210244768E-01
  0.356709586259E+00  0.210526315790E+00  0.312065343397E-01
  0.500000000000E+00  0.210526315790E+00  0.437427648440E-01
  0.643290413741E+00  0.210526315790E+00  0.312065343397E-01
  0.767714125425E+00  0.210526315790E+00  0.203210244768E-01
  0.863184699151E+00  0.210526315790E+00  0.119686097007E-01
  0.929717675664E+00  0.210526315790E+00  0.614787723533E-02
  0.973034383663E+00  0.210526315790E+00  0.235825883963E-02
  0.973034383663E+00  0.315789473680E+00 -0.235825883963E-02
  0.999999119618E+00  0.315789473680E+00 -0.383648804671E-07
  0.929717675664E+00  0.315789473680E+00 -0.614787723533E-02
  0.863184699151E+00  0.315789473680E+00 -0.119686097007E-01
  0.767714125425E+00  0.315789473680E+00 -0.203210244768E-01
  0.643290413741E+00  0.315789473680E+00 -0.312065343397E-01
  0.500000000000E+00  0.315789473680E+00 -0.437427648440E-01
  0.356709586259E+00  0.315789473680E+00 -0.312065343397E-01
  0.232285874575E+00  0.315789473680E+00 -0.203210244768E-01
  0.136815300849E+00  0.315789473680E+00 -0.119686097007E-01
  0.702823243349E-01  0.315789473680E+00 -0.614787723533E-02
  0.269656163398E-01  0.315789473680E+00 -0.235825883963E-02
  0.883738164913E-06  0.315789473680E+00  0.000000000000E+00
  0.269656163398E-01  0.315789473680E+00  0.235825883963E-02
  0.702823243349E-01  0.315789473680E+00  0.614787723533E-02
  0.136815300849E+00  0.315789473680E+00  0.119686097007E-01
  0.232285874575E+00  0.315789473680E+00  0.203210244768E-01
  0.356709586259E+00  0.315789473680E+00  0.312065343397E-01
  0.500000000000E+00  0.315789473680E+00  0.437427648440E-01
  0.643290413741E+00  0.315789473680E+00  0.312065343397E-01
  0.767714125425E+00  0.315789473680E+00  0.203210244768E-01
  0.863184699151E+00  0.315789473680E+00  0.119686097007E-01
  0.929717675664E+00  0.315789473680E+00  0.614787723533E-02
  0.973034383663E+00  0.315789473680E+00  0.235825883963E-02
  0.973034383663E+00  0.421052631580E+00 -0.235825883963E-02
  0.999999119618E+00  0.421052631580E+00 -0.383648804656E-07
  0.929717675664E+00  0.421052631580E+00 -0.614787723533E-02
  0.863184699151E+00  0.421052631580E+00 -0.119686097007E-01
  0.767714125425E+00  0.421052631580E+00 -0.203210244768E-01
  0.643290413741E+00  0.421052631580E+00 -0.312065343397E-01
  0.500000000000E+00  0.421052631580E+00 -0.437427648440E-01
  0.356709586259E+00  0.421052631580E+00 -0.312065343397E-01
  0.232285874575E+00  0.421052631580E+00 -0.203210244768E-01
  0.136815300849E+00  0.421052631580E+00 -0.119686097007E-01
  0.702823243349E-01  0.421052631580E+00 -0.614787723533E-02
  0.269656163398E-01  0.421052631580E+00 -0.235825883963E-02
  0.883738164878E-06  0.421052631580E+00  0.187623218593E-21
  0.269656163398E-01  0.421052631580E+00  0.235825883963E-02
  0.702823243349E-01  0.421052631580E+00  0.614787723533E-02
  0.136815300849E+00  0.421052631580E+00  0.119686097007E-01
  0.232285874575E+00  0.421052631580E+00  0.203210244768E-01
  0.356709586259E+00  0.421052631580E+00  0.312065343397E-01
  0.500000000000E+00  0.421052631580E+00  0.437427648440E-01
  0.643290413741E+00  0.421052631580E+00  0.312065343397E-01
  0.767714125425E+00  0.421052631580E+00  0.203210244768E-01
  0.863184699151E+00  0.421052631580E+00  0.119686097007E-01
  0.929717675664E+00  0.421052631580E+00  0.614787723533E-02
  0.973034383663E+00  0.421052631580E+00  0.235825883963E-02
  0.973034383663E+00  0.526315789470E+00 -0.235825883963E-02
  0.999999119618E+00  0.526315789470E+00 -0.383648804671E-07
  0.929717675664E+00  0.526315789470E+00 -0.614787723533E-02
  0.863184699151E+00  0.526315789470E+00 -0.119686097007E-01
  0.767714125425E+00  0.526315789470E+00 -0.203210244768E-01
  0.643290413741E+00  0.526315789470E+00 -0.312065343397E-01
  0.500000000000E+00  0.526315789470E+00 -0.437427648440E-01
  0.356709586259E+00  0.526315789470E+00 -0.312065343397E-01
  0.232285874575E+00  0.526315789470E+00 -0.203210244768E-01
  0.136815300849E+00  0.526315789470E+00 -0.119686097007E-01
  0.702823243349E-01  0.526315789470E+00 -0.614787723533E-02
  0.269656163398E-01  0.526315789470E+00 -0.235825883963E-02
  0.883738164913E-06  0.526315789470E+00  0.187623218601E-21
  0.269656163398E-01  0.526315789470E+00  0.235825883963E-02
  0.702823243349E-01  0.526315789470E+00  0.614787723533E-02
  0.136815300849E+00  0.526315789470E+00  0.119686097007E-01
  0.232285874575E+00  0.526315789470E+00  0.203210244768E-01
  0.356709586259E+00  0.526315789470E+00  0.312065343397E-01
  0.500000000000E+00  0.526315789470E+00  0.437427648440E-01
  0.643290413741E+00  0.526315789470E+00  0.312065343397E-01
  0.767714125425E+00  0.526315789470E+00  0.203210244768E-01
  0.863184699151E+00  0.526315789470E+00  0.119686097007E-01
  0.929717675664E+00  0.526315789470E+00  0.614787723533E-02
  0.973034383663E+00  0.526315789470E+00  0.235825883963E-02
  0.973034383663E+00  0.631578947370E+00 -0.235825883963E-02
  0.999999119618E+00  0.631578947370E+00 -0.383648804656E-07
  0.929717675664E+00  0.631578947370E+00 -0.614787723533E-02
  0.863184699151E+00  0.631578947370E+00 -0.119686097007E-01
  0.767714125425E+00  0.631578947370E+00 -0.203210244768E-01
  0.643290413741E+00  0.631578947370E+00 -0.312065343397E-01
  0.500000000000E+00  0.631578947370E+00 -0.437427648440E-01
  0.356709586259E+00  0.631578947370E+00 -0.312065343397E-01
  0.232285874575E+00  0.631578947370E+00 -0.203210244768E-01
  0.136815300849E+00  0.631578947370E+00 -0.119686097007E-01
  0.702823243349E-01  0.631578947370E+00 -0.614787723533E-02
  0.269656163398E-01  0.631578947370E+00 -0.235825883963E-02
  0.883738164878E-06  0.631578947370E+00  0.000000000000E+00
  0.269656163398E-01  0.631578947370E+00  0.235825883963E-02
  0.702823243349E-01  0.631578947370E+00  0.614787723533E-02
  0.136815300849E+00  0.631578947370E+00  0.119686097007E-01
  0.232285874575E+00  0.631578947370E+00  0.203210244768E-01
[...]
POINT_DATA                1127
SCALARS phi float 1
LOOKUP_TABLE default
 -0.420039003579E-12
 -0.455882076880E-12
  0.846316072778E-12
 -0.462000229740E-14
  0.145767946325E-12
  0.319241161284E-13
 -0.714792808276E-13
 -0.561235086183E-13
 -0.975747260767E-13
  0.599520433298E-13
  0.311486947346E-13
  0.427297086603E-13
  0.142351408439E-13
  0.994065940674E-13
  0.926689280867E-14
 -0.152121371055E-12
 -0.366026653431E-15
 -0.334801630864E-14
  0.867361737988E-18
 -0.266280053562E-15
  0.000000000000E+00
  0.281892564846E-16
  0.216840434497E-18
 -0.338271077815E-16
 -0.598387550553E-16
  0.309632298299E-16
  0.155260374869E-11
  0.103898833981E-11
 -0.164798730218E-16
  0.338271077815E-16
  0.104950770297E-15
 -0.104083408559E-16
 -0.206432093641E-15
 -0.524580379135E-14
  0.128369537222E-15
 -0.363598040565E-14
  0.954444856482E-14
 -0.568642355425E-14
  0.158276169948E-13
  0.159212920625E-13
  0.133122679546E-13
  0.146065451401E-12
 -0.243069453454E-13
  0.791276766332E-13
 -0.155734800056E-13
  0.372818095840E-13
  0.122157058774E-11
 -0.353400902292E-12
  0.318993963189E-12
  0.113049153372E-11
  0.111043119144E-12
 -0.173173281270E-11
  0.221810590728E-11
 -0.371057351511E-13
  0.204010419669E-12
 -0.150358198114E-11
  0.484785822596E-13
  0.125325097522E-13
  0.192085930495E-13
  0.319037331276E-14
 -0.411512058001E-15
  0.185920376317E-11
  0.233328981136E-13
  0.280409376274E-13
  0.217378198775E-13
  0.516288400920E-13
 -0.208211919928E-12
  0.138951350426E-12
  0.119160931122E-11
  0.626183133123E-13
  0.151872438237E-12
  0.284035165179E-12
  0.719151301010E-13
 -0.233528474336E-12
  0.578949214958E-12
 -0.498663610404E-13
 -0.766071234226E-12
  0.338003930400E-12
 -0.948893741359E-14
  0.330686866779E-12
  0.206536177050E-13
  0.424426119250E-13
  0.328686730611E-13
  0.426199874004E-14
  0.347730169361E-13
  0.120450416134E-11
  0.488515478070E-13
  0.611802275508E-13
  0.140863015696E-12
  0.249345682990E-12
  0.186066440033E-13
 -0.773860142633E-13
 -0.205304523382E-13
  0.205151867716E-12
  0.539499001029E-14
  0.352387390101E-12
 -0.502463955859E-12
 -0.114301623722E-11
 -0.219488489883E-12
 -0.124986826444E-13
 -0.285538953593E-12
  0.291780488659E-14
 -0.194382704377E-12
 -0.978283426489E-12
 -0.545275630204E-13
 -0.518396089944E-13
 -0.480583454976E-13
 -0.234404509691E-13
  0.188813586125E-13
  0.102208649530E-11
 -0.257042651053E-13
 -0.859754975546E-13
 -0.746087219783E-13
  0.159615376472E-12
  0.461863186585E-12
 -0.605973604628E-13
 -0.255772833468E-12
 -0.184649170953E-12
 -0.311675164844E-12
 -0.445720934120E-12
  0.136459853833E-12
  0.675966227437E-12
  0.241262738954E-12
  0.968270602586E-13
  0.199102886955E-12
  0.631661389860E-12
 -0.130936927967E-13
  0.131134686443E-12
  0.266869859544E-13
 -0.277469019982E-14
  0.152863832703E-13
 -0.241620959351E-13
  0.813130998818E-14
  0.135199837437E-11
  0.663575097648E-14
  0.759774188008E-13
 -0.123616394898E-13
  0.570724023596E-14
 -0.220868462408E-12
 -0.303253949729E-12
  0.145120027106E-12
  0.319511778146E-12
  0.177054551576E-13
 -0.172971446194E-13
 -0.771406159436E-12
 -0.233514596548E-12
 -0.165789691003E-11
  0.479945944099E-13
  0.599582883343E-12
 -0.363552937754E-12
  0.414970141582E-12
 -0.144911166400E-11
 -0.440272818203E-14
 -0.522333912234E-13
  0.252433924458E-12
 -0.308388297537E-13
 -0.161488263078E-12
  0.709585602082E-12
  0.211734275946E-12
  0.507371054892E-12
 -0.345123235546E-13
  0.108063905047E-11
  0.569447267118E-12
  0.109448908270E-11
  0.881154524346E-12
 -0.818303758088E-13
 -0.896023706620E-12
 -0.468021888606E-13
 -0.723869748864E-13
  0.158559970709E-11
 -0.501544118736E-12
 -0.175913277001E-11
 -0.219855036954E-11
  0.233056629551E-12
 -0.246101750090E-12
 -0.143968170718E-12
  0.446847420177E-12
  0.218212600767E-12
  0.155543546793E-12
 -0.702404714253E-13
 -0.160469879879E-12
 -0.199440941193E-12
  0.350601058602E-12
  0.405022369809E-12
  0.745776704281E-12
  0.603635197383E-12
  0.233229061064E-11
  0.953001566550E-12
  0.592139184907E-12
 -0.359729607213E-13
 -0.315161959030E-12
 -0.256198274401E-12
 -0.134249382444E-12
  0.676035616376E-12
 -0.276904367491E-12
  0.383408582660E-13
  0.111338022135E-12
  0.238562641863E-12
  0.891231533018E-13
 -0.163206254067E-12
  0.470942729258E-13
  0.369929781252E-13
  0.196049773638E-13
  0.153501343580E-14
 -0.373278122345E-14
 -0.219574770692E-11
  0.342130837550E-14
  0.990665882661E-13
  0.180071235700E-12
  0.284473833378E-12
  0.129377758507E-11
  0.204841005269E-11
  0.927258270167E-12
 -0.352183560093E-13
  0.239895776855E-12
  0.121155689647E-12
  0.197728118601E-13
 -0.205245542784E-11
  0.760485424633E-13
  0.532530616826E-12
  0.567620603298E-12
  0.205276767806E-12
 -0.117818949041E-12
  0.620996309930E-13
  0.925301502086E-14
  0.318581966363E-14
  0.161446377100E-13
 -0.101607090797E-13
 -0.124439809192E-13
 -0.434137534949E-12
  0.239044894990E-14
  0.396401661495E-13
  0.621135087808E-13
  0.128775462516E-12
  0.359278579110E-12
  0.983157999457E-12
  0.128612745454E-11
  0.167321712041E-11
  0.621107332233E-12
 -0.318790133180E-12
  0.386921180859E-12
  0.676028677482E-12
  0.286826118412E-12
  0.415089837502E-12
  0.138116948434E-12
  0.164732810726E-12
  0.334364480548E-12
 -0.224750773548E-13
 -0.128808422262E-12
 -0.111357104093E-12
 -0.881798974117E-13
  0.368865094719E-13
 -0.729476825072E-13
  0.292188018572E-11
  0.740397326782E-13
 -0.205196970526E-12
  0.964627683286E-13
 -0.179089382213E-12
  0.135200878271E-12
 -0.196544169828E-13
  0.438923203339E-12
  0.561961935319E-12
  0.125396915074E-11
  0.499366390252E-12
  0.185720124175E-11
  0.676049494164E-12
  0.311224136740E-12
 -0.106232730945E-12
 -0.911604125520E-12
 -0.805883138000E-13
  0.298885916017E-12
 -0.625194340742E-13
  0.347239598186E-13
  0.456006760130E-13
 -0.137221397439E-12
  0.146926741607E-13
  0.183305407896E-13
 -0.680371557704E-13
 -0.151764885381E-12
  0.517945061840E-13
 -0.433323515958E-12
 -0.497935026544E-12
  0.319050341702E-13
 -0.220118021033E-11
 -0.878734585097E-12
 -0.969033880915E-13
 -0.180602061084E-13
  0.741163207196E-12
  0.572991957701E-12
 -0.233355001988E-12
  0.962112334246E-12
  0.887505346991E-12
  0.601966393399E-12
  0.272629141485E-13
  0.242948022811E-12
  0.139124822773E-14
 -0.759114993087E-14
  0.456440440999E-13
 -0.589701898424E-13
  0.783986590924E-14
  0.399607129438E-13
 -0.227734411190E-11
  0.259028909433E-13
 -0.148501870523E-12
 -0.172089772987E-12
 -0.258178894930E-12
 -0.228983498829E-12
 -0.447426817818E-12
 -0.406591427193E-12
  0.850795128793E-13
  0.421948934126E-12
  0.139929300785E-12
  0.427311831752E-12
 -0.233452146503E-12
 -0.487578727393E-13
  0.599572475002E-13
 -0.249314457967E-13
  0.795197241388E-13
 -0.311209391590E-13
 -0.841340885849E-14
 -0.126461341399E-14
 -0.760762980390E-14
  0.125637347748E-14
  0.130321101133E-14
 -0.277074399244E-14
  0.123530894715E-11
 -0.714922912537E-14
 -0.105557923513E-14
 -0.260867716317E-13
 -0.187801163509E-12
  0.166304470195E-12
  0.212017903234E-13
 -0.339827124773E-12
 -0.602039251785E-12
 -0.252082209273E-12
  0.355040215977E-12
 -0.146824219449E-11
  0.704269975671E-12
 -0.103645564353E-11
  0.154150997522E-12
  0.945684502929E-13
 -0.127318294796E-12
 -0.473752981289E-13
 -0.176213210690E-13
 -0.127849120179E-14
  0.114118783867E-13
  0.689335741266E-14
  0.388361218184E-14
  0.510925094971E-14
 -0.208056510388E-11
 -0.400287442082E-14
  0.221003770839E-13
  0.441487124636E-14
 -0.193317584163E-13
 -0.131769595235E-12
 -0.406279176968E-12
 -0.273850386812E-12
 -0.468089109140E-12
 -0.126861021688E-11
  0.244942954808E-14
  0.129197347265E-11
  0.229143093389E-12
 -0.105478126233E-12
  0.658063881165E-12
  0.924964965732E-12
 -0.373590047786E-13
  0.321895288202E-13
 -0.164417091053E-13
  0.235662184211E-13
  0.478384692970E-13
  0.107869008864E-12
 -0.168485017604E-14
  0.371827294799E-13
  0.154039649959E-11
  0.131228795192E-12
  0.215634801681E-13
  0.294850949212E-13
  0.249814058328E-12
  0.182021064887E-12
 -0.922178999829E-14
 -0.320073828552E-12
 -0.412440914754E-12
 -0.886651863041E-13
  0.528230237329E-12
 -0.142795497649E-12
  0.139140088340E-11
  0.113414139191E-11
  0.160427227058E-13
 -0.541556383071E-12
 -0.171893749235E-12
 -0.531207022814E-13
  0.149359691282E-13
  0.992955717649E-14
 -0.468375338514E-16
 -0.240371958449E-13
  0.181547485378E-13
 -0.410372801996E-13
  0.128095537649E-11
  0.321886614585E-13
  0.264250427096E-13
  0.740050382086E-13
  0.298792240949E-12
 -0.241681674673E-12
  0.127517787996E-12
 -0.703950786551E-14
 -0.104201369755E-12
  0.220997387057E-10
  0.203018157841E-12
 -0.411953630930E-11
 -0.756484284936E-12
 -0.498406871330E-12
 -0.818893564070E-13
  0.355714242783E-10
 -0.147440601395E-10
 -0.488432176649E-10
 -0.182819384631E-11
  0.192765248208E-11
  0.180048771031E-11
  0.655289190965E-12
  0.578978054736E-12
 -0.963620145338E-12
 -0.253685961127E-13
  0.178004442783E-11
  0.622730166044E-12
  0.184730182540E-11
  0.357486609759E-11
 -0.637301496298E-10
  0.214646980745E-10
  0.458399741776E-10
 -0.128792809750E-12
  0.646429437756E-11
 -0.457611379345E-12
  0.451075028024E-10
 -0.672384977557E-11
 -0.588230263110E-10
 -0.178201828294E-10
 -0.164812052894E-10
 -0.171950578776E-10
  0.194813951212E-11
 -0.999205709493E-12
  0.354103898981E-12
  0.227430921318E-13
 -0.328397465471E-12
  0.682049902667E-13
  0.203949178221E-12
  0.281224696308E-13
 -0.801770976000E-12
  0.484238517340E-12
 -0.204569000628E-12
 -0.558139255299E-12
  0.657406025234E-11
  0.709330510995E-11
  0.189687814067E-10
  0.146285795977E-10
 -0.335009450736E-10
  0.415932661577E-10
 -0.722044906504E-11
 -0.780654664176E-11
 -0.171222289819E-10
 -0.100457923230E-10
 -0.655510715153E-11
  0.859971815981E-12
  0.162001185036E-11
  0.980924976662E-12
 -0.189366534606E-12
  0.168388632031E-12
  0.571727994808E-13
 -0.159903665829E-12
 -0.373923997139E-13
 -0.775335470739E-13
  0.124903993398E-12
  0.837384632121E-13
 -0.273676914464E-12
  0.466910798219E-12
  0.112166222491E-11
  0.298205904414E-11
  0.184238041490E-12
 -0.168337566109E-13
 -0.728001860184E-12
 -0.769432781378E-11
 -0.412954956688E-11
 -0.110821590620E-10
 -0.421075327384E-11
 -0.508744088523E-11
  0.213462927889E-11
  0.248778428413E-12
  0.153323534424E-12
  0.146939752033E-13
  0.618697801325E-13
  0.431106973037E-13
 -0.218229297480E-13
 -0.994668757082E-14
 -0.845025004831E-13
 -0.985812993737E-13
 -0.277827240380E-12
 -0.389599810746E-12
 -0.434680069716E-12
  0.383771833756E-11
  0.328264065236E-11
 -0.169986247300E-11
  0.183111984776E-10
 -0.123964055167E-10
 -0.618865245508E-11
 -0.783685703137E-11
 -0.756148615944E-12
 -0.521605328374E-12
  0.193899757361E-11
  0.168953392943E-12
  0.445789238857E-13
 -0.280886425230E-13
  0.149619899803E-15
 -0.122543034747E-13
  0.119377164404E-13
  0.152333657841E-13
 -0.259525474028E-13
 -0.482331188878E-13
 -0.467239094637E-13
 -0.330603600052E-12
  0.510404218890E-12
  0.268848311669E-11
  0.548459194727E-11
 -0.850973805311E-12
  0.505098220194E-11
 -0.500307217530E-11
 -0.110605979670E-10
 -0.244725420484E-11
 -0.563898754080E-11
  0.307292385981E-12
  0.133226242538E-11
  0.948869455231E-12
 -0.115549930735E-13
 -0.109330947073E-13
 -0.148414266987E-13
 -0.124733123136E-13
 -0.859078433391E-14
  0.291002031499E-13
 -0.373655099917E-13
 -0.334324581908E-13
 -0.744803524411E-13
 -0.267013841593E-12
  0.744971792588E-12
  0.165883973224E-11
  0.893958952003E-11
 -0.137535469125E-11
  0.447128402012E-11
 -0.633652483782E-11
 -0.603945886357E-11
  0.110246443051E-10
 -0.249817180831E-11
  0.489768382100E-11
  0.169401125072E-11
  0.408940242780E-12
 -0.175595649132E-12
 -0.223050744541E-13
 -0.199055182060E-13
 -0.502896335686E-14
  0.188561189232E-13
  0.203997235770E-11
  0.557913090726E-13
 -0.126123070321E-13
 -0.177597520024E-12
  0.199319727390E-13
 -0.433514335541E-12
 -0.128354618600E-11
 -0.153583049056E-11
 -0.641138184210E-12
 -0.159583631032E-11
 -0.120116937230E-11
  0.199032847495E-12
  0.117313492204E-11
  0.632753398289E-13
 -0.323616133890E-12
 -0.717865870914E-12
 -0.760664101151E-12
  0.242236786185E-13
  0.151751528010E-11
  0.175136641301E-11
  0.335734912094E-12
  0.270455532969E-11
  0.101883345510E-11
 -0.545189544551E-12
  0.522326626395E-11
  0.849987181334E-12
  0.175598251217E-12
 -0.332130156711E-13
 -0.973335995136E-12
  0.339981515163E-12
 -0.157699894809E-11
 -0.160357838119E-11
 -0.342916667284E-12
 -0.649289649823E-13
  0.101734592972E-12
 -0.379091289610E-13
  0.120814243149E-13
  0.959952603519E-15
  0.771119279541E-13
  0.891803991765E-13
 -0.134805361318E-13
 -0.246504205936E-12
  0.477267531052E-12
  0.382142234523E-12
  0.132535822595E-11
  0.494188023836E-13
  0.459311408352E-13
  0.634197555582E-12
  0.675959288543E-12
  0.897799629779E-13
  0.422747774287E-12
 -0.103309374944E-11
 -0.132960829846E-11
 -0.469926181301E-12
 -0.922376758306E-12
  0.282412981889E-13
  0.300454106039E-14
  0.488992527026E-13
  0.355739743219E-13
 -0.264189711774E-13
 -0.108420383148E-13
 -0.287291891665E-14
  0.272893686815E-13
  0.316344173079E-13
 -0.235748920385E-13
 -0.105471187339E-14
 -0.171390679427E-12
  0.666168509245E-13
 -0.558351975766E-12
 -0.177498467313E-11
  0.160503641627E-11
  0.645138456545E-12
 -0.591784260484E-11
 -0.178379251474E-11
 -0.189139242462E-11
 -0.389882570673E-12
  0.282726966838E-12
 -0.110226064387E-11
 -0.132494709648E-12
  0.220864992961E-13
 -0.106963049529E-13
  0.857473814175E-14
  0.203144792654E-13
  0.333422525700E-13
  0.181283157365E-14
  0.815103193275E-15
  0.226381413615E-14
 -0.184921522539E-14
  0.158258822713E-13
  0.353259088648E-13
 -0.461089499915E-13
 -0.838433489303E-12
 -0.454069074007E-12
 -0.129491035950E-11
 -0.857693256695E-12
 -0.130273613078E-11
  0.499605218307E-11
 -0.113579328234E-11
 -0.138355906593E-11
 -0.115525471134E-11
 -0.531383964608E-12
 -0.120761040057E-12
 -0.102331337848E-12
 -0.420254109290E-13
  0.303403135948E-13
  0.573499581158E-14
  0.178368604609E-13
  0.557852375405E-13
 -0.932171579857E-14
 -0.152048512669E-14
  0.134098461502E-13
  0.895030577430E-14
  0.488845075530E-14
  0.853518644650E-13
 -0.460222138177E-13
 -0.311972669920E-13
 -0.322844181944E-12
  0.198388180883E-12
 -0.114878332541E-11
 -0.113999825205E-11
 -0.432615054891E-11
 -0.343596462046E-12
 -0.268303608497E-12
 -0.565814756159E-13
  0.399177219057E-13
  0.492696161647E-13
 -0.472226424630E-13
 -0.126079702234E-13
  0.243329661975E-13
  0.474446870680E-15
 -0.247891984717E-13
  0.448522013800E-11
 -0.305111621255E-14
  0.147646651849E-14
  0.320663634534E-14
 -0.713058084800E-14
 -0.202927952220E-13
 -0.346701833909E-13
 -0.241508202325E-13
 -0.483710294041E-13
 -0.594316262870E-13
 -0.156517160343E-12
 -0.234656911957E-12
 -0.757979833413E-12
 -0.296185992399E-11
 -0.173770720036E-12
 -0.235063704612E-13
  0.302813329967E-13
 -0.902784791368E-13
  0.676576850100E-13
  0.194497196127E-13
 -0.107483466572E-13
  0.542968447981E-15
 -0.204402467174E-13
 -0.258213589399E-14
  0.708968474206E-13
  0.155364514309E-14
  0.139124822773E-14
 -0.982330536359E-14
  0.314592102368E-14
 -0.949934575445E-14
 -0.695624113867E-14
  0.106026298852E-13
 -0.848626724448E-14
  0.271784331152E-12
  0.368160363307E-13
 -0.109517429847E-12
 -0.656308774688E-13
 -0.137032746261E-11
  0.486119391269E-13
 -0.287964097012E-14
 -0.967680796604E-13
 -0.378742176510E-13
  0.105408737294E-12
 -0.652082554620E-13
  0.131283872662E-13
  0.194549237831E-13
  0.153930687641E-13
  0.411433040415E-14
  0.416439886047E-13
  0.209288099480E-14
 -0.198408997565E-15
  0.460222138177E-14
  0.799013633035E-14
 -0.419803081186E-15
  0.318044202086E-13
  0.247718512369E-13
 -0.107309994224E-13
 -0.125021520914E-13
  0.380598330629E-14
  0.298762750650E-13
  0.117187292856E-12
  0.135814276492E-11
 -0.496200303068E-13
 -0.243242925801E-13
  0.115166556847E-12
  0.124865395801E-13
  0.535474442565E-13
 -0.238420394538E-13
  0.397459842816E-13
  0.123009241682E-13
  0.254189030935E-13
  0.209905877402E-13
  0.943828088601E-11
 -0.168984733294E-14
 -0.698443039515E-15
  0.954097911787E-14
  0.158553725704E-14
  0.814973089014E-14
 -0.886235529407E-13
 -0.289490653671E-13
  0.337924133120E-13
 -0.183551090993E-13
  0.488688950417E-13
 -0.804738220506E-14
 -0.860362128763E-13
 -0.387144483138E-11
 -0.232763027602E-13
 -0.547825673713E-13
  0.159507823616E-13
  0.396800647895E-13
  0.243902120722E-14
 -0.846198111581E-14
  0.448009684906E-13
 -0.113346831920E-13
  0.277815964678E-14
 -0.397555252607E-14
  0.690484995569E-14
 -0.146456632100E-14
  0.370146621687E-15
 -0.845070541322E-14
 -0.200013616780E-14
  0.699093560819E-14
  0.523504850580E-13
  0.768482499858E-14
  0.491620633092E-14
 -0.653123388705E-14
  0.266488220380E-13
 -0.497085012041E-13
  0.579289220759E-14
  0.329084676176E-11
  0.209335803900E-12
  0.147815787388E-13
 -0.561529989174E-14
  0.551815537708E-14
  0.739582006748E-13
 -0.202268757299E-14
  0.994690441125E-14
  0.879504802320E-15
  0.266479546762E-13
  0.251595619338E-13
 -0.564257559947E-11
 -0.657222785971E-14
 -0.122536529534E-14
  0.187272072849E-13
  0.740813660416E-14
  0.122991894447E-13
  0.402733402183E-13
 -0.133296151894E-13
  0.391006671485E-14
 -0.275890421619E-13
 -0.432293090213E-14
  0.473388689359E-13
  0.474299419184E-13
  0.306350778079E-11
  0.411985983523E-13
 -0.422223020435E-13
  0.438954428361E-13
  0.127727689536E-13
 -0.605418493116E-14
  0.526662047307E-13
 -0.198174809896E-13
  0.121760240779E-13
  0.550601231275E-14
  0.266410157823E-14
 -0.382246317931E-14
  0.163176734916E-14
  0.234187669257E-16
 -0.552075746230E-15
  0.696578211778E-14
  0.106147729495E-13
  0.169274316786E-13
 -0.133469624242E-13
  0.113624387676E-13
 -0.118851109510E-12
  0.313898212978E-13
 -0.728583859910E-14
  0.162710556834E-13
  0.221281326596E-12
  0.143802721467E-12
  0.588938620094E-15
  0.168441649517E-13
 -0.923219833915E-14
  0.637545571891E-13
 -0.110328413072E-13
  0.244734787991E-13
  0.519376208707E-14
  0.655031584529E-14
  0.166967134563E-14
  0.873194160207E-11
 -0.349515367398E-14
 -0.825294693696E-15
  0.343518616330E-14
  0.253529836014E-14
  0.747665818146E-15
 -0.420843915272E-14
  0.550948175970E-14
  0.204627981226E-13
  0.245810316546E-13
 -0.157859836314E-15
  0.345288034276E-13
  0.653867151396E-13
  0.184120080293E-11
 -0.389965837400E-13
  0.126149091173E-12
  0.274554684543E-13
 -0.654511167486E-14
  0.251951237651E-13
  0.101724184631E-13
  0.198348282243E-13
 -0.771951946810E-15
  0.386843335143E-15
 -0.435675800992E-14
  0.101097903920E-10
  0.186080505809E-14
  0.243294967506E-15
 -0.106251812904E-15
 -0.112757025938E-14
 -0.869096461464E-15
 -0.158831281460E-13
 -0.609581829458E-14
 -0.255351295664E-14
  0.235922392733E-14
  0.598375515803E-13
 -0.188876692064E-13
  0.443742265155E-13
  0.456454318787E-12
  0.644623243673E-14
  0.210248485288E-13
 -0.204627981226E-13
  0.111022302463E-15
  0.291641710781E-13
  0.418068357710E-14
  0.304270497686E-14
 -0.100197627972E-13
 -0.623112672571E-14
 -0.397555252607E-14
  0.635964263022E-11
  0.252065874561E-15
  0.514562351062E-15
 -0.246330733589E-14
 -0.518855791665E-14
 -0.191513471748E-14
 -0.197758476261E-15
  0.797625854254E-14
 -0.110675357767E-14
  0.887796780535E-13
  0.197203364749E-13
  0.149186218934E-13
 -0.651562137577E-14
  0.252831089398E-11
 -0.169142477802E-12
  0.162994617803E-12
  0.911076769583E-14
 -0.217777185174E-13
  0.104430353254E-14
  0.548172618409E-15
 -0.499843222368E-13
 -0.765359997601E-14
 -0.957046941696E-14
 -0.737474317725E-14
  0.344169679735E-11
  0.181651539935E-14
  0.151137782844E-15
 -0.242817918550E-14
 -0.585902854011E-14
  0.120389809233E-14
  0.341740524767E-14
  0.111195774810E-13
 -0.207993344770E-14
 -0.133330846364E-13
 -0.517225151597E-13
 -0.211167541786E-10
  0.383720832886E-14
 -0.171273707023E-10
 -0.868879621030E-13
  0.711185971225E-11
  0.138361544444E-13
 -0.105460709610E-10
  0.214002288113E-10
  0.244381424819E-10