# vtk DataFile Version 3.0
MachLine results file. Generated by MachLine, USU AeroLab (c) 2022.
ASCII
DATASET POLYDATA
POINTS                6760 float
  0.000000000000E+00  0.000000000000E+00  0.000000000000E+00
  0.119402985075E+01  0.597014925373E-01  0.597014925373E-01
  0.000000000000E+00  0.104252345860E+00  0.000000000000E+00
  0.118884316687E+01  0.163694504204E+00  0.594421583436E-01
  0.000000000000E+00  0.211780935526E+00  0.000000000000E+00
  0.118349348579E+01  0.270955609816E+00  0.591746742897E-01
  0.145739717409E-01  0.000000000000E+00 -0.127505732235E-02
  0.119416579376E+01  0.589795911008E-01  0.577045337784E-01
  0.000000000000E+00  0.435950160027E+00  0.000000000000E+00
  0.117234078806E+01  0.494567199430E+00  0.586170394029E-01
  0.145739717409E-01  0.211780935526E+00 -0.127505732235E-02
  0.118362942880E+01  0.270233708379E+00  0.571777155308E-01
  0.145739717409E-01  0.211780935526E+00  0.127505732235E-02
  0.118350255743E+01  0.270227364810E+00  0.597214866068E-01
  0.000000000000E+00  0.552161276340E+00  0.000000000000E+00
  0.116655914048E+01  0.610489233364E+00  0.583279570240E-01
  0.145739717409E-01  0.322413772345E+00 -0.127505732235E-02
  0.117812530757E+01  0.380591339136E+00  0.569025094691E-01
  0.145739717409E-01  0.322413772345E+00  0.127505732235E-02
  0.117799843619E+01  0.380584995568E+00  0.594462805450E-01
  0.000000000000E+00  0.670791566372E+00  0.000000000000E+00
  0.116065713600E+01  0.728824423172E+00  0.580328568001E-01
  0.341100133955E-01  0.000000000000E+00 -0.298423948698E-02
  0.119434802193E+01  0.580119004268E-01  0.550276609398E-01
  0.341100133955E-01  0.000000000000E+00  0.298423948698E-02
  0.119405108268E+01  0.579970534642E-01  0.609812929512E-01
  0.145739717409E-01  0.435950160027E+00 -0.127505732235E-02
  0.117247673107E+01  0.493845297993E+00  0.566200806440E-01
  0.145739717409E-01  0.435950160027E+00  0.127505732235E-02
  0.117234985969E+01  0.493838954425E+00  0.591638517199E-01
  0.341100133955E-01  0.104252345860E+00 -0.298423948698E-02
  0.118916133806E+01  0.162004912093E+00  0.547683267461E-01
  0.341100133955E-01  0.104252345860E+00  0.298423948698E-02
  0.118886439881E+01  0.161990065131E+00  0.607219587575E-01
  0.000000000000E+00  0.791560173035E+00  0.000000000000E+00
  0.115464874761E+01  0.849292610416E+00  0.577324373805E-01
  0.145739717409E-01  0.552161276340E+00 -0.127505732235E-02
  0.116669508349E+01  0.609767331927E+00  0.563309982651E-01
  0.145739717409E-01  0.552161276340E+00  0.127505732235E-02
  0.116656821212E+01  0.609760988359E+00  0.588747693411E-01
  0.341100133955E-01  0.211780935526E+00 -0.298423948698E-02
  0.118381165698E+01  0.269266017705E+00  0.545008426923E-01
  0.341100133955E-01  0.211780935526E+00  0.298423948698E-02
  0.118351471773E+01  0.269251170743E+00  0.604544747036E-01
  0.000000000000E+00  0.914163351059E+00  0.000000000000E+00
  0.114854908701E+01  0.971590805410E+00  0.574274543506E-01
  0.145739717409E-01  0.670791566372E+00 -0.127505732235E-02
  0.116079307901E+01  0.728102521736E+00  0.560358980412E-01
  0.145739717409E-01  0.670791566372E+00  0.127505732235E-02
  0.116066620764E+01  0.728096178167E+00  0.585796691171E-01
  0.341100133955E-01  0.322413772345E+00 -0.298423948698E-02
  0.117830753575E+01  0.379623648462E+00  0.542256366305E-01
  0.341100133955E-01  0.322413772345E+00  0.298423948698E-02
  0.117801059649E+01  0.379608801500E+00  0.601792686419E-01
  0.000000000000E+00  0.103827738762E+01  0.000000000000E+00
  0.114237425932E+01  0.109539610059E+01  0.571187129661E-01
  0.145739717409E-01  0.791560173035E+00 -0.127505732235E-02
  0.115478469062E+01  0.848570708979E+00  0.557354786216E-01
  0.145739717409E-01  0.791560173035E+00  0.127505732235E-02
  0.115465781924E+01  0.848564365410E+00  0.582792496975E-01
  0.341100133955E-01  0.435950160027E+00 -0.298423948698E-02
  0.117265895924E+01  0.492877607319E+00  0.539432078054E-01
  0.341100133955E-01  0.435950160027E+00  0.298423948698E-02
  0.117236201999E+01  0.492862760357E+00  0.598968398168E-01
  0.000000000000E+00  0.116356134415E+01  0.000000000000E+00
  0.113614122666E+01  0.122036840548E+01  0.568070613330E-01
  0.599864572287E-01  0.000000000000E+00 -0.524813495576E-02
  0.119458939207E+01  0.567301467422E-01  0.514820117865E-01
  0.145739717409E-01  0.914163351059E+00 -0.127505732235E-02
  0.114868503002E+01  0.970868903973E+00  0.554304955917E-01
  0.599864572287E-01  0.000000000000E+00  0.524813495576E-02
  0.119406718959E+01  0.567040366181E-01  0.619521715738E-01
  0.145739717409E-01  0.914163351059E+00  0.127505732235E-02
  0.114855815865E+01  0.970862560404E+00  0.579742666676E-01
  0.341100133955E-01  0.552161276340E+00 -0.298423948698E-02
  0.116687731167E+01  0.608799641254E+00  0.536541254265E-01
  0.341100133955E-01  0.552161276340E+00  0.298423948698E-02
  0.116658037241E+01  0.608784794291E+00  0.596077574379E-01
  0.000000000000E+00  0.128966128826E+01  0.000000000000E+00
  0.112986759760E+01  0.134615466814E+01  0.564933798800E-01
  0.599864572287E-01  0.104252345860E+00 -0.524813495576E-02
  0.118940270820E+01  0.160723158409E+00  0.512226775928E-01
  0.599864572287E-01  0.104252345860E+00  0.524813495576E-02
  0.118888050572E+01  0.160697048284E+00  0.616928373802E-01
  0.145739717409E-01  0.103827738762E+01 -0.127505732235E-02
  0.114251020233E+01  0.109467419915E+01  0.551217542072E-01
  0.145739717409E-01  0.103827738762E+01  0.127505732235E-02
  0.114238333096E+01  0.109466785558E+01  0.576655252831E-01
  0.341100133955E-01  0.670791566372E+00 -0.298423948698E-02
  0.116097530719E+01  0.727134831062E+00  0.533590252026E-01
  0.341100133955E-01  0.670791566372E+00  0.298423948698E-02
  0.116067836793E+01  0.727119984099E+00  0.593126572139E-01
  0.599864572287E-01  0.211780935526E+00 -0.524813495576E-02
  0.118405302712E+01  0.267984264021E+00  0.509551935389E-01
  0.000000000000E+00  0.141621339321E+01  0.000000000000E+00
  0.112357147297E+01  0.147239196686E+01  0.561785736487E-01
  0.599864572287E-01  0.211780935526E+00  0.524813495576E-02
  0.118353082464E+01  0.267958153897E+00  0.614253533263E-01
  0.145739717409E-01  0.116356134415E+01 -0.127505732235E-02
  0.113627716967E+01  0.121964650405E+01  0.548101025741E-01
  0.145739717409E-01  0.116356134415E+01  0.127505732235E-02
  0.113615029829E+01  0.121964016048E+01  0.573538736500E-01
  0.341100133955E-01  0.791560173035E+00 -0.298423948698E-02
  0.115496691880E+01  0.847603018305E+00  0.530586057830E-01
  0.341100133955E-01  0.791560173035E+00  0.298423948698E-02
  0.115466997954E+01  0.847588171342E+00  0.590122377944E-01
  0.599864572287E-01  0.322413772345E+00 -0.524813495576E-02
  0.117854890589E+01  0.378341894778E+00  0.506799874772E-01
  0.599864572287E-01  0.322413772345E+00  0.524813495576E-02
  0.117802670340E+01  0.378315784654E+00  0.611501472645E-01
  0.000000000000E+00  0.154284906387E+01  0.000000000000E+00
  0.111727119085E+01  0.159871262341E+01  0.558635595426E-01
  0.145739717409E-01  0.128966128826E+01 -0.127505732235E-02
  0.113000354061E+01  0.134543276670E+01  0.544964211210E-01
  0.145739717409E-01  0.128966128826E+01  0.127505732235E-02
  0.112987666923E+01  0.134542642313E+01  0.570401921970E-01
  0.341100133955E-01  0.914163351059E+00 -0.298423948698E-02
  0.114886725820E+01  0.969901213299E+00  0.527536227531E-01
  0.341100133955E-01  0.914163351059E+00  0.298423948698E-02
  0.114857031894E+01  0.969886366336E+00  0.587072547645E-01
  0.599864572287E-01  0.435950160027E+00 -0.524813495576E-02
  0.117290032939E+01  0.491595853635E+00  0.503975586521E-01
  0.599864572287E-01  0.435950160027E+00  0.524813495576E-02
  0.117237812690E+01  0.491569743511E+00  0.608677184394E-01
  0.000000000000E+00  0.166919851303E+01  0.000000000000E+00
  0.111098514861E+01  0.172474777046E+01  0.555492574303E-01
  0.145739717409E-01  0.141621339321E+01 -0.127505732235E-02
  0.112370741598E+01  0.147167006542E+01  0.541816148898E-01
  0.145739717409E-01  0.141621339321E+01  0.127505732235E-02
  0.112358054461E+01  0.147166372185E+01  0.567253859658E-01
  0.341100133955E-01  0.103827738762E+01 -0.298423948698E-02
  0.114269243051E+01  0.109370650848E+01  0.524448813686E-01
  0.341100133955E-01  0.103827738762E+01  0.298423948698E-02
  0.114239549126E+01  0.109369166151E+01  0.583985133800E-01
  0.599864572287E-01  0.552161276340E+00 -0.524813495576E-02
  0.116711868181E+01  0.607517887569E+00  0.501084762732E-01
  0.599864572287E-01  0.552161276340E+00  0.524813495576E-02
  0.116659647932E+01  0.607491777445E+00  0.605786360606E-01
  0.000000000000E+00  0.179489517212E+01  0.000000000000E+00
  0.110473158348E+01  0.185013175129E+01  0.552365791738E-01
  0.145739717409E-01  0.154284906387E+01 -0.127505732235E-02
  0.111740713386E+01  0.159799072198E+01  0.538666007837E-01
  0.145739717409E-01  0.154284906387E+01  0.127505732235E-02
  0.111728026249E+01  0.159798437841E+01  0.564103718596E-01
  0.341100133955E-01  0.116356134415E+01 -0.298423948698E-02
  0.113645939784E+01  0.121867881337E+01  0.521332297355E-01
  0.341100133955E-01  0.116356134415E+01  0.298423948698E-02
  0.113616245859E+01  0.121866396641E+01  0.580868617468E-01
  0.599864572287E-01  0.670791566372E+00 -0.524813495576E-02
  0.116121667733E+01  0.725853077377E+00  0.498133760492E-01
  0.937237665057E-01  0.000000000000E+00 -0.819976720959E-02
  0.119490408676E+01  0.550590160127E-01  0.468592488031E-01
  0.599864572287E-01  0.670791566372E+00  0.524813495576E-02
  0.116069447485E+01  0.725826967253E+00  0.602835358366E-01
  0.937237665057E-01  0.000000000000E+00  0.819976720959E-02
  0.119408818952E+01  0.550182211509E-01  0.632179883605E-01
  0.000000000000E+00  0.191958034039E+01  0.000000000000E+00
  0.109852834127E+01  0.197450675745E+01  0.549264170637E-01
  0.145739717409E-01  0.166919851303E+01 -0.127505732235E-02
  0.111112109162E+01  0.172402586902E+01  0.535522986714E-01
  0.145739717409E-01  0.166919851303E+01  0.127505732235E-02
[...]
CELL_DATA                 155
NORMALS normals float
  0.499376169439E-01 -0.197614821750E-16 -0.998752338878E+00
  0.499376169439E-01  0.000000000000E+00 -0.998752338878E+00
  0.499376169439E-01 -0.297218014668E-16 -0.998752338878E+00
  0.499376169439E-01  0.000000000000E+00 -0.998752338878E+00
  0.499376169439E-01 -0.100304056948E-17 -0.998752338878E+00
  0.499376169439E-01  0.000000000000E+00 -0.998752338878E+00
  0.499376169439E-01  0.181534459327E-16 -0.998752338878E+00
  0.499376169439E-01  0.000000000000E+00 -0.998752338878E+00
  0.499376169439E-01  0.244445494900E-16 -0.998752338878E+00
  0.499376169439E-01  0.000000000000E+00 -0.998752338878E+00
  0.499376169439E-01  0.127441038861E-16 -0.998752338878E+00
  0.499376169439E-01  0.000000000000E+00 -0.998752338878E+00
  0.499376169439E-01 -0.849594258510E-16 -0.998752338878E+00
  0.499376169439E-01  0.000000000000E+00 -0.998752338878E+00
  0.499376169439E-01  0.125845456717E-16 -0.998752338878E+00
  0.499376169439E-01  0.000000000000E+00 -0.998752338878E+00
  0.499376169439E-01  0.725328841987E-16 -0.998752338878E+00
  0.499376169439E-01  0.000000000000E+00 -0.998752338878E+00
  0.499376169439E-01 -0.474675686147E-16 -0.998752338878E+00
  0.499376169439E-01  0.000000000000E+00 -0.998752338878E+00
  0.499376169439E-01  0.915447685625E-17 -0.998752338878E+00
  0.499376169439E-01  0.000000000000E+00 -0.998752338878E+00
  0.499376169439E-01  0.241293784442E-16 -0.998752338878E+00
  0.499376169439E-01  0.000000000000E+00 -0.998752338878E+00
  0.499376169439E-01 -0.205472698998E-16 -0.998752338878E+00
  0.499376169439E-01  0.000000000000E+00 -0.998752338878E+00
  0.499376169439E-01  0.332581443811E-16 -0.998752338878E+00
  0.499376169439E-01  0.000000000000E+00 -0.998752338878E+00
  0.499376169439E-01 -0.147235466684E-16 -0.998752338878E+00
  0.499376169439E-01  0.000000000000E+00 -0.998752338878E+00
  0.499376169439E-01 -0.167814077832E-16 -0.998752338878E+00
  0.499376169439E-01  0.000000000000E+00 -0.998752338878E+00
  0.499376169439E-01 -0.419888105968E-16 -0.998752338878E+00
  0.499376169439E-01  0.000000000000E+00 -0.998752338878E+00
  0.499376169439E-01  0.609311783140E-16 -0.998752338878E+00
  0.499376169439E-01  0.000000000000E+00 -0.998752338878E+00
  0.499376169439E-01 -0.593127644079E-16 -0.998752338878E+00
  0.499376169439E-01  0.000000000000E+00 -0.998752338878E+00
  0.499376169439E-01  0.558461735457E-16 -0.998752338878E+00
  0.499376169439E-01  0.000000000000E+00 -0.998752338878E+00
  0.499376169439E-01 -0.183729655331E-16 -0.998752338878E+00
  0.499376169439E-01  0.000000000000E+00 -0.998752338878E+00
  0.499376169439E-01 -0.305554441834E-16 -0.998752338878E+00
  0.499376169439E-01  0.000000000000E+00 -0.998752338878E+00
  0.499376169439E-01  0.247180448201E-16 -0.998752338878E+00
  0.499376169439E-01  0.000000000000E+00 -0.998752338878E+00
  0.499376169439E-01  0.566998245664E-16 -0.998752338878E+00
  0.499376169439E-01  0.000000000000E+00 -0.998752338878E+00
  0.499376169439E-01 -0.705435102912E-16 -0.998752338878E+00
  0.499376169439E-01  0.000000000000E+00 -0.998752338878E+00
  0.499376169439E-01 -0.348971193548E-16 -0.998752338878E+00
  0.499376169439E-01  0.000000000000E+00 -0.998752338878E+00
  0.499376169439E-01  0.999306950012E-16 -0.998752338878E+00
  0.499376169439E-01  0.000000000000E+00 -0.998752338878E+00
  0.499376169439E-01 -0.482607246598E-17 -0.998752338878E+00
  0.499376169439E-01  0.000000000000E+00 -0.998752338878E+00
  0.499376169439E-01  0.141975972246E-16 -0.998752338878E+00
  0.499376169439E-01  0.000000000000E+00 -0.998752338878E+00
  0.499376169439E-01  0.203025319443E-16 -0.998752338878E+00
  0.499376169439E-01  0.000000000000E+00 -0.998752338878E+00
  0.499376169439E-01 -0.278296006201E-16 -0.998752338878E+00
  0.499376169439E-01  0.000000000000E+00 -0.998752338878E+00
  0.499376169439E-01 -0.107352312551E-15 -0.998752338878E+00
  0.499376169439E-01  0.000000000000E+00 -0.998752338878E+00
  0.499376169439E-01  0.125090565287E-15 -0.998752338878E+00
  0.499376169439E-01  0.000000000000E+00 -0.998752338878E+00
  0.499376169439E-01 -0.329807074620E-16 -0.998752338878E+00
  0.499376169439E-01  0.000000000000E+00 -0.998752338878E+00
  0.499376169439E-01  0.131291575956E-16 -0.998752338878E+00
  0.499376169439E-01  0.000000000000E+00 -0.998752338878E+00
  0.499376169439E-01 -0.135109607402E-15 -0.998752338878E+00
  0.499376169439E-01  0.000000000000E+00 -0.998752338878E+00
  0.499376169439E-01  0.660107158306E-18 -0.998752338878E+00
  0.499376169439E-01  0.000000000000E+00 -0.998752338878E+00
  0.499376169439E-01 -0.145284884439E-15 -0.998752338878E+00
  0.499376169439E-01  0.000000000000E+00 -0.998752338878E+00
  0.499376169439E-01  0.000000000000E+00 -0.998752338878E+00
  0.499376169439E-01  0.133528372742E-16 -0.998752338878E+00
  0.499376169439E-01  0.000000000000E+00 -0.998752338878E+00
  0.499376169439E-01  0.255313252880E-16 -0.998752338878E+00
  0.499376169439E-01  0.000000000000E+00 -0.998752338878E+00
  0.499376169439E-01 -0.372653381164E-16 -0.998752338878E+00
  0.499376169439E-01  0.000000000000E+00 -0.998752338878E+00
  0.499376169439E-01  0.972355169877E-17 -0.998752338878E+00
  0.499376169439E-01  0.000000000000E+00 -0.998752338878E+00
  0.499376169439E-01  0.174858906006E-16 -0.998752338878E+00
  0.499376169439E-01  0.000000000000E+00 -0.998752338878E+00
  0.499376169439E-01 -0.171852604225E-16 -0.998752338878E+00
  0.499376169439E-01  0.000000000000E+00 -0.998752338878E+00
  0.499376169439E-01  0.507769845503E-16 -0.998752338878E+00
  0.499376169439E-01  0.000000000000E+00 -0.998752338878E+00
  0.499376169439E-01 -0.419957928681E-16 -0.998752338878E+00
  0.499376169439E-01  0.000000000000E+00 -0.998752338878E+00
  0.499376169439E-01  0.352416470267E-16 -0.998752338878E+00
  0.499376169439E-01  0.000000000000E+00 -0.998752338878E+00
  0.499376169439E-01 -0.517290453109E-16 -0.998752338878E+00
  0.499376169439E-01  0.000000000000E+00 -0.998752338878E+00
  0.499376169439E-01  0.489454855400E-16 -0.998752338878E+00
  0.499376169439E-01  0.000000000000E+00 -0.998752338878E+00
  0.499376169439E-01 -0.166708714779E-16 -0.998752338878E+00
  0.499376169439E-01  0.000000000000E+00 -0.998752338878E+00
  0.499376169439E-01  0.182172535775E-16 -0.998752338878E+00
  0.499376169439E-01  0.000000000000E+00 -0.998752338878E+00
  0.499376169439E-01 -0.489969273517E-16 -0.998752338878E+00
  0.499376169439E-01  0.000000000000E+00 -0.998752338878E+00
  0.499376169439E-01  0.246518076103E-16 -0.998752338878E+00
  0.499376169439E-01  0.000000000000E+00 -0.998752338878E+00
  0.499376169439E-01  0.243283342272E-16 -0.998752338878E+00
  0.499376169439E-01  0.000000000000E+00 -0.998752338878E+00
  0.499376169439E-01  0.766641427147E-17 -0.998752338878E+00
  0.499376169439E-01  0.000000000000E+00 -0.998752338878E+00
  0.499376169439E-01  0.101594746610E-16 -0.998752338878E+00
  0.499376169439E-01  0.000000000000E+00 -0.998752338878E+00
  0.499376169439E-01 -0.106034685882E-15 -0.998752338878E+00
  0.499376169439E-01  0.000000000000E+00 -0.998752338878E+00
  0.499376169439E-01  0.105403088907E-15 -0.998752338878E+00
  0.499376169439E-01  0.000000000000E+00 -0.998752338878E+00
  0.499376169439E-01 -0.189162866424E-16 -0.998752338878E+00
  0.499376169439E-01  0.000000000000E+00 -0.998752338878E+00
  0.499376169439E-01 -0.128304706027E-16 -0.998752338878E+00
  0.499376169439E-01  0.000000000000E+00 -0.998752338878E+00
  0.499376169439E-01  0.248331543234E-16 -0.998752338878E+00
  0.499376169439E-01  0.000000000000E+00 -0.998752338878E+00
  0.499376169439E-01 -0.526351388692E-16 -0.998752338878E+00
  0.499376169439E-01  0.000000000000E+00 -0.998752338878E+00
  0.499376169439E-01  0.267801093654E-16 -0.998752338878E+00
  0.499376169439E-01  0.000000000000E+00 -0.998752338878E+00
  0.499376169439E-01 -0.210867204165E-16 -0.998752338878E+00
  0.499376169439E-01  0.000000000000E+00 -0.998752338878E+00
  0.499376169439E-01  0.359794801915E-16 -0.998752338878E+00
  0.499376169439E-01  0.000000000000E+00 -0.998752338878E+00
  0.499376169439E-01 -0.410451884401E-18 -0.998752338878E+00
  0.499376169439E-01  0.000000000000E+00 -0.998752338878E+00
  0.499376169439E-01 -0.629661061599E-16 -0.998752338878E+00
  0.499376169439E-01  0.000000000000E+00 -0.998752338878E+00
  0.499376169439E-01 -0.161415056411E-16 -0.998752338878E+00
  0.499376169439E-01  0.000000000000E+00 -0.998752338878E+00
  0.499376169439E-01  0.514736243034E-16 -0.998752338878E+00
  0.499376169439E-01  0.000000000000E+00 -0.998752338878E+00
  0.499376169439E-01  0.534064599020E-16 -0.998752338878E+00
  0.499376169439E-01  0.000000000000E+00 -0.998752338878E+00
  0.499376169439E-01 -0.384900942601E-16 -0.998752338878E+00
  0.499376169439E-01  0.000000000000E+00 -0.998752338878E+00
  0.499376169439E-01 -0.299627828180E-16 -0.998752338878E+00
  0.499376169439E-01  0.000000000000E+00 -0.998752338878E+00
  0.499376169439E-01  0.726759819184E-16 -0.998752338878E+00
  0.499376169439E-01  0.000000000000E+00 -0.998752338878E+00
  0.499376169439E-01 -0.227655660438E-16 -0.998752338878E+00
  0.499376169439E-01  0.000000000000E+00 -0.998752338878E+00
  0.499376169439E-01 -0.588138739605E-16 -0.998752338878E+00
  0.499376169439E-01  0.000000000000E+00 -0.998752338878E+00
  0.499376169439E-01  0.981959907202E-16 -0.998752338878E+00
  0.499376169439E-01  0.000000000000E+00 -0.998752338878E+00
  0.499376169439E-01 -0.643918833824E-18 -0.998752338878E+00
  0.499376169439E-01  0.000000000000E+00 -0.998752338878E+00
POINT_DATA                6760
SCALARS mu float 1
LOOKUP_TABLE default
  0.000000000000E+00
  0.000000000000E+00
  0.000000000000E+00
  0.000000000000E+00
  0.000000000000E+00
  0.000000000000E+00
  0.000000000000E+00
  0.000000000000E+00
  0.000000000000E+00
  0.000000000000E+00
  0.000000000000E+00
  0.000000000000E+00
  0.000000000000E+00
  0.000000000000E+00
  0.000000000000E+00
  0.000000000000E+00
  0.000000000000E+00
  0.000000000000E+00
  0.000000000000E+00
  0.000000000000E+00
  0.000000000000E+00
  0.000000000000E+00
  0.000000000000E+00
  0.000000000000E+00
  0.000000000000E+00
  0.000000000000E+00
  0.000000000000E+00
  0.000000000000E+00
  0.000000000000E+00
  0.000000000000E+00
  0.000000000000E+00
  0.000000000000E+00
  0.000000000000E+00
  0.000000000000E+00
  0.000000000000E+00
  0.000000000000E+00
  0.000000000000E+00
  0.000000000000E+00
  0.000000000000E+00
  0.000000000000E+00
  0.000000000000E+00
  0.000000000000E+00
  0.000000000000E+00
  0.000000000000E+00
  0.000000000000E+00
  0.000000000000E+00
  0.000000000000E+00
  0.000000000000E+00
  0.000000000000E+00
  0.000000000000E+00
  0.000000000000E+00
  0.000000000000E+00
  0.000000000000E+00
  0.000000000000E+00
  0.000000000000E+00
  0.000000000000E+00
  0.000000000000E+00
  0.000000000000E+00
  0.000000000000E+00
  0.000000000000E+00
  0.000000000000E+00
  0.000000000000E+00
  0.000000000000E+00
  0.000000000000E+00
  0.000000000000E+00
  0.000000000000E+00
  0.000000000000E+00
  0.000000000000E+00
  0.000000000000E+00
  0.000000000000E+00
  0.000000000000E+00
  0.000000000000E+00
  0.000000000000E+00
  0.000000000000E+00
  0.000000000000E+00
  0.000000000000E+00
  0.000000000000E+00
  0.000000000000E+00
  0.000000000000E+00
  0.000000000000E+00
  0.000000000000E+00
  0.000000000000E+00
  0.000000000000E+00
  0.000000000000E+00
  0.000000000000E+00
  0.000000000000E+00
  0.000000000000E+00
  0.000000000000E+00
  0.000000000000E+00
  0.000000000000E+00
  0.000000000000E+00
  0.000000000000E+00
  0.000000000000E+00
  0.000000000000E+00
  0.000000000000E+00
  0.000000000000E+00
  0.000000000000E+00
  0.000000000000E+00
  0.000000000000E+00
  0.000000000000E+00
  0.000000000000E+00
  0.000000000000E+00
  0.000000000000E+00
  0.000000000000E+00
  0.000000000000E+00
  0.000000000000E+00
  0.000000000000E+00
  0.000000000000E+00
  0.000000000000E+00
  0.000000000000E+00
  0.000000000000E+00
  0.000000000000E+00
  0.000000000000E+00
  0.000000000000E+00
  0.000000000000E+00
  0.000000000000E+00
  0.000000000000E+00
  0.000000000000E+00
  0.000000000000E+00
  0.000000000000E+00
  0.000000000000E+00
  0.000000000000E+00
  0.000000000000E+00
  0.000000000000E+00
  0.000000000000E+00
  0.000000000000E+00
  0.000000000000E+00
  0.000000000000E+00
  0.000000000000E+00
  0.000000000000E+00
  0.000000000000E+00
  0.000000000000E+00
  0.000000000000E+00
  0.000000000000E+00
  0.000000000000E+00
  0.000000000000E+00
  0.000000000000E+00
  0.000000000000E+00
  0.000000000000E+00
  0.000000000000E+00
  0.000000000000E+00
  0.000000000000E+00
  0.000000000000E+00
  0.000000000000E+00
  0.000000000000E+00
  0.000000000000E+00
  0.000000000000E+00
  0.000000000000E+00
  0.000000000000E+00
  0.000000000000E+00
  0.000000000000E+00
  0.000000000000E+00
  0.000000000000E+00
  0.000000000000E+00
  0.000000000000E+00
  0.000000000000E+00
  0.000000000000E+00
  0.000000000000E+00
  0.000000000000E+00
  0.000000000000E+00
  0.000000000000E+00
  0.000000000000E+00
  0.000000000000E+00
  0.000000000000E+00
  0.000000000000E+00
  0.000000000000E+00
  0.000000000000E+00
  0.000000000000E+00
  0.000000000000E+00
  0.000000000000E+00
  0.000000000000E+00
  0.000000000000E+00
  0.000000000000E+00
  0.000000000000E+00
  0.000000000000E+00
  0.000000000000E+00
  0.000000000000E+00
  0.000000000000E+00
  0.000000000000E+00
  0.000000000000E+00
  0.000000000000E+00
  0.000000000000E+00
  0.000000000000E+00
  0.000000000000E+00
  0.000000000000E+00
  0.000000000000E+00
  0.000000000000E+00
  0.000000000000E+00
  0.000000000000E+00
  0.000000000000E+00
  0.000000000000E+00
  0.000000000000E+00
  0.000000000000E+00
  0.000000000000E+00
  0.000000000000E+00
  0.000000000000E+00
  0.000000000000E+00
  0.000000000000E+00
  0.000000000000E+00
  0.000000000000E+00
  0.000000000000E+00
  0.000000000000E+00
  0.000000000000E+00
  0.000000000000E+00
  0.000000000000E+00
  0.000000000000E+00
  0.000000000000E+00
  0.000000000000E+00
  0.000000000000E+00
  0.000000000000E+00
  0.000000000000E+00
  0.000000000000E+00
  0.000000000000E+00
  0.000000000000E+00
  0.000000000000E+00
  0.000000000000E+00
  0.000000000000E+00
  0.000000000000E+00
  0.000000000000E+00
  0.000000000000E+00
  0.000000000000E+00
  0.000000000000E+00
  0.000000000000E+00
  0.000000000000E+00
  0.000000000000E+00
  0.000000000000E+00
  0.000000000000E+00
  0.000000000000E+00
  0.000000000000E+00
  0.000000000000E+00
  0.000000000000E+00
  0.000000000000E+00
  0.000000000000E+00
  0.000000000000E+00
  0.000000000000E+00
  0.000000000000E+00
  0.000000000000E+00
  0.000000000000E+00
  0.000000000000E+00
  0.000000000000E+00
  0.000000000000E+00
  0.000000000000E+00
  0.000000000000E+00
  0.000000000000E+00
  0.000000000000E+00
  0.000000000000E+00
  0.000000000000E+00
  0.000000000000E+00
  0.000000000000E+00
  0.000000000000E+00
  0.000000000000E+00
  0.000000000000E+00
  0.000000000000E+00
  0.000000000000E+00
  0.000000000000E+00
  0.000000000000E+00
  0.000000000000E+00
  0.000000000000E+00
  0.000000000000E+00
  0.000000000000E+00
  0.000000000000E+00
  0.000000000000E+00
  0.000000000000E+00
  0.000000000000E+00
  0.000000000000E+00
  0.000000000000E+00
  0.000000000000E+00
  0.000000000000E+00
  0.000000000000E+00
  0.000000000000E+00
  0.000000000000E+00
  0.000000000000E+00
  0.000000000000E+00
  0.000000000000E+00
  0.000000000000E+00
  0.000000000000E+00
  0.000000000000E+00
  0.000000000000E+00
  0.000000000000E+00
  0.000000000000E+00
  0.000000000000E+00
  0.000000000000E+00
  0.000000000000E+00
  0.000000000000E+00
  0.000000000000E+00
  0.000000000000E+00
  0.000000000000E+00
  0.000000000000E+00
  0.000000000000E+00
  0.000000000000E+00
  0.000000000000E+00
  0.000000000000E+00
  0.000000000000E+00
  0.000000000000E+00
  0.000000000000E+00
  0.000000000000E+00
  0.000000000000E+00
  0.000000000000E+00
  0.000000000000E+00
  0.000000000000E+00
  0.000000000000E+00
  0.000000000000E+00
  0.000000000000E+00
  0.000000000000E+00
  0.000000000000E+00
  0.000000000000E+00
  0.000000000000E+00
  0.000000000000E+00
  0.000000000000E+00
  0.000000000000E+00
  0.000000000000E+00
  0.000000000000E+00
  0.000000000000E+00
  0.000000000000E+00
  0.000000000000E+00
  0.000000000000E+00
  0.000000000000E+00
  0.000000000000E+00
  0.000000000000E+00
  0.000000000000E+00
  0.000000000000E+00
  0.000000000000E+00
  0.000000000000E+00
  0.000000000000E+00
  0.000000000000E+00
  0.000000000000E+00
  0.000000000000E+00
  0.000000000000E+00
  0.000000000000E+00
  0.000000000000E+00
  0.000000000000E+00
  0.000000000000E+00
  0.000000000000E+00
  0.000000000000E+00
  0.000000000000E+00
  0.000000000000E+00
  0.000000000000E+00
  0.000000000000E+00
  0.000000000000E+00
  0.000000000000E+00
  0.000000000000E+00
  0.000000000000E+00
  0.000000000000E+00
  0.000000000000E+00
  0.000000000000E+00
  0.000000000000E+00
  0.000000000000E+00
  0.000000000000E+00
  0.000000000000E+00
  0.000000000000E+00
  0.000000000000E+00
  0.000000000000E+00
  0.000000000000E+00
  0.000000000000E+00
  0.000000000000E+00
  0.000000000000E+00
  0.000000000000E+00
  0.000000000000E+00
  0.000000000000E+00
  0.000000000000E+00
  0.000000000000E+00
  0.000000000000E+00
  0.000000000000E+00
  0.000000000000E+00
  0.000000000000E+00
  0.000000000000E+00
  0.000000000000E+00
  0.000000000000E+00
  0.000000000000E+00
  0.000000000000E+00
  0.000000000000E+00
  0.000000000000E+00
  0.000000000000E+00
  0.000000000000E+00
  0.000000000000E+00
  0.000000000000E+00
  0.000000000000E+00
  0.000000000000E+00
  0.000000000000E+00
  0.000000000000E+00
  0.000000000000E+00
  0.000000000000E+00
  0.000000000000E+00
  0.000000000000E+00
  0.000000000000E+00
  0.000000000000E+00
  0.000000000000E+00
  0.000000000000E+00
  0.000000000000E+00
  0.000000000000E+00
  0.000000000000E+00
  0.000000000000E+00
  0.000000000000E+00
  0.000000000000E+00
  0.000000000000E+00
  0.000000000000E+00
  0.000000000000E+00
  0.000000000000E+00
  0.000000000000E+00
  0.000000000000E+00
  0.000000000000E+00
  0.000000000000E+00
  0.000000000000E+00
  0.000000000000E+00
  0.000000000000E+00
  0.000000000000E+00
  0.000000000000E+00
  0.000000000000E+00
  0.000000000000E+00
  0.000000000000E+00
  0.000000000000E+00
  0.000000000000E+00
  0.000000000000E+00
  0.000000000000E+00
  0.000000000000E+00
  0.000000000000E+00
  0.000000000000E+00
  0.000000000000E+00
  0.000000000000E+00
  0.000000000000E+00
  0.000000000000E+00
  0.000000000000E+00
  0.000000000000E+00
  0.000000000000E+00
  0.000000000000E+00
  0.000000000000E+00
  0.000000000000E+00
  0.000000000000E+00
  0.000000000000E+00
  0.000000000000E+00
  0.000000000000E+00
  0.000000000000E+00
  0.000000000000E+00
  0.000000000000E+00
  0.000000000000E+00
  0.000000000000E+00
  0.000000000000E+00
  0.000000000000E+00
  0.000000000000E+00
  0.000000000000E+00
  0.000000000000E+00
  0.000000000000E+00
  0.000000000000E+00
  0.000000000000E+00
  0.000000000000E+00
  0.000000000000E+00
  0.000000000000E+00
  0.000000000000E+00
  0.000000000000E+00
  0.000000000000E+00
  0.000000000000E+00
  0.000000000000E+00
  0.000000000000E+00
  0.000000000000E+00
  0.000000000000E+00
  0.000000000000E+00
  0.000000000000E+00
  0.000000000000E+00
  0.000000000000E+00
  0.000000000000E+00
  0.000000000000E+00
  0.000000000000E+00
  0.000000000000E+00
  0.000000000000E+00
  0.000000000000E+00
  0.000000000000E+00
  0.000000000000E+00
  0.000000000000E+00
  0.000000000000E+00
  0.000000000000E+00
  0.000000000000E+00
  0.000000000000E+00
  0.000000000000E+00
  0.000000000000E+00
  0.000000000000E+00
  0.000000000000E+00
  0.000000000000E+00
  0.000000000000E+00
  0.000000000000E+00
  0.000000000000E+00
  0.000000000000E+00
  0.000000000000E+00
  0.000000000000E+00
  0.000000000000E+00
  0.000000000000E+00
  0.000000000000E+00
  0.000000000000E+00
  0.000000000000E+00
  0.000000000000E+00
  0.000000000000E+00
  0.000000000000E+00
  0.000000000000E+00
  0.000000000000E+00
  0.000000000000E+00
  0.000000000000E+00
  0.000000000000E+00