# vtk DataFile Version 3.0
MachLine results file. Generated by MachLine, USU AeroLab (c) 2022.
ASCII
DATASET POLYDATA
POINTS                1723 float
  0.449445014596E-06  0.000000000000E+00  0.000000000000E+00
  0.615389684338E-06  0.217527970672E+00  0.000000000000E+00
  0.825803841898E-06  0.448061168194E+00  0.000000000000E+00
  0.102689029177E-05  0.689725637436E+00  0.000000000000E+00
  0.120294924180E-05  0.940178275108E+00  0.000000000000E+00
  0.134167782267E-05  0.119668114185E+01  0.000000000000E+00
  0.143604476651E-05  0.145621216297E+01  0.000000000000E+00
  0.148462547461E-05  0.171560299397E+01  0.000000000000E+00
  0.147120188150E-05  0.197169232368E+01  0.000000000000E+00
  0.156778046559E-05  0.222147774696E+01  0.000000000000E+00
  0.168893325312E-05  0.246225214005E+01  0.000000000000E+00
  0.168179190468E-05  0.269171094894E+01  0.000000000000E+00
  0.165674194036E-05  0.290802383423E+01  0.000000000000E+00
  0.161478013918E-05  0.310986590385E+01  0.000000000000E+00
  0.155752929329E-05  0.329641318321E+01  0.000000000000E+00
  0.148711748833E-05  0.346730756760E+01  0.000000000000E+00
  0.140602672967E-05  0.362259936333E+01  0.000000000000E+00
  0.131692821711E-05  0.376267743111E+01  0.000000000000E+00
  0.122252055381E-05  0.388819599152E+01  0.000000000000E+00
  0.248517219208E-06  0.399999869620E+01  0.000000000000E+00
  0.119640383870E-06  0.108763985336E+00  0.000000000000E+00
  0.126793258637E-06  0.332794569433E+00  0.000000000000E+00
  0.132915458083E-06  0.568893402815E+00  0.000000000000E+00
  0.137748950720E-06  0.814951956272E+00  0.000000000000E+00
  0.141076576708E-06  0.106842970848E+01  0.000000000000E+00
  0.142742061616E-06  0.132644665241E+01  0.000000000000E+00
  0.142664957050E-06  0.158590757847E+01  0.000000000000E+00
  0.140849131340E-06  0.184364765882E+01  0.000000000000E+00
  0.137381982804E-06  0.209658503532E+01  0.000000000000E+00
  0.132425916199E-06  0.234186494351E+01  0.000000000000E+00
  0.126202344890E-06  0.257698154450E+01  0.000000000000E+00
  0.118972086910E-06  0.279986739158E+01  0.000000000000E+00
  0.111013138291E-06  0.300894486904E+01  0.000000000000E+00
  0.102601003648E-06  0.320313954353E+01  0.000000000000E+00
  0.939919114145E-07  0.338186037541E+01  0.000000000000E+00
  0.854104876515E-07  0.354495346546E+01  0.000000000000E+00
  0.770429372790E-07  0.369263839722E+01  0.000000000000E+00
  0.690352082255E-07  0.382543671132E+01  0.000000000000E+00
  0.614922046640E-07  0.394409799576E+01  0.000000000000E+00
  0.170550142820E-01  0.000000000000E+00 -0.149203305492E-02
  0.170550243813E-01  0.217527970672E+00 -0.149191761924E-02
  0.170550340475E-01  0.108763985336E+00 -0.149180713458E-02
  0.170550372675E-01  0.448061168194E+00 -0.149177032951E-02
  0.170550475564E-01  0.332794569433E+00 -0.149165272645E-02
  0.170550613059E-01  0.568893402815E+00 -0.149149556921E-02
  0.170550504853E-01  0.689725637436E+00 -0.149161924921E-02
  0.170550741978E-01  0.814951956272E+00 -0.149134821438E-02
  0.170550629576E-01  0.940178275108E+00 -0.149147669035E-02
  0.170550852182E-01  0.106842970848E+01 -0.149122225084E-02
  0.170550736891E-01  0.119668114185E+01 -0.149135402870E-02
  0.170550936279E-01  0.132644665241E+01 -0.149112612753E-02
  0.170550819542E-01  0.145621216297E+01 -0.149125955828E-02
  0.170550990628E-01  0.158590757847E+01 -0.149106400605E-02
  0.170550873958E-01  0.171560299397E+01 -0.149119736083E-02
  0.170551015267E-01  0.184364765882E+01 -0.149103584405E-02
  0.170550900172E-01  0.197169232368E+01 -0.149116739803E-02
  0.170551013061E-01  0.209658503532E+01 -0.149103836506E-02
  0.170550900974E-01  0.222147774696E+01 -0.149116648079E-02
  0.170551143581E-01  0.234186494351E+01 -0.149088917958E-02
  0.170551151207E-01  0.246225214005E+01 -0.149088046296E-02
  0.170551143095E-01  0.257698154450E+01 -0.149088973586E-02
  0.170551150692E-01  0.269171094894E+01 -0.149088105163E-02
  0.170551188901E-01  0.279986739158E+01 -0.149083737955E-02
  0.170551196462E-01  0.290802383423E+01 -0.149082873710E-02
  0.170551167751E-01  0.300894486904E+01 -0.149086155390E-02
  0.170551175266E-01  0.310986590385E+01 -0.149085296363E-02
  0.170551135723E-01  0.320313954353E+01 -0.149089816183E-02
  0.170551143183E-01  0.329641318321E+01 -0.149088963531E-02
  0.170551094027E-01  0.338186037541E+01 -0.149094582016E-02
  0.170551101420E-01  0.346730756760E+01 -0.149093737038E-02
  0.170551044173E-01  0.354495346546E+01 -0.149100280378E-02
  0.170551051486E-01  0.362259936333E+01 -0.149099444538E-02
  0.170550987866E-01  0.369263839722E+01 -0.149106716367E-02
  0.170550995084E-01  0.376267743111E+01 -0.149105891323E-02
  0.170550926897E-01  0.382543671132E+01 -0.149113685069E-02
  0.170550934005E-01  0.388819599152E+01 -0.149112872690E-02
  0.170550863044E-01  0.394409799576E+01 -0.149120983537E-02
  0.170550854676E-01  0.399999982073E+01 -0.149121940043E-02
  0.170550757651E-01  0.400105420543E+01 -0.105432278594E-02
  0.170550651154E-01  0.400149135571E+01  0.000000000000E+00
  0.170550702669E-01  0.400105424988E+01  0.105436723407E-02
  0.170550285433E-01  0.000000000000E+00  0.149187004783E-02
  0.170550458371E-01  0.108763985336E+00  0.149167237811E-02
  0.170550361681E-01  0.217527970672E+00  0.149178289603E-02
  0.170550599222E-01  0.332794569433E+00  0.149151138548E-02
  0.170550496324E-01  0.448061168194E+00  0.149162899820E-02
  0.170550736595E-01  0.568893402815E+00  0.149135436756E-02
  0.170550628385E-01  0.689725637436E+00  0.149147805161E-02
  0.170550859546E-01  0.814951956272E+00  0.149121383384E-02
  0.170550747142E-01  0.940178275108E+00  0.149134231190E-02
  0.170550959018E-01  0.106842970848E+01  0.149110013696E-02
  0.170550843726E-01  0.119668114185E+01  0.149123191605E-02
  0.170551029363E-01  0.132644665241E+01  0.149101973183E-02
  0.170550912626E-01  0.145621216297E+01  0.149115316339E-02
  0.170551068805E-01  0.158590757847E+01  0.149097464991E-02
  0.170550952134E-01  0.171560299397E+01  0.149110800526E-02
  0.170551078922E-01  0.184364765882E+01  0.149096308582E-02
  0.170550963827E-01  0.197169232368E+01  0.149109464024E-02
  0.170551132418E-01  0.209658503532E+01  0.149090193901E-02
  0.170551140065E-01  0.222147774696E+01  0.149089319874E-02
  0.170551195719E-01  0.234186494351E+01  0.149082958593E-02
  0.170551203345E-01  0.246225214005E+01  0.149082086937E-02
  0.170551198349E-01  0.257698154450E+01  0.149082657939E-02
  0.170551205947E-01  0.269171094894E+01  0.149081789521E-02
  0.170551130980E-01  0.279986739158E+01  0.149090358323E-02
  0.170551138541E-01  0.290802383423E+01  0.149089494084E-02
  0.170551107724E-01  0.300894486904E+01  0.149093016510E-02
  0.170551115239E-01  0.310986590385E+01  0.149092157489E-02
  0.170551074246E-01  0.320313954353E+01  0.149096843048E-02
  0.170551081706E-01  0.329641318321E+01  0.149095990401E-02
  0.170551031824E-01  0.338186037541E+01  0.149101691834E-02
  0.170551039217E-01  0.346730756760E+01  0.149100846860E-02
  0.170550982004E-01  0.354495346546E+01  0.149107386348E-02
  0.170550989317E-01  0.362259936333E+01  0.149106550514E-02
  0.170550926488E-01  0.369263839722E+01  0.149113731883E-02
  0.170550933706E-01  0.376267743111E+01  0.149112906845E-02
  0.170550867030E-01  0.382543671132E+01  0.149120527877E-02
  0.170550874138E-01  0.388819599152E+01  0.149119715504E-02
  0.170550805337E-01  0.394409799576E+01  0.149127579472E-02
  0.170550798071E-01  0.399999983361E+01  0.149128409933E-02
  0.341101943192E-01  0.000000000000E+00 -0.298217151961E-02
  0.341101283034E-01  0.217527970672E+00 -0.298292608344E-02
  0.341101316201E-01  0.448061168194E+00 -0.298288817420E-02
  0.341101376511E-01  0.689725637436E+00 -0.298281923847E-02
  0.341101424359E-01  0.940178275108E+00 -0.298276454900E-02
  0.341101454388E-01  0.119668114185E+01 -0.298273022517E-02
  0.341101463236E-01  0.145621216297E+01 -0.298272011238E-02
  0.341101434198E-01  0.171560299397E+01 -0.298275330290E-02
  0.341101360715E-01  0.197169232368E+01 -0.298283729417E-02
  0.341101410245E-01  0.222147774696E+01 -0.298278068096E-02
  0.341101417513E-01  0.246225214005E+01 -0.298277237374E-02
  0.341101589465E-01  0.269171094894E+01 -0.298257583094E-02
  0.341101570859E-01  0.290802383423E+01 -0.298259709836E-02
  0.341101556770E-01  0.310986590385E+01 -0.298261320205E-02
  0.341101510596E-01  0.329641318321E+01 -0.298266597880E-02
  0.341101452491E-01  0.346730756760E+01 -0.298273239294E-02
  0.341101384531E-01  0.362259936333E+01 -0.298281007194E-02
  0.341101308991E-01  0.376267743111E+01 -0.298289641468E-02
  0.341101228207E-01  0.388819599152E+01 -0.298298875108E-02
  0.341101125143E-01  0.399999977443E+01 -0.298310656269E-02
  0.341100371544E-01  0.108763985336E+00 -0.298396792124E-02
  0.341100601328E-01  0.332794569433E+00 -0.298370527739E-02
  0.341100861762E-01  0.568893402815E+00 -0.298340760030E-02
  0.341101118460E-01  0.814951956272E+00 -0.298311419213E-02
  0.341101350402E-01  0.106842970848E+01 -0.298284908197E-02
  0.341101540315E-01  0.132644665241E+01 -0.298263200970E-02
  0.341101677353E-01  0.158590757847E+01 -0.298247537502E-02
  0.341101757968E-01  0.184364765882E+01 -0.298238323174E-02
  0.341101784979E-01  0.209658503532E+01 -0.298235235755E-02
  0.341101920519E-01  0.234186494351E+01 -0.298219743463E-02
  0.341102285549E-01  0.257698154450E+01 -0.298178020335E-02
  0.341102330802E-01  0.279986739158E+01 -0.298172847911E-02
  0.341102355376E-01  0.300894486904E+01 -0.298170039173E-02
  0.341102302098E-01  0.320313954353E+01 -0.298176128821E-02
  0.341102228254E-01  0.338186037541E+01 -0.298184569242E-02
  0.341102136560E-01  0.354495346546E+01 -0.298195049908E-02
  0.341102030228E-01  0.369263839722E+01 -0.298207203758E-02
  0.341101912751E-01  0.382543671132E+01 -0.298220631368E-02
  0.341101787695E-01  0.394409799576E+01 -0.298234925313E-02
  0.341101500153E-01  0.400105411648E+01 -0.254543934827E-02
  0.341101146863E-01  0.400210864097E+01 -0.210901124739E-02
[...]
POINT_DATA                1723
SCALARS phi float 1
LOOKUP_TABLE default
  0.330872245021E-23
  0.330872245021E-23
  0.000000000000E+00
  0.198523347013E-22
 -0.661744490042E-23
  0.397046694025E-22
 -0.132348898008E-22
  0.132348898008E-22
 -0.264697796017E-22
 -0.529395592034E-22
 -0.264697796017E-22
 -0.529395592034E-22
  0.529395592034E-22
  0.000000000000E+00
  0.397046694025E-22
  0.529395592034E-22
  0.132348898008E-22
 -0.198523347013E-22
 -0.661744490042E-23
  0.165436122511E-23
  0.000000000000E+00
 -0.165436122511E-23
  0.165436122511E-23
 -0.248154183766E-23
 -0.827180612553E-24
 -0.165436122511E-23
  0.827180612553E-24
  0.330872245021E-23
 -0.165436122511E-23
 -0.827180612553E-24
  0.000000000000E+00
  0.000000000000E+00
 -0.827180612553E-24
 -0.827180612553E-24
  0.165436122511E-23
 -0.827180612553E-24
  0.413590306277E-24
  0.000000000000E+00
 -0.413590306277E-24
  0.000000000000E+00
  0.000000000000E+00
  0.000000000000E+00
 -0.108420217249E-18
  0.000000000000E+00
 -0.325260651746E-18
 -0.216840434497E-18
 -0.108420217249E-18
  0.108420217249E-18
 -0.108420217249E-18
  0.000000000000E+00
  0.216840434497E-18
  0.108420217249E-18
  0.650521303491E-18
  0.108420217249E-18
 -0.325260651746E-18
  0.000000000000E+00
  0.000000000000E+00
  0.108420217249E-18
 -0.108420217249E-18
  0.216840434497E-18
  0.108420217249E-18
  0.216840434497E-18
  0.108420217249E-18
  0.000000000000E+00
  0.325260651746E-18
 -0.108420217249E-18
 -0.216840434497E-18
 -0.216840434497E-18
 -0.216840434497E-18
  0.542101086243E-18
 -0.325260651746E-18
  0.108420217249E-18
 -0.108420217249E-18
 -0.108420217249E-18
  0.108420217249E-18
  0.000000000000E+00
  0.000000000000E+00
  0.000000000000E+00
  0.000000000000E+00
  0.542101086243E-19
  0.000000000000E+00
  0.108420217249E-18
  0.542101086243E-17
  0.216840434497E-18
 -0.108420217249E-17
 -0.216840434497E-18
 -0.661363325216E-17
 -0.108420217249E-18
  0.542101086243E-17
 -0.216840434497E-18
 -0.368628738645E-17
 -0.325260651746E-18
 -0.607153216592E-17
  0.433680868994E-18
 -0.390312782095E-17
  0.325260651746E-18
  0.542101086243E-17
 -0.216840434497E-18
  0.813151629364E-17
  0.216840434497E-18
 -0.140946282423E-17
 -0.325260651746E-18
 -0.932413868338E-17
  0.000000000000E+00
  0.867361737988E-18
 -0.216840434497E-18
  0.780625564190E-17
 -0.433680868994E-18
 -0.780625564190E-17
 -0.108420217249E-18
 -0.693889390391E-17
 -0.216840434497E-18
  0.119262238973E-17
  0.433680868994E-18
 -0.108420217249E-18
 -0.108420217249E-18
 -0.216840434497E-18
 -0.758941520740E-18
 -0.216840434497E-18
  0.000000000000E+00
  0.216840434497E-18
  0.216840434497E-18
 -0.216840434497E-18
  0.000000000000E+00
  0.000000000000E+00
 -0.433680868994E-18
  0.433680868994E-18
  0.433680868994E-18
  0.000000000000E+00
  0.216840434497E-18
  0.433680868994E-18
  0.216840434497E-18
  0.216840434497E-18
 -0.867361737988E-18
  0.216840434497E-18
 -0.433680868994E-18
 -0.216840434497E-18
 -0.650521303491E-18
  0.433680868994E-18
  0.216840434497E-18
 -0.216840434497E-18
 -0.433680868994E-18
 -0.216840434497E-18
 -0.433680868994E-18
 -0.216840434497E-18
  0.000000000000E+00
  0.000000000000E+00
  0.000000000000E+00
  0.867361737988E-18
 -0.216840434497E-18
  0.216840434497E-18
  0.650521303491E-18
  0.433680868994E-18
 -0.867361737988E-18
 -0.216840434497E-18
  0.650521303491E-18
  0.433680868994E-18
 -0.216840434497E-18
  0.433680868994E-18
 -0.433680868994E-18
 -0.108420217249E-18
  0.108420217249E-18
  0.000000000000E+00
  0.000000000000E+00
  0.000000000000E+00
  0.000000000000E+00
 -0.216840434497E-18
  0.433680868994E-18
  0.433680868994E-18
 -0.433680868994E-18
 -0.867361737988E-18
  0.216840434497E-18
 -0.650521303491E-18
  0.433680868994E-18
  0.867361737988E-18
  0.216840434497E-18
 -0.650521303491E-18
 -0.867361737988E-18
  0.000000000000E+00
  0.867361737988E-18
  0.216840434497E-18
  0.216840434497E-18
 -0.173472347598E-17
  0.433680868994E-18
 -0.216840434497E-18
 -0.108420217249E-18
 -0.433680868994E-18
 -0.867361737988E-18
  0.433680868994E-18
  0.433680868994E-18
  0.650521303491E-18
  0.000000000000E+00
  0.216840434497E-18
  0.433680868994E-18
  0.000000000000E+00
  0.650521303491E-18
 -0.108420217249E-17
 -0.108420217249E-17
  0.130104260698E-17
 -0.108420217249E-17
  0.000000000000E+00
 -0.216840434497E-17
  0.867361737988E-18
  0.216840434497E-18
 -0.216840434497E-18
  0.000000000000E+00
 -0.216840434497E-17
  0.346944695195E-17
  0.000000000000E+00
 -0.130104260698E-17
 -0.433680868994E-18
  0.260208521397E-17
 -0.433680868994E-18
  0.130104260698E-17
  0.000000000000E+00
 -0.130104260698E-17
 -0.433680868994E-18
  0.130104260698E-17
  0.173472347598E-17
  0.303576608296E-17
  0.130104260698E-17
  0.216840434497E-17
 -0.867361737988E-18
  0.433680868994E-18
  0.130104260698E-17
  0.130104260698E-17
  0.000000000000E+00
  0.433680868994E-18
 -0.130104260698E-17
 -0.477048955894E-17
  0.867361737988E-18
  0.433680868994E-18
  0.000000000000E+00
 -0.433680868994E-18
 -0.433680868994E-18
 -0.433680868994E-18
 -0.216840434497E-17
  0.867361737988E-18
  0.000000000000E+00
 -0.433680868994E-18
  0.867361737988E-18
 -0.173472347598E-17
 -0.433680868994E-18
  0.216840434497E-18
  0.000000000000E+00
 -0.433680868994E-18
  0.000000000000E+00
  0.216840434497E-18
 -0.130104260698E-17
 -0.650521303491E-18
 -0.650521303491E-18
 -0.867361737988E-18
 -0.173472347598E-17
 -0.130104260698E-17
  0.216840434497E-17
  0.173472347598E-17
  0.130104260698E-17
 -0.433680868994E-18
  0.433680868994E-18
  0.433680868994E-18
 -0.130104260698E-17
 -0.433680868994E-18
 -0.130104260698E-17
  0.433680868994E-18
 -0.477048955894E-17
 -0.867361737988E-18
 -0.260208521397E-17
  0.130104260698E-17
 -0.130104260698E-17
  0.260208521397E-17
 -0.260208521397E-17
  0.867361737988E-18
  0.216840434497E-17
  0.130104260698E-17
 -0.216840434497E-17
 -0.390312782095E-17
 -0.130104260698E-17
  0.260208521397E-17
 -0.216840434497E-17
 -0.433680868994E-18
 -0.130104260698E-17
 -0.433680868994E-18
  0.260208521397E-17
  0.130104260698E-17
 -0.433680868994E-18
 -0.433680868994E-18
  0.000000000000E+00
  0.000000000000E+00
 -0.433680868994E-18
  0.000000000000E+00
  0.260208521397E-17
 -0.867361737988E-18
  0.520417042793E-17
  0.867361737988E-18
  0.867361737988E-18
 -0.260208521397E-17
 -0.260208521397E-17
  0.346944695195E-17
 -0.867361737988E-18
  0.173472347598E-17
  0.000000000000E+00
 -0.346944695195E-17
 -0.260208521397E-17
  0.000000000000E+00
 -0.867361737988E-18
 -0.173472347598E-17
  0.867361737988E-18
 -0.173472347598E-17
 -0.260208521397E-17
  0.346944695195E-17
  0.520417042793E-17
 -0.867361737988E-18
  0.173472347598E-17
 -0.260208521397E-17
 -0.173472347598E-17
  0.607153216592E-17
 -0.867361737988E-18
  0.173472347598E-17
 -0.260208521397E-17
  0.693889390391E-17
  0.867361737988E-18
  0.780625564190E-17
 -0.346944695195E-17
  0.867361737988E-18
  0.346944695195E-17
 -0.173472347598E-17
 -0.260208521397E-17
  0.000000000000E+00
  0.173472347598E-17
 -0.130104260698E-17
  0.000000000000E+00
 -0.433680868994E-18
  0.260208521397E-17
  0.130104260698E-17
  0.433680868994E-18
 -0.173472347598E-17
 -0.433680868994E-18
 -0.260208521397E-17
 -0.130104260698E-17
  0.650521303491E-17
  0.216840434497E-17
  0.173472347598E-17
 -0.867361737988E-18
 -0.433680868994E-18
  0.563785129692E-17
 -0.303576608296E-17
 -0.693889390391E-17
 -0.260208521397E-17
 -0.216840434497E-17
  0.607153216592E-17
 -0.433680868994E-18
  0.390312782095E-17
 -0.867361737988E-18
  0.000000000000E+00
 -0.216840434497E-17
  0.130104260698E-17
 -0.867361737988E-18
  0.173472347598E-17
  0.173472347598E-17
  0.433680868994E-17
  0.303576608296E-17
 -0.390312782095E-17
 -0.216840434497E-17
 -0.346944695195E-17
  0.433680868994E-17
 -0.390312782095E-17
 -0.433680868994E-17
 -0.303576608296E-17
  0.433680868994E-17
 -0.390312782095E-17
  0.346944695195E-17
  0.477048955894E-17
  0.867361737988E-18
 -0.173472347598E-17
  0.173472347598E-17
  0.346944695195E-17
 -0.260208521397E-17
  0.520417042793E-17
 -0.260208521397E-17
  0.104083408559E-16
  0.867361737988E-18
  0.433680868994E-17
 -0.867361737988E-18
 -0.104083408559E-16
  0.000000000000E+00
  0.867361737988E-18
  0.173472347598E-17
 -0.780625564190E-17
  0.260208521397E-17
  0.000000000000E+00
  0.260208521397E-17
  0.780625564190E-17
 -0.260208521397E-17
  0.000000000000E+00
  0.173472347598E-17
  0.780625564190E-17
 -0.433680868994E-17
 -0.607153216592E-17
  0.780625564190E-17
 -0.260208521397E-17
 -0.867361737988E-18
 -0.433680868994E-17
 -0.433680868994E-17
 -0.607153216592E-17
  0.607153216592E-17
  0.346944695195E-17
  0.867361737988E-18
  0.173472347598E-17
  0.867361737988E-18
  0.260208521397E-17
  0.260208521397E-17
  0.260208521397E-17
  0.173472347598E-17
 -0.867361737988E-18
  0.000000000000E+00
 -0.130104260698E-17
  0.867361737988E-18
 -0.867361737988E-18
 -0.173472347598E-17
  0.867361737988E-18
 -0.260208521397E-17
 -0.346944695195E-17
 -0.433680868994E-17
 -0.780625564190E-17
 -0.260208521397E-17
  0.173472347598E-17
  0.260208521397E-17
  0.433680868994E-17
  0.520417042793E-17
 -0.867361737988E-17
 -0.954097911787E-17
 -0.693889390391E-17
 -0.173472347598E-17
  0.000000000000E+00
  0.520417042793E-17
 -0.433680868994E-17
  0.346944695195E-17
  0.954097911787E-17
  0.173472347598E-17
 -0.607153216592E-17
  0.346944695195E-17
  0.520417042793E-17
  0.867361737988E-17
 -0.104083408559E-16
  0.000000000000E+00
  0.867361737988E-18
 -0.173472347598E-17
 -0.867361737988E-18
 -0.867361737988E-18
  0.520417042793E-17
  0.867361737988E-18
  0.780625564190E-17
  0.000000000000E+00
 -0.260208521397E-17
 -0.867361737988E-18
  0.867361737988E-17
 -0.260208521397E-17
  0.173472347598E-17
  0.260208521397E-17
  0.867361737988E-18
 -0.104083408559E-16
  0.000000000000E+00
 -0.173472347598E-17
 -0.867361737988E-17
  0.000000000000E+00
  0.520417042793E-17
  0.867361737988E-17
  0.346944695195E-17
  0.156125112838E-16
 -0.173472347598E-17
 -0.346944695195E-17
 -0.138777878078E-16
 -0.346944695195E-17
 -0.867361737988E-17
 -0.867361737988E-17
  0.121430643318E-16
  0.190819582357E-16
  0.138777878078E-16
 -0.520417042793E-17
 -0.867361737988E-18
 -0.520417042793E-17
  0.138777878078E-16
 -0.208166817117E-16
  0.693889390391E-17
  0.104083408559E-16
  0.000000000000E+00
 -0.520417042793E-17
 -0.138777878078E-16
  0.242861286637E-16
 -0.173472347598E-17
 -0.867361737988E-17
  0.121430643318E-16
 -0.520417042793E-17
 -0.346944695195E-17
 -0.693889390391E-17
 -0.173472347598E-17
  0.173472347598E-17
  0.693889390391E-17
 -0.346944695195E-17
 -0.867361737988E-17
  0.867361737988E-18
  0.867361737988E-18
  0.607153216592E-17
 -0.867361737988E-18
 -0.867361737988E-18
 -0.260208521397E-17
 -0.780625564190E-17
  0.000000000000E+00
  0.346944695195E-17
  0.130104260698E-16
  0.693889390391E-17
 -0.346944695195E-17
  0.104083408559E-16
  0.346944695195E-17
 -0.173472347598E-17
  0.867361737988E-18
  0.216840434497E-16
 -0.173472347598E-17
 -0.433680868994E-17
  0.867361737988E-17
  0.190819582357E-16
 -0.173472347598E-17
  0.000000000000E+00
 -0.346944695195E-17
  0.173472347598E-17
  0.433680868994E-17
  0.520417042793E-17
 -0.954097911787E-17
  0.346944695195E-17
  0.173472347598E-17
  0.520417042793E-17
  0.607153216592E-17
 -0.173472347598E-17
  0.954097911787E-17
 -0.780625564190E-17
  0.242861286637E-16
  0.607153216592E-17
  0.138777878078E-16
 -0.104083408559E-16
  0.104083408559E-16
  0.112757025938E-16
 -0.520417042793E-17
  0.607153216592E-17
 -0.867361737988E-18
 -0.173472347598E-17
 -0.173472347598E-17
  0.156125112838E-16
 -0.173472347598E-17
 -0.121430643318E-16
 -0.346944695195E-17
 -0.173472347598E-16
  0.693889390391E-17
 -0.520417042793E-17
 -0.867361737988E-17
 -0.121430643318E-16
  0.693889390391E-17
  0.693889390391E-17
  0.520417042793E-17
  0.693889390391E-17
  0.000000000000E+00
 -0.693889390391E-17
 -0.138777878078E-16
 -0.173472347598E-16
  0.346944695195E-17
  0.000000000000E+00
  0.138777878078E-16
 -0.867361737988E-17
  0.104083408559E-16
  0.520417042793E-17
  0.346944695195E-17
 -0.346944695195E-17
  0.156125112838E-16
  0.346944695195E-17
 -0.520417042793E-17
  0.173472347598E-17
  0.173472347598E-17
 -0.346944695195E-17
 -0.346944695195E-17
  0.190819582357E-16
  0.346944695195E-17
  0.121430643318E-16
  0.520417042793E-17
 -0.173472347598E-17
 -0.104083408559E-16
  0.433680868994E-17
 -0.173472347598E-17
 -0.260208521397E-17
  0.693889390391E-17
 -0.607153216592E-17
  0.260208521397E-17
  0.867361737988E-18
  0.104083408559E-16
  0.346944695195E-17
  0.346944695195E-17
  0.000000000000E+00
 -0.104083408559E-16
  0.346944695195E-17
  0.156125112838E-16
  0.173472347598E-17
 -0.693889390391E-17
 -0.173472347598E-17
  0.173472347598E-16
  0.867361737988E-17
  0.693889390391E-17
 -0.867361737988E-17
 -0.260208521397E-16
 -0.693889390391E-17
 -0.121430643318E-16
  0.242861286637E-16
  0.520417042793E-17
  0.104083408559E-16
 -0.520417042793E-17
 -0.156125112838E-16
  0.520417042793E-17
  0.346944695195E-17
  0.520417042793E-17
  0.000000000000E+00
 -0.520417042793E-17
  0.346944695195E-17
 -0.867361737988E-17
  0.867361737988E-17
  0.156125112838E-16
  0.104083408559E-16
 -0.225514051877E-16
 -0.520417042793E-17
  0.346944695195E-17
 -0.693889390391E-17
  0.346944695195E-17
  0.346944695195E-17
  0.346944695195E-17
 -0.173472347598E-17
 -0.121430643318E-16
  0.520417042793E-17
 -0.693889390391E-17
 -0.520417042793E-17
 -0.104083408559E-16
  0.121430643318E-16
  0.138777878078E-16
  0.312250225676E-16
  0.138777878078E-16
 -0.867361737988E-17
  0.104083408559E-16
 -0.173472347598E-17
  0.173472347598E-17
 -0.104083408559E-16
  0.693889390391E-17
  0.693889390391E-17
 -0.173472347598E-17
 -0.346944695195E-17
 -0.867361737988E-17
  0.138777878078E-16
 -0.156125112838E-16
  0.520417042793E-17
 -0.867361737988E-17
  0.398986399475E-16
 -0.121430643318E-16
  0.156125112838E-16
 -0.346944695195E-17
  0.190819582357E-16
 -0.867361737988E-17
  0.242861286637E-16
 -0.173472347598E-16
 -0.520417042793E-17
 -0.190819582357E-16
 -0.867361737988E-17
  0.173472347598E-17
  0.346944695195E-17
 -0.156125112838E-16
 -0.173472347598E-17
 -0.693889390391E-17
 -0.173472347598E-17
  0.173472347598E-17
  0.346944695195E-17
  0.000000000000E+00
  0.000000000000E+00
  0.121430643318E-16
  0.104083408559E-16
  0.208166817117E-16
  0.346944695195E-17
  0.121430643318E-16
 -0.173472347598E-16
 -0.346944695195E-17
  0.173472347598E-17
  0.520417042793E-17
 -0.693889390391E-17
  0.520417042793E-17
  0.867361737988E-17
 -0.867361737988E-17
  0.225514051877E-16
 -0.138777878078E-16
  0.173472347598E-17
  0.520417042793E-17
 -0.138777878078E-16
  0.173472347598E-17
  0.173472347598E-17
 -0.173472347598E-17
  0.104083408559E-16
  0.000000000000E+00
 -0.520417042793E-17
 -0.104083408559E-16
 -0.346944695195E-17
  0.867361737988E-17
  0.346944695195E-17
 -0.520417042793E-17
 -0.104083408559E-16
  0.138777878078E-16
 -0.346944695195E-17
  0.277555756156E-16
  0.867361737988E-17
  0.104083408559E-16
  0.520417042793E-17
  0.000000000000E+00
 -0.346944695195E-17
  0.346944695195E-17
  0.104083408559E-16
  0.138777878078E-16
  0.693889390391E-17
 -0.138777878078E-16
  0.208166817117E-16
 -0.346944695195E-17
  0.312250225676E-16
 -0.416333634234E-16
 -0.208166817117E-16
 -0.242861286637E-16
 -0.346944695195E-17
  0.173472347598E-16
  0.277555756156E-16
 -0.312250225676E-16
  0.485722573274E-16
 -0.346944695195E-17
 -0.104083408559E-16
  0.242861286637E-16
 -0.138777878078E-16
  0.346944695195E-17
 -0.346944695195E-17
  0.173472347598E-16
 -0.346944695195E-16
 -0.346944695195E-17
  0.693889390391E-17
  0.138777878078E-16
  0.000000000000E+00
 -0.381639164715E-16
  0.242861286637E-16
  0.000000000000E+00
  0.277555756156E-16
  0.000000000000E+00
  0.000000000000E+00
 -0.693889390391E-17
 -0.173472347598E-16
  0.208166817117E-16
  0.693889390391E-17
  0.104083408559E-16
  0.173472347598E-17
 -0.867361737988E-17
  0.000000000000E+00
  0.693889390391E-17
  0.867361737988E-17
  0.520417042793E-17
 -0.138777878078E-16
 -0.520417042793E-17
 -0.173472347598E-16
  0.346944695195E-17
  0.138777878078E-16
 -0.312250225676E-16
  0.693889390391E-17
  0.173472347598E-16
  0.346944695195E-17
 -0.346944695195E-17
  0.208166817117E-16
  0.138777878078E-16
 -0.277555756156E-16
  0.346944695195E-16
 -0.208166817117E-16
  0.138777878078E-16
 -0.381639164715E-16
  0.173472347598E-16
  0.000000000000E+00
  0.346944695195E-17
  0.346944695195E-17
 -0.346944695195E-17
 -0.693889390391E-17
 -0.208166817117E-16
 -0.104083408559E-16
 -0.208166817117E-16
  0.242861286637E-16
 -0.346944695195E-17
  0.242861286637E-16
 -0.693889390391E-17
  0.693889390391E-17
  0.208166817117E-16
 -0.104083408559E-16
 -0.346944695195E-17
  0.000000000000E+00
  0.173472347598E-16
  0.104083408559E-16
 -0.693889390391E-17
 -0.693889390391E-17
 -0.520417042793E-17
  0.173472347598E-17
  0.346944695195E-17
  0.208166817117E-16
  0.173472347598E-16
  0.693889390391E-17
 -0.138777878078E-16
 -0.346944695195E-17
  0.000000000000E+00
 -0.693889390391E-17
  0.104083408559E-16
 -0.346944695195E-17
  0.346944695195E-17
 -0.138777878078E-16
 -0.693889390391E-17
  0.208166817117E-16
  0.346944695195E-16
  0.104083408559E-16
 -0.381639164715E-16
  0.416333634234E-16
 -0.277555756156E-16
 -0.138777878078E-16
  0.173472347598E-17
 -0.346944695195E-17
  0.000000000000E+00
 -0.693889390391E-17
  0.242861286637E-16
 -0.242861286637E-16
  0.693889390391E-17
  0.693889390391E-17
  0.138777878078E-16
  0.693889390391E-17
  0.104083408559E-16
  0.277555756156E-16
 -0.346944695195E-17
 -0.208166817117E-16
  0.346944695195E-17
 -0.104083408559E-16
  0.104083408559E-16
  0.208166817117E-16
  0.555111512313E-16
  0.138777878078E-16
  0.156125112838E-16
  0.867361737988E-17
  0.000000000000E+00
 -0.520417042793E-17
 -0.520417042793E-17
 -0.693889390391E-17
  0.346944695195E-17
  0.346944695195E-16
  0.173472347598E-16
 -0.173472347598E-16
  0.138777878078E-16
  0.138777878078E-16
  0.173472347598E-16
 -0.173472347598E-16
 -0.138777878078E-16
 -0.693889390391E-17
  0.416333634234E-16
 -0.104083408559E-16
  0.000000000000E+00
  0.138777878078E-16
 -0.346944695195E-17
  0.104083408559E-16
 -0.277555756156E-16
 -0.277555756156E-16
  0.000000000000E+00
  0.346944695195E-17
 -0.173472347598E-17
  0.000000000000E+00
  0.693889390391E-17
  0.138777878078E-16
  0.000000000000E+00
 -0.277555756156E-16
 -0.242861286637E-16
 -0.173472347598E-16
  0.000000000000E+00
  0.173472347598E-16
 -0.693889390391E-17
 -0.346944695195E-16
  0.242861286637E-16
  0.104083408559E-16
 -0.416333634234E-16
  0.173472347598E-16
 -0.346944695195E-17
  0.346944695195E-16
 -0.346944695195E-17
 -0.173472347598E-16
  0.000000000000E+00
  0.173472347598E-16
  0.381639164715E-16
 -0.138777878078E-16
 -0.312250225676E-16
  0.208166817117E-16
 -0.138777878078E-16
  0.138777878078E-16
  0.173472347598E-16
  0.242861286637E-16
  0.173472347598E-16
 -0.312250225676E-16
 -0.104083408559E-16
  0.173472347598E-16
 -0.277555756156E-16
  0.693889390391E-17
  0.138777878078E-16
  0.242861286637E-16
 -0.104083408559E-16
  0.173472347598E-16
 -0.346944695195E-17
  0.104083408559E-16
  0.138777878078E-16
 -0.104083408559E-16
 -0.208166817117E-16
 -0.173472347598E-16
  0.416333634234E-16
 -0.416333634234E-16
  0.693889390391E-17
  0.208166817117E-16
  0.138777878078E-16
 -0.208166817117E-16
 -0.693889390391E-17
 -0.138777878078E-16
  0.173472347598E-16
  0.000000000000E+00
  0.000000000000E+00
  0.242861286637E-16
 -0.693889390391E-17
 -0.173472347598E-17
  0.000000000000E+00
  0.693889390391E-17
 -0.121430643318E-16
  0.121430643318E-16
 -0.138777878078E-16
  0.312250225676E-16
  0.208166817117E-16
  0.242861286637E-16
  0.693889390391E-17
  0.312250225676E-16
  0.000000000000E+00
 -0.312250225676E-16
  0.346944695195E-17
  0.173472347598E-16
 -0.312250225676E-16
 -0.277555756156E-16
  0.346944695195E-17
  0.242861286637E-16
  0.000000000000E+00
 -0.104083408559E-16
 -0.104083408559E-16
 -0.208166817117E-16
  0.104083408559E-16