# vtk DataFile Version 3.0
MachLine results file. Generated by MachLine, USU AeroLab (c) 2022.
ASCII
DATASET POLYDATA
POINTS                3847 float
  0.999999533566E+00  0.000000000000E+00 -0.203260721043E-07
  0.986936813822E+00  0.512820512820E-01 -0.114243937225E-02
  0.999999571434E+00  0.512820512820E-01 -0.186758399879E-07
  0.986936813641E+00  0.000000000000E+00 -0.114243729785E-02
  0.969870633276E+00  0.512820512820E-01 -0.263551462626E-02
  0.969870632988E+00  0.000000000000E+00 -0.263551133652E-02
  0.947784990451E+00  0.512820512820E-01 -0.456772904277E-02
  0.947784990016E+00  0.000000000000E+00 -0.456772406882E-02
  0.919551395340E+00  0.512820512820E-01 -0.703781156060E-02
  0.919551394721E+00  0.000000000000E+00 -0.703780448438E-02
  0.884018056609E+00  0.512820512820E-01 -0.101465304796E-01
  0.884018055791E+00  0.000000000000E+00 -0.101465211355E-01
  0.840166796670E+00  0.512820512820E-01 -0.139829658665E-01
  0.840166795682E+00  0.000000000000E+00 -0.139829545724E-01
  0.787342589715E+00  0.512820512820E-01 -0.186044281892E-01
  0.787342588640E+00  0.000000000000E+00 -0.186044158978E-01
  0.725530687321E+00  0.512820512820E-01 -0.240122131272E-01
  0.725530686294E+00  0.000000000000E+00 -0.240122013893E-01
  0.655612585875E+00  0.512820512820E-01 -0.301292067376E-01
  0.655612585060E+00  0.000000000000E+00 -0.301291974251E-01
  0.579493880592E+00  0.512820512820E-01 -0.367886982470E-01
  0.579493880139E+00  0.000000000000E+00 -0.367886930746E-01
  0.500000000000E+00  0.512820512820E-01 -0.437435033352E-01
  0.500000000000E+00  0.000000000000E+00 -0.437436108249E-01
  0.420506119861E+00  0.000000000000E+00 -0.367886930746E-01
  0.420506119408E+00  0.512820512820E-01 -0.367886982470E-01
  0.344387414940E+00  0.000000000000E+00 -0.301291974251E-01
  0.344387414125E+00  0.512820512820E-01 -0.301292067376E-01
  0.274469313706E+00  0.000000000000E+00 -0.240122013893E-01
  0.274469312679E+00  0.512820512820E-01 -0.240122131272E-01
  0.212657411360E+00  0.000000000000E+00 -0.186044158978E-01
  0.212657410285E+00  0.512820512820E-01 -0.186044281892E-01
  0.159833204318E+00  0.000000000000E+00 -0.139829545724E-01
  0.159833203330E+00  0.512820512820E-01 -0.139829658665E-01
  0.115981944209E+00  0.000000000000E+00 -0.101465211355E-01
  0.115981943391E+00  0.512820512820E-01 -0.101465304796E-01
  0.804486052799E-01  0.000000000000E+00 -0.703780448438E-02
  0.804486046608E-01  0.512820512820E-01 -0.703781156060E-02
  0.522150099807E-01  0.000000000000E+00 -0.456772406882E-02
  0.522150095456E-01  0.512820512820E-01 -0.456772904277E-02
  0.301293670112E-01  0.000000000000E+00 -0.263551133652E-02
  0.301293667234E-01  0.512820512820E-01 -0.263551462626E-02
  0.130631863634E-01  0.000000000000E+00 -0.114243729785E-02
  0.130631861819E-01  0.512820512820E-01 -0.114243937225E-02
  0.468212736333E-06  0.000000000000E+00  0.000000000000E+00
  0.430199504323E-06  0.512820512820E-01  0.000000000000E+00
  0.130631861819E-01  0.512820512820E-01  0.114243937225E-02
  0.130631863634E-01  0.000000000000E+00  0.114243729785E-02
  0.301293667234E-01  0.512820512820E-01  0.263551462626E-02
  0.301293670112E-01  0.000000000000E+00  0.263551133652E-02
  0.522150095456E-01  0.512820512820E-01  0.456772904277E-02
  0.522150099807E-01  0.000000000000E+00  0.456772406882E-02
  0.804486046608E-01  0.512820512820E-01  0.703781156060E-02
  0.804486052799E-01  0.000000000000E+00  0.703780448438E-02
  0.115981943391E+00  0.512820512820E-01  0.101465304796E-01
  0.115981944209E+00  0.000000000000E+00  0.101465211355E-01
  0.159833203330E+00  0.512820512820E-01  0.139829658665E-01
  0.159833204318E+00  0.000000000000E+00  0.139829545724E-01
  0.212657410285E+00  0.512820512820E-01  0.186044281892E-01
  0.212657411360E+00  0.000000000000E+00  0.186044158978E-01
  0.274469312679E+00  0.512820512820E-01  0.240122131272E-01
  0.274469313706E+00  0.000000000000E+00  0.240122013893E-01
  0.344387414125E+00  0.512820512820E-01  0.301292067376E-01
  0.344387414940E+00  0.000000000000E+00  0.301291974251E-01
  0.420506119408E+00  0.512820512820E-01  0.367886982470E-01
  0.420506119861E+00  0.000000000000E+00  0.367886930746E-01
  0.500000000000E+00  0.512820512820E-01  0.437435033352E-01
  0.500000000000E+00  0.000000000000E+00  0.437436108249E-01
  0.579493880139E+00  0.000000000000E+00  0.367886930746E-01
  0.579493880592E+00  0.512820512820E-01  0.367886982470E-01
  0.655612585060E+00  0.000000000000E+00  0.301291974251E-01
  0.655612585875E+00  0.512820512820E-01  0.301292067376E-01
  0.725530686294E+00  0.000000000000E+00  0.240122013893E-01
  0.725530687321E+00  0.512820512820E-01  0.240122131272E-01
  0.787342588640E+00  0.000000000000E+00  0.186044158978E-01
  0.787342589715E+00  0.512820512820E-01  0.186044281892E-01
  0.840166795682E+00  0.000000000000E+00  0.139829545724E-01
  0.840166796670E+00  0.512820512820E-01  0.139829658665E-01
  0.884018055791E+00  0.000000000000E+00  0.101465211355E-01
  0.884018056609E+00  0.512820512820E-01  0.101465304796E-01
  0.919551394721E+00  0.000000000000E+00  0.703780448438E-02
  0.919551395340E+00  0.512820512820E-01  0.703781156060E-02
  0.947784990016E+00  0.000000000000E+00  0.456772406882E-02
  0.947784990451E+00  0.512820512820E-01  0.456772904277E-02
  0.969870632988E+00  0.000000000000E+00  0.263551133652E-02
  0.969870633276E+00  0.512820512820E-01  0.263551462626E-02
  0.986936813641E+00  0.000000000000E+00  0.114243729785E-02
  0.986936813822E+00  0.512820512820E-01  0.114243937225E-02
  0.986936813822E+00  0.102564102560E+00 -0.114243937225E-02
  0.999999571434E+00  0.102564102560E+00 -0.186758399904E-07
  0.969870633276E+00  0.102564102560E+00 -0.263551462626E-02
  0.947784990451E+00  0.102564102560E+00 -0.456772904277E-02
  0.919551395340E+00  0.102564102560E+00 -0.703781156060E-02
  0.884018056609E+00  0.102564102560E+00 -0.101465304796E-01
  0.840166796670E+00  0.102564102560E+00 -0.139829658665E-01
  0.787342589715E+00  0.102564102560E+00 -0.186044281892E-01
  0.725530687321E+00  0.102564102560E+00 -0.240122131272E-01
  0.655612585875E+00  0.102564102560E+00 -0.301292067376E-01
  0.579493880592E+00  0.102564102560E+00 -0.367886982470E-01
  0.500000000000E+00  0.102564102560E+00 -0.437435033352E-01
  0.420506119408E+00  0.102564102560E+00 -0.367886982470E-01
  0.344387414125E+00  0.102564102560E+00 -0.301292067376E-01
  0.274469312679E+00  0.102564102560E+00 -0.240122131272E-01
  0.212657410285E+00  0.102564102560E+00 -0.186044281892E-01
  0.159833203330E+00  0.102564102560E+00 -0.139829658665E-01
  0.115981943391E+00  0.102564102560E+00 -0.101465304796E-01
  0.804486046608E-01  0.102564102560E+00 -0.703781156060E-02
  0.522150095456E-01  0.102564102560E+00 -0.456772904277E-02
  0.301293667234E-01  0.102564102560E+00 -0.263551462626E-02
  0.130631861819E-01  0.102564102560E+00 -0.114243937225E-02
  0.430199504380E-06  0.102564102560E+00  0.000000000000E+00
  0.130631861819E-01  0.102564102560E+00  0.114243937225E-02
  0.301293667234E-01  0.102564102560E+00  0.263551462626E-02
  0.522150095456E-01  0.102564102560E+00  0.456772904277E-02
  0.804486046608E-01  0.102564102560E+00  0.703781156060E-02
  0.115981943391E+00  0.102564102560E+00  0.101465304796E-01
  0.159833203330E+00  0.102564102560E+00  0.139829658665E-01
  0.212657410285E+00  0.102564102560E+00  0.186044281892E-01
  0.274469312679E+00  0.102564102560E+00  0.240122131272E-01
  0.344387414125E+00  0.102564102560E+00  0.301292067376E-01
  0.420506119408E+00  0.102564102560E+00  0.367886982470E-01
  0.500000000000E+00  0.102564102560E+00  0.437435033352E-01
  0.579493880592E+00  0.102564102560E+00  0.367886982470E-01
  0.655612585875E+00  0.102564102560E+00  0.301292067376E-01
  0.725530687321E+00  0.102564102560E+00  0.240122131272E-01
  0.787342589715E+00  0.102564102560E+00  0.186044281892E-01
  0.840166796670E+00  0.102564102560E+00  0.139829658665E-01
  0.884018056609E+00  0.102564102560E+00  0.101465304796E-01
  0.919551395340E+00  0.102564102560E+00  0.703781156060E-02
  0.947784990451E+00  0.102564102560E+00  0.456772904277E-02
  0.969870633276E+00  0.102564102560E+00  0.263551462626E-02
  0.986936813822E+00  0.102564102560E+00  0.114243937225E-02
  0.986936813822E+00  0.153846153850E+00 -0.114243937225E-02
  0.999999571434E+00  0.153846153850E+00 -0.186758399890E-07
  0.969870633276E+00  0.153846153850E+00 -0.263551462626E-02
  0.947784990451E+00  0.153846153850E+00 -0.456772904277E-02
  0.919551395340E+00  0.153846153850E+00 -0.703781156060E-02
  0.884018056609E+00  0.153846153850E+00 -0.101465304796E-01
  0.840166796670E+00  0.153846153850E+00 -0.139829658665E-01
  0.787342589715E+00  0.153846153850E+00 -0.186044281892E-01
  0.725530687321E+00  0.153846153850E+00 -0.240122131272E-01
  0.655612585875E+00  0.153846153850E+00 -0.301292067376E-01
  0.579493880592E+00  0.153846153850E+00 -0.367886982470E-01
  0.500000000000E+00  0.153846153850E+00 -0.437435033352E-01
  0.420506119408E+00  0.153846153850E+00 -0.367886982470E-01
  0.344387414125E+00  0.153846153850E+00 -0.301292067376E-01
  0.274469312679E+00  0.153846153850E+00 -0.240122131272E-01
  0.212657410285E+00  0.153846153850E+00 -0.186044281892E-01
  0.159833203330E+00  0.153846153850E+00 -0.139829658665E-01
  0.115981943391E+00  0.153846153850E+00 -0.101465304796E-01
  0.804486046608E-01  0.153846153850E+00 -0.703781156060E-02
  0.522150095456E-01  0.153846153850E+00 -0.456772904277E-02
  0.301293667234E-01  0.153846153850E+00 -0.263551462626E-02
  0.130631861819E-01  0.153846153850E+00 -0.114243937225E-02
  0.430199504348E-06  0.153846153850E+00  0.000000000000E+00
  0.130631861819E-01  0.153846153850E+00  0.114243937225E-02
  0.301293667234E-01  0.153846153850E+00  0.263551462626E-02
  0.522150095456E-01  0.153846153850E+00  0.456772904277E-02
  0.804486046608E-01  0.153846153850E+00  0.703781156060E-02
  0.115981943391E+00  0.153846153850E+00  0.101465304796E-01
  0.159833203330E+00  0.153846153850E+00  0.139829658665E-01
[...]
POINT_DATA                3847
SCALARS phi float 1
LOOKUP_TABLE default
 -0.432779625938E-15
 -0.116009632456E-16
 -0.318913157733E-10
 -0.823993651089E-17
  0.823993651089E-17
 -0.954097911787E-17
 -0.130104260698E-17
 -0.346944695195E-17
  0.303576608296E-17
  0.190819582357E-16
  0.138777878078E-16
 -0.104083408559E-16
 -0.130104260698E-16
 -0.780625564190E-17
 -0.294902990916E-16
 -0.346944695195E-17
 -0.693889390391E-17
  0.693889390391E-17
  0.173472347598E-16
 -0.503069808033E-16
 -0.346944695195E-17
  0.867361737988E-16
  0.277555756156E-16
 -0.589805981832E-16
  0.000000000000E+00
  0.346944695195E-17
  0.173472347598E-16
  0.346944695195E-17
  0.173472347598E-16
  0.867361737988E-17
 -0.173472347598E-17
 -0.868746047322E-12
 -0.520417042793E-17
  0.173472347598E-17
 -0.374405367820E-13
  0.934322064161E-14
  0.173472347598E-17
  0.867361737988E-18
 -0.433680868994E-18
  0.000000000000E+00
 -0.433680868994E-18
 -0.216840434497E-18
 -0.216840434497E-18
 -0.216840434497E-18
 -0.992616735064E-23
  0.000000000000E+00
  0.000000000000E+00
  0.000000000000E+00
 -0.216840434497E-18
 -0.433680868994E-18
  0.000000000000E+00
  0.216840434497E-17
  0.000000000000E+00
  0.000000000000E+00
  0.520417042793E-17
 -0.346944695195E-17
  0.346944695195E-17
 -0.346944695195E-17
 -0.104083408559E-16
 -0.117470790040E-11
  0.736598282369E-12
 -0.164178393103E-11
  0.303327155060E-11
 -0.162412097660E-11
 -0.832538898932E-12
  0.119162318901E-11
 -0.614008843769E-11
  0.000000000000E+00
  0.109459663555E-11
  0.416333634234E-16
  0.693889390391E-17
 -0.277555756156E-16
  0.312250225676E-16
  0.208166817117E-16
 -0.364291929955E-16
 -0.156125112838E-16
 -0.138777878078E-16
  0.130104260698E-16
 -0.433680868994E-17
  0.164798730218E-16
  0.485722573274E-16
  0.112757025938E-16
 -0.203830008427E-16
  0.910729824888E-17
 -0.823993651089E-17
  0.693889390391E-17
 -0.245029690982E-16
 -0.856519716264E-17
  0.422838847269E-17
  0.103291256570E-12
  0.216840434497E-17
  0.633174068732E-16
  0.164798730218E-16
 -0.693889390391E-17
  0.954097911787E-17
  0.312250225676E-16
  0.138777878078E-16
 -0.659194920871E-16
 -0.208166817117E-16
  0.173472347598E-16
  0.693889390391E-17
 -0.138777878078E-16
  0.277555756156E-16
 -0.398986399475E-16
  0.867361737988E-17
 -0.117319348680E-12
 -0.346944695195E-17
  0.433680868994E-18
  0.433680868994E-18
  0.325260651746E-18
  0.661744490042E-23
  0.000000000000E+00
  0.000000000000E+00
 -0.130104260698E-17
 -0.867361737988E-18
 -0.173472347598E-17
  0.693889390391E-17
 -0.867361737988E-17
 -0.693889390391E-17
  0.000000000000E+00
 -0.104083408559E-16
  0.555111512313E-16
 -0.693889390391E-17
  0.277555756156E-16
 -0.346944695195E-17
 -0.208166817117E-16
  0.607153216592E-17
 -0.954097911787E-17
 -0.264545330086E-16
  0.195156391047E-16
 -0.147451495458E-16
  0.130104260698E-17
 -0.131188462871E-16
  0.156720815219E-10
 -0.333934269126E-16
 -0.164798730218E-16
  0.251534904017E-16
  0.459701721134E-16
  0.607153216592E-16
  0.260208521397E-16
  0.624500451352E-16
 -0.100613961607E-15
 -0.277555756156E-16
  0.693889390391E-17
  0.138777878078E-16
 -0.208166817117E-16
 -0.104083408559E-16
 -0.416333634234E-16
  0.000000000000E+00
  0.144761433743E-10
  0.867361737988E-18
 -0.433680868994E-18
 -0.433680868994E-18
  0.000000000000E+00
 -0.330872245021E-23
 -0.108420217249E-18
 -0.216840434497E-18
  0.867361737988E-18
  0.867361737988E-18
 -0.346944695195E-17
 -0.138777878078E-16
 -0.125443579135E-11
 -0.475697606306E-11
  0.173472347598E-16
 -0.312250225676E-16
  0.693889390391E-17
  0.693889390391E-17
 -0.208166817117E-16
  0.190819582357E-16
  0.693889390391E-17
  0.693889390391E-17
  0.433680868994E-16
  0.368628738645E-16
 -0.151788304148E-16
 -0.797972798949E-16
 -0.596311194867E-17
 -0.109504419421E-16
  0.631819196164E-11
  0.455364912444E-17
  0.359955121265E-16
  0.910729824888E-17
 -0.763278329430E-16
 -0.329597460436E-16
 -0.329597460436E-16
 -0.693889390391E-16
  0.693889390391E-17
  0.936750677027E-16
 -0.728583859910E-16
 -0.346944695195E-17
 -0.589805981832E-16
 -0.607153216592E-16
 -0.346944695195E-16
 -0.346944695195E-17
 -0.422722620796E-12
 -0.346944695195E-17
  0.867361737988E-18
  0.216840434497E-18
  0.000000000000E+00
  0.000000000000E+00
  0.000000000000E+00
  0.216840434497E-18
  0.867361737988E-18
  0.867361737988E-18
 -0.173472347598E-17
 -0.190819582357E-16
 -0.599631455600E-12
  0.208166817117E-16
  0.346944695195E-17
 -0.277555756156E-16
 -0.416333634234E-16
  0.555111512313E-16
 -0.520417042793E-16
 -0.416333634234E-16
 -0.555111512313E-16
 -0.208166817117E-16
 -0.728583859910E-16
 -0.216840434497E-17
 -0.112757025938E-16
  0.715573433840E-17
  0.190819582357E-16
 -0.162630325873E-17
 -0.113904163438E-10
 -0.672205346941E-17
 -0.268882138776E-16
 -0.706899816461E-16
 -0.355618312575E-16
 -0.364291929955E-16
 -0.173472347598E-16
  0.589805981832E-16
 -0.190819582357E-16
 -0.763278329430E-16
  0.204697370165E-15
  0.485722573274E-16
  0.242861286637E-16
 -0.173472347598E-16
 -0.728583859910E-16
  0.156125112838E-16
 -0.280981522771E-10
  0.607153216592E-17
  0.867361737988E-18
  0.000000000000E+00
  0.000000000000E+00
  0.000000000000E+00
  0.000000000000E+00
 -0.216840434497E-18
  0.867361737988E-18
  0.173472347598E-17
  0.867361737988E-18
  0.121430643318E-16
  0.201227923213E-15
 -0.589805981832E-16
 -0.346944695195E-17
 -0.104083408559E-16
  0.346944695195E-16
  0.555111512313E-16
 -0.624500451352E-16
 -0.173472347598E-16
  0.121430643318E-16
  0.320923843056E-16
  0.000000000000E+00
  0.472712147204E-16
  0.286229373536E-16
  0.104083408559E-16
 -0.137693675906E-16
 -0.157209315010E-16
  0.398724983999E-10
 -0.242861286637E-16
 -0.425007251614E-16
  0.190819582357E-16
 -0.130104260698E-16
  0.442354486374E-16
 -0.312250225676E-16
  0.902056207508E-16
 -0.225514051877E-16
  0.159594559790E-15
 -0.555111512313E-16
 -0.381639164715E-16
  0.693889390391E-17
  0.277555756156E-16
  0.225514051877E-16
  0.104083408559E-16
 -0.148549575418E-12
  0.130104260698E-16
  0.000000000000E+00
  0.433680868994E-18
  0.000000000000E+00
  0.330872245021E-23
  0.000000000000E+00
  0.216840434497E-18
  0.433680868994E-18
  0.173472347598E-17
 -0.260208521397E-17
  0.260208521397E-16
 -0.357353036051E-15
 -0.624500451352E-16
  0.346944695195E-17
  0.589805981832E-16
 -0.485722573274E-16
  0.555111512313E-16
 -0.763278329430E-16
  0.711236625150E-16
 -0.589805981832E-16
  0.320923843056E-16
  0.260208521397E-17
  0.260208521397E-17
 -0.394649590785E-16
  0.889045781438E-17
 -0.194072188875E-16
  0.368628738645E-17
  0.166849706184E-10
 -0.433680868994E-16
 -0.359955121265E-16
 -0.303576608296E-17
  0.607153216592E-17
 -0.157859836314E-15
  0.381639164715E-16
  0.142247325030E-15
  0.154390389362E-15
 -0.211636264069E-15
 -0.111022302463E-15
 -0.173472347598E-16
 -0.173472347598E-16
 -0.867361737988E-17
  0.520417042793E-17
 -0.520417042793E-17
  0.115394785741E-10
 -0.867361737988E-18
  0.867361737988E-18
  0.216840434497E-18
  0.000000000000E+00
  0.330872245021E-23
 -0.108420217249E-18
  0.433680868994E-18
  0.130104260698E-17
  0.260208521397E-17
 -0.867361737988E-17
 -0.346944695195E-17
  0.196023752785E-15
  0.693889390391E-17
  0.346944695195E-17
 -0.902056207508E-16
 -0.693889390391E-16
  0.000000000000E+00
 -0.624500451352E-16
  0.555111512313E-16
  0.641847686111E-16
 -0.182145964978E-16
 -0.416333634234E-16
  0.111022302463E-15
  0.307913416986E-16
 -0.654858112181E-16
  0.145283091113E-16
  0.640763483939E-16
  0.392447305122E-16
  0.127935856353E-16
 -0.780625564190E-17
 -0.542101086243E-16
 -0.390312782095E-16
  0.199493199737E-16
  0.260208521397E-16
  0.693889390391E-16
 -0.693889390391E-17
  0.555111512313E-16
 -0.239391839685E-15
  0.797972798949E-16
  0.346944695195E-16
  0.138777878078E-16
  0.589805981832E-16
  0.104083408559E-16
  0.867090947654E-11
  0.520417042793E-17
 -0.433680868994E-18
 -0.216840434497E-18
  0.000000000000E+00
 -0.330872245021E-23
 -0.108420217249E-18
 -0.650521303491E-18
 -0.433680868994E-18
  0.867361737988E-18
  0.260208521397E-17
  0.156125112838E-16
 -0.589805981832E-16
  0.000000000000E+00
  0.346944695195E-17
 -0.416333634234E-16
  0.000000000000E+00
  0.138777878078E-16
  0.312250225676E-16
  0.121430643318E-15
 -0.867361737988E-17
  0.104083408559E-16
 -0.520417042793E-17
  0.563785129692E-17
 -0.130104260698E-16
 -0.284060969191E-16
  0.867361737988E-17
  0.433680868994E-17
 -0.108370836244E-10
 -0.683047368666E-16
 -0.110588621594E-15
 -0.307913416986E-16
 -0.260208521397E-17
  0.121430643318E-16
  0.173472347598E-16
  0.451028103754E-16
  0.364291929955E-16
  0.867361737988E-16
  0.451028103754E-16
 -0.104083408559E-16
  0.208166817117E-16
 -0.138777878078E-16
 -0.173472347598E-16
 -0.173472347598E-16
 -0.176717147859E-12
 -0.780625564190E-17
 -0.867361737988E-18
 -0.216840434497E-18
  0.000000000000E+00
  0.330872245021E-23
  0.000000000000E+00
  0.216840434497E-18
  0.433680868994E-18
  0.867361737988E-18
  0.000000000000E+00
 -0.416333634234E-16
  0.225514051877E-16
  0.242861286637E-16
  0.208166817117E-16
 -0.312250225676E-16
  0.256739074445E-15
 -0.138777878078E-16
 -0.693889390391E-17
  0.173472347598E-17
  0.398986399475E-16
  0.910729824888E-16
 -0.954097911787E-17
 -0.628837260042E-16
 -0.806646416329E-16
 -0.461870125479E-16
 -0.108420217249E-16
 -0.780625564190E-17
  0.252610063672E-10
  0.216840434497E-17
  0.464038529824E-16
  0.498732999343E-16
  0.119695919842E-15
  0.485722573274E-16
  0.589805981832E-16
  0.329597460436E-16
 -0.693889390391E-16
 -0.121430643318E-15
  0.138777878078E-16
  0.208166817117E-16
  0.624500451352E-16
  0.867361737988E-17
 -0.867361737988E-17
  0.520417042793E-17
 -0.247077766233E-10
 -0.138777878078E-16
  0.867361737988E-18
 -0.650521303491E-18
  0.325260651746E-18
 -0.449913494422E-16
  0.000000000000E+00
  0.433680868994E-18
  0.433680868994E-18
  0.867361737988E-18
  0.000000000000E+00
  0.000000000000E+00
 -0.867361737988E-17
  0.381639164715E-16
  0.381639164715E-16
  0.000000000000E+00
 -0.763278329430E-16
  0.138777878078E-15
 -0.832667268469E-16
  0.832667268469E-16
 -0.121430643318E-16
 -0.390312782095E-16
  0.659194920871E-16
  0.533427468863E-16
  0.438017677684E-16
 -0.320923843056E-16
 -0.889045781438E-17
  0.157426155445E-15
  0.311697704797E-10
  0.238524477947E-17
 -0.719910242530E-16
  0.156125112838E-16
  0.954097911787E-17
 -0.143982048506E-15
 -0.589805981832E-16
 -0.346944695195E-17
 -0.329597460436E-16
  0.104083408559E-15
  0.242861286637E-16
 -0.693889390391E-17
  0.242861286637E-16
 -0.277555756156E-16
  0.451028103754E-16
  0.346944695195E-17
  0.300107161344E-15
 -0.346944695195E-17
  0.216840434497E-17
  0.130104260698E-17
  0.130104260698E-17
 -0.165436122511E-22
  0.650521303491E-18
  0.151788304148E-17
  0.130104260698E-17
 -0.867361737988E-18
  0.000000000000E+00
 -0.121430643318E-16
  0.277555756156E-16
 -0.728583859910E-16
  0.555111512313E-16
  0.312250225676E-16
 -0.763278329430E-16
 -0.971445146547E-16
  0.121430643318E-15
 -0.537764277553E-16
 -0.416333634234E-16
  0.260208521397E-16
 -0.537764277553E-16
 -0.867361737988E-17
 -0.255871712707E-16
  0.379470760370E-16
  0.145283091113E-16
  0.377302356025E-16
 -0.464174055095E-17
  0.431512464649E-16
 -0.169135538908E-16
 -0.238524477947E-16
 -0.176074432812E-15
 -0.273218947466E-15
 -0.520417042793E-17
  0.711236625150E-16
  0.104083408559E-16
  0.381639164715E-16
 -0.277555756156E-16
  0.693889390391E-17
  0.936750677027E-16
  0.329597460436E-16
  0.451028103754E-16
  0.867361737988E-17
  0.166552075950E-10
  0.260208521397E-17
  0.260208521397E-17
  0.867361737988E-18
  0.000000000000E+00
 -0.330872245021E-23
  0.000000000000E+00
 -0.216840434497E-18
  0.867361737988E-18
  0.000000000000E+00
 -0.182145964978E-16
  0.260208521397E-16
  0.624500451352E-16
 -0.520417042793E-16
  0.000000000000E+00
  0.485722573274E-16
 -0.277555756156E-16
 -0.277555756156E-16
 -0.589805981832E-16
 -0.555111512313E-16
  0.416333634234E-16
 -0.806646416329E-16
 -0.945424294407E-16
  0.137910516340E-15
  0.104517089428E-15
  0.715573433840E-17
 -0.203830008427E-16
 -0.615826833972E-16
 -0.104693272281E-17
 -0.626668855697E-16
 -0.810983225019E-16
 -0.183447007585E-15
 -0.242861286637E-15
  0.494396190653E-16
 -0.173472347598E-16
  0.189084858881E-15
 -0.346944695195E-17
 -0.138777878078E-16
 -0.104083408559E-16
 -0.138777878078E-16
  0.624500451352E-16
 -0.277555756156E-16
 -0.312250225676E-16
 -0.867361737988E-17
  0.144797368540E-13
 -0.867361737988E-18
  0.000000000000E+00
  0.216840434497E-18
  0.000000000000E+00
  0.000000000000E+00
  0.000000000000E+00
  0.216840434497E-18
  0.000000000000E+00
 -0.867361737988E-18
 -0.346944695195E-17
 -0.346944695195E-17
 -0.294902990916E-16
  0.381639164715E-16
  0.312250225676E-16
  0.416333634234E-16
  0.263677968348E-15
  0.277555756156E-16
  0.763278329430E-16
  0.225514051877E-16
  0.381639164715E-16
  0.615826833972E-16
 -0.260208521397E-17
 -0.511743425413E-16
  0.316587034366E-16
 -0.624500451352E-16
 -0.462954327651E-16
 -0.131188462871E-15
 -0.127763061632E-15
 -0.145066250679E-15
  0.589805981832E-16
 -0.247198095327E-16
 -0.294902990916E-16
  0.338271077815E-16
 -0.416333634234E-16
  0.711236625150E-16
 -0.121430643318E-15
 -0.124900090270E-15
 -0.159594559790E-15
 -0.867361737988E-16
 -0.138777878078E-16
 -0.242861286637E-16
  0.433680868994E-16
  0.693889390391E-17
 -0.374353508262E-10
  0.867361737988E-18
  0.433680868994E-18
  0.216840434497E-18
  0.000000000000E+00
  0.000000000000E+00
  0.000000000000E+00
  0.216840434497E-18
  0.433680868994E-18
  0.867361737988E-18
 -0.173472347598E-17
 -0.867361737988E-17
 -0.150920942410E-15
  0.416333634234E-16
 -0.451028103754E-16
  0.312250225676E-16
 -0.485722573274E-16
 -0.693889390391E-17
 -0.312250225676E-16
 -0.346944695195E-16
 -0.104083408559E-15
 -0.520417042793E-17
  0.182145964978E-16
  0.676542155631E-16
  0.178242837157E-15
  0.464038529824E-16
 -0.367544536473E-16
  0.948676900925E-16
 -0.180728743332E-13
 -0.780625564190E-16
  0.498732999343E-16
 -0.576795555762E-16
  0.199493199737E-15
  0.242861286637E-15
 -0.693889390391E-16
 -0.398986399475E-16
 -0.173472347598E-16
  0.867361737988E-16
 -0.936750677027E-16
  0.346944695195E-17
 -0.242861286637E-16
  0.485722573274E-16
 -0.346944695195E-17
  0.225514051877E-16
 -0.124812053054E-11
 -0.607153216592E-17
  0.000000000000E+00
  0.650521303491E-18
  0.000000000000E+00
  0.000000000000E+00
  0.000000000000E+00
  0.867361737988E-18
  0.000000000000E+00
  0.867361737988E-18
 -0.173472347598E-17
  0.190819582357E-16
 -0.208166817117E-15
 -0.589805981832E-16
  0.173472347598E-16
  0.173472347598E-16
 -0.131838984174E-15
 -0.138777878078E-16
  0.173472347598E-16
  0.624500451352E-16
 -0.225514051877E-16
  0.780625564190E-16
  0.346944695195E-17
 -0.104083408559E-16
  0.949761103097E-16
  0.507406616723E-16
  0.380554962542E-16
 -0.998550200859E-16
 -0.448930417919E-10
 -0.118611717670E-15
 -0.177375475419E-15
  0.124900090270E-15
  0.451028103754E-15
  0.954097911787E-17
 -0.100613961607E-15
 -0.145716771982E-15
 -0.971445146547E-16
 -0.971445146547E-16
  0.693889390391E-17
  0.104083408559E-15
  0.138777878078E-16
  0.693889390391E-17
 -0.329597460436E-16
 -0.173472347598E-17
  0.387403937055E-10
 -0.867361737988E-18
  0.000000000000E+00
  0.216840434497E-18
  0.216840434497E-18
  0.000000000000E+00
  0.000000000000E+00
  0.000000000000E+00
  0.433680868994E-18
  0.173472347598E-17
 -0.867361737988E-18
 -0.312250225676E-16
  0.536203026424E-14
  0.451028103754E-16
 -0.173472347598E-16
 -0.381639164715E-16
  0.416333634234E-16
  0.138777878078E-16
  0.346944695195E-17
  0.173472347598E-16
  0.555111512313E-16
 -0.607153216592E-16
 -0.143114686768E-15
 -0.837004077159E-16
 -0.381639164715E-16
  0.448859699409E-16
  0.704731412116E-17
  0.162413485438E-15
  0.635410235712E-16
  0.215973072759E-15
  0.871698546678E-16
  0.255871712707E-15
 -0.108420217249E-15
  0.702563007771E-16
  0.884708972748E-16
  0.745931094670E-16
 -0.105818132035E-15
 -0.117961196366E-15
 -0.971445146547E-16
 -0.520417042793E-16
  0.000000000000E+00
  0.520417042793E-17
 -0.346944695195E-17
  0.867361737988E-17
 -0.102611088029E-10
 -0.173472347598E-17
  0.867361737988E-18
  0.216840434497E-18
  0.108420217249E-18
  0.330872245021E-23
 -0.108420217249E-18
  0.000000000000E+00
  0.433680868994E-18
  0.867361737988E-18
  0.867361737988E-18
  0.156125112838E-16
  0.103111963412E-13
  0.346944695195E-16
  0.312250225676E-16
  0.312250225676E-16
  0.902056207508E-16
 -0.208166817117E-16
  0.451028103754E-16
  0.398986399475E-16
  0.537764277553E-16
  0.000000000000E+00
 -0.346944695195E-17
  0.260208521397E-17
 -0.144849410244E-15
 -0.748099499015E-16
  0.124791670053E-15
 -0.259124319224E-16
  0.376584399244E-10
 -0.780625564190E-16
  0.294902990916E-16
 -0.126634813746E-15
 -0.624500451352E-16
  0.919403442268E-16
  0.208166817117E-16
  0.468375338514E-16
 -0.168268177170E-15
  0.346944695195E-17
  0.416333634234E-16
  0.312250225676E-16
  0.208166817117E-16
  0.173472347598E-16
  0.451028103754E-16
 -0.867361737988E-17
 -0.216850209664E-10
 -0.693889390391E-17
 -0.433680868994E-18
 -0.216840434497E-18
 -0.108420217249E-18
  0.330872245021E-23
 -0.108420217249E-18
  0.000000000000E+00
  0.000000000000E+00
  0.867361737988E-18
  0.260208521397E-17
 -0.173472347598E-16
 -0.854333964684E-12
  0.312250225676E-16
  0.416333634234E-16
 -0.381639164715E-16
  0.346944695195E-16
  0.104083408559E-15
 -0.971445146547E-16
  0.728583859910E-16
 -0.225514051877E-16
  0.355618312575E-16
 -0.138777878078E-16
 -0.841340885849E-16
  0.177809156288E-16
  0.440186082029E-16
  0.420670442924E-16
  0.260208521397E-16
 -0.200751653528E-13
  0.474880551549E-16
  0.229850860567E-16
 -0.260208521397E-17
 -0.355618312575E-16
  0.294902990916E-16
 -0.520417042793E-17
 -0.312250225676E-16
 -0.537764277553E-16
  0.832667268469E-16
  0.152655665886E-15
  0.693889390391E-16
  0.693889390391E-17
  0.138777878078E-16
 -0.850014503229E-16
 -0.104083408559E-16
  0.329585304361E-09
  0.867361737988E-18
 -0.867361737988E-18
  0.216840434497E-18
 -0.108420217249E-18
 -0.330872245021E-23
  0.000000000000E+00
  0.216840434497E-18
 -0.433680868994E-18
 -0.867361737988E-18
  0.000000000000E+00
 -0.242861286637E-16
 -0.455401341637E-12
  0.346944695195E-17
 -0.173472347598E-16
  0.242861286637E-16
 -0.208166817117E-16
  0.971445146547E-16
  0.381639164715E-16
  0.381639164715E-16
  0.832667268469E-16
 -0.503069808033E-16
  0.954097911787E-17
  0.611490025282E-16
  0.702563007771E-16
 -0.797972798949E-16
 -0.155040910665E-16
  0.526922255828E-16
 -0.179255250204E-09
 -0.186482773668E-16
 -0.464038529824E-16
  0.429344060304E-16
  0.251534904017E-16
 -0.164798730218E-16
  0.173472347598E-16
  0.156125112838E-16
 -0.416333634234E-16
  0.138777878078E-16
  0.971445146547E-16
  0.242861286637E-16
 -0.242861286637E-16
 -0.138777878078E-16
 -0.503069808033E-16
 -0.173472347598E-17
 -0.607294128180E-10
  0.867361737988E-18
 -0.130104260698E-17
  0.216840434497E-18
 -0.108420217249E-18
 -0.330872245021E-23
  0.000000000000E+00
  0.000000000000E+00
  0.000000000000E+00
  0.000000000000E+00
 -0.260208521397E-17
 -0.173472347598E-16
 -0.105365369207E-12
 -0.346944695195E-16
  0.555111512313E-16
 -0.555111512313E-16
  0.763278329430E-16
  0.624500451352E-16
  0.659194920871E-16
 -0.451028103754E-16
  0.728583859910E-16
  0.242861286637E-16
 -0.780625564190E-17
 -0.351281503885E-16
 -0.117093834628E-16
 -0.290566182226E-16
  0.591974386177E-16
  0.151788304148E-17
  0.599535721226E-11
  0.607153216592E-16
  0.117093834628E-16
  0.204697370165E-15
 -0.398986399475E-16
  0.867361737988E-16
  0.433680868994E-16
  0.381639164715E-16
 -0.520417042793E-17
 -0.277555756156E-16
 -0.173472347598E-16
  0.520417042793E-16
  0.138777878078E-16
  0.260208521397E-16
 -0.346944695195E-17
  0.867361737988E-17
 -0.229690159254E-09
 -0.173472347598E-17
 -0.433680868994E-18
  0.433680868994E-18
  0.108420217249E-18
  0.000000000000E+00
 -0.108420217249E-18