# vtk DataFile Version 3.0
TriPan results file. Generated by TriPan, USU AeroLab (c) 2021.
ASCII
DATASET POLYDATA
POINTS                 446 float
  0.190349744366E-02  0.000000000000E+00  0.000000000000E+00
  0.180155439444E-02  0.217527970672E+00  0.000000000000E+00
  0.188619651827E-02  0.448061168194E+00  0.000000000000E+00
  0.195463115218E-02  0.689725637436E+00  0.000000000000E+00
  0.200381935583E-02  0.940178275108E+00  0.000000000000E+00
  0.203146979263E-02  0.119668114185E+01  0.000000000000E+00
  0.203625478170E-02  0.145621216297E+01  0.432309807279E-18
  0.201794494299E-02  0.171560299397E+01  0.000000000000E+00
  0.197742965724E-02  0.197169232368E+01  0.000000000000E+00
  0.191662923716E-02  0.222147774696E+01  0.000000000000E+00
  0.183830664114E-02  0.246225214005E+01  0.000000000000E+00
  0.174581819542E-02  0.269171094894E+01  0.370648277606E-18
  0.164282618113E-02  0.290802383423E+01  0.000000000000E+00
  0.153302818423E-02  0.310986590385E+01  0.000000000000E+00
  0.141992384673E-02  0.329641318321E+01  0.000000000000E+00
  0.130663581474E-02  0.346730756760E+01  0.000000000000E+00
  0.119580047662E-02  0.362259936333E+01  0.000000000000E+00
  0.108952656797E-02  0.376267743111E+01  0.000000000000E+00
  0.989381096661E-03  0.388819599152E+01  0.000000000000E+00
  0.971479789355E-04  0.399949033288E+01 -0.325828402727E-19
  0.342666600534E-01  0.000000000000E+00 -0.119376002534E-02
  0.342666600534E-01  0.000000000000E+00  0.119376002534E-02
  0.342698824337E-01  0.217527970672E+00 -0.115692804277E-02
  0.342698824337E-01  0.217527970672E+00  0.115692804277E-02
  0.342775173423E-01  0.448061168194E+00 -0.106966063919E-02
  0.342775173423E-01  0.448061168194E+00  0.106966063919E-02
  0.342838248119E-01  0.689725637436E+00 -0.997565933343E-03
  0.342838248119E-01  0.689725637436E+00  0.997565933343E-03
  0.342885274612E-01  0.940178275108E+00 -0.943814406113E-03
  0.342885274612E-01  0.940178275108E+00  0.943814406113E-03
  0.342914074361E-01  0.119668114185E+01 -0.910896143339E-03
  0.342914074361E-01  0.119668114185E+01  0.910896143339E-03
  0.342923267137E-01  0.145621216297E+01 -0.900388752406E-03
  0.342923267137E-01  0.145621216297E+01  0.900388752406E-03
  0.342912407103E-01  0.171560299397E+01 -0.912801828255E-03
  0.342912407103E-01  0.171560299397E+01  0.912801828255E-03
  0.342882027576E-01  0.197169232368E+01 -0.947525785931E-03
  0.342882027576E-01  0.197169232368E+01  0.947525785931E-03
  0.342833586936E-01  0.222147774696E+01 -0.100289368959E-02
  0.342833586936E-01  0.222147774696E+01  0.100289368959E-02
  0.342769326198E-01  0.246225214005E+01 -0.107634404818E-02
  0.342769326198E-01  0.246225214005E+01  0.107634404818E-02
  0.342692062149E-01  0.269171094894E+01 -0.116465725981E-02
  0.342692062149E-01  0.269171094894E+01  0.116465725981E-02
  0.342604944343E-01  0.290802383423E+01 -0.126423336595E-02
  0.342604944343E-01  0.290802383423E+01  0.126423336595E-02
  0.342511211565E-01  0.310986590385E+01 -0.137137042041E-02
  0.342511211565E-01  0.310986590385E+01  0.137137042041E-02
  0.342413979750E-01  0.329641318321E+01 -0.148250689126E-02
  0.342413979750E-01  0.329641318321E+01  0.148250689126E-02
  0.342316072375E-01  0.346730756760E+01 -0.159441553133E-02
  0.342316072375E-01  0.346730756760E+01  0.159441553133E-02
  0.342219908292E-01  0.362259936333E+01 -0.170433158034E-02
  0.342219908292E-01  0.362259936333E+01  0.170433158034E-02
  0.342127449763E-01  0.376267743111E+01 -0.181001216133E-02
  0.342127449763E-01  0.376267743111E+01  0.181001216133E-02
  0.342040185398E-01  0.388819599152E+01 -0.190975578472E-02
  0.342040185398E-01  0.388819599152E+01  0.190975578472E-02
  0.341703651092E-01  0.399986265213E+01 -0.229442133769E-02
  0.341703651092E-01  0.399986265213E+01  0.229442133769E-02
  0.341403165739E-01  0.400184427598E+01 -0.188507548451E-02
  0.341403165739E-01  0.400184427598E+01  0.188507548451E-02
  0.341336570292E-01  0.400271379329E+01 -0.122196032094E-19
  0.938944796530E-01  0.000000000000E+00 -0.624850703535E-02
  0.938944796530E-01  0.000000000000E+00  0.624850703535E-02
  0.938964513531E-01  0.217527970672E+00 -0.622597040666E-02
  0.938964513531E-01  0.217527970672E+00  0.622597040666E-02
  0.939039605542E-01  0.448061168194E+00 -0.614013984579E-02
  0.939039605542E-01  0.448061168194E+00  0.614013984579E-02
  0.939101736757E-01  0.689725637436E+00 -0.606912354413E-02
  0.939101736757E-01  0.689725637436E+00  0.606912354413E-02
  0.939148118631E-01  0.940178275108E+00 -0.601610882013E-02
  0.939148118631E-01  0.940178275108E+00  0.601610882013E-02
  0.939176561901E-01  0.119668114185E+01 -0.598359801449E-02
  0.939176561901E-01  0.119668114185E+01  0.598359801449E-02
  0.939185680090E-01  0.145621216297E+01 -0.597317587732E-02
  0.939185680090E-01  0.145621216297E+01  0.597317587732E-02
  0.939175025749E-01  0.171560299397E+01 -0.598535384381E-02
  0.939175025749E-01  0.171560299397E+01  0.598535384381E-02
  0.939145135250E-01  0.197169232368E+01 -0.601951884018E-02
  0.939145135250E-01  0.197169232368E+01  0.601951884018E-02
  0.939097474483E-01  0.222147774696E+01 -0.607399534563E-02
  0.939097474483E-01  0.222147774696E+01  0.607399534563E-02
  0.939034296032E-01  0.246225214005E+01 -0.614620864342E-02
  0.939034296032E-01  0.246225214005E+01  0.614620864342E-02
  0.938958431551E-01  0.269171094894E+01 -0.623292214103E-02
  0.938958431551E-01  0.269171094894E+01  0.623292214103E-02
  0.938873047692E-01  0.290802383423E+01 -0.633051633640E-02
  0.938873047692E-01  0.290802383423E+01  0.633051633640E-02
  0.938781400889E-01  0.310986590385E+01 -0.643526911029E-02
  0.938781400889E-01  0.310986590385E+01  0.643526911029E-02
  0.938686622919E-01  0.329641318321E+01 -0.654360082321E-02
  0.938686622919E-01  0.329641318321E+01  0.654360082321E-02
  0.938591548263E-01  0.346730756760E+01 -0.665227165035E-02
  0.938591548263E-01  0.346730756760E+01  0.665227165035E-02
  0.938498598112E-01  0.362259936333E+01 -0.675851415785E-02
  0.938498598112E-01  0.362259936333E+01  0.675851415785E-02
  0.938409723865E-01  0.376267743111E+01 -0.686009788503E-02
  0.938409723865E-01  0.376267743111E+01  0.686009788503E-02
  0.938326386285E-01  0.388819599152E+01 -0.695535317288E-02
  0.938326386285E-01  0.388819599152E+01  0.695535317288E-02
  0.938020228261E-01  0.399982191417E+01 -0.730529285109E-02
  0.938020228261E-01  0.399982191417E+01  0.730529285109E-02
  0.937759936759E-01  0.400537471243E+01 -0.537478190946E-02
  0.937759936759E-01  0.400537471243E+01  0.537478190946E-02
  0.937700081870E-01  0.400767115840E+01 -0.531059685571E-20
  0.190622368231E+00  0.000000000000E+00 -0.144884656727E-01
  0.190622368231E+00  0.000000000000E+00  0.144884656727E-01
  0.190622942239E+00  0.217527970672E+00 -0.144819047741E-01
  0.190622942239E+00  0.217527970672E+00  0.144819047741E-01
  0.190630235509E+00  0.448061168194E+00 -0.143985423066E-01
  0.190630235509E+00  0.448061168194E+00  0.143985423066E-01
  0.190636283885E+00  0.689725637436E+00 -0.143294090565E-01
  0.190636283885E+00  0.689725637436E+00  0.143294090565E-01
  0.190640807385E+00  0.940178275108E+00 -0.142777052053E-01
  0.190640807385E+00  0.940178275108E+00  0.142777052053E-01
  0.190643586096E+00  0.119668114185E+01 -0.142459443984E-01
  0.190643586096E+00  0.119668114185E+01  0.142459443984E-01
  0.190644480696E+00  0.145621216297E+01 -0.142357190716E-01
  0.190644480696E+00  0.145621216297E+01  0.142357190716E-01
  0.190643446174E+00  0.171560299397E+01 -0.142475437125E-01
  0.190643446174E+00  0.171560299397E+01  0.142475437125E-01
  0.190640536323E+00  0.197169232368E+01 -0.142808034669E-01
  0.190640536323E+00  0.197169232368E+01  0.142808034669E-01
  0.190635898251E+00  0.222147774696E+01 -0.143338168751E-01
  0.190635898251E+00  0.222147774696E+01  0.143338168751E-01
  0.190629757966E+00  0.246225214005E+01 -0.144040006542E-01
  0.190629757966E+00  0.246225214005E+01  0.144040006542E-01
  0.190622399387E+00  0.269171094894E+01 -0.144881095980E-01
  0.190622399387E+00  0.269171094894E+01  0.144881095980E-01
  0.190614139635E+00  0.290802383423E+01 -0.145825190040E-01
  0.190614139635E+00  0.290802383423E+01  0.145825190040E-01
  0.190605304110E+00  0.310986590385E+01 -0.146835095219E-01
  0.190605304110E+00  0.310986590385E+01  0.146835095219E-01
  0.190596204576E+00  0.329641318321E+01 -0.147875176743E-01
  0.190596204576E+00  0.329641318321E+01  0.147875176743E-01
  0.190587121410E+00  0.346730756760E+01 -0.148913387449E-01
  0.190587121410E+00  0.346730756760E+01  0.148913387449E-01
  0.190578291561E+00  0.362259936333E+01 -0.149922643858E-01
  0.190578291561E+00  0.362259936333E+01  0.149922643858E-01
  0.190569902593E+00  0.376267743111E+01 -0.150881507315E-01
  0.190569902593E+00  0.376267743111E+01  0.150881507315E-01
  0.190562090635E+00  0.388819599152E+01 -0.151774418214E-01
  0.190562090635E+00  0.388819599152E+01  0.151774418214E-01
  0.190534290081E+00  0.399976796102E+01 -0.154952050037E-01
  0.190534290081E+00  0.399976796102E+01  0.154952050037E-01
  0.190512351166E+00  0.401113143599E+01 -0.111316370339E-01
  0.190512351166E+00  0.401113143599E+01  0.111316370339E-01
  0.190505425757E+00  0.401582515114E+01 -0.268219081496E-17
  0.330039544037E+00  0.000000000000E+00 -0.264841781860E-01
  0.330039544037E+00  0.000000000000E+00  0.264841781860E-01
  0.330040409116E+00  0.217527970672E+00 -0.264742901773E-01
  0.330040409116E+00  0.217527970672E+00  0.264742901773E-01
  0.330047469038E+00  0.448061168194E+00 -0.263935949007E-01
  0.330047469038E+00  0.448061168194E+00  0.263935949007E-01
  0.330053335330E+00  0.689725637436E+00 -0.263265428815E-01
  0.330053335330E+00  0.689725637436E+00  0.263265428815E-01
  0.330057728574E+00  0.940178275108E+00 -0.262763278701E-01
  0.330057728574E+00  0.940178275108E+00  0.262763278701E-01
  0.330060428946E+00  0.119668114185E+01 -0.262454624787E-01
  0.330060428946E+00  0.119668114185E+01  0.262454624787E-01
[...]
POINT_DATA                 446
SCALARS phi float 1
LOOKUP_TABLE default
  0.240111234847E-03
  0.639679281766E-17
  0.791467585914E-17
 -0.814730847232E-05
 -0.975781955237E-17
  0.197324795392E-16
 -0.896754621750E-05
  0.346944695195E-17
  0.145283091113E-16
 -0.225284631669E-04
  0.975781955237E-18
  0.196240593220E-16
 -0.362363392482E-06
 -0.563785129692E-17
  0.305745012641E-16
  0.129513802027E-10
  0.147451495458E-16
 -0.106251812904E-15
 -0.113190706807E-15
  0.169406589451E-19
  0.293620091017E-05
  0.288983059884E-05
  0.641305125673E-05
 -0.173472347598E-17
  0.693889390391E-17
  0.517891345121E-07
 -0.186724804766E-04
 -0.386942991537E-08
 -0.177129298325E-04
  0.000000000000E+00
  0.000000000000E+00
  0.409940072935E-05
 -0.150919840680E-04
  0.196656847286E-05
  0.710696923288E-05
  0.346944695195E-17
  0.104083408559E-16
  0.892045959954E-04
  0.221015561949E-04
  0.769503459258E-05
  0.326871555881E-04
  0.000000000000E+00
 -0.693889390391E-17
  0.123943432652E-05
 -0.475917470439E-04
  0.532219580907E-11
 -0.272814418439E-04
  0.173472347598E-17
  0.590170100290E-11
  0.218603595581E-04
  0.888736817268E-06
  0.464083632634E-12
  0.634047716149E-05
 -0.346944695195E-17
  0.260208521397E-16
  0.440363514348E-04
  0.318644242936E-11
 -0.381494553528E-05
 -0.366161109330E-04
  0.150047356022E-03
  0.716129074834E-07
  0.546682253806E-08
  0.325627476033E-04
 -0.346944695195E-17
  0.693889390391E-17
  0.578102815618E-09
  0.138777878078E-16
  0.346944695195E-17
 -0.823533963940E-08
 -0.229543321850E-09
 -0.166687121397E-08
  0.107772283806E-08
 -0.134604272173E-09
  0.216117262974E-10
  0.120518563879E-09
  0.000000000000E+00
 -0.111383718221E-09
  0.856836785551E-09
 -0.224085656281E-09
  0.846677936095E-11
  0.347085971075E-10
 -0.346944695195E-17
  0.565731558821E-10
  0.239260906990E-07
  0.113842962834E-12
 -0.827206291625E-07
 -0.318558374124E-11
 -0.346944695195E-17
 -0.668958638483E-11
  0.221996032668E-11
  0.223264514168E-06
 -0.786852527579E-11
 -0.228748774783E-07
  0.503943819868E-07
  0.112848515255E-10
  0.171937811211E-11
  0.179110248133E-06
 -0.524169596616E-11
 -0.237560451675E-07
  0.265539153166E-11
  0.208206334666E-06
  0.180185994350E-05
  0.459442072512E-07
  0.934767205810E-07
 -0.242299347183E-07
  0.882361953728E-07
 -0.264820058556E-07
  0.134991924930E-08
 -0.179284898125E-06
 -0.195745086806E-10
  0.614906786600E-08
  0.342085845012E-06
  0.814018572340E-08
 -0.119686905956E-06
 -0.526135489343E-08
 -0.108081633841E-06
 -0.129470140716E-05
  0.661268766480E-08
 -0.162624623047E-05
 -0.143891714294E-06
 -0.147286515449E-07
  0.105269749849E-05
 -0.704528976806E-05
  0.121889133908E-06
  0.634415826449E-05
  0.143602177788E-07
  0.317728932708E-05
  0.370922099942E-05
  0.121067130498E-06
  0.178454674702E-05
 -0.181913565222E-06
  0.330064997174E-06
 -0.115080120090E-05
  0.168683670525E-06
  0.136130254707E-05
 -0.109789225371E-06
  0.502712134212E-07
  0.390216424239E-05
  0.237805707020E-05
 -0.716102897189E-07
  0.653978502339E-05
 -0.516867064183E-07
  0.820952934869E-07
  0.296487860504E-05
  0.183602983312E-03
 -0.244803411151E-04
  0.284458148291E-04
  0.456992106283E-04
  0.604157642892E-03
  0.265015464615E-06
  0.270856777146E-06
  0.958715777599E-07
 -0.213581942528E-06
  0.140501779045E-06
  0.182716196118E-06
 -0.693883111108E-07
  0.139251635362E-07
  0.595343413998E-06
 -0.183270379539E-06
 -0.370106387246E-06
  0.133714539303E-05
 -0.124133438989E-04
 -0.808990562762E-06
  0.118685779935E-05
 -0.158011642223E-05
 -0.609626748194E-06
  0.174747765191E-05
  0.723619593340E-05
 -0.190958437152E-05
  0.133754197972E-05
  0.726167458642E-05
 -0.258383890321E-05
  0.351114979411E-06
 -0.254001284362E-05
 -0.145093433988E-05
 -0.156151739347E-05
  0.292566740881E-05
 -0.162526724620E-04
 -0.362833746763E-04
  0.186898877015E-04
 -0.147704056774E-04
  0.186372625906E-05
  0.349687404492E-04
 -0.216357528744E-03
 -0.225504508216E-04
 -0.233131757541E-05
 -0.220958080894E-04
  0.201449392092E-03
 -0.446494306538E-04
  0.104394939681E-04
 -0.810427604931E-06
 -0.751990613036E-05
 -0.110009630405E-05
 -0.975901998906E-06
 -0.175322899296E-06
 -0.444596777310E-07
 -0.142105181818E-05
 -0.260824128413E-06
 -0.414139391789E-05
 -0.301612069711E-05
  0.233184086026E-06
 -0.208368981887E-05
 -0.109688153893E-05
 -0.634102599144E-06
  0.162256219607E-05
 -0.821355524937E-05
  0.109329305167E-04
 -0.455816864757E-05
 -0.280158495853E-05
 -0.201196570362E-05
 -0.173943422240E-05
  0.161207395109E-04
  0.378876907890E-05
 -0.506445786309E-05
  0.405075796359E-05
 -0.409599532208E-05
  0.321979246587E-05
 -0.382521215189E-05
  0.114550718192E-05
 -0.189559562370E-04
 -0.152894177297E-04
  0.192070087791E-05
 -0.291258898660E-04
  0.169858455721E-04
 -0.219295125092E-04
 -0.198439723247E-04
 -0.732983243604E-04
  0.624738590493E-04
 -0.941427093054E-04
  0.133775252484E-03
  0.284913327513E-03
 -0.248739473954E-03
 -0.123661453457E-03
 -0.204237784778E-04
 -0.180478354390E-03
  0.697602503014E-06
  0.628396193671E-06
  0.496795503568E-06
 -0.284444963215E-06
  0.221482532621E-05
  0.189481851446E-05
  0.251696857408E-06
 -0.193434017901E-07
  0.483697234488E-07
  0.146109851815E-05
  0.319726053508E-05
 -0.115445064279E-05
  0.275987138809E-05
 -0.129638150151E-05
 -0.490480299683E-05
 -0.205091222076E-05
  0.537828951291E-06
 -0.426735462027E-05
  0.365468832851E-04
 -0.639590769995E-05
 -0.244955336854E-05
 -0.230767765659E-05
  0.115384952300E-04
 -0.381343180652E-05
  0.400975265849E-05
  0.143243577228E-05
  0.669302479272E-04
  0.157159578092E-04
  0.275628105121E-04
 -0.207667872118E-04
 -0.750705795172E-04
  0.751386941812E-05
  0.795927769289E-04
  0.449721379024E-03
 -0.898937503198E-04
 -0.146759134324E-04
 -0.957617133739E-05
 -0.680552928905E-04
 -0.142484073493E-03
  0.649021003457E-04
  0.226797566254E-03
 -0.752304719369E-04
  0.796324629655E-05
  0.666941142244E-08
 -0.131978689508E-06
 -0.138054782363E-06
  0.125270697312E-05
  0.324720586014E-06
  0.119448444087E-07
 -0.823303344900E-05
  0.778918812470E-06
 -0.571483840559E-06
 -0.183439051014E-05
 -0.730449267854E-05
 -0.423923077193E-05
  0.640534673488E-05
  0.520972630685E-05
 -0.413857904389E-05
  0.701911404968E-05
 -0.361756611969E-05
 -0.719574912500E-05
  0.213070309323E-05
  0.140985933288E-04
 -0.192753323857E-04
  0.167304227119E-04
  0.140894475631E-04
 -0.495734487933E-04
 -0.124923747392E-04
  0.695811537988E-05
 -0.175990717375E-05
 -0.140317327437E-04
  0.947585758615E-04
  0.769012900560E-04
 -0.324598082926E-07
 -0.175399408520E-04
 -0.471280408081E-04
 -0.940971993614E-05
 -0.486033141730E-04
  0.182890504085E-04
  0.331180381837E-04
  0.522498438159E-04
  0.970728338054E-04
  0.199418074071E-03
  0.255483032095E-04
 -0.187854141817E-04
 -0.108726085050E-04
  0.252660758535E-05
  0.242969749153E-05
 -0.732070521221E-06
  0.345181239519E-05
 -0.127129940214E-04
 -0.179041546177E-04
  0.535409762561E-05
 -0.134863660490E-04
 -0.174827866773E-04
  0.117184817754E-04
 -0.286434854828E-05
  0.340849633210E-04
 -0.910199837052E-06
 -0.501958134654E-05
 -0.284978950928E-05
  0.122276294338E-04
  0.312215688275E-05
  0.254270450271E-04
  0.127491246643E-04
  0.151508128396E-04
 -0.805481160849E-04
  0.220411149454E-05
  0.579960914647E-04
  0.427515695375E-04
  0.494850799638E-04
 -0.135572107881E-04
 -0.170585043723E-04
 -0.344023233144E-04
 -0.301916920895E-04
  0.880515143562E-04
  0.283067869998E-04
 -0.795243893954E-05
 -0.137200159103E-04
 -0.882576831670E-04
 -0.391557568689E-04
 -0.340827969549E-04
  0.106849648383E-03
 -0.983593154515E-04
  0.642003558822E-04
  0.101981292133E-03
 -0.213045178929E-04
  0.747793355385E-03
 -0.973400069379E-04
 -0.531297165339E-05
 -0.195251493898E-04
 -0.135183562510E-05
  0.295187274619E-05
  0.725363690194E-06
  0.905767607768E-06
  0.629087733224E-06
 -0.214924793789E-06
  0.109327885987E-05
 -0.438180282844E-05
 -0.647765227438E-05
 -0.196140086437E-04
  0.111761059861E-04
 -0.168727863992E-05
  0.104690978101E-04
  0.499655052202E-05
  0.278242613804E-04
 -0.595906773235E-04
 -0.262494025773E-04
  0.396457534987E-04
  0.141785169208E-04
 -0.231581571315E-04
  0.251191757565E-04
 -0.226591281593E-04
  0.138138254796E-03
 -0.295279990954E-04
  0.264392672689E-04
  0.237866060310E-05
  0.188442314898E-03
 -0.728745510252E-04
 -0.671706629590E-03
  0.116156641559E-02
 -0.742483634557E-04
 -0.311163477103E-03
  0.195841580494E-04
  0.201570402485E-04
 -0.350945974410E-04
 -0.478872059050E-03
  0.110242732282E-03
  0.647558703133E-03
  0.319701582018E-04
  0.471674874534E-03
  0.384845677410E-03
 -0.284884489977E-04
  0.256565148056E-06
 -0.190368219319E-04
 -0.208627926304E-04
 -0.166186143821E-04
  0.824046601983E-04
 -0.224042774528E-03
 -0.166527276635E-03
 -0.186474769907E-03
 -0.863305767728E-04
 -0.437485798717E-04
 -0.309002488296E-04
  0.424276381416E-03
 -0.361862319588E-03
  0.780644272404E-03
 -0.187041441546E-03
  0.380296035355E-03
  0.227003313466E-04
 -0.153169217385E-02
  0.407241472672E-03
 -0.218148305921E-05
  0.481989890580E-04
 -0.195085867818E-04
 -0.314250923445E-05
  0.180946817524E-04
 -0.143523482934E-03
  0.455690323794E-04
  0.179920014860E-03
  0.238484261526E-04
  0.461766777014E-03
  0.188143120498E-04
 -0.117430788205E-03
  0.668959774044E-04
 -0.105454255222E-03
 -0.109377177953E-02
 -0.106853840528E-03
 -0.142966017861E-03
 -0.163191288814E-05
  0.272148024948E-04
SCALARS phi_mu float 1
LOOKUP_TABLE default
 -0.583086158560E-03
 -0.448956398344E-03
 -0.752141387398E-03
 -0.101703300685E-02
 -0.120042043008E-02
 -0.131187298666E-02
 -0.134303145987E-02
 -0.126469391614E-02
 -0.110865812726E-02
 -0.899983702909E-03
 -0.587779806912E-03
 -0.259588297739E-03
  0.857131950437E-04
  0.429096983858E-03
  0.751917685225E-03
  0.104062839642E-02
  0.128546341379E-02
  0.148076982722E-02
  0.162465276608E-02
 -0.237949131403E-04
 -0.146012850157E-01
 -0.146006368703E-01
 -0.154982134544E-01
 -0.155042997426E-01
 -0.161274049062E-01
 -0.161270572204E-01
 -0.166632359914E-01
 -0.166442952082E-01
 -0.170496942504E-01
 -0.170317259463E-01
 -0.172706129586E-01
 -0.172662680285E-01
 -0.173634111548E-01
 -0.173461098528E-01
 -0.172540140622E-01
 -0.172608738888E-01
 -0.170136260792E-01
 -0.169241626857E-01
 -0.165964384549E-01
 -0.166105671297E-01
 -0.160626880971E-01
 -0.160950706469E-01
 -0.154686056511E-01
 -0.154670264431E-01
 -0.148131707968E-01
 -0.147651943655E-01
 -0.140418413183E-01
 -0.140141183440E-01
 -0.132432890942E-01
 -0.132209150899E-01
 -0.124775229144E-01
 -0.124778060329E-01
 -0.117403628701E-01
 -0.117459799965E-01
 -0.110814909969E-01
 -0.110365806120E-01
 -0.105569249603E-01
 -0.105596739414E-01
 -0.345152192311E-02
 -0.321249378622E-02
 -0.496318977472E-02
 -0.493297949813E-02
 -0.449795194146E-02
 -0.202864267616E-01
 -0.202517789196E-01
 -0.220995436511E-01
 -0.220757711589E-01
 -0.226103921372E-01
 -0.225871845544E-01
 -0.230568283462E-01
 -0.230340696388E-01
 -0.233994113634E-01
 -0.233769828777E-01
 -0.236135684584E-01
 -0.235913262889E-01
 -0.236852905519E-01
 -0.236630820600E-01
 -0.236103520017E-01
 -0.235880186942E-01
 -0.233942716168E-01
 -0.233716531605E-01
 -0.230525011484E-01
 -0.230294472338E-01
 -0.226115641012E-01
 -0.225879597480E-01
 -0.221146747945E-01
 -0.220902677796E-01
 -0.216476800629E-01
 -0.216225596101E-01
 -0.215949696674E-01
 -0.215687537955E-01
 -0.191468268342E-01
 -0.191199339026E-01
 -0.175912882437E-01
 -0.175634719251E-01
 -0.164041153519E-01
 -0.163751100175E-01
 -0.153792210631E-01
 -0.153494628730E-01
 -0.144720780361E-01
 -0.144411391133E-01
 -0.435276735427E-02
 -0.425534277221E-02
 -0.697050426203E-02
 -0.658917897970E-02
 -0.676422684009E-02
 -0.291072584382E-01
 -0.289333847848E-01
 -0.287205506468E-01
 -0.286081520205E-01
 -0.295440149166E-01
 -0.294313621539E-01
 -0.302497161763E-01
 -0.301375357051E-01
 -0.307944079730E-01
 -0.306822120755E-01
 -0.311381614657E-01
 -0.310244878176E-01
 -0.312473792656E-01
 -0.311333095723E-01
 -0.311089993379E-01
 -0.309949590460E-01
 -0.307453495569E-01
 -0.306246536564E-01
 -0.301586334633E-01
 -0.300507360231E-01
 -0.294273579722E-01
 -0.293118084689E-01
 -0.285787307274E-01
 -0.284612354477E-01
 -0.276519942871E-01
 -0.275348891235E-01
 -0.266887400338E-01
 -0.265701955045E-01
 -0.257188103208E-01
 -0.256026211683E-01
 -0.247795064700E-01
 -0.246578045509E-01
 -0.238907836558E-01
 -0.237754624241E-01
 -0.230845870856E-01
 -0.229737497185E-01
 -0.224317224064E-01
 -0.223119766809E-01
 -0.592371107442E-02
 -0.579907999853E-02
 -0.100223860748E-01
 -0.907818729193E-02
 -0.953402595467E-02
 -0.417031148942E-01
 -0.411540695069E-01
 -0.395554055726E-01
 -0.392500090646E-01
 -0.402328730852E-01
 -0.399201553312E-01
 -0.408073562980E-01
 -0.404893213398E-01
 -0.412398416272E-01
 -0.409187730104E-01
 -0.415040768287E-01
 -0.411777447053E-01
 -0.415913529257E-01
 -0.412532724623E-01
 -0.414589483354E-01
 -0.411342063230E-01
 -0.411546753589E-01
 -0.408245729764E-01
 -0.406724075072E-01
 -0.403544290814E-01
 -0.400649864725E-01
 -0.397335483615E-01
 -0.393551067561E-01
 -0.390294441420E-01
 -0.385887252570E-01
 -0.382690908686E-01
 -0.380419607789E-01
 -0.377207314653E-01
 -0.376017310372E-01
 -0.373049638672E-01
 -0.353541108837E-01
 -0.350665076500E-01
 -0.342428172587E-01
 -0.338861207626E-01
 -0.340586712239E-01
 -0.335259810399E-01
 -0.160786915836E-01
 -0.158145130858E-01
 -0.108926473545E-01
 -0.101296857202E-01
 -0.168762514460E-01
 -0.148768973503E-01
 -0.155602735392E-01
 -0.505244508386E-01
 -0.489476481453E-01
 -0.510828758124E-01
 -0.503225554712E-01
 -0.509286154993E-01
 -0.503603939433E-01
 -0.513630497735E-01
 -0.505840465194E-01
 -0.520152831450E-01
 -0.512150872964E-01
 -0.524118039757E-01
 -0.515951634152E-01
 -0.525275194086E-01
 -0.517150831292E-01
 -0.523732559523E-01
 -0.515632067109E-01
 -0.519865136012E-01
 -0.511619434983E-01
 -0.513395590242E-01
 -0.505094302644E-01
 -0.509205139242E-01
 -0.501332156127E-01
 -0.508054390084E-01
 -0.502401356207E-01
 -0.505562905892E-01
 -0.497710141935E-01
 -0.493695703553E-01
 -0.486355892244E-01
 -0.488527047655E-01
 -0.481567467450E-01
 -0.490722107897E-01
 -0.493020844447E-01
 -0.499509167234E-01
 -0.490395318984E-01
 -0.321196573499E-01
 -0.310880460262E-01
 -0.187498389143E-01
 -0.179024741143E-01
 -0.144758894890E-01
 -0.131860263894E-01
 -0.230114662676E-01
 -0.191732969265E-01
 -0.236714645275E-01
 -0.262388540432E-01
 -0.258033275604E-01
 -0.270163994282E-01
 -0.264584962279E-01
 -0.274822451174E-01
 -0.268810596317E-01
 -0.277125800494E-01
 -0.270561613142E-01
 -0.278587394860E-01
 -0.271657286212E-01
 -0.279215009650E-01
 -0.272173439153E-01
 -0.279352122452E-01
 -0.272256413009E-01
 -0.279323631203E-01
 -0.272157776853E-01
 -0.278866929584E-01
 -0.271836100146E-01
 -0.277493329486E-01
 -0.271028666757E-01
 -0.276087382808E-01
 -0.269547058269E-01
 -0.273464119527E-01
 -0.267618652433E-01
 -0.270613636822E-01
 -0.265369527042E-01
 -0.286044245586E-01
 -0.282042995095E-01
 -0.317568369210E-01
 -0.316897705197E-01
 -0.318944640458E-01
 -0.311171263456E-01
 -0.233267769217E-01
 -0.222998559475E-01
  0.329002737999E-02
  0.381666421890E-02
  0.902235507965E-02
  0.916266441345E-02
 -0.134818851948E-01
 -0.961112976074E-02
 -0.107588768005E-01
 -0.808048248291E-02
 -0.840304791927E-02
 -0.130670145154E-01
 -0.126068592072E-01
 -0.140385590494E-01
 -0.135665982962E-01
 -0.139556974173E-01
 -0.135002583265E-01
 -0.139422714710E-01
 -0.134740769863E-01
 -0.139553248882E-01
 -0.134988427162E-01
 -0.139492005110E-01
 -0.134976506233E-01
 -0.139282494783E-01
 -0.134902000427E-01
 -0.139778107405E-01
 -0.135278701782E-01
 -0.140525102615E-01
 -0.136107802391E-01
 -0.141108185053E-01
 -0.136495232582E-01
 -0.143426358700E-01
 -0.138536691666E-01
 -0.141256302595E-01
 -0.137488245964E-01
 -0.147827267647E-01
 -0.143308639526E-01
 -0.146315991879E-01
 -0.142432451248E-01
 -0.129051804543E-01
 -0.149894952774E-01
 -0.120596438646E-01
 -0.111040472984E-01
  0.156191438437E-01
  0.162417888641E-01
  0.328369140625E-01
  0.332412719727E-01
  0.762224197388E-02
  0.777435302734E-02
 -0.543856620789E-02
 -0.231504440308E-02
 -0.260305404663E-02
  0.126361846924E-04
 -0.201687216759E-03
  0.237898528576E-02
  0.230017304420E-02
  0.615775585175E-03
  0.157892704010E-03
 -0.181889533997E-02
 -0.129961967468E-02
 -0.173532962799E-02
 -0.156426429749E-02
 -0.173854827881E-02
 -0.151705741882E-02
 -0.141441822052E-02
 -0.118732452393E-02
 -0.141429901123E-02
 -0.122737884521E-02
 -0.140881538391E-02
 -0.120258331299E-02
 -0.164580345154E-02
 -0.142955780029E-02
 -0.166702270508E-02
 -0.147247314453E-02
 -0.968933105469E-03
 -0.166702270508E-02
  0.389575958252E-03
  0.879287719727E-03
 -0.573158264160E-03
 -0.393867492676E-03
 -0.138950347900E-02
 -0.118064880371E-02
 -0.403785705566E-02
 -0.369071960449E-02
 -0.427436828613E-02
 -0.410652160645E-02
  0.334115028381E-01
  0.334682464600E-01
  0.434632301331E-01
  0.439084768295E-01
  0.108060836792E-01
  0.106515884399E-01
  0.276374816895E-02
  0.384712219238E-02
  0.484371185303E-02
  0.668334960938E-02
  0.605344772339E-02
  0.798559188843E-02
  0.800144672394E-02
  0.700092315674E-02
  0.703287124634E-02
  0.814199447632E-02
  0.817251205444E-02
  0.886249542236E-02
  0.888633728027E-02
  0.927162170410E-02
  0.928497314453E-02
  0.100173950195E-01
  0.100173950195E-01
  0.101127624512E-01
  0.101165771484E-01
  0.100517272949E-01
  0.100708007812E-01
  0.941467285156E-02
  0.935745239258E-02
  0.889587402344E-02
  0.899505615234E-02
  0.715637207031E-02
  0.715637207031E-02
  0.643920898438E-02
  0.643157958984E-02
  0.508880615234E-02
  0.495910644531E-02
  0.327301025391E-02
  0.329589843750E-02
  0.279235839844E-02
  0.257873535156E-02
  0.194854736328E-01
  0.213775634766E-01
  0.453491210938E-01
  0.449829101562E-01
  0.495758056641E-01
  0.496215820312E-01
  0.108795166016E-01
  0.105743408203E-01
  0.820899009705E-02
  0.906372070312E-02
  0.910234451294E-02
  0.999450683594E-02
  0.100116729736E-01
  0.216960906982E-03
  0.388145446777E-03
  0.249862670898E-03
  0.131607055664E-02
  0.155639648438E-02
  0.183105468750E-02
  0.160217285156E-02
  0.158691406250E-02
  0.129699707031E-02
  0.100708007812E-02
  0.610351562500E-04
 -0.305175781250E-03
 -0.122070312500E-02
 -0.152587890625E-02
  0.915527343750E-03
  0.201416015625E-01
  0.435791015625E-01
  0.301513671875E-01
  0.537109375000E-02
  0.878906250000E-02
  0.247478485107E-03
  0.492095947266E-03
  0.308990478516E-03
  0.139617919922E-02
  0.165557861328E-02
  0.167083740234E-02
  0.193786621094E-02
  0.199890136719E-02
  0.157165527344E-02
  0.161743164062E-02
  0.183105468750E-03
 -0.335693359375E-03
 -0.152587890625E-02
 -0.122070312500E-02
 -0.915527343750E-03
  0.202636718750E-01
  0.430908203125E-01
  0.301513671875E-01
  0.695800781250E-02
SCALARS phi_sigma float 1
LOOKUP_TABLE default
  0.823197393407E-03
  0.448956398344E-03
  0.752141387398E-03
  0.100888569837E-02
  0.120042043008E-02
  0.131187298666E-02
  0.133406391365E-02
  0.126469391614E-02
  0.110865812726E-02
  0.877455239742E-03
  0.587779806912E-03
  0.259588297739E-03
 -0.860755584362E-04
 -0.429096983858E-03
 -0.751917685225E-03
 -0.104062838347E-02
 -0.128546341379E-02
 -0.148076982722E-02
 -0.162465276608E-02
  0.237949131403E-04
  0.146042212167E-01
  0.146035267009E-01
  0.155046265057E-01
  0.155042997426E-01
  0.161274049062E-01
  0.161271090096E-01
  0.166445635109E-01
  0.166442913388E-01
  0.170319813206E-01
  0.170317259463E-01
  0.172706129586E-01
  0.172703674292E-01
  0.173483191708E-01
  0.173480764212E-01
  0.172611210314E-01
  0.172608738888E-01
  0.170136260792E-01
  0.170133672816E-01
  0.166185400111E-01
  0.166182621643E-01
  0.160953752527E-01
  0.160950706469E-01
  0.154686056511E-01
  0.154682658774E-01
  0.147655790498E-01
  0.147651943708E-01
  0.140145598764E-01
  0.140141183440E-01
  0.132432891001E-01
  0.132427754494E-01
  0.124784116512E-01
  0.124778060333E-01