# vtk DataFile Version 3.0
MachLine results file. Generated by MachLine, USU AeroLab (c) 2023.
ASCII
DATASET POLYDATA
POINTS                 312 float
  0.100000000000E+01  0.512820512820E-01  0.000000000000E+00
  0.100000000000E+01  0.000000000000E+00  0.000000000000E+00
  0.295000000000E+02  0.512820512820E-01  0.000000000000E+00
  0.295000000000E+02  0.000000000000E+00  0.000000000000E+00
  0.100000000000E+01  0.102564102560E+00  0.000000000000E+00
  0.100000000000E+01  0.512820512820E-01  0.000000000000E+00
  0.295000000000E+02  0.102564102560E+00  0.000000000000E+00
  0.295000000000E+02  0.512820512820E-01  0.000000000000E+00
  0.100000000000E+01  0.153846153850E+00  0.000000000000E+00
  0.100000000000E+01  0.102564102560E+00  0.000000000000E+00
  0.295000000000E+02  0.153846153850E+00  0.000000000000E+00
  0.295000000000E+02  0.102564102560E+00  0.000000000000E+00
  0.100000000000E+01  0.205128205130E+00  0.000000000000E+00
  0.100000000000E+01  0.153846153850E+00  0.000000000000E+00
  0.295000000000E+02  0.205128205130E+00  0.000000000000E+00
  0.295000000000E+02  0.153846153850E+00  0.000000000000E+00
  0.100000000000E+01  0.256410256410E+00  0.000000000000E+00
  0.100000000000E+01  0.205128205130E+00  0.000000000000E+00
  0.295000000000E+02  0.256410256410E+00  0.000000000000E+00
  0.295000000000E+02  0.205128205130E+00  0.000000000000E+00
  0.100000000000E+01  0.307692307690E+00  0.000000000000E+00
  0.100000000000E+01  0.256410256410E+00  0.000000000000E+00
  0.295000000000E+02  0.307692307690E+00  0.000000000000E+00
  0.295000000000E+02  0.256410256410E+00  0.000000000000E+00
  0.100000000000E+01  0.358974358970E+00  0.000000000000E+00
  0.100000000000E+01  0.307692307690E+00  0.000000000000E+00
  0.295000000000E+02  0.358974358970E+00  0.000000000000E+00
  0.295000000000E+02  0.307692307690E+00  0.000000000000E+00
  0.100000000000E+01  0.410256410260E+00  0.000000000000E+00
  0.100000000000E+01  0.358974358970E+00  0.000000000000E+00
  0.295000000000E+02  0.410256410260E+00  0.000000000000E+00
  0.295000000000E+02  0.358974358970E+00  0.000000000000E+00
  0.100000000000E+01  0.461538461540E+00  0.000000000000E+00
  0.100000000000E+01  0.410256410260E+00  0.000000000000E+00
  0.295000000000E+02  0.461538461540E+00  0.000000000000E+00
  0.295000000000E+02  0.410256410260E+00  0.000000000000E+00
  0.100000000000E+01  0.512820512820E+00  0.000000000000E+00
  0.100000000000E+01  0.461538461540E+00  0.000000000000E+00
  0.295000000000E+02  0.512820512820E+00  0.000000000000E+00
  0.295000000000E+02  0.461538461540E+00  0.000000000000E+00
  0.100000000000E+01  0.564102564100E+00  0.000000000000E+00
  0.100000000000E+01  0.512820512820E+00  0.000000000000E+00
  0.295000000000E+02  0.564102564100E+00  0.000000000000E+00
  0.295000000000E+02  0.512820512820E+00  0.000000000000E+00
  0.100000000000E+01  0.615384615380E+00  0.000000000000E+00
  0.100000000000E+01  0.564102564100E+00  0.000000000000E+00
  0.295000000000E+02  0.615384615380E+00  0.000000000000E+00
  0.295000000000E+02  0.564102564100E+00  0.000000000000E+00
  0.100000000000E+01  0.666666666670E+00  0.000000000000E+00
  0.100000000000E+01  0.615384615380E+00  0.000000000000E+00
  0.295000000000E+02  0.666666666670E+00  0.000000000000E+00
  0.295000000000E+02  0.615384615380E+00  0.000000000000E+00
  0.100000000000E+01  0.717948717950E+00  0.000000000000E+00
  0.100000000000E+01  0.666666666670E+00  0.000000000000E+00
  0.295000000000E+02  0.717948717950E+00  0.000000000000E+00
  0.295000000000E+02  0.666666666670E+00  0.000000000000E+00
  0.100000000000E+01  0.769230769230E+00  0.000000000000E+00
  0.100000000000E+01  0.717948717950E+00  0.000000000000E+00
  0.295000000000E+02  0.769230769230E+00  0.000000000000E+00
  0.295000000000E+02  0.717948717950E+00  0.000000000000E+00
  0.100000000000E+01  0.820512820510E+00  0.000000000000E+00
  0.100000000000E+01  0.769230769230E+00  0.000000000000E+00
  0.295000000000E+02  0.820512820510E+00  0.000000000000E+00
  0.295000000000E+02  0.769230769230E+00  0.000000000000E+00
  0.100000000000E+01  0.871794871790E+00  0.000000000000E+00
  0.100000000000E+01  0.820512820510E+00  0.000000000000E+00
  0.295000000000E+02  0.871794871790E+00  0.000000000000E+00
  0.295000000000E+02  0.820512820510E+00  0.000000000000E+00
  0.100000000000E+01  0.923076923080E+00  0.000000000000E+00
  0.100000000000E+01  0.871794871790E+00  0.000000000000E+00
  0.295000000000E+02  0.923076923080E+00  0.000000000000E+00
  0.295000000000E+02  0.871794871790E+00  0.000000000000E+00
  0.100000000000E+01  0.974358974360E+00  0.000000000000E+00
  0.100000000000E+01  0.923076923080E+00  0.000000000000E+00
  0.295000000000E+02  0.974358974360E+00  0.000000000000E+00
  0.295000000000E+02  0.923076923080E+00  0.000000000000E+00
  0.100000000000E+01  0.102564102560E+01  0.000000000000E+00
  0.100000000000E+01  0.974358974360E+00  0.000000000000E+00
  0.295000000000E+02  0.102564102560E+01  0.000000000000E+00
  0.295000000000E+02  0.974358974360E+00  0.000000000000E+00
  0.100000000000E+01  0.107692307690E+01  0.000000000000E+00
  0.100000000000E+01  0.102564102560E+01  0.000000000000E+00
  0.295000000000E+02  0.107692307690E+01  0.000000000000E+00
  0.295000000000E+02  0.102564102560E+01  0.000000000000E+00
  0.100000000000E+01  0.112820512820E+01  0.000000000000E+00
  0.100000000000E+01  0.107692307690E+01  0.000000000000E+00
  0.295000000000E+02  0.112820512820E+01  0.000000000000E+00
  0.295000000000E+02  0.107692307690E+01  0.000000000000E+00
  0.100000000000E+01  0.117948717950E+01  0.000000000000E+00
  0.100000000000E+01  0.112820512820E+01  0.000000000000E+00
  0.295000000000E+02  0.117948717950E+01  0.000000000000E+00
  0.295000000000E+02  0.112820512820E+01  0.000000000000E+00
  0.100000000000E+01  0.123076923080E+01  0.000000000000E+00
  0.100000000000E+01  0.117948717950E+01  0.000000000000E+00
  0.295000000000E+02  0.123076923080E+01  0.000000000000E+00
  0.295000000000E+02  0.117948717950E+01  0.000000000000E+00
  0.100000000000E+01  0.128205128210E+01  0.000000000000E+00
  0.100000000000E+01  0.123076923080E+01  0.000000000000E+00
  0.295000000000E+02  0.128205128210E+01  0.000000000000E+00
  0.295000000000E+02  0.123076923080E+01  0.000000000000E+00
  0.100000000000E+01  0.133333333330E+01  0.000000000000E+00
  0.100000000000E+01  0.128205128210E+01  0.000000000000E+00
  0.295000000000E+02  0.133333333330E+01  0.000000000000E+00
  0.295000000000E+02  0.128205128210E+01  0.000000000000E+00
  0.100000000000E+01  0.138461538460E+01  0.000000000000E+00
  0.100000000000E+01  0.133333333330E+01  0.000000000000E+00
  0.295000000000E+02  0.138461538460E+01  0.000000000000E+00
  0.295000000000E+02  0.133333333330E+01  0.000000000000E+00
  0.100000000000E+01  0.143589743590E+01  0.000000000000E+00
  0.100000000000E+01  0.138461538460E+01  0.000000000000E+00
  0.295000000000E+02  0.143589743590E+01  0.000000000000E+00
  0.295000000000E+02  0.138461538460E+01  0.000000000000E+00
  0.100000000000E+01  0.148717948720E+01  0.000000000000E+00
  0.100000000000E+01  0.143589743590E+01  0.000000000000E+00
  0.295000000000E+02  0.148717948720E+01  0.000000000000E+00
  0.295000000000E+02  0.143589743590E+01  0.000000000000E+00
  0.100000000000E+01  0.153846153850E+01  0.000000000000E+00
  0.100000000000E+01  0.148717948720E+01  0.000000000000E+00
  0.295000000000E+02  0.153846153850E+01  0.000000000000E+00
  0.295000000000E+02  0.148717948720E+01  0.000000000000E+00
  0.100000000000E+01  0.158974358970E+01  0.000000000000E+00
  0.100000000000E+01  0.153846153850E+01  0.000000000000E+00
  0.295000000000E+02  0.158974358970E+01  0.000000000000E+00
  0.295000000000E+02  0.153846153850E+01  0.000000000000E+00
  0.100000000000E+01  0.164102564100E+01  0.000000000000E+00
  0.100000000000E+01  0.158974358970E+01  0.000000000000E+00
  0.295000000000E+02  0.164102564100E+01  0.000000000000E+00
  0.295000000000E+02  0.158974358970E+01  0.000000000000E+00
  0.100000000000E+01  0.169230769230E+01  0.000000000000E+00
  0.100000000000E+01  0.164102564100E+01  0.000000000000E+00
  0.295000000000E+02  0.169230769230E+01  0.000000000000E+00
  0.295000000000E+02  0.164102564100E+01  0.000000000000E+00
  0.100000000000E+01  0.174358974360E+01  0.000000000000E+00
  0.100000000000E+01  0.169230769230E+01  0.000000000000E+00
  0.295000000000E+02  0.174358974360E+01  0.000000000000E+00
  0.295000000000E+02  0.169230769230E+01  0.000000000000E+00
  0.100000000000E+01  0.179487179490E+01  0.000000000000E+00
  0.100000000000E+01  0.174358974360E+01  0.000000000000E+00
  0.295000000000E+02  0.179487179490E+01  0.000000000000E+00
  0.295000000000E+02  0.174358974360E+01  0.000000000000E+00
  0.100000000000E+01  0.184615384620E+01  0.000000000000E+00
  0.100000000000E+01  0.179487179490E+01  0.000000000000E+00
  0.295000000000E+02  0.184615384620E+01  0.000000000000E+00
  0.295000000000E+02  0.179487179490E+01  0.000000000000E+00
  0.100000000000E+01  0.189743589740E+01  0.000000000000E+00
  0.100000000000E+01  0.184615384620E+01  0.000000000000E+00
  0.295000000000E+02  0.189743589740E+01  0.000000000000E+00
  0.295000000000E+02  0.184615384620E+01  0.000000000000E+00
  0.100000000000E+01  0.194871794870E+01  0.000000000000E+00
  0.100000000000E+01  0.189743589740E+01  0.000000000000E+00
  0.295000000000E+02  0.194871794870E+01  0.000000000000E+00
  0.295000000000E+02  0.189743589740E+01  0.000000000000E+00
  0.100000000000E+01  0.200000000000E+01  0.000000000000E+00
  0.100000000000E+01  0.194871794870E+01  0.000000000000E+00
  0.295000000000E+02  0.200000000000E+01  0.000000000000E+00
  0.295000000000E+02  0.194871794870E+01  0.000000000000E+00
  0.100000000000E+01  0.000000000000E+00  0.000000000000E+00
  0.100000000000E+01 -0.512820512820E-01  0.000000000000E+00
  0.295000000000E+02  0.000000000000E+00  0.000000000000E+00
  0.295000000000E+02 -0.512820512820E-01  0.000000000000E+00
  0.100000000000E+01 -0.512820512820E-01  0.000000000000E+00
[...]
POINT_DATA                 312
SCALARS mu float 1
LOOKUP_TABLE default
  0.424324902403E-15
 -0.213648183553E-15
  0.424324902403E-15
 -0.213648183553E-15
  0.215424248712E-14
  0.424324902403E-15
  0.215424248712E-14
  0.424324902403E-15
  0.158872699644E-14
  0.215424248712E-14
  0.158872699644E-14
  0.215424248712E-14
 -0.152857732746E-14
  0.158872699644E-14
 -0.152857732746E-14
  0.158872699644E-14
  0.176215111599E-14
 -0.152857732746E-14
  0.176215111599E-14
 -0.152857732746E-14
  0.351633349245E-14
  0.176215111599E-14
  0.351633349245E-14
  0.176215111599E-14
  0.180861089401E-14
  0.351633349245E-14
  0.180861089401E-14
  0.351633349245E-14
 -0.969821010048E-15
  0.180861089401E-14
 -0.969821010048E-15
  0.180861089401E-14
 -0.111209756275E-14
 -0.969821010048E-15
 -0.111209756275E-14
 -0.969821010048E-15
 -0.151112928102E-14
 -0.111209756275E-14
 -0.151112928102E-14
 -0.111209756275E-14
  0.183325787180E-15
 -0.151112928102E-14
  0.183325787180E-15
 -0.151112928102E-14
 -0.189213456894E-14
  0.183325787180E-15
 -0.189213456894E-14
  0.183325787180E-15
 -0.477299429148E-15
 -0.189213456894E-14
 -0.477299429148E-15
 -0.189213456894E-14
 -0.536161660583E-15
 -0.477299429148E-15
 -0.536161660583E-15
 -0.477299429148E-15
 -0.318232493964E-14
 -0.536161660583E-15
 -0.318232493964E-14
 -0.536161660583E-15
  0.261056457586E-15
 -0.318232493964E-14
  0.261056457586E-15
 -0.318232493964E-14
 -0.237429808989E-14
  0.261056457586E-15
 -0.237429808989E-14
  0.261056457586E-15
  0.237251796512E-14
 -0.237429808989E-14
  0.237251796512E-14
 -0.237429808989E-14
  0.250197245673E-14
  0.237251796512E-14
  0.250197245673E-14
  0.237251796512E-14
 -0.161171010300E-14
  0.250197245673E-14
 -0.161171010300E-14
  0.250197245673E-14
  0.867551039926E-15
 -0.161171010300E-14
  0.867551039926E-15
 -0.161171010300E-14
  0.106495255467E-14
  0.867551039926E-15
  0.106495255467E-14
  0.867551039926E-15
  0.108617406519E-14
  0.106495255467E-14
  0.108617406519E-14
  0.106495255467E-14
  0.131401237547E-14
  0.108617406519E-14
  0.131401237547E-14
  0.108617406519E-14
  0.221464556763E-14
  0.131401237547E-14
  0.221464556763E-14
  0.131401237547E-14
  0.141943748422E-14
  0.221464556763E-14
  0.141943748422E-14
  0.221464556763E-14
  0.258582218138E-14
  0.141943748422E-14
  0.258582218138E-14
  0.141943748422E-14
  0.312770642719E-14
  0.258582218138E-14
  0.312770642719E-14
  0.258582218138E-14
  0.725114412958E-15
  0.312770642719E-14
  0.725114412958E-15
  0.312770642719E-14
  0.247891984717E-14
  0.725114412958E-15
  0.247891984717E-14
  0.725114412958E-15
  0.167400815432E-14
  0.247891984717E-14
  0.167400815432E-14
  0.247891984717E-14
  0.298892854911E-14
  0.167400815432E-14
  0.298892854911E-14
  0.167400815432E-14
  0.149186218934E-14
  0.298892854911E-14
  0.149186218934E-14
  0.298892854911E-14
 -0.534294830601E-15
  0.149186218934E-14
 -0.534294830601E-15
  0.149186218934E-14
  0.485722573274E-16
 -0.534294830601E-15
  0.485722573274E-16
 -0.534294830601E-15
  0.133747179998E-14
  0.485722573274E-16
  0.133747179998E-14
  0.485722573274E-16
  0.106858966120E-14
  0.133747179998E-14
  0.106858966120E-14
  0.133747179998E-14
  0.765013052906E-15
  0.106858966120E-14
  0.765013052906E-15
  0.106858966120E-14
  0.000000000000E+00
  0.765013052906E-15
  0.000000000000E+00
  0.765013052906E-15
 -0.213648183553E-15
  0.172281610252E-14
 -0.213648183553E-15
  0.172281610252E-14
  0.172281610252E-14
 -0.193301760751E-14
  0.172281610252E-14
 -0.193301760751E-14
 -0.193301760751E-14
 -0.521824411008E-15
 -0.193301760751E-14
 -0.521824411008E-15
 -0.521824411008E-15
  0.236364967545E-14
 -0.521824411008E-15
  0.236364967545E-14
  0.236364967545E-14
 -0.677723727936E-15
  0.236364967545E-14
 -0.677723727936E-15
 -0.677723727936E-15
 -0.766570857829E-15
 -0.677723727936E-15
 -0.766570857829E-15
 -0.766570857829E-15
 -0.289389312819E-14
 -0.766570857829E-15
 -0.289389312819E-14
 -0.289389312819E-14
  0.177312692162E-14
 -0.289389312819E-14
  0.177312692162E-14
  0.177312692162E-14
  0.427316422876E-14
  0.177312692162E-14
  0.427316422876E-14
  0.427316422876E-14
  0.226809811591E-14
  0.427316422876E-14
  0.226809811591E-14
  0.226809811591E-14
 -0.192628355171E-15
  0.226809811591E-14
 -0.192628355171E-15
 -0.192628355171E-15
  0.229478725607E-14
 -0.192628355171E-15
  0.229478725607E-14
  0.229478725607E-14
  0.230804898293E-14
  0.229478725607E-14
  0.230804898293E-14
  0.230804898293E-14
  0.163439303588E-14
  0.230804898293E-14
  0.163439303588E-14
  0.163439303588E-14
  0.400457879916E-14
  0.163439303588E-14
  0.400457879916E-14
  0.400457879916E-14
  0.130837604181E-15
  0.400457879916E-14
  0.130837604181E-15
  0.130837604181E-15
  0.293806191021E-14
  0.130837604181E-15
  0.293806191021E-14
  0.293806191021E-14
 -0.103802612904E-14
  0.293806191021E-14
 -0.103802612904E-14
 -0.103802612904E-14
 -0.161706278400E-14
 -0.103802612904E-14
 -0.161706278400E-14
 -0.161706278400E-14
  0.318455109407E-14
 -0.161706278400E-14
  0.318455109407E-14
  0.318455109407E-14
 -0.660044461830E-15
  0.318455109407E-14
 -0.660044461830E-15
 -0.660044461830E-15
 -0.162644619554E-15
 -0.660044461830E-15
 -0.162644619554E-15
 -0.162644619554E-15
 -0.133788854019E-15
 -0.162644619554E-15
 -0.133788854019E-15
 -0.133788854019E-15
 -0.155959772007E-14
 -0.133788854019E-15
 -0.155959772007E-14
 -0.155959772007E-14
  0.643202938827E-15
 -0.155959772007E-14
  0.643202938827E-15
  0.643202938827E-15
 -0.701261965164E-15
  0.643202938827E-15
 -0.701261965164E-15
 -0.701261965164E-15
 -0.257671488313E-14
 -0.701261965164E-15
 -0.257671488313E-14
 -0.257671488313E-14
 -0.190038956793E-14
 -0.257671488313E-14
 -0.190038956793E-14
 -0.190038956793E-14
  0.177809156288E-15
 -0.190038956793E-14
  0.177809156288E-15
  0.177809156288E-15
 -0.230978430826E-14
  0.177809156288E-15
 -0.230978430826E-14
 -0.230978430826E-14
 -0.525621213221E-15
 -0.230978430826E-14
 -0.525621213221E-15
 -0.525621213221E-15
 -0.240953090813E-14
 -0.525621213221E-15
 -0.240953090813E-14
 -0.240953090813E-14
 -0.148665801891E-14
 -0.240953090813E-14
 -0.148665801891E-14
 -0.148665801891E-14
  0.456232274182E-15
 -0.148665801891E-14
  0.456232274182E-15
  0.456232274182E-15
  0.534294830601E-15
  0.456232274182E-15
  0.534294830601E-15
  0.534294830601E-15
 -0.704297731247E-15
  0.534294830601E-15
 -0.704297731247E-15
 -0.704297731247E-15
 -0.641847686111E-15
 -0.704297731247E-15
 -0.641847686111E-15
 -0.641847686111E-15
 -0.968843061333E-15
 -0.641847686111E-15
 -0.968843061333E-15
 -0.968843061333E-15
  0.000000000000E+00
 -0.968843061333E-15
  0.000000000000E+00
