# vtk DataFile Version 3.0
MachLine results file. Generated by MachLine, USU AeroLab (c) 2022.
ASCII
DATASET POLYDATA
POINTS                 419 float
  0.000000000000E+00 -0.200000000000E+01  0.000000000000E+00
  0.000000000000E+00 -0.177777777780E+01  0.000000000000E+00
  0.000000000000E+00 -0.155555555560E+01  0.000000000000E+00
  0.000000000000E+00 -0.133333333330E+01  0.000000000000E+00
  0.000000000000E+00 -0.111111111110E+01  0.000000000000E+00
  0.461625652960E-01 -0.200285523300E+01 -0.285523301140E-02
  0.461625652960E-01 -0.200157141480E+01 -0.372111000410E-02
  0.461625652960E-01 -0.200372111000E+01 -0.157141479860E-02
  0.461625652960E-01 -0.200000000000E+01 -0.403870114270E-02
  0.461625652960E-01 -0.200403870110E+01  0.000000000000E+00
  0.461625652960E-01 -0.200372111000E+01  0.157141479860E-02
  0.461625652960E-01 -0.200285523300E+01  0.285523301140E-02
  0.461625652960E-01 -0.200157141480E+01  0.372111000410E-02
  0.461625652960E-01 -0.200000000000E+01  0.403870114270E-02
  0.000000000000E+00 -0.888888888890E+00  0.000000000000E+00
  0.461625652960E-01 -0.177777777780E+01 -0.403870114270E-02
  0.461625652960E-01 -0.177777777780E+01  0.403870114270E-02
  0.000000000000E+00 -0.666666666670E+00  0.000000000000E+00
  0.461625652960E-01 -0.155555555560E+01 -0.403870114270E-02
  0.461625652960E-01 -0.155555555560E+01  0.403870114270E-02
  0.000000000000E+00 -0.444444444440E+00  0.000000000000E+00
  0.461625652960E-01 -0.133333333330E+01 -0.403870114270E-02
  0.461625652960E-01 -0.133333333330E+01  0.403870114270E-02
  0.000000000000E+00 -0.222222222220E+00  0.000000000000E+00
  0.461625652960E-01 -0.111111111110E+01 -0.403870114270E-02
  0.461625652960E-01 -0.111111111110E+01  0.403870114270E-02
  0.000000000000E+00  0.000000000000E+00  0.000000000000E+00
  0.461625652960E-01 -0.888888888890E+00 -0.403870114270E-02
  0.461625652960E-01 -0.888888888890E+00  0.403870114270E-02
  0.000000000000E+00  0.222222222220E+00  0.000000000000E+00
  0.461625652960E-01 -0.666666666670E+00 -0.403870114270E-02
  0.461625652960E-01 -0.666666666670E+00  0.403870114270E-02
  0.000000000000E+00  0.444444444440E+00  0.000000000000E+00
  0.461625652960E-01 -0.444444444440E+00 -0.403870114270E-02
  0.461625652960E-01 -0.444444444440E+00  0.403870114270E-02
  0.000000000000E+00  0.666666666670E+00  0.000000000000E+00
  0.461625652960E-01 -0.222222222220E+00 -0.403870114270E-02
  0.461625652960E-01 -0.222222222220E+00  0.403870114270E-02
  0.136815198560E+00 -0.200846225220E+01 -0.846225223590E-02
  0.136815198560E+00 -0.201102851200E+01 -0.465731109860E-02
  0.136815198560E+00 -0.200465731110E+01 -0.110285119730E-01
  0.136815198560E+00 -0.201196977890E+01 -0.491906455680E-18
  0.136815198560E+00 -0.200000000000E+01 -0.119697788720E-01
  0.136815198560E+00 -0.201102851200E+01  0.465731109860E-02
  0.136815198560E+00 -0.200846225220E+01  0.846225223590E-02
  0.136815198560E+00 -0.200465731110E+01  0.110285119730E-01
  0.136815198560E+00 -0.200000000000E+01  0.119697788720E-01
  0.000000000000E+00  0.888888888890E+00  0.000000000000E+00
  0.461625652960E-01  0.000000000000E+00 -0.403870114270E-02
  0.461625652960E-01  0.000000000000E+00  0.403870114270E-02
  0.136815198560E+00 -0.177777777780E+01 -0.119697788720E-01
  0.136815198560E+00 -0.177777777780E+01  0.119697788720E-01
  0.000000000000E+00  0.111111111110E+01  0.000000000000E+00
  0.461625652960E-01  0.222222222220E+00 -0.403870114270E-02
  0.461625652960E-01  0.222222222220E+00  0.403870114270E-02
  0.136815198560E+00 -0.155555555560E+01 -0.119697788720E-01
  0.136815198560E+00 -0.155555555560E+01  0.119697788720E-01
  0.000000000000E+00  0.133333333330E+01  0.000000000000E+00
  0.461625652960E-01  0.444444444440E+00 -0.403870114270E-02
  0.461625652960E-01  0.444444444440E+00  0.403870114270E-02
  0.136815198560E+00 -0.133333333330E+01 -0.119697788720E-01
  0.136815198560E+00 -0.133333333330E+01  0.119697788720E-01
  0.000000000000E+00  0.155555555560E+01  0.000000000000E+00
  0.461625652960E-01  0.666666666670E+00 -0.403870114270E-02
  0.461625652960E-01  0.666666666670E+00  0.403870114270E-02
  0.136815198560E+00 -0.111111111110E+01 -0.119697788720E-01
  0.136815198560E+00 -0.111111111110E+01  0.119697788720E-01
  0.000000000000E+00  0.177777777780E+01  0.000000000000E+00
  0.461625652960E-01  0.888888888890E+00 -0.403870114270E-02
  0.461625652960E-01  0.888888888890E+00  0.403870114270E-02
  0.136815198560E+00 -0.888888888890E+00 -0.119697788720E-01
  0.136815198560E+00 -0.888888888890E+00  0.119697788720E-01
  0.000000000000E+00  0.200000000000E+01  0.000000000000E+00
  0.461625652960E-01  0.111111111110E+01 -0.403870114270E-02
  0.461625652960E-01  0.111111111110E+01  0.403870114270E-02
  0.136815198560E+00 -0.666666666670E+00 -0.119697788720E-01
  0.136815198560E+00 -0.666666666670E+00  0.119697788720E-01
  0.461625652960E-01  0.133333333330E+01 -0.403870114270E-02
  0.461625652960E-01  0.133333333330E+01  0.403870114270E-02
  0.136815198560E+00 -0.444444444440E+00 -0.119697788720E-01
  0.136815198560E+00 -0.444444444440E+00  0.119697788720E-01
  0.461625652960E-01  0.155555555560E+01 -0.403870114270E-02
  0.461625652960E-01  0.155555555560E+01  0.403870114270E-02
  0.136815198560E+00 -0.222222222220E+00 -0.119697788720E-01
  0.136815198560E+00 -0.222222222220E+00  0.119697788720E-01
  0.461625652960E-01  0.177777777780E+01 -0.403870114270E-02
  0.461625652960E-01  0.177777777780E+01  0.403870114270E-02
  0.136815198560E+00  0.000000000000E+00 -0.119697788720E-01
  0.136815198560E+00  0.000000000000E+00  0.119697788720E-01
  0.461625652960E-01  0.200000000000E+01 -0.403870114270E-02
  0.461625652960E-01  0.200157141480E+01 -0.372111000410E-02
  0.461625652960E-01  0.200285523300E+01 -0.285523301140E-02
  0.461625652960E-01  0.200372111000E+01 -0.157141479860E-02
  0.461625652960E-01  0.200403870110E+01  0.000000000000E+00
  0.461625652960E-01  0.200000000000E+01  0.403870114270E-02
  0.461625652960E-01  0.200372111000E+01  0.157141479860E-02
  0.461625652960E-01  0.200157141480E+01  0.372111000410E-02
  0.461625652960E-01  0.200285523300E+01  0.285523301140E-02
  0.136815198560E+00  0.222222222220E+00 -0.119697788720E-01
  0.136815198560E+00  0.222222222220E+00  0.119697788720E-01
  0.136815198560E+00  0.444444444440E+00 -0.119697788720E-01
  0.136815198560E+00  0.444444444440E+00  0.119697788720E-01
  0.136815198560E+00  0.666666666670E+00 -0.119697788720E-01
  0.136815198560E+00  0.666666666670E+00  0.119697788720E-01
  0.136815198560E+00  0.888888888890E+00 -0.119697788720E-01
  0.136815198560E+00  0.888888888890E+00  0.119697788720E-01
  0.291245601200E+00 -0.201801403470E+01 -0.180140347410E-01
  0.291245601200E+00 -0.202347696480E+01 -0.991425941800E-02
  0.291245601200E+00 -0.200991425940E+01 -0.234769647950E-01
  0.291245601200E+00 -0.200000000000E+01 -0.254806884070E-01
  0.291245601200E+00 -0.202548068840E+01 -0.348697732350E-17
  0.291245601200E+00 -0.202347696480E+01  0.991425941800E-02
  0.291245601200E+00 -0.201801403470E+01  0.180140347410E-01
  0.136815198560E+00  0.111111111110E+01 -0.119697788720E-01
  0.291245601200E+00 -0.200991425940E+01  0.234769647950E-01
  0.291245601200E+00 -0.200000000000E+01  0.254806884070E-01
  0.136815198560E+00  0.111111111110E+01  0.119697788720E-01
  0.291245601200E+00 -0.177777777780E+01 -0.254806884070E-01
  0.136815198560E+00  0.133333333330E+01 -0.119697788720E-01
  0.291245601200E+00 -0.177777777780E+01  0.254806884070E-01
  0.136815198560E+00  0.133333333330E+01  0.119697788720E-01
  0.291245601200E+00 -0.155555555560E+01 -0.254806884070E-01
  0.136815198560E+00  0.155555555560E+01 -0.119697788720E-01
  0.291245601200E+00 -0.155555555560E+01  0.254806884070E-01
  0.136815198560E+00  0.155555555560E+01  0.119697788720E-01
  0.291245601200E+00 -0.133333333330E+01 -0.254806884070E-01
  0.136815198560E+00  0.177777777780E+01 -0.119697788720E-01
  0.291245601200E+00 -0.133333333330E+01  0.254806884070E-01
  0.136815198560E+00  0.177777777780E+01  0.119697788720E-01
  0.291245601200E+00 -0.111111111110E+01 -0.254806884070E-01
  0.136815198560E+00  0.200000000000E+01 -0.119697788720E-01
  0.136815198560E+00  0.200465731110E+01 -0.110285119730E-01
  0.136815198560E+00  0.200846225220E+01 -0.846225223590E-02
  0.291245601200E+00 -0.111111111110E+01  0.254806884070E-01
  0.136815198560E+00  0.201102851200E+01 -0.465731109860E-02
  0.136815198560E+00  0.200000000000E+01  0.119697788720E-01
  0.136815198560E+00  0.201196977890E+01 -0.491906455680E-18
  0.136815198560E+00  0.200465731110E+01  0.110285119730E-01
  0.136815198560E+00  0.201102851200E+01  0.465731109860E-02
  0.136815198560E+00  0.200846225220E+01  0.846225223590E-02
  0.291245601200E+00 -0.888888888890E+00 -0.254806884070E-01
  0.291245601200E+00 -0.888888888890E+00  0.254806884070E-01
  0.291245601200E+00 -0.666666666670E+00 -0.254806884070E-01
  0.291245601200E+00 -0.666666666670E+00  0.254806884070E-01
  0.291245601200E+00 -0.444444444440E+00 -0.254806884070E-01
  0.291245601200E+00 -0.444444444440E+00  0.254806884070E-01
  0.291245601200E+00 -0.222222222220E+00 -0.254806884070E-01
  0.291245601200E+00 -0.222222222220E+00  0.254806884070E-01
  0.291245601200E+00  0.000000000000E+00 -0.254806884070E-01
  0.291245601200E+00  0.000000000000E+00  0.254806884070E-01
  0.291245601200E+00  0.222222222220E+00 -0.254806884070E-01
  0.291245601200E+00  0.222222222220E+00  0.254806884070E-01
  0.291245601200E+00  0.444444444440E+00 -0.254806884070E-01
  0.291245601200E+00  0.444444444440E+00  0.254806884070E-01
  0.291245601200E+00  0.666666666670E+00 -0.254806884070E-01
  0.291245601200E+00  0.666666666670E+00  0.254806884070E-01
  0.291245601200E+00  0.888888888890E+00 -0.254806884070E-01
  0.291245601200E+00  0.888888888890E+00  0.254806884070E-01
  0.291245601200E+00  0.111111111110E+01 -0.254806884070E-01
  0.291245601200E+00  0.111111111110E+01  0.254806884070E-01
  0.291245601200E+00  0.133333333330E+01 -0.254806884070E-01
[...]
CELL_DATA                 800
SCALARS C_p_ise float 1
LOOKUP_TABLE default
 -0.403510451148E-01
 -0.403507746561E-01
 -0.403481895106E-01
 -0.403481913063E-01
 -0.403478037911E-01
 -0.403478115416E-01
 -0.403476668447E-01
 -0.403476647217E-01
  0.194725877804E+00
  0.194725877797E+00
  0.194725904678E+00
  0.194725902633E+00
  0.194725910949E+00
  0.194725910650E+00
  0.194725911293E+00
  0.194725911281E+00
  0.458785113398E-01
  0.458785113283E-01
  0.458785119309E-01
  0.458785116457E-01
  0.458785197009E-01
  0.458785176347E-01
  0.458785449840E-01
  0.458785443654E-01
 -0.125289468032E+00
 -0.125289467522E+00
 -0.125289339543E+00
 -0.125289343070E+00
 -0.125289024617E+00
 -0.125289027180E+00
 -0.125286829856E+00
 -0.125286609754E+00
 -0.403657296165E-01
 -0.403511489775E-01
 -0.403509546581E-01
 -0.403482428497E-01
 -0.403487492053E-01
 -0.403478266523E-01
 -0.403479762293E-01
 -0.403476762216E-01
  0.194725864199E+00
  0.194725661423E+00
  0.194725900037E+00
  0.194725838365E+00
  0.194725910505E+00
  0.194725904333E+00
  0.194725911278E+00
  0.194725911023E+00
  0.458785115762E-01
  0.458785113423E-01
  0.458785178834E-01
  0.458785120577E-01
  0.458785818585E-01
  0.458785220321E-01
  0.458787626924E-01
  0.458785576157E-01
 -0.125289458873E+00
 -0.125289221114E+00
 -0.125289324270E+00
 -0.125288502992E+00
 -0.125288982392E+00
 -0.125286718367E+00
 -0.125286524561E+00
 -0.125274224887E+00
 -0.404615759826E-01
 -0.403662412203E-01
 -0.403700993431E-01
 -0.403512431660E-01
 -0.403555794753E-01
 -0.403488695407E-01
 -0.403503086610E-01
 -0.403480263697E-01
  0.194725559361E+00
  0.194724045093E+00
  0.194725816604E+00
  0.194725306145E+00
  0.194725902779E+00
  0.194725837058E+00
  0.194725910979E+00
  0.194725907185E+00
  0.458785151058E-01
  0.458785116138E-01
  0.458785812046E-01
  0.458785192421E-01
  0.458790929531E-01
  0.458786012589E-01
  0.458803631892E-01
  0.458788561389E-01
 -0.125289173996E+00
 -0.125287351215E+00
 -0.125288404846E+00
 -0.125282382407E+00
 -0.125286472546E+00
 -0.125270583147E+00
 -0.125273799348E+00
 -0.125193452464E+00
 -0.410072306525E-01
 -0.404648569514E-01
 -0.404895476615E-01
 -0.403720341043E-01
 -0.404014221148E-01
 -0.403563982780E-01
 -0.403663085515E-01
 -0.403506587049E-01
  0.194723315285E+00
  0.194712821155E+00
  0.194725129563E+00
  0.194721075014E+00
  0.194725820593E+00
  0.194725132005E+00
  0.194725906529E+00
  0.194725849899E+00
  0.458785678092E-01
  0.458785156671E-01
  0.458792468602E-01
  0.458785956397E-01
  0.458832094801E-01
  0.458792522656E-01
  0.458917253121E-01
  0.458810447289E-01
 -0.125287011702E+00
 -0.125274399454E+00
 -0.125281700629E+00
 -0.125242803801E+00
 -0.125268971781E+00
 -0.125172122780E+00
 -0.125190798298E+00
 -0.124732676502E+00
 -0.435814545130E-01
 -0.410253754115E-01
 -0.411175178105E-01
 -0.405010304814E-01
 -0.406598659571E-01
 -0.404068443375E-01
 -0.404687688641E-01
 -0.403688038882E-01
  0.194707673945E+00
  0.194636605243E+00
  0.194719652486E+00
  0.194687911794E+00
  0.194724959090E+00
  0.194717845295E+00
  0.194725840099E+00
  0.194724994654E+00
  0.458793527956E-01
  0.458785761697E-01
  0.458860322464E-01
  0.458793964111E-01
  0.459140943713E-01
  0.458844405509E-01
  0.459636920222E-01
  0.458962221154E-01
 -0.125272209565E+00
 -0.125190514369E+00
 -0.125238396431E+00
 -0.124998956596E+00
 -0.125161990531E+00
 -0.124626978421E+00
 -0.124716943543E+00
 -0.122574599180E+00
 -0.531595224104E-01
 -0.436826237416E-01
 -0.440900289616E-01
 -0.411866571839E-01
 -0.421720915317E-01
 -0.406915840885E-01
 -0.410693655869E-01
 -0.404828068814E-01
  0.194606222618E+00
  0.194214092762E+00
  0.194677770874E+00
  0.194462707553E+00
  0.194716122593E+00
  0.194647181013E+00
  0.194724849542E+00
  0.194712331541E+00
  0.458911123278E-01
  0.458794780383E-01
  0.459550378948E-01
  0.458875896674E-01
  0.461497537349E-01
  0.459238462762E-01
  0.464203204028E-01
  0.459938376586E-01
 -0.125175562303E+00
 -0.124735583270E+00
 -0.124973106831E+00
 -0.123948811089E+00
 -0.124579223158E+00
 -0.122325340970E+00
 -0.122505679270E+00
 -0.113575898358E+00
 -0.985219718255E-01
 -0.536074539608E-01
 -0.636139321056E-01
 -0.442217230577E-01
 -0.438819948004E-01
 -0.423081294432E-01
 -0.430218361829E-01
 -0.411703980584E-01
  0.194009871348E+00
  0.191715872263E+00
  0.194378420427E+00
  0.192702723560E+00
  0.194628700726E+00
  0.193918332621E+00
  0.194710090255E+00
  0.194516789326E+00
  0.460604339871E-01
  0.458929152010E-01
  0.465430190932E-01
  0.459689563750E-01
  0.474127754524E-01
  0.462064657455E-01
  0.483762277020E-01
  0.465587374914E-01
 -0.124673514590E+00
 -0.121848828165E+00
 -0.123804256211E+00
 -0.115884903234E+00
 -0.121994406844E+00
 -0.121838011429E+00
 -0.113318335441E+00
 -0.979655238396E-01
 -0.186663715685E+00
 -0.103376922076E+00
 -0.116486065180E+00
 -0.676149811944E-01
 -0.933800883895E-01
 -0.459298773927E-01
 -0.763189618300E-01
 -0.432582254583E-01
  0.191124784132E+00
  0.184582036556E+00
  0.192429828702E+00
  0.188172073529E+00
  0.193804320641E+00
  0.189951730158E+00
  0.194490304752E+00
  0.192211828381E+00
  0.491265279742E-01
  0.460929318323E-01
  0.535698237602E-01
  0.467166472808E-01
  0.591871795001E-01
  0.479565144156E-01
  0.566781607024E-01
  0.491974002859E-01
 -0.121457206489E+00
 -0.134382374456E+00
 -0.116226872612E+00
 -0.127953411493E+00
 -0.122554767621E+00
 -0.112272663196E+00
 -0.986479053019E-01
 -0.731518487186E-02
 -0.126044061456E+00
 -0.187886422290E+00
 -0.100758271014E+00
 -0.120766406445E+00
 -0.764286308816E-01
 -0.101628007931E+00
 -0.102181532176E+00
 -0.854739115726E-01
  0.167138721942E+00
  0.101323410714E+00
  0.179475820589E+00
  0.106018096076E+00
  0.186425914866E+00
  0.107086360137E+00
  0.191130896640E+00
  0.107348197479E+00
  0.464405849099E-01
  0.490976835821E-01
  0.439447429353E-01
  0.533011216903E-01
  0.389497779237E-01
  0.579738930721E-01
  0.306709299212E-01
  0.535476528030E-01
 -0.136167513056E+00
 -0.944658013347E-01
 -0.127439799188E+00
 -0.953969538476E-03
 -0.110228946077E+00
  0.468566344297E-01
 -0.702163908550E-02
  0.117050922504E+00
 -0.153350101800E+00
 -0.130115724259E+00
 -0.123435742252E+00
 -0.101541833189E+00
 -0.944027330649E-01
 -0.111211977175E+00
 -0.131111323689E+00
  0.289482096606E-01
  0.296814477813E-01
  0.299367655922E-01
  0.313730645809E-01
  0.307651042103E-01
  0.316187669637E-01
  0.311793337543E-01
  0.314603404697E-01
  0.296998909161E-01
  0.306379783951E-01
  0.273898461012E-01
  0.285823951004E-01
  0.236371917303E-01
  0.243232793571E-01
 -0.958605880371E-01
 -0.782904027178E-01
 -0.147897626253E-01
 -0.497414791911E-01
 -0.236775560316E-01
 -0.104591657007E+00
 -0.668822881955E-01
 -0.190212544540E+00
 -0.173755754223E+00
 -0.146345475661E+00
 -0.130496934518E+00
 -0.104125341401E+00
 -0.121188074216E+00
 -0.114861208195E+00
  0.111694243044E-01
  0.128983508465E-01
  0.136361576004E-01
  0.154786855385E-01
  0.153538501433E-01
  0.163571796298E-01
  0.161486130232E-01
  0.360942275838E-01
  0.348734401523E-01
  0.350459344565E-01
  0.327705217797E-01
  0.326816231554E-01
  0.291226923139E-01
  0.282536302952E-01
 -0.725940601963E-01
 -0.710956955364E-01
 -0.246046350595E-01
 -0.753510096367E-01
 -0.631596297386E-01
 -0.159079664711E+00
 -0.138853520568E+00
 -0.216678695226E+00
 -0.207604727081E+00
 -0.156109362650E+00
 -0.147193446514E+00
 -0.996073808142E-01
 -0.121922118222E+00
 -0.916290408542E-01
  0.961689117788E-02
  0.114395970387E-01
  0.127961531444E-01
  0.144860166326E-01
  0.148738034031E-01
  0.158942279200E-01
  0.159553688293E-01
  0.373383770733E-01
  0.365664232234E-01
  0.360390451503E-01
  0.345730287895E-01
  0.333414402075E-01
  0.308963444621E-01
  0.287118256256E-01
 -0.602436369142E-01
 -0.743983247186E-01
 -0.422703037316E-01
 -0.101641089842E+00
 -0.100834447326E+00
 -0.196043252916E+00
 -0.188409817840E+00
 -0.226116160525E+00
 -0.224591013538E+00
 -0.149974314838E+00
 -0.149286705772E+00
 -0.826308056415E-01
 -0.114801299717E+00
 -0.677583736995E-01
  0.160832851631E-01
  0.175529115392E-01
  0.197356116899E-01
  0.210452812625E-01
  0.220329746489E-01
  0.228341210947E-01
  0.232092753124E-01
  0.321687742568E-01
  0.317854056915E-01
  0.308018915954E-01
  0.300278936460E-01
  0.280930625482E-01
  0.265755968335E-01
  0.236602072920E-01
 -0.621765779317E-01
 -0.861559625716E-01
 -0.655910033654E-01
 -0.124224246297E+00
 -0.132385101447E+00
 -0.215393199667E+00
 -0.216954028538E+00
 -0.403605392500E-01
 -0.403506838722E-01
 -0.403503587953E-01
 -0.403481457228E-01
 -0.403485656350E-01
 -0.403477929990E-01
 -0.403478881263E-01
 -0.403476574289E-01
  0.194725888274E+00
  0.194725707580E+00
  0.194725906245E+00
  0.194725867710E+00
  0.194725911013E+00
  0.194725908480E+00
  0.194725911294E+00
  0.194725911234E+00
  0.458785113821E-01
  0.458785113276E-01
  0.458785139511E-01
  0.458785115905E-01
  0.458785528181E-01
  0.458785162450E-01
  0.458787124958E-01
  0.458785347782E-01
 -0.125289474629E+00
 -0.125289284883E+00
 -0.125289354912E+00
 -0.125288681910E+00
 -0.125289062566E+00
 -0.125287199429E+00
 -0.125286904124E+00
 -0.125278540741E+00
 -0.404200893008E-01
 -0.403601762520E-01
 -0.403633957333E-01
 -0.403501646563E-01
 -0.403532572074E-01
 -0.403484945163E-01
 -0.403493282663E-01
 -0.403478606798E-01
  0.194725771905E+00
  0.194724646394E+00
  0.194725878006E+00
  0.194725611513E+00
  0.194725908994E+00
  0.194725886034E+00
  0.194725911243E+00
  0.194725910467E+00
  0.458785120847E-01
  0.458785113747E-01
  0.458785349121E-01
  0.458785135057E-01
  0.458787970290E-01
  0.458785437057E-01
  0.458797540031E-01
  0.458786541006E-01
 -0.125289310693E+00
 -0.125288096918E+00
 -0.125288741012E+00
 -0.125284575461E+00
 -0.125287362610E+00
 -0.125276202582E+00
 -0.125278839439E+00
 -0.125228008566E+00
 -0.407217710902E-01
 -0.404181385866E-01
 -0.404341679451E-01
 -0.403622958393E-01
 -0.403800321719E-01
 -0.403528470639E-01
 -0.403577741926E-01
 -0.403491660936E-01
  0.194725036567E+00
  0.194718349358E+00
  0.194725682076E+00
  0.194723881588E+00
  0.194725890629E+00
  0.194725686569E+00
  0.194725910580E+00
  0.194725900622E+00
  0.458785210992E-01
  0.458785119887E-01
  0.458787209486E-01
  0.458785309307E-01
  0.458804338435E-01
  0.458787350403E-01
  0.458859830477E-01
  0.458793981417E-01
 -0.125288251018E+00
 -0.125281113701E+00
 -0.125284918337E+00
 -0.125261428226E+00
 -0.125277119777E+00
 -0.125217102601E+00
 -0.125229597488E+00
 -0.124971975868E+00
 -0.420634202677E-01
 -0.407118666943E-01
 -0.407829416808E-01
 -0.404283601020E-01
 -0.405176333920E-01
 -0.403776925824E-01
 -0.404052288039E-01
 -0.403568141205E-01
  0.194720654773E+00
  0.194681992158E+00
  0.194724349069E+00
  0.194712665138E+00
  0.194725727188E+00
  0.194723942118E+00
  0.194725902068E+00
  0.194725774457E+00
  0.458786366579E-01
  0.458785198685E-01
  0.458803534513E-01
  0.458786856460E-01
  0.458912176364E-01
  0.458800170764E-01
  0.459208899259E-01
  0.458839258714E-01
 -0.125281991767E+00
 -0.125242216437E+00
 -0.125263349858E+00
 -0.125138028667E+00
 -0.125222083601E+00
 -0.124917372004E+00
 -0.124980387024E+00
 -0.123831309352E+00
 -0.466479817328E-01
 -0.420170550439E-01
 -0.422655589096E-01
 -0.407530955205E-01
 -0.412267676102E-01
 -0.405058316095E-01
 -0.406433490594E-01
 -0.404002068354E-01
  0.194694465927E+00
  0.194495149149E+00
  0.194715761992E+00
  0.194640468106E+00
  0.194724299115E+00
  0.194708854789E+00
  0.194725793011E+00
  0.194724155364E+00
  0.458801170139E-01
  0.458786208913E-01
  0.458942768372E-01
  0.458800473955E-01
  0.459573006536E-01
  0.458885809724E-01
  0.461139238483E-01
  0.459092211833E-01
 -0.125247240828E+00
 -0.125040494417E+00
 -0.125148392833E+00
 -0.124571848677E+00
 -0.124941359629E+00
 -0.123798130315E+00
 -0.123866627273E+00
 -0.119903005943E+00
 -0.611822834819E-01
 -0.465330432364E-01
 -0.457265129060E-01
 -0.421720726526E-01
 -0.429520623165E-01
 -0.411637796363E-01
 -0.418584331865E-01
 -0.406141124667E-01
  0.194563758637E+00
  0.193472228750E+00
  0.194658434611E+00
  0.194242552897E+00
  0.194711830574E+00
  0.194586484672E+00
  0.194724391697E+00
  0.194703531246E+00
  0.458991971871E-01
  0.458799137988E-01
  0.460130275755E-01
  0.458916012857E-01
  0.463727343119E-01
  0.459400053713E-01
  0.469405257200E-01
  0.460581940742E-01
 -0.125062791532E+00
 -0.124147466997E+00
 -0.124617516322E+00
 -0.122061969055E+00
 -0.123910310879E+00
 -0.118695719570E+00
 -0.120084699799E+00
 -0.107580976270E+00
 -0.110393445470E+00
 -0.601639240632E-01
 -0.770867771651E-01
 -0.449827231174E-01
 -0.653030253586E-01
 -0.428112990019E-01
 -0.446095567656E-01
 -0.417850177796E-01
  0.193715847226E+00
  0.190866339870E+00
  0.194365323753E+00
  0.191660412099E+00
  0.194613263744E+00
  0.193526146374E+00
  0.194706670709E+00
  0.194429517283E+00
  0.461357435343E-01
  0.458966776324E-01
  0.468608770070E-01
  0.459929008042E-01
  0.481830850421E-01
  0.462893836767E-01
  0.519570112825E-01
  0.466184942850E-01
 -0.124298099423E+00
 -0.121299773907E+00
 -0.122274068191E+00
 -0.127245358583E+00
 -0.118617461463E+00
 -0.125082271129E+00
 -0.107226827979E+00
 -0.988569297357E-01
 -0.146456469520E+00
 -0.109954552472E+00
 -0.102735307267E+00
 -0.763308865218E-01
 -0.956833170175E-01
 -0.643058835835E-01
 -0.805917496532E-01
 -0.438201381927E-01
  0.192317416282E+00
  0.162366239633E+00
  0.191969774930E+00
  0.186425357408E+00
  0.193662426637E+00
  0.188723581323E+00
  0.194461613619E+00
  0.191623624810E+00
  0.498017931365E-01
  0.460966450985E-01
  0.552783901217E-01
  0.466442028374E-01
  0.620428598587E-01
  0.474445344858E-01
  0.461776039632E-01
  0.515539925875E-01
 -0.121250616239E+00
 -0.134280206795E+00
 -0.126771945188E+00
 -0.125947818411E+00
 -0.124761690372E+00
 -0.995521304921E-01
 -0.989372479139E-01
  0.380803598137E-02
 -0.125816627012E+00
 -0.146435228939E+00
 -0.809466856383E-01
 -0.102728861135E+00
 -0.550215710907E-01
 -0.958813118609E-01
 -0.743370983079E-01
 -0.806918301109E-01
  0.164529072763E+00
  0.109436858115E+00
  0.189429387124E+00
  0.108551890455E+00
  0.190945107529E+00
  0.106619244581E+00
  0.192560690557E+00
  0.105394437498E+00
  0.498016451912E-01
  0.498018847783E-01
  0.478121633139E-01
  0.554743963001E-01
  0.442063658211E-01
  0.630298059440E-01
  0.382912336722E-01
  0.480458338783E-01
 -0.133802170038E+00
 -0.800411619116E-01
 -0.128030680492E+00
 -0.176595369967E-01
 -0.108158746692E+00
  0.123463863063E-01
 -0.129983625234E-01
  0.706492717713E-01
 -0.128751430797E+00
 -0.876048867275E-01
 -0.816010932248E-01
 -0.574651303625E-01
 -0.552095716814E-01
 -0.657037629478E-01
 -0.785908918406E-01
  0.953064563469E-01
  0.954207672214E-01
  0.956589567986E-01
  0.959004914037E-01
  0.955043265913E-01
  0.955844487502E-01
  0.952783742211E-01
  0.520322072736E-01
  0.506667447575E-01
  0.497397772135E-01
  0.472975636982E-01
  0.453154899038E-01
  0.413700356824E-01
  0.374479621111E-01
 -0.820238240470E-01
 -0.108008295045E+00
 -0.693484349696E-01
 -0.126159506812E+00
 -0.110775534902E+00
 -0.201144927303E+00
 -0.177102981053E+00
 -0.150623259748E+00
 -0.118805268916E+00
 -0.919060955964E-01
 -0.722850960914E-01
 -0.594393021646E-01
 -0.691351952162E-01
 -0.689324896410E-01
  0.866689759889E-01
  0.869656003285E-01
  0.876477338030E-01
  0.880399941074E-01
  0.880910503244E-01
  0.883901103077E-01
  0.883282515885E-01
  0.496790637307E-01
  0.487446605654E-01
  0.476943360757E-01
  0.460311883927E-01
  0.438102157951E-01
  0.411543648450E-01
  0.371626221654E-01
 -0.783520081038E-01
 -0.109962643247E+00
 -0.862360759410E-01
 -0.153802025946E+00
 -0.149027960633E+00
 -0.245328476642E+00
 -0.234569221692E+00
 -0.186050960356E+00
 -0.166609581915E+00
 -0.110900291061E+00
 -0.982381838854E-01
 -0.669521761251E-01
 -0.802961411336E-01
 -0.653733732477E-01
  0.756931627533E-01
  0.761275661358E-01
  0.772436139009E-01
  0.777051815858E-01
  0.781148198314E-01
  0.784861810701E-01
  0.786718937122E-01
  0.505935144387E-01
  0.499670693461E-01
  0.490360814549E-01
  0.479597599561E-01
  0.459998620991E-01
  0.442283751452E-01
  0.409919677623E-01
 -0.768005056324E-01
 -0.105239554761E+00
 -0.914177847168E-01
 -0.156801002845E+00
 -0.160742725158E+00
 -0.255649249090E+00
 -0.253632163901E+00
 -0.222169472021E+00
 -0.214815183486E+00
 -0.132750660372E+00
 -0.128718841680E+00
 -0.753282319064E-01
 -0.952718138210E-01
 -0.650076632017E-01
  0.629670302349E-01
  0.635542813278E-01
  0.652058654369E-01
  0.657601038607E-01
  0.665436248854E-01
  0.668517659282E-01
  0.672164845304E-01
  0.568774216283E-01
  0.565146678140E-01
  0.556785820865E-01
  0.550493705952E-01
  0.535173303764E-01
  0.523496695627E-01
  0.500216890811E-01
 -0.748285388059E-01
 -0.958825433234E-01
 -0.888697020572E-01
 -0.142581714090E+00
 -0.154567679377E+00
 -0.240830586403E+00
 -0.247090135220E+00
SCALARS sigma float 1
LOOKUP_TABLE default
 -0.372529914828E-01
 -0.372529914828E-01
 -0.372529914928E-01
 -0.372529914928E-01
 -0.372529914915E-01
 -0.372529914915E-01
 -0.372529914890E-01
 -0.372529914890E-01
  0.136624342682E+00
  0.136624342682E+00
  0.136624342684E+00
  0.136624342684E+00
  0.136624342682E+00
  0.136624342682E+00
  0.136624342683E+00
  0.136624342683E+00
  0.372529914903E-01
  0.372529914903E-01
  0.372529914890E-01
  0.372529914890E-01
  0.372529914915E-01
  0.372529914915E-01
  0.372529914890E-01
  0.372529914890E-01
 -0.136624342682E+00
 -0.136624342682E+00
 -0.136624342684E+00
 -0.136624342684E+00
 -0.136624342686E+00
 -0.136624342686E+00
 -0.136624342676E+00
 -0.136624342676E+00
 -0.372529914828E-01
 -0.372529914828E-01
 -0.372529914928E-01
 -0.372529914928E-01
 -0.372529914915E-01
 -0.372529914915E-01
 -0.372529914890E-01
 -0.372529914890E-01
  0.136624342682E+00
  0.136624342682E+00
  0.136624342684E+00
  0.136624342684E+00
  0.136624342682E+00
  0.136624342682E+00
  0.136624342683E+00
  0.136624342683E+00
  0.372529914903E-01
  0.372529914903E-01
  0.372529914890E-01
  0.372529914890E-01
  0.372529914915E-01
  0.372529914915E-01
  0.372529914890E-01
  0.372529914890E-01
 -0.136624342682E+00
 -0.136624342682E+00
 -0.136624342684E+00
 -0.136624342684E+00
 -0.136624342686E+00
 -0.136624342686E+00
 -0.136624342676E+00
 -0.136624342676E+00
 -0.372529914828E-01
 -0.372529914828E-01
 -0.372529914928E-01
 -0.372529914928E-01
 -0.372529914915E-01
 -0.372529914915E-01
 -0.372529914890E-01
 -0.372529914890E-01
  0.136624342682E+00
  0.136624342682E+00
  0.136624342684E+00
  0.136624342684E+00
  0.136624342682E+00
  0.136624342682E+00
  0.136624342683E+00
  0.136624342683E+00
  0.372529914903E-01
  0.372529914903E-01
  0.372529914890E-01
  0.372529914890E-01
  0.372529914915E-01
  0.372529914915E-01
  0.372529914890E-01
  0.372529914890E-01
 -0.136624342682E+00
 -0.136624342682E+00
 -0.136624342684E+00
 -0.136624342684E+00
 -0.136624342686E+00
 -0.136624342686E+00
 -0.136624342676E+00
 -0.136624342676E+00
 -0.372529914828E-01
 -0.372529914828E-01
 -0.372529914928E-01
 -0.372529914928E-01
 -0.372529914915E-01
 -0.372529914915E-01
 -0.372529914890E-01
 -0.372529914890E-01
  0.136624342682E+00
  0.136624342682E+00
  0.136624342684E+00
  0.136624342684E+00
  0.136624342682E+00
  0.136624342682E+00
  0.136624342683E+00
  0.136624342683E+00
  0.372529914903E-01
  0.372529914903E-01
  0.372529914890E-01
  0.372529914890E-01
  0.372529914915E-01
  0.372529914915E-01
  0.372529914890E-01
  0.372529914890E-01
 -0.136624342682E+00
 -0.136624342682E+00
 -0.136624342684E+00
 -0.136624342684E+00
 -0.136624342686E+00
 -0.136624342686E+00
 -0.136624342676E+00
 -0.136624342676E+00
 -0.372529914828E-01
 -0.372529914828E-01
 -0.372529914928E-01
 -0.372529914928E-01
 -0.372529914915E-01
 -0.372529914915E-01
 -0.372529914890E-01
 -0.372529914890E-01
  0.136624342682E+00
  0.136624342682E+00
  0.136624342684E+00
  0.136624342684E+00
  0.136624342682E+00
  0.136624342682E+00
  0.136624342683E+00
  0.136624342683E+00
  0.372529914903E-01
  0.372529914903E-01