# vtk DataFile Version 3.0
MachLine results file. Generated by MachLine, USU AeroLab (c) 2022.
ASCII
DATASET POLYDATA
POINTS                3847 float
  0.999999957597E+00  0.000000000000E+00 -0.184782473675E-08
  0.999999957597E+00  0.000000000000E+00  0.184782473675E-08
  0.986936848657E+00  0.512820512820E-01 -0.114283753202E-02
  0.999999961039E+00  0.512820512820E-01 -0.169780363526E-08
  0.999999961039E+00  0.512820512820E-01  0.169780363526E-08
  0.986936848640E+00  0.000000000000E+00 -0.114283734344E-02
  0.969870669852E+00  0.512820512820E-01 -0.263593270002E-02
  0.969870669826E+00  0.000000000000E+00 -0.263593240096E-02
  0.947785029314E+00  0.512820512820E-01 -0.456817324134E-02
  0.947785029274E+00  0.000000000000E+00 -0.456817278917E-02
  0.919551437122E+00  0.512820512820E-01 -0.703828912669E-02
  0.919551437066E+00  0.000000000000E+00 -0.703828848340E-02
  0.884018101974E+00  0.512820512820E-01 -0.101470490027E-01
  0.884018101899E+00  0.000000000000E+00 -0.101470481532E-01
  0.840166846197E+00  0.512820512820E-01 -0.139835319697E-01
  0.840166846107E+00  0.000000000000E+00 -0.139835309429E-01
  0.787342643738E+00  0.512820512820E-01 -0.186050456681E-01
  0.787342643640E+00  0.000000000000E+00 -0.186050445507E-01
  0.725530745747E+00  0.512820512820E-01 -0.240128809407E-01
  0.725530745654E+00  0.000000000000E+00 -0.240128798736E-01
  0.655612648061E+00  0.512820512820E-01 -0.301299175325E-01
  0.655612647987E+00  0.000000000000E+00 -0.301299166859E-01
  0.579493945327E+00  0.512820512820E-01 -0.367894381697E-01
  0.579493945285E+00  0.000000000000E+00 -0.367894376995E-01
  0.500000000000E+00  0.512820512820E-01 -0.437442564514E-01
  0.500000000000E+00  0.000000000000E+00 -0.437442662232E-01
  0.420506054715E+00  0.000000000000E+00 -0.367894376995E-01
  0.420506054673E+00  0.512820512820E-01 -0.367894381697E-01
  0.344387352013E+00  0.000000000000E+00 -0.301299166859E-01
  0.344387351939E+00  0.512820512820E-01 -0.301299175325E-01
  0.274469254346E+00  0.000000000000E+00 -0.240128798736E-01
  0.274469254253E+00  0.512820512820E-01 -0.240128809407E-01
  0.212657356360E+00  0.000000000000E+00 -0.186050445507E-01
  0.212657356262E+00  0.512820512820E-01 -0.186050456681E-01
  0.159833153893E+00  0.000000000000E+00 -0.139835309429E-01
  0.159833153803E+00  0.512820512820E-01 -0.139835319697E-01
  0.115981898101E+00  0.000000000000E+00 -0.101470481532E-01
  0.115981898026E+00  0.512820512820E-01 -0.101470490027E-01
  0.804485629354E-01  0.000000000000E+00 -0.703828848340E-02
  0.804485628792E-01  0.512820512820E-01 -0.703828912669E-02
  0.522149707228E-01  0.000000000000E+00 -0.456817278917E-02
  0.522149706832E-01  0.512820512820E-01 -0.456817324134E-02
  0.301293301728E-01  0.000000000000E+00 -0.263593240096E-02
  0.301293301467E-01  0.512820512820E-01 -0.263593270002E-02
  0.130631513639E-01  0.000000000000E+00 -0.114283734344E-02
  0.130631513474E-01  0.512820512820E-01 -0.114283753202E-02
  0.425647942121E-07  0.000000000000E+00  0.000000000000E+00
  0.391090458475E-07  0.512820512820E-01  0.000000000000E+00
  0.130631513474E-01  0.512820512820E-01  0.114283753202E-02
  0.130631513639E-01  0.000000000000E+00  0.114283734344E-02
  0.301293301467E-01  0.512820512820E-01  0.263593270002E-02
  0.301293301728E-01  0.000000000000E+00  0.263593240096E-02
  0.522149706832E-01  0.512820512820E-01  0.456817324134E-02
  0.522149707228E-01  0.000000000000E+00  0.456817278917E-02
  0.804485628792E-01  0.512820512820E-01  0.703828912669E-02
  0.804485629354E-01  0.000000000000E+00  0.703828848340E-02
  0.115981898026E+00  0.512820512820E-01  0.101470490027E-01
  0.115981898101E+00  0.000000000000E+00  0.101470481532E-01
  0.159833153803E+00  0.512820512820E-01  0.139835319697E-01
  0.159833153893E+00  0.000000000000E+00  0.139835309429E-01
  0.212657356262E+00  0.512820512820E-01  0.186050456681E-01
  0.212657356360E+00  0.000000000000E+00  0.186050445507E-01
  0.274469254253E+00  0.512820512820E-01  0.240128809407E-01
  0.274469254346E+00  0.000000000000E+00  0.240128798736E-01
  0.344387351939E+00  0.512820512820E-01  0.301299175325E-01
  0.344387352013E+00  0.000000000000E+00  0.301299166859E-01
  0.420506054673E+00  0.512820512820E-01  0.367894381697E-01
  0.420506054715E+00  0.000000000000E+00  0.367894376995E-01
  0.500000000000E+00  0.512820512820E-01  0.437442564514E-01
  0.500000000000E+00  0.000000000000E+00  0.437442662232E-01
  0.579493945285E+00  0.000000000000E+00  0.367894376995E-01
  0.579493945327E+00  0.512820512820E-01  0.367894381697E-01
  0.655612647987E+00  0.000000000000E+00  0.301299166859E-01
  0.655612648061E+00  0.512820512820E-01  0.301299175325E-01
  0.725530745654E+00  0.000000000000E+00  0.240128798736E-01
  0.725530745747E+00  0.512820512820E-01  0.240128809407E-01
  0.787342643640E+00  0.000000000000E+00  0.186050445507E-01
  0.787342643738E+00  0.512820512820E-01  0.186050456681E-01
  0.840166846107E+00  0.000000000000E+00  0.139835309429E-01
  0.840166846197E+00  0.512820512820E-01  0.139835319697E-01
  0.884018101899E+00  0.000000000000E+00  0.101470481532E-01
  0.884018101974E+00  0.512820512820E-01  0.101470490027E-01
  0.919551437066E+00  0.000000000000E+00  0.703828848340E-02
  0.919551437122E+00  0.512820512820E-01  0.703828912669E-02
  0.947785029274E+00  0.000000000000E+00  0.456817278917E-02
  0.947785029314E+00  0.512820512820E-01  0.456817324134E-02
  0.969870669826E+00  0.000000000000E+00  0.263593240096E-02
  0.969870669852E+00  0.512820512820E-01  0.263593270002E-02
  0.986936848640E+00  0.000000000000E+00  0.114283734344E-02
  0.986936848657E+00  0.512820512820E-01  0.114283753202E-02
  0.986936848657E+00  0.102564102560E+00 -0.114283753202E-02
  0.999999961039E+00  0.102564102560E+00 -0.169780363549E-08
  0.999999961039E+00  0.102564102560E+00  0.169780363549E-08
  0.969870669852E+00  0.102564102560E+00 -0.263593270002E-02
  0.947785029314E+00  0.102564102560E+00 -0.456817324134E-02
  0.919551437122E+00  0.102564102560E+00 -0.703828912669E-02
  0.884018101974E+00  0.102564102560E+00 -0.101470490027E-01
  0.840166846197E+00  0.102564102560E+00 -0.139835319697E-01
  0.787342643738E+00  0.102564102560E+00 -0.186050456681E-01
  0.725530745747E+00  0.102564102560E+00 -0.240128809407E-01
  0.655612648061E+00  0.102564102560E+00 -0.301299175325E-01
  0.579493945327E+00  0.102564102560E+00 -0.367894381697E-01
  0.500000000000E+00  0.102564102560E+00 -0.437442564514E-01
  0.420506054673E+00  0.102564102560E+00 -0.367894381697E-01
  0.344387351939E+00  0.102564102560E+00 -0.301299175325E-01
  0.274469254253E+00  0.102564102560E+00 -0.240128809407E-01
  0.212657356262E+00  0.102564102560E+00 -0.186050456681E-01
  0.159833153803E+00  0.102564102560E+00 -0.139835319697E-01
  0.115981898026E+00  0.102564102560E+00 -0.101470490027E-01
  0.804485628792E-01  0.102564102560E+00 -0.703828912669E-02
  0.522149706832E-01  0.102564102560E+00 -0.456817324134E-02
  0.301293301467E-01  0.102564102560E+00 -0.263593270002E-02
  0.130631513474E-01  0.102564102560E+00 -0.114283753202E-02
  0.391090458527E-07  0.102564102560E+00  0.000000000000E+00
  0.130631513474E-01  0.102564102560E+00  0.114283753202E-02
  0.301293301467E-01  0.102564102560E+00  0.263593270002E-02
  0.522149706832E-01  0.102564102560E+00  0.456817324134E-02
  0.804485628792E-01  0.102564102560E+00  0.703828912669E-02
  0.115981898026E+00  0.102564102560E+00  0.101470490027E-01
  0.159833153803E+00  0.102564102560E+00  0.139835319697E-01
  0.212657356262E+00  0.102564102560E+00  0.186050456681E-01
  0.274469254253E+00  0.102564102560E+00  0.240128809407E-01
  0.344387351939E+00  0.102564102560E+00  0.301299175325E-01
  0.420506054673E+00  0.102564102560E+00  0.367894381697E-01
  0.500000000000E+00  0.102564102560E+00  0.437442564514E-01
  0.579493945327E+00  0.102564102560E+00  0.367894381697E-01
  0.655612648061E+00  0.102564102560E+00  0.301299175325E-01
  0.725530745747E+00  0.102564102560E+00  0.240128809407E-01
  0.787342643738E+00  0.102564102560E+00  0.186050456681E-01
  0.840166846197E+00  0.102564102560E+00  0.139835319697E-01
  0.884018101974E+00  0.102564102560E+00  0.101470490027E-01
  0.919551437122E+00  0.102564102560E+00  0.703828912669E-02
  0.947785029314E+00  0.102564102560E+00  0.456817324134E-02
  0.969870669852E+00  0.102564102560E+00  0.263593270002E-02
  0.986936848657E+00  0.102564102560E+00  0.114283753202E-02
  0.986936848657E+00  0.153846153850E+00 -0.114283753202E-02
  0.999999961039E+00  0.153846153850E+00 -0.169780363536E-08
  0.999999961039E+00  0.153846153850E+00  0.169780363536E-08
  0.969870669852E+00  0.153846153850E+00 -0.263593270002E-02
  0.947785029314E+00  0.153846153850E+00 -0.456817324134E-02
  0.919551437122E+00  0.153846153850E+00 -0.703828912669E-02
  0.884018101974E+00  0.153846153850E+00 -0.101470490027E-01
  0.840166846197E+00  0.153846153850E+00 -0.139835319697E-01
  0.787342643738E+00  0.153846153850E+00 -0.186050456681E-01
  0.725530745747E+00  0.153846153850E+00 -0.240128809407E-01
  0.655612648061E+00  0.153846153850E+00 -0.301299175325E-01
  0.579493945327E+00  0.153846153850E+00 -0.367894381697E-01
  0.500000000000E+00  0.153846153850E+00 -0.437442564514E-01
  0.420506054673E+00  0.153846153850E+00 -0.367894381697E-01
  0.344387351939E+00  0.153846153850E+00 -0.301299175325E-01
  0.274469254253E+00  0.153846153850E+00 -0.240128809407E-01
  0.212657356262E+00  0.153846153850E+00 -0.186050456681E-01
  0.159833153803E+00  0.153846153850E+00 -0.139835319697E-01
  0.115981898026E+00  0.153846153850E+00 -0.101470490027E-01
  0.804485628792E-01  0.153846153850E+00 -0.703828912669E-02
  0.522149706832E-01  0.153846153850E+00 -0.456817324134E-02
  0.301293301467E-01  0.153846153850E+00 -0.263593270002E-02
  0.130631513474E-01  0.153846153850E+00 -0.114283753202E-02
  0.391090458498E-07  0.153846153850E+00  0.000000000000E+00
  0.130631513474E-01  0.153846153850E+00  0.114283753202E-02
  0.301293301467E-01  0.153846153850E+00  0.263593270002E-02
[...]
POINT_DATA                3847
SCALARS phi float 1
LOOKUP_TABLE default
 -0.636383959642E-18
  0.247254459414E-17
 -0.975781955237E-17
 -0.169287764956E-17
 -0.264684850640E-17
  0.791467585914E-17
  0.134441069388E-16
  0.177809156288E-16
  0.177809156288E-16
 -0.260208521397E-16
  0.173472347598E-17
  0.277555756156E-16
 -0.954097911787E-17
  0.312250225676E-16
 -0.294902990916E-16
 -0.138777878078E-16
  0.156125112838E-16
 -0.242861286637E-16
  0.104083408559E-16
  0.173472347598E-16
 -0.693889390391E-17
  0.693889390391E-17
  0.242861286637E-16
  0.693889390391E-17
  0.312250225676E-16
 -0.277555756156E-16
  0.000000000000E+00
  0.104083408559E-16
  0.138777878078E-16
 -0.346944695195E-17
 -0.104083408559E-16
 -0.346944695195E-17
 -0.693889390391E-17
 -0.173472347598E-17
  0.433680868994E-17
 -0.867361737988E-18
 -0.954097911787E-17
 -0.433680868994E-17
  0.216840434497E-17
 -0.216840434497E-17
  0.130104260698E-17
  0.433680868994E-18
 -0.650521303491E-18
 -0.216840434497E-18
 -0.108420217249E-18
  0.000000000000E+00
 -0.413590306277E-24
 -0.206795153138E-24
  0.000000000000E+00
 -0.108420217249E-18
 -0.216840434497E-18
  0.216840434497E-18
 -0.867361737988E-18
  0.433680868994E-18
 -0.867361737988E-18
 -0.867361737988E-18
  0.260208521397E-17
 -0.867361737988E-18
  0.867361737988E-18
 -0.346944695195E-17
  0.173472347598E-17
  0.173472347598E-17
 -0.520417042793E-17
  0.693889390391E-17
  0.000000000000E+00
 -0.173472347598E-17
 -0.693889390391E-17
  0.346944695195E-17
 -0.346944695195E-17
 -0.104083408559E-16
  0.346944695195E-17
  0.000000000000E+00
  0.346944695195E-16
  0.104083408559E-16
 -0.156125112838E-16
  0.000000000000E+00
 -0.867361737988E-17
  0.867361737988E-17
 -0.208166817117E-16
 -0.121430643318E-16
  0.867361737988E-18
 -0.867361737988E-17
 -0.182145964978E-16
  0.780625564190E-17
 -0.433680868994E-17
  0.390312782095E-17
 -0.997465998687E-17
 -0.396817995130E-16
  0.143114686768E-16
 -0.277555756156E-16
  0.487890977618E-17
 -0.307730345373E-16
 -0.285070096451E-16
  0.130104260698E-17
  0.823993651089E-17
  0.268882138776E-16
 -0.867361737988E-18
 -0.173472347598E-17
  0.503069808033E-16
 -0.173472347598E-16
  0.173472347598E-16
  0.277555756156E-16
  0.346944695195E-17
  0.104083408559E-16
  0.346944695195E-17
  0.346944695195E-17
  0.000000000000E+00
  0.173472347598E-17
 -0.867361737988E-18
  0.433680868994E-18
 -0.433680868994E-18
  0.000000000000E+00
 -0.216840434497E-18
 -0.206795153138E-24
 -0.108420217249E-18
  0.433680868994E-18
 -0.433680868994E-18
  0.130104260698E-17
  0.260208521397E-17
  0.346944695195E-17
  0.693889390391E-17
  0.000000000000E+00
  0.520417042793E-17
  0.104083408559E-16
 -0.242861286637E-16
  0.000000000000E+00
 -0.242861286637E-16
  0.520417042793E-17
  0.173472347598E-16
 -0.121430643318E-16
  0.147451495458E-16
  0.208166817117E-16
  0.650521303491E-17
 -0.483554168929E-16
 -0.108420217249E-18
  0.114925430283E-16
  0.293881666878E-16
  0.296042659685E-16
  0.316587034366E-16
  0.325260651746E-16
  0.112757025938E-16
  0.130104260698E-16
  0.156125112838E-16
 -0.312250225676E-16
  0.589805981832E-16
 -0.173472347598E-16
 -0.346944695195E-17
  0.381639164715E-16
 -0.693889390391E-17
  0.138777878078E-16
 -0.693889390391E-17
  0.000000000000E+00
 -0.260208521397E-17
 -0.173472347598E-17
  0.130104260698E-17
  0.433680868994E-18
 -0.216840434497E-18
 -0.108420217249E-18
 -0.206795153138E-24
  0.325260651746E-18
 -0.216840434497E-18
 -0.433680868994E-18
 -0.433680868994E-18
  0.000000000000E+00
 -0.867361737988E-18
  0.346944695195E-17
 -0.867361737988E-17
  0.000000000000E+00
 -0.693889390391E-17
  0.346944695195E-17
  0.104083408559E-16
  0.173472347598E-16
  0.000000000000E+00
 -0.693889390391E-17
 -0.693889390391E-17
 -0.104083408559E-16
  0.693889390391E-17
 -0.242861286637E-16
 -0.433680868994E-18
  0.253703308362E-16
  0.258040117052E-16
  0.442555789048E-16
  0.470484582901E-16
  0.563785129692E-17
  0.130104260698E-16
  0.693889390391E-17
  0.251534904017E-16
 -0.138777878078E-16
 -0.104083408559E-16
 -0.416333634234E-16
  0.693889390391E-17
  0.104083408559E-16
 -0.346944695195E-17
 -0.381639164715E-16
  0.693889390391E-17
 -0.173472347598E-17
 -0.173472347598E-17
  0.173472347598E-17
  0.867361737988E-18
 -0.130104260698E-17
  0.867361737988E-18
  0.433680868994E-18
 -0.108420217249E-18
  0.206795153138E-24
  0.000000000000E+00
  0.216840434497E-18
  0.000000000000E+00
 -0.130104260698E-17
 -0.867361737988E-18
  0.173472347598E-17
 -0.173472347598E-17
  0.000000000000E+00
  0.520417042793E-17
 -0.312250225676E-16
 -0.138777878078E-16
  0.138777878078E-16
 -0.138777878078E-16
  0.104083408559E-16
 -0.867361737988E-17
  0.693889390391E-17
 -0.130104260698E-16
 -0.242861286637E-16
 -0.823993651089E-17
 -0.121430643318E-16
  0.174556549770E-16
 -0.105167610731E-16
 -0.224958153418E-16
 -0.202680128114E-16
  0.199493199737E-16
 -0.173472347598E-17
  0.138777878078E-16
  0.260208521397E-17
  0.520417042793E-17
  0.121430643318E-16
 -0.451028103754E-16
 -0.589805981832E-16
  0.693889390391E-17
 -0.104083408559E-16
 -0.138777878078E-16
 -0.346944695195E-17
  0.346944695195E-17
 -0.693889390391E-17
  0.173472347598E-17
 -0.260208521397E-17
  0.433680868994E-18
  0.000000000000E+00
  0.216840434497E-18
  0.000000000000E+00
  0.413590306277E-24
  0.108420217249E-18
 -0.650521303491E-18
  0.000000000000E+00
 -0.867361737988E-18
  0.000000000000E+00
  0.867361737988E-18
  0.000000000000E+00
 -0.173472347598E-17
  0.173472347598E-17
  0.693889390391E-17
 -0.277555756156E-16
  0.346944695195E-17
  0.000000000000E+00
  0.190819582357E-16
 -0.138777878078E-16
  0.225514051877E-16
  0.112757025938E-16
  0.954097911787E-17
  0.260208521397E-17
  0.346944695195E-17
 -0.203830008427E-16
 -0.260208521397E-17
  0.389223323190E-16
  0.430593471125E-16
  0.329597460436E-16
  0.299239799606E-16
  0.208166817117E-16
  0.104083408559E-16
 -0.294902990916E-16
 -0.520417042793E-17
  0.693889390391E-17
  0.277555756156E-16
  0.346944695195E-17
  0.173472347598E-16
 -0.138777878078E-16
 -0.693889390391E-17
 -0.520417042793E-17
  0.346944695195E-17
  0.173472347598E-17
 -0.173472347598E-17
  0.867361737988E-18
  0.000000000000E+00
  0.433680868994E-18
 -0.108420217249E-18
  0.206795153138E-24
  0.108420217249E-18
 -0.433680868994E-18
  0.000000000000E+00
 -0.173472347598E-17
  0.173472347598E-17
  0.260208521397E-17
  0.173472347598E-17
  0.173472347598E-17
  0.173472347598E-17
 -0.346944695195E-17
 -0.138777878078E-16
  0.208166817117E-16
  0.693889390391E-17
 -0.693889390391E-17
 -0.121430643318E-16
 -0.693889390391E-17
 -0.104083408559E-16
  0.346944695195E-17
 -0.143114686768E-16
 -0.149619899803E-16
  0.791467585914E-17
 -0.802309607639E-17
 -0.340638849232E-17
 -0.123713711440E-17
 -0.303576608296E-17
  0.112757025938E-16
 -0.346944695195E-17
 -0.364291929955E-16
  0.867361737988E-17
 -0.693889390391E-17
  0.346944695195E-17
  0.277555756156E-16
  0.520417042793E-16
 -0.693889390391E-17
 -0.104083408559E-16
  0.104083408559E-16
  0.000000000000E+00
 -0.520417042793E-17
 -0.867361737988E-18
  0.000000000000E+00
  0.000000000000E+00
 -0.433680868994E-18
  0.216840434497E-18
 -0.108420217249E-18
 -0.206795153138E-24
 -0.216840434497E-18
 -0.433680868994E-18
 -0.433680868994E-18
 -0.216840434497E-17
  0.173472347598E-17
 -0.867361737988E-18
  0.000000000000E+00
 -0.693889390391E-17
  0.520417042793E-17
  0.000000000000E+00
 -0.346944695195E-17
 -0.138777878078E-16
  0.346944695195E-17
 -0.520417042793E-17
 -0.104083408559E-16
 -0.225514051877E-16
 -0.190819582357E-16
 -0.867361737988E-18
 -0.225514051877E-16
 -0.284060969191E-16
 -0.173472347598E-16
 -0.177809156288E-16
 -0.333900098294E-16
 -0.326616673739E-16
  0.433680868994E-18
  0.342607886505E-16
  0.242861286637E-16
 -0.112757025938E-16
 -0.693889390391E-17
 -0.294902990916E-16
  0.451028103754E-16
  0.346944695195E-17
  0.242861286637E-16
  0.104083408559E-16
 -0.173472347598E-16
  0.104083408559E-16
  0.693889390391E-17
  0.173472347598E-17
  0.260208521397E-17
 -0.260208521397E-17
 -0.173472347598E-17
  0.433680868994E-18
  0.000000000000E+00
 -0.216840434497E-18
 -0.413590306277E-24
  0.000000000000E+00
 -0.650521303491E-18
 -0.867361737988E-18
 -0.130104260698E-17
 -0.260208521397E-17
 -0.346944695195E-17
  0.173472347598E-17
 -0.867361737988E-17
  0.000000000000E+00
 -0.346944695195E-17
  0.346944695195E-17
 -0.138777878078E-16
 -0.173472347598E-16
  0.867361737988E-17
 -0.346944695195E-17
  0.138777878078E-16
  0.867361737988E-18
 -0.112757025938E-16
 -0.260208521397E-17
  0.164798730218E-16
 -0.170219741080E-16
 -0.113841228111E-16
  0.168948397566E-16
  0.178046590211E-16
  0.737257477290E-17
  0.173472347598E-17
  0.112757025938E-16
 -0.867361737988E-18
 -0.520417042793E-17
 -0.121430643318E-16
  0.000000000000E+00
  0.173472347598E-16
 -0.104083408559E-16
  0.000000000000E+00
  0.000000000000E+00
  0.000000000000E+00
 -0.346944695195E-17
  0.693889390391E-17
  0.173472347598E-17
 -0.173472347598E-17
  0.000000000000E+00
  0.000000000000E+00
  0.216840434497E-18
 -0.216840434497E-18
 -0.413590306277E-24
 -0.108420217249E-18
  0.867361737988E-18
 -0.130104260698E-17
 -0.173472347598E-17
  0.867361737988E-18
 -0.867361737988E-18
  0.346944695195E-17
 -0.346944695195E-17
  0.000000000000E+00
 -0.138777878078E-16
  0.173472347598E-16
 -0.104083408559E-16
  0.000000000000E+00
  0.520417042793E-17
 -0.156125112838E-16
  0.381639164715E-16
  0.190819582357E-16
 -0.147451495458E-16
 -0.121430643318E-16
 -0.284060969191E-16
 -0.119262238973E-16
  0.758941520740E-18
 -0.331996131184E-16
 -0.332970219073E-16
  0.451028103754E-16
 -0.390312782095E-17
  0.000000000000E+00
  0.173472347598E-17
  0.693889390391E-17
  0.693889390391E-17
 -0.693889390391E-17
 -0.208166817117E-16
  0.242861286637E-16
  0.208166817117E-16
 -0.346944695195E-17
  0.346944695195E-17
  0.000000000000E+00
  0.173472347598E-17
 -0.867361737988E-18
  0.260208521397E-17
  0.867361737988E-18
  0.433680868994E-18
  0.216840434497E-18
 -0.216840434497E-18
 -0.620385459415E-24
 -0.108420217249E-18
  0.000000000000E+00
 -0.867361737988E-18
 -0.173472347598E-17
  0.260208521397E-17
  0.173472347598E-17
  0.000000000000E+00
  0.173472347598E-17
  0.346944695195E-17
 -0.208166817117E-16
 -0.346944695195E-17
  0.000000000000E+00
  0.346944695195E-17
 -0.346944695195E-17
 -0.294902990916E-16
  0.208166817117E-16
  0.954097911787E-17
 -0.147451495458E-16
  0.346944695195E-17
 -0.468375338514E-16
 -0.169135538908E-16
 -0.181061762805E-16
 -0.645983018420E-17
 -0.761190087158E-17
  0.693889390391E-17
  0.117093834628E-16
  0.173472347598E-16
  0.156125112838E-16
 -0.693889390391E-17
  0.156125112838E-16
  0.173472347598E-16
  0.693889390391E-17
  0.104083408559E-16
  0.346944695195E-17
 -0.104083408559E-16
  0.346944695195E-17
 -0.104083408559E-16
  0.000000000000E+00
  0.173472347598E-17
 -0.260208521397E-17
  0.433680868994E-18
  0.000000000000E+00
  0.216840434497E-18
 -0.216840434497E-18
 -0.206795153138E-24
 -0.108420217249E-18
  0.216840434497E-18
 -0.433680868994E-18
 -0.303576608296E-17
  0.260208521397E-17
  0.173472347598E-17
  0.000000000000E+00
 -0.693889390391E-17
 -0.173472347598E-17
 -0.104083408559E-16
 -0.693889390391E-17
  0.693889390391E-17
  0.000000000000E+00
  0.121430643318E-16
 -0.208166817117E-16
 -0.346944695195E-17
  0.780625564190E-17
 -0.112757025938E-16
 -0.867361737988E-17
 -0.320923843056E-16
 -0.362123525610E-16
 -0.275387351811E-16
 -0.280524821703E-16
 -0.235768659562E-16
  0.203830008427E-16
  0.693889390391E-17
 -0.208166817117E-16
  0.260208521397E-17
 -0.867361737988E-17
 -0.190819582357E-16
 -0.242861286637E-16
  0.208166817117E-16
  0.104083408559E-16
  0.104083408559E-16
  0.173472347598E-16
 -0.138777878078E-16
  0.520417042793E-17
 -0.693889390391E-17
 -0.173472347598E-17
  0.346944695195E-17
 -0.433680868994E-18
 -0.433680868994E-18
  0.216840434497E-18
 -0.108420217249E-18
 -0.620385459415E-24
 -0.325260651746E-18
  0.000000000000E+00
  0.867361737988E-18
 -0.260208521397E-17
  0.867361737988E-18
 -0.173472347598E-17
  0.000000000000E+00
 -0.104083408559E-16
  0.346944695195E-17
 -0.346944695195E-17
  0.000000000000E+00
 -0.173472347598E-16
 -0.138777878078E-16
 -0.520417042793E-17
 -0.104083408559E-16
 -0.867361737988E-17
 -0.208166817117E-16
 -0.867361737988E-17
 -0.130104260698E-17
 -0.288397777881E-16
 -0.455364912444E-16
  0.211419423635E-16
  0.687959622093E-17
  0.412335101056E-17
  0.130104260698E-16
 -0.130104260698E-17
  0.346944695195E-16
  0.329597460436E-16
  0.000000000000E+00
 -0.451028103754E-16
  0.312250225676E-16
  0.451028103754E-16
 -0.277555756156E-16
  0.693889390391E-17
 -0.693889390391E-17
  0.104083408559E-16
  0.346944695195E-17
 -0.346944695195E-17
  0.867361737988E-18
 -0.867361737988E-18
  0.000000000000E+00
  0.867361737988E-18
  0.000000000000E+00
 -0.325260651746E-18
 -0.413590306277E-24
 -0.108420217249E-18
  0.000000000000E+00
 -0.130104260698E-17
 -0.130104260698E-17
 -0.867361737988E-18
  0.867361737988E-18
  0.346944695195E-17
 -0.520417042793E-17
  0.693889390391E-17
 -0.138777878078E-16
  0.104083408559E-16
 -0.173472347598E-16
 -0.208166817117E-16
  0.121430643318E-16
 -0.104083408559E-16
  0.867361737988E-17
 -0.138777878078E-16
  0.164798730218E-16
  0.607153216592E-17
  0.542101086243E-17
  0.400070601647E-16
  0.224429849704E-16
 -0.251462480218E-16
 -0.289681665589E-16
  0.329597460436E-16
 -0.169135538908E-16
  0.173472347598E-17
 -0.607153216592E-17
 -0.104083408559E-16
 -0.346944695195E-17
  0.173472347598E-16
  0.000000000000E+00
 -0.277555756156E-16
 -0.208166817117E-16
 -0.173472347598E-16
 -0.693889390391E-17
 -0.173472347598E-17
  0.173472347598E-17
  0.173472347598E-17
 -0.173472347598E-17
 -0.867361737988E-18
  0.433680868994E-18
  0.000000000000E+00
 -0.216840434497E-18
  0.206795153138E-24
 -0.108420217249E-18
  0.867361737988E-18
 -0.433680868994E-18
 -0.303576608296E-17
  0.867361737988E-18
  0.867361737988E-18
  0.173472347598E-17
 -0.138777878078E-16
  0.104083408559E-16
 -0.208166817117E-16
 -0.346944695195E-17
  0.346944695195E-17
  0.104083408559E-16
  0.138777878078E-16
 -0.138777878078E-16
  0.260208521397E-16
 -0.346944695195E-17
 -0.693889390391E-17
 -0.693889390391E-17
 -0.314418630021E-16
  0.295987193089E-16
 -0.151788304148E-16
 -0.415002816434E-16
 -0.384612333078E-16
  0.281892564846E-16
 -0.867361737988E-17
  0.190819582357E-16
  0.346944695195E-17
  0.156125112838E-16
 -0.346944695195E-17
  0.104083408559E-16
 -0.208166817117E-16
  0.104083408559E-16
 -0.693889390391E-17
  0.138777878078E-16
  0.104083408559E-16
 -0.173472347598E-17
  0.867361737988E-17
  0.173472347598E-17
  0.867361737988E-18
  0.433680868994E-18
  0.000000000000E+00
  0.000000000000E+00
 -0.216840434497E-18
 -0.413590306277E-24
 -0.108420217249E-18
 -0.216840434497E-18
 -0.130104260698E-17
 -0.867361737988E-18
  0.867361737988E-18
  0.867361737988E-18
  0.520417042793E-17
 -0.173472347598E-17
  0.173472347598E-17
 -0.104083408559E-16
  0.346944695195E-17
 -0.208166817117E-16
 -0.451028103754E-16
  0.693889390391E-17
 -0.346944695195E-17
  0.346944695195E-17
 -0.147451495458E-16
  0.164798730218E-16
  0.182145964978E-16
  0.173472347598E-17
 -0.327429056091E-16
  0.252619106189E-16
 -0.343366957066E-16
 -0.328312005220E-16
  0.693889390391E-17
 -0.867361737988E-18
 -0.225514051877E-16
  0.693889390391E-17
 -0.520417042793E-17
  0.346944695195E-16
  0.000000000000E+00
  0.277555756156E-16
  0.208166817117E-16
  0.138777878078E-16
  0.346944695195E-17
  0.138777878078E-16
 -0.693889390391E-17
  0.000000000000E+00
 -0.173472347598E-17
  0.000000000000E+00
 -0.130104260698E-17
  0.000000000000E+00
  0.433680868994E-18
 -0.216840434497E-18
 -0.413590306277E-24
 -0.108420217249E-18
  0.000000000000E+00
  0.000000000000E+00
 -0.260208521397E-17
  0.867361737988E-18
  0.173472347598E-17
  0.693889390391E-17
  0.346944695195E-17
  0.000000000000E+00
  0.000000000000E+00
 -0.242861286637E-16
 -0.242861286637E-16
  0.346944695195E-17
  0.104083408559E-16
 -0.693889390391E-17
  0.208166817117E-16
 -0.234187669257E-16
 -0.225514051877E-16
  0.151788304148E-16
 -0.693889390391E-17
  0.596311194867E-17
 -0.422838847269E-17
 -0.168491252065E-16
 -0.188135004903E-16
  0.433680868994E-18
  0.433680868994E-17
  0.190819582357E-16
 -0.164798730218E-16
  0.104083408559E-16
  0.000000000000E+00
 -0.242861286637E-16
  0.208166817117E-16
  0.277555756156E-16
  0.346944695195E-17
 -0.104083408559E-16
  0.000000000000E+00
  0.346944695195E-17
 -0.173472347598E-17
  0.000000000000E+00
  0.260208521397E-17
 -0.173472347598E-17
  0.000000000000E+00
  0.216840434497E-18
 -0.108420217249E-18
 -0.206795153138E-24
 -0.325260651746E-18
 -0.216840434497E-18
  0.000000000000E+00
 -0.260208521397E-17
  0.173472347598E-17
 -0.867361737988E-18
 -0.173472347598E-17
 -0.520417042793E-17
 -0.173472347598E-17
 -0.346944695195E-17
  0.000000000000E+00
  0.346944695195E-17
 -0.346944695195E-17
 -0.346944695195E-17
 -0.121430643318E-16
 -0.138777878078E-16
 -0.268882138776E-16
 -0.355618312575E-16
  0.303576608296E-17
 -0.520417042793E-17
 -0.130104260698E-16
  0.249366499672E-17
 -0.113664786350E-16
 -0.134871314976E-16
  0.312250225676E-16
  0.537764277553E-16
  0.346944695195E-17
  0.242861286637E-16
 -0.242861286637E-16
  0.693889390391E-17
  0.277555756156E-16
 -0.138777878078E-16
  0.104083408559E-16
  0.693889390391E-17
  0.693889390391E-17
 -0.104083408559E-16
  0.173472347598E-17
 -0.346944695195E-17
 -0.173472347598E-17
 -0.346944695195E-17
 -0.130104260698E-17
  0.433680868994E-18
  0.216840434497E-18
 -0.216840434497E-18
  0.206795153138E-24
 -0.325260651746E-18
  0.000000000000E+00
 -0.433680868994E-18
 -0.173472347598E-17
  0.867361737988E-18
 -0.260208521397E-17
 -0.346944695195E-17
 -0.520417042793E-17
  0.121430643318E-16
 -0.208166817117E-16
  0.104083408559E-16
  0.000000000000E+00
 -0.346944695195E-17
  0.867361737988E-17
  0.867361737988E-17
  0.104083408559E-16
  0.173472347598E-17
  0.164798730218E-16
  0.520417042793E-17
 -0.175640751943E-16
  0.802309607639E-17
 -0.121430643318E-16
 -0.201927505426E-16
 -0.203921209226E-16
  0.997465998687E-17
 -0.134441069388E-16
  0.303576608296E-16
 -0.260208521397E-17
  0.121430643318E-16
 -0.312250225676E-16
  0.312250225676E-16
  0.277555756156E-16
 -0.104083408559E-16
  0.104083408559E-16
 -0.138777878078E-16
  0.104083408559E-16
  0.346944695195E-17
  0.346944695195E-17
  0.000000000000E+00
 -0.867361737988E-18
 -0.130104260698E-17
 -0.433680868994E-18
 -0.216840434497E-18
 -0.325260651746E-18
 -0.206795153138E-24
 -0.108420217249E-18
  0.000000000000E+00
  0.433680868994E-18
 -0.867361737988E-18
 -0.867361737988E-18
  0.867361737988E-18
 -0.520417042793E-17
 -0.104083408559E-16
  0.000000000000E+00
 -0.277555756156E-16
  0.138777878078E-16
 -0.346944695195E-17
 -0.208166817117E-16
 -0.693889390391E-17
 -0.260208521397E-16
  0.173472347598E-16
 -0.607153216592E-17
  0.954097911787E-17
 -0.182145964978E-16
 -0.932413868338E-17
 -0.188651178012E-16
  0.171303943253E-16
  0.110487626977E-16
  0.125762807389E-16
  0.195156391047E-16
  0.229850860567E-16
 -0.433680868994E-17
 -0.173472347598E-16
  0.260208521397E-16
  0.173472347598E-16
  0.104083408559E-16
  0.555111512313E-16
  0.693889390391E-17
  0.693889390391E-17
  0.346944695195E-17
  0.138777878078E-16
  0.000000000000E+00
 -0.346944695195E-17
  0.000000000000E+00
 -0.346944695195E-17
 -0.867361737988E-18
  0.433680868994E-18
  0.000000000000E+00
 -0.325260651746E-18
 -0.413590306277E-24
 -0.216840434497E-18
 -0.433680868994E-18
  0.433680868994E-18
 -0.867361737988E-18
  0.260208521397E-17
  0.260208521397E-17
 -0.173472347598E-17
  0.346944695195E-17
  0.867361737988E-17
  0.104083408559E-16
  0.346944695195E-17
  0.346944695195E-16
  0.693889390391E-17
  0.104083408559E-16
 -0.208166817117E-16
 -0.242861286637E-16
 -0.173472347598E-17
 -0.693889390391E-17
  0.823993651089E-17
 -0.455364912444E-17
  0.378386558197E-16
  0.227682456222E-17
 -0.150332834365E-16
 -0.109358674333E-16