# vtk DataFile Version 3.0
MachLine results file. Generated by MachLine, USU AeroLab (c) 2023.
ASCII
DATASET POLYDATA
POINTS                 156 float
  0.100000000000E+01  0.104252345860E+00  0.000000000000E+00
  0.100000000000E+01  0.000000000000E+00  0.000000000000E+00
  0.295000000000E+02  0.104252345860E+00  0.000000000000E+00
  0.295000000000E+02  0.000000000000E+00  0.000000000000E+00
  0.100000000000E+01  0.211780935526E+00  0.000000000000E+00
  0.100000000000E+01  0.104252345860E+00  0.000000000000E+00
  0.295000000000E+02  0.211780935526E+00  0.000000000000E+00
  0.295000000000E+02  0.104252345860E+00  0.000000000000E+00
  0.100000000000E+01  0.322413772345E+00  0.000000000000E+00
  0.100000000000E+01  0.211780935526E+00  0.000000000000E+00
  0.295000000000E+02  0.322413772345E+00  0.000000000000E+00
  0.295000000000E+02  0.211780935526E+00  0.000000000000E+00
  0.100000000000E+01  0.435950160027E+00  0.000000000000E+00
  0.100000000000E+01  0.322413772345E+00  0.000000000000E+00
  0.295000000000E+02  0.435950160027E+00  0.000000000000E+00
  0.295000000000E+02  0.322413772345E+00  0.000000000000E+00
  0.100000000000E+01  0.552161276340E+00  0.000000000000E+00
  0.100000000000E+01  0.435950160027E+00  0.000000000000E+00
  0.295000000000E+02  0.552161276340E+00  0.000000000000E+00
  0.295000000000E+02  0.435950160027E+00  0.000000000000E+00
  0.100000000000E+01  0.670791566372E+00  0.000000000000E+00
  0.100000000000E+01  0.552161276340E+00  0.000000000000E+00
  0.295000000000E+02  0.670791566372E+00  0.000000000000E+00
  0.295000000000E+02  0.552161276340E+00  0.000000000000E+00
  0.100000000000E+01  0.791560173035E+00  0.000000000000E+00
  0.100000000000E+01  0.670791566372E+00  0.000000000000E+00
  0.295000000000E+02  0.791560173035E+00  0.000000000000E+00
  0.295000000000E+02  0.670791566372E+00  0.000000000000E+00
  0.100000000000E+01  0.914163351059E+00  0.000000000000E+00
  0.100000000000E+01  0.791560173035E+00  0.000000000000E+00
  0.295000000000E+02  0.914163351059E+00  0.000000000000E+00
  0.295000000000E+02  0.791560173035E+00  0.000000000000E+00
  0.100000000000E+01  0.103827738762E+01  0.000000000000E+00
  0.100000000000E+01  0.914163351059E+00  0.000000000000E+00
  0.295000000000E+02  0.103827738762E+01  0.000000000000E+00
  0.295000000000E+02  0.914163351059E+00  0.000000000000E+00
  0.100000000000E+01  0.116356134415E+01  0.000000000000E+00
  0.100000000000E+01  0.103827738762E+01  0.000000000000E+00
  0.295000000000E+02  0.116356134415E+01  0.000000000000E+00
  0.295000000000E+02  0.103827738762E+01  0.000000000000E+00
  0.100000000000E+01  0.128966128826E+01  0.000000000000E+00
  0.100000000000E+01  0.116356134415E+01  0.000000000000E+00
  0.295000000000E+02  0.128966128826E+01  0.000000000000E+00
  0.295000000000E+02  0.116356134415E+01  0.000000000000E+00
  0.100000000000E+01  0.141621339321E+01  0.000000000000E+00
  0.100000000000E+01  0.128966128826E+01  0.000000000000E+00
  0.295000000000E+02  0.141621339321E+01  0.000000000000E+00
  0.295000000000E+02  0.128966128826E+01  0.000000000000E+00
  0.100000000000E+01  0.154284906387E+01  0.000000000000E+00
  0.100000000000E+01  0.141621339321E+01  0.000000000000E+00
  0.295000000000E+02  0.154284906387E+01  0.000000000000E+00
  0.295000000000E+02  0.141621339321E+01  0.000000000000E+00
  0.100000000000E+01  0.166919851303E+01  0.000000000000E+00
  0.100000000000E+01  0.154284906387E+01  0.000000000000E+00
  0.295000000000E+02  0.166919851303E+01  0.000000000000E+00
  0.295000000000E+02  0.154284906387E+01  0.000000000000E+00
  0.100000000000E+01  0.179489517212E+01  0.000000000000E+00
  0.100000000000E+01  0.166919851303E+01  0.000000000000E+00
  0.295000000000E+02  0.179489517212E+01  0.000000000000E+00
  0.295000000000E+02  0.166919851303E+01  0.000000000000E+00
  0.100000000000E+01  0.191958034039E+01  0.000000000000E+00
  0.100000000000E+01  0.179489517212E+01  0.000000000000E+00
  0.295000000000E+02  0.191958034039E+01  0.000000000000E+00
  0.295000000000E+02  0.179489517212E+01  0.000000000000E+00
  0.100000000000E+01  0.204290652275E+01  0.000000000000E+00
  0.100000000000E+01  0.191958034039E+01  0.000000000000E+00
  0.295000000000E+02  0.204290652275E+01  0.000000000000E+00
  0.295000000000E+02  0.191958034039E+01  0.000000000000E+00
  0.100000000000E+01  0.216454195976E+01  0.000000000000E+00
  0.100000000000E+01  0.204290652275E+01  0.000000000000E+00
  0.295000000000E+02  0.216454195976E+01  0.000000000000E+00
  0.295000000000E+02  0.204290652275E+01  0.000000000000E+00
  0.100000000000E+01  0.228417348862E+01  0.000000000000E+00
  0.100000000000E+01  0.216454195976E+01  0.000000000000E+00
  0.295000000000E+02  0.228417348862E+01  0.000000000000E+00
  0.295000000000E+02  0.216454195976E+01  0.000000000000E+00
  0.100000000000E+01  0.240150952339E+01  0.000000000000E+00
  0.100000000000E+01  0.228417348862E+01  0.000000000000E+00
  0.295000000000E+02  0.240150952339E+01  0.000000000000E+00
  0.295000000000E+02  0.228417348862E+01  0.000000000000E+00
  0.100000000000E+01  0.251628303528E+01  0.000000000000E+00
  0.100000000000E+01  0.240150952339E+01  0.000000000000E+00
  0.295000000000E+02  0.251628303528E+01  0.000000000000E+00
  0.295000000000E+02  0.240150952339E+01  0.000000000000E+00
  0.100000000000E+01  0.262825274467E+01  0.000000000000E+00
  0.100000000000E+01  0.251628303528E+01  0.000000000000E+00
  0.295000000000E+02  0.262825274467E+01  0.000000000000E+00
  0.295000000000E+02  0.251628303528E+01  0.000000000000E+00
  0.100000000000E+01  0.273720526695E+01  0.000000000000E+00
  0.100000000000E+01  0.262825274467E+01  0.000000000000E+00
  0.295000000000E+02  0.273720526695E+01  0.000000000000E+00
  0.295000000000E+02  0.262825274467E+01  0.000000000000E+00
  0.100000000000E+01  0.284295582771E+01  0.000000000000E+00
  0.100000000000E+01  0.273720526695E+01  0.000000000000E+00
  0.295000000000E+02  0.284295582771E+01  0.000000000000E+00
  0.295000000000E+02  0.273720526695E+01  0.000000000000E+00
  0.100000000000E+01  0.294534778595E+01  0.000000000000E+00
  0.100000000000E+01  0.284295582771E+01  0.000000000000E+00
  0.295000000000E+02  0.294534778595E+01  0.000000000000E+00
  0.295000000000E+02  0.284295582771E+01  0.000000000000E+00
  0.100000000000E+01  0.304425406456E+01  0.000000000000E+00
  0.100000000000E+01  0.294534778595E+01  0.000000000000E+00
  0.295000000000E+02  0.304425406456E+01  0.000000000000E+00
  0.295000000000E+02  0.294534778595E+01  0.000000000000E+00
  0.100000000000E+01  0.313957524300E+01  0.000000000000E+00
  0.100000000000E+01  0.304425406456E+01  0.000000000000E+00
  0.295000000000E+02  0.313957524300E+01  0.000000000000E+00
  0.295000000000E+02  0.304425406456E+01  0.000000000000E+00
  0.100000000000E+01  0.323123931885E+01  0.000000000000E+00
  0.100000000000E+01  0.313957524300E+01  0.000000000000E+00
  0.295000000000E+02  0.323123931885E+01  0.000000000000E+00
  0.295000000000E+02  0.313957524300E+01  0.000000000000E+00
  0.100000000000E+01  0.331920027733E+01  0.000000000000E+00
  0.100000000000E+01  0.323123931885E+01  0.000000000000E+00
  0.295000000000E+02  0.331920027733E+01  0.000000000000E+00
  0.295000000000E+02  0.323123931885E+01  0.000000000000E+00
  0.100000000000E+01  0.340343642235E+01  0.000000000000E+00
  0.100000000000E+01  0.331920027733E+01  0.000000000000E+00
  0.295000000000E+02  0.340343642235E+01  0.000000000000E+00
  0.295000000000E+02  0.331920027733E+01  0.000000000000E+00
  0.100000000000E+01  0.348394894600E+01  0.000000000000E+00
  0.100000000000E+01  0.340343642235E+01  0.000000000000E+00
  0.295000000000E+02  0.348394894600E+01  0.000000000000E+00
  0.295000000000E+02  0.340343642235E+01  0.000000000000E+00
  0.100000000000E+01  0.356075930595E+01  0.000000000000E+00
  0.100000000000E+01  0.348394894600E+01  0.000000000000E+00
  0.295000000000E+02  0.356075930595E+01  0.000000000000E+00
  0.295000000000E+02  0.348394894600E+01  0.000000000000E+00
  0.100000000000E+01  0.363390779495E+01  0.000000000000E+00
  0.100000000000E+01  0.356075930595E+01  0.000000000000E+00
  0.295000000000E+02  0.363390779495E+01  0.000000000000E+00
  0.295000000000E+02  0.356075930595E+01  0.000000000000E+00
  0.100000000000E+01  0.370345163345E+01  0.000000000000E+00
  0.100000000000E+01  0.363390779495E+01  0.000000000000E+00
  0.295000000000E+02  0.370345163345E+01  0.000000000000E+00
  0.295000000000E+02  0.363390779495E+01  0.000000000000E+00
  0.100000000000E+01  0.376946210861E+01  0.000000000000E+00
  0.100000000000E+01  0.370345163345E+01  0.000000000000E+00
  0.295000000000E+02  0.376946210861E+01  0.000000000000E+00
  0.295000000000E+02  0.370345163345E+01  0.000000000000E+00
  0.100000000000E+01  0.383202338219E+01  0.000000000000E+00
  0.100000000000E+01  0.376946210861E+01  0.000000000000E+00
  0.295000000000E+02  0.383202338219E+01  0.000000000000E+00
  0.295000000000E+02  0.376946210861E+01  0.000000000000E+00
  0.100000000000E+01  0.389123010635E+01  0.000000000000E+00
  0.100000000000E+01  0.383202338219E+01  0.000000000000E+00
  0.295000000000E+02  0.389123010635E+01  0.000000000000E+00
  0.295000000000E+02  0.383202338219E+01  0.000000000000E+00
  0.100000000000E+01  0.394718551636E+01  0.000000000000E+00
  0.100000000000E+01  0.389123010635E+01  0.000000000000E+00
  0.295000000000E+02  0.394718551636E+01  0.000000000000E+00
  0.295000000000E+02  0.389123010635E+01  0.000000000000E+00
  0.100000000000E+01  0.400000000000E+01  0.000000000000E+00
  0.100000000000E+01  0.394718551636E+01  0.000000000000E+00
  0.295000000000E+02  0.400000000000E+01  0.000000000000E+00
  0.295000000000E+02  0.394718551636E+01  0.000000000000E+00
POLYGONS                  78                 312
3                   0                   3                   1
3                   0                   2                   3
3                   4                   7                   5
3                   4                   6                   7
3                   8                  11                   9
3                   8                  10                  11
3                  12                  15                  13
3                  12                  14                  15
3                  16                  19                  17
3                  16                  18                  19
3                  20                  23                  21
3                  20                  22                  23
3                  24                  27                  25
3                  24                  26                  27
3                  28                  31                  29
3                  28                  30                  31
3                  32                  35                  33
3                  32                  34                  35
3                  36                  39                  37
3                  36                  38                  39
3                  40                  43                  41
3                  40                  42                  43
3                  44                  47                  45
3                  44                  46                  47
3                  48                  51                  49
3                  48                  50                  51
3                  52                  55                  53
3                  52                  54                  55
3                  56                  59                  57
3                  56                  58                  59
3                  60                  63                  61
3                  60                  62                  63
3                  64                  67                  65
3                  64                  66                  67
3                  68                  71                  69
3                  68                  70                  71
3                  72                  75                  73
3                  72                  74                  75
3                  76                  79                  77
3                  76                  78                  79
3                  80                  83                  81
3                  80                  82                  83
3                  84                  87                  85
3                  84                  86                  87
3                  88                  91                  89
3                  88                  90                  91
3                  92                  95                  93
3                  92                  94                  95
3                  96                  99                  97
3                  96                  98                  99
3                 100                 103                 101
3                 100                 102                 103
3                 104                 107                 105
3                 104                 106                 107
3                 108                 111                 109
3                 108                 110                 111
3                 112                 115                 113
3                 112                 114                 115
3                 116                 119                 117
3                 116                 118                 119
3                 120                 123                 121
3                 120                 122                 123
3                 124                 127                 125
3                 124                 126                 127
3                 128                 131                 129
3                 128                 130                 131
3                 132                 135                 133
3                 132                 134                 135
3                 136                 139                 137
3                 136                 138                 139
3                 140                 143                 141
3                 140                 142                 143
3                 144                 147                 145
3                 144                 146                 147
3                 148                 151                 149
3                 148                 150                 151
3                 152                 155                 153
3                 152                 154                 155
POINT_DATA                 156
SCALARS mu float 1
LOOKUP_TABLE default
 -0.993018043814E-15
 -0.287695643845E-15
 -0.993018043814E-15
 -0.287695643845E-15
  0.473826183954E-15
 -0.993018043814E-15
  0.473826183954E-15
 -0.993018043814E-15
  0.534639326861E-15
  0.473826183954E-15
  0.534639326861E-15
  0.473826183954E-15
 -0.714406812788E-15
  0.534639326861E-15
 -0.714406812788E-15
  0.534639326861E-15
 -0.517113930177E-15
 -0.714406812788E-15
 -0.517113930177E-15
 -0.714406812788E-15
  0.430526572086E-15
 -0.517113930177E-15
  0.430526572086E-15
 -0.517113930177E-15
  0.404241935744E-15
  0.430526572086E-15
  0.404241935744E-15
  0.430526572086E-15
  0.305758804640E-15
  0.404241935744E-15
  0.305758804640E-15
  0.404241935744E-15
 -0.223228084721E-15
  0.305758804640E-15
 -0.223228084721E-15
  0.305758804640E-15
  0.398508120351E-15
 -0.223228084721E-15
  0.398508120351E-15
 -0.223228084721E-15
  0.637569930580E-15
  0.398508120351E-15
  0.637569930580E-15
  0.398508120351E-15
 -0.672420120697E-15
  0.637569930580E-15
 -0.672420120697E-15
  0.637569930580E-15
 -0.724598939907E-15
 -0.672420120697E-15
 -0.724598939907E-15
 -0.672420120697E-15
 -0.116091276800E-14
 -0.724598939907E-15
 -0.116091276800E-14
 -0.724598939907E-15
 -0.141210421058E-15
 -0.116091276800E-14
 -0.141210421058E-15
 -0.116091276800E-14
  0.131322246501E-15
 -0.141210421058E-15
  0.131322246501E-15
 -0.141210421058E-15
  0.555765636312E-15
  0.131322246501E-15
  0.555765636312E-15
  0.131322246501E-15
 -0.298339843171E-15
  0.555765636312E-15
 -0.298339843171E-15
  0.555765636312E-15
  0.101153820311E-15
 -0.298339843171E-15
  0.101153820311E-15
 -0.298339843171E-15
 -0.347060602123E-15
  0.101153820311E-15
 -0.347060602123E-15
  0.101153820311E-15
 -0.462862601868E-15
 -0.347060602123E-15
 -0.462862601868E-15
 -0.347060602123E-15
  0.843356595488E-16
 -0.462862601868E-15
  0.843356595488E-16
 -0.462862601868E-15
 -0.164807430530E-15
  0.843356595488E-16
 -0.164807430530E-15
  0.843356595488E-16
 -0.895935302586E-16
 -0.164807430530E-15
 -0.895935302586E-16
 -0.164807430530E-15
  0.246104708141E-15
 -0.895935302586E-16
  0.246104708141E-15
 -0.895935302586E-16
 -0.127401082102E-14
  0.246104708141E-15
 -0.127401082102E-14
  0.246104708141E-15
 -0.138371302263E-14
 -0.127401082102E-14
 -0.138371302263E-14
 -0.127401082102E-14
 -0.213154147111E-14
 -0.138371302263E-14
 -0.213154147111E-14
 -0.138371302263E-14
  0.230935062739E-14
 -0.213154147111E-14
  0.230935062739E-14
 -0.213154147111E-14
 -0.148752538065E-14
  0.230935062739E-14
 -0.148752538065E-14
  0.230935062739E-14
  0.935015953551E-15
 -0.148752538065E-14
  0.935015953551E-15
 -0.148752538065E-14
  0.153869972319E-14
  0.935015953551E-15
  0.153869972319E-14
  0.935015953551E-15
  0.862157567560E-15
  0.153869972319E-14
  0.862157567560E-15
  0.153869972319E-14
  0.131665511827E-14
  0.862157567560E-15
  0.131665511827E-14
  0.862157567560E-15
  0.341740524767E-15
  0.131665511827E-14
  0.341740524767E-15
  0.131665511827E-14
 -0.973179870023E-15
  0.341740524767E-15
 -0.973179870023E-15
  0.341740524767E-15
 -0.149706635977E-14
 -0.973179870023E-15
 -0.149706635977E-14
 -0.973179870023E-15
  0.929811783124E-15
 -0.149706635977E-14
  0.929811783124E-15
 -0.149706635977E-14
  0.000000000000E+00
  0.929811783124E-15
  0.000000000000E+00
  0.929811783124E-15
