# vtk DataFile Version 3.0
TriPan results file. Generated by TriPan, USU AeroLab (c) 2021.
ASCII
DATASET POLYDATA
POINTS                 446 float
  0.190349744366E-05  0.000000000000E+00  0.000000000000E+00
  0.180155439444E-05  0.217527970672E+00  0.000000000000E+00
  0.188619651827E-05  0.448061168194E+00  0.000000000000E+00
  0.195463115218E-05  0.689725637436E+00  0.000000000000E+00
  0.200381935583E-05  0.940178275108E+00  0.000000000000E+00
  0.203146979263E-05  0.119668114185E+01  0.000000000000E+00
  0.203625478170E-05  0.145621216297E+01  0.432309807279E-21
  0.201794494299E-05  0.171560299397E+01  0.000000000000E+00
  0.197742965724E-05  0.197169232368E+01  0.000000000000E+00
  0.191662923716E-05  0.222147774696E+01  0.000000000000E+00
  0.183830664114E-05  0.246225214005E+01  0.000000000000E+00
  0.174581819542E-05  0.269171094894E+01  0.370648277606E-21
  0.164282618113E-05  0.290802383423E+01  0.000000000000E+00
  0.153302818423E-05  0.310986590385E+01  0.000000000000E+00
  0.141992384673E-05  0.329641318321E+01  0.000000000000E+00
  0.130663581474E-05  0.346730756760E+01  0.000000000000E+00
  0.119580047662E-05  0.362259936333E+01  0.000000000000E+00
  0.108952656797E-05  0.376267743111E+01  0.000000000000E+00
  0.989381096661E-06  0.388819599152E+01  0.000000000000E+00
  0.971479789355E-07  0.399999949033E+01 -0.325828402727E-22
  0.341101700422E-01  0.000000000000E+00 -0.298244900752E-02
  0.341101700422E-01  0.000000000000E+00  0.298244900752E-02
  0.341101732645E-01  0.217527970672E+00 -0.298241217554E-02
  0.341101732645E-01  0.217527970672E+00  0.298241217554E-02
  0.341101808994E-01  0.448061168194E+00 -0.298232490813E-02
  0.341101808994E-01  0.448061168194E+00  0.298232490813E-02
  0.341101872069E-01  0.689725637436E+00 -0.298225281343E-02
  0.341101872069E-01  0.689725637436E+00  0.298225281343E-02
  0.341101919096E-01  0.940178275108E+00 -0.298219906190E-02
  0.341101919096E-01  0.940178275108E+00  0.298219906190E-02
  0.341101947895E-01  0.119668114185E+01 -0.298216614364E-02
  0.341101947895E-01  0.119668114185E+01  0.298216614364E-02
  0.341101957088E-01  0.145621216297E+01 -0.298215563625E-02
  0.341101957088E-01  0.145621216297E+01  0.298215563625E-02
  0.341101946228E-01  0.171560299397E+01 -0.298216804932E-02
  0.341101946228E-01  0.171560299397E+01  0.298216804932E-02
  0.341101915849E-01  0.197169232368E+01 -0.298220277328E-02
  0.341101915849E-01  0.197169232368E+01  0.298220277328E-02
  0.341101867408E-01  0.222147774696E+01 -0.298225814118E-02
  0.341101867408E-01  0.222147774696E+01  0.298225814118E-02
  0.341101803147E-01  0.246225214005E+01 -0.298233159154E-02
  0.341101803147E-01  0.246225214005E+01  0.298233159154E-02
  0.341101725883E-01  0.269171094894E+01 -0.298241990475E-02
  0.341101725883E-01  0.269171094894E+01  0.298241990475E-02
  0.341101638765E-01  0.290802383423E+01 -0.298251948086E-02
  0.341101638765E-01  0.290802383423E+01  0.298251948086E-02
  0.341101545033E-01  0.310986590385E+01 -0.298262661791E-02
  0.341101545033E-01  0.310986590385E+01  0.298262661791E-02
  0.341101447801E-01  0.329641318321E+01 -0.298273775438E-02
  0.341101447801E-01  0.329641318321E+01  0.298273775438E-02
  0.341101349893E-01  0.346730756760E+01 -0.298284966302E-02
  0.341101349893E-01  0.346730756760E+01  0.298284966302E-02
  0.341101253729E-01  0.362259936333E+01 -0.298295957907E-02
  0.341101253729E-01  0.362259936333E+01  0.298295957907E-02
  0.341101161271E-01  0.376267743111E+01 -0.298306525965E-02
  0.341101161271E-01  0.376267743111E+01  0.298306525965E-02
  0.341101074006E-01  0.388819599152E+01 -0.298316500328E-02
  0.341101074006E-01  0.388819599152E+01  0.298316500328E-02
  0.341100737472E-01  0.399999986265E+01 -0.298354966883E-02
  0.341100737472E-01  0.399999986265E+01  0.298354966883E-02
  0.341100436987E-01  0.400210926234E+01 -0.210953759438E-02
  0.341100436987E-01  0.400210926234E+01  0.210953759438E-02
  0.341100370391E-01  0.400298377669E+01 -0.122196032094E-22
  0.937239372188E-01  0.000000000000E+00 -0.819781594942E-02
  0.937239372188E-01  0.000000000000E+00  0.819781594942E-02
  0.937239391905E-01  0.217527970672E+00 -0.819779341279E-02
  0.937239391905E-01  0.217527970672E+00  0.819779341279E-02
  0.937239466997E-01  0.448061168194E+00 -0.819770758223E-02
  0.937239466997E-01  0.448061168194E+00  0.819770758223E-02
  0.937239529129E-01  0.689725637436E+00 -0.819763656592E-02
  0.937239529129E-01  0.689725637436E+00  0.819763656592E-02
  0.937239575511E-01  0.940178275108E+00 -0.819758355120E-02
  0.937239575511E-01  0.940178275108E+00  0.819758355120E-02
  0.937239603954E-01  0.119668114185E+01 -0.819755104039E-02
  0.937239603954E-01  0.119668114185E+01  0.819755104039E-02
  0.937239613072E-01  0.145621216297E+01 -0.819754061826E-02
  0.937239613072E-01  0.145621216297E+01  0.819754061826E-02
  0.937239602418E-01  0.171560299397E+01 -0.819755279622E-02
  0.937239602418E-01  0.171560299397E+01  0.819755279622E-02
  0.937239572527E-01  0.197169232368E+01 -0.819758696122E-02
  0.937239572527E-01  0.197169232368E+01  0.819758696122E-02
  0.937239524866E-01  0.222147774696E+01 -0.819764143773E-02
  0.937239524866E-01  0.222147774696E+01  0.819764143773E-02
  0.937239461688E-01  0.246225214005E+01 -0.819771365102E-02
  0.937239461688E-01  0.246225214005E+01  0.819771365102E-02
  0.937239385823E-01  0.269171094894E+01 -0.819780036452E-02
  0.937239385823E-01  0.269171094894E+01  0.819780036452E-02
  0.937239300440E-01  0.290802383423E+01 -0.819789795872E-02
  0.937239300440E-01  0.290802383423E+01  0.819789795872E-02
  0.937239208793E-01  0.310986590385E+01 -0.819800271149E-02
  0.937239208793E-01  0.310986590385E+01  0.819800271149E-02
  0.937239114015E-01  0.329641318321E+01 -0.819811104320E-02
  0.937239114015E-01  0.329641318321E+01  0.819811104320E-02
  0.937239018940E-01  0.346730756760E+01 -0.819821971403E-02
  0.937239018940E-01  0.346730756760E+01  0.819821971403E-02
  0.937238925990E-01  0.362259936333E+01 -0.819832595654E-02
  0.937238925990E-01  0.362259936333E+01  0.819832595654E-02
  0.937238837116E-01  0.376267743111E+01 -0.819842754027E-02
  0.937238837116E-01  0.376267743111E+01  0.819842754027E-02
  0.937238753778E-01  0.388819599152E+01 -0.819852279555E-02
  0.937238753778E-01  0.388819599152E+01  0.819852279555E-02
  0.937238447620E-01  0.399999982191E+01 -0.819887273523E-02
  0.937238447620E-01  0.399999982191E+01  0.819887273523E-02
  0.937238187329E-01  0.400579648713E+01 -0.579655186704E-02
  0.937238187329E-01  0.400579648713E+01  0.579655186704E-02
  0.937238127474E-01  0.400819916324E+01 -0.531059685571E-23
  0.190432515049E+00  0.000000000000E+00 -0.166584976144E-01
  0.190432515049E+00  0.000000000000E+00  0.166584976144E-01
  0.190432515623E+00  0.217527970672E+00 -0.166584910535E-01
  0.190432515623E+00  0.217527970672E+00  0.166584910535E-01
  0.190432522917E+00  0.448061168194E+00 -0.166584076910E-01
  0.190432522917E+00  0.448061168194E+00  0.166584076910E-01
  0.190432528965E+00  0.689725637436E+00 -0.166583385577E-01
  0.190432528965E+00  0.689725637436E+00  0.166583385577E-01
  0.190432533488E+00  0.940178275108E+00 -0.166582868539E-01
  0.190432533488E+00  0.940178275108E+00  0.166582868539E-01
  0.190432536267E+00  0.119668114185E+01 -0.166582550931E-01
  0.190432536267E+00  0.119668114185E+01  0.166582550931E-01
  0.190432537162E+00  0.145621216297E+01 -0.166582448678E-01
  0.190432537162E+00  0.145621216297E+01  0.166582448678E-01
  0.190432536127E+00  0.171560299397E+01 -0.166582566924E-01
  0.190432536127E+00  0.171560299397E+01  0.166582566924E-01
  0.190432533217E+00  0.197169232368E+01 -0.166582899521E-01
  0.190432533217E+00  0.197169232368E+01  0.166582899521E-01
  0.190432528579E+00  0.222147774696E+01 -0.166583429656E-01
  0.190432528579E+00  0.222147774696E+01  0.166583429656E-01
  0.190432522439E+00  0.246225214005E+01 -0.166584131493E-01
  0.190432522439E+00  0.246225214005E+01  0.166584131493E-01
  0.190432515080E+00  0.269171094894E+01 -0.166584972583E-01
  0.190432515080E+00  0.269171094894E+01  0.166584972583E-01
  0.190432506821E+00  0.290802383423E+01 -0.166585916677E-01
  0.190432506821E+00  0.290802383423E+01  0.166585916677E-01
  0.190432497985E+00  0.310986590385E+01 -0.166586926582E-01
  0.190432497985E+00  0.310986590385E+01  0.166586926582E-01
  0.190432488886E+00  0.329641318321E+01 -0.166587966664E-01
  0.190432488886E+00  0.329641318321E+01  0.166587966664E-01
  0.190432479802E+00  0.346730756760E+01 -0.166589004874E-01
  0.190432479802E+00  0.346730756760E+01  0.166589004874E-01
  0.190432470973E+00  0.362259936333E+01 -0.166590014131E-01
  0.190432470973E+00  0.362259936333E+01  0.166590014131E-01
  0.190432462584E+00  0.376267743111E+01 -0.166590972994E-01
  0.190432462584E+00  0.376267743111E+01  0.166590972994E-01
  0.190432454772E+00  0.388819599152E+01 -0.166591865905E-01
  0.190432454772E+00  0.388819599152E+01  0.166591865905E-01
  0.190432426971E+00  0.399999976796E+01 -0.166595043537E-01
  0.190432426971E+00  0.399999976796E+01  0.166595043537E-01
  0.190432405032E+00  0.401177770772E+01 -0.117779154044E-01
  0.190432405032E+00  0.401177770772E+01  0.117779154044E-01
  0.190432398107E+00  0.401665985477E+01 -0.272412558306E-17
  0.329832195175E+00  0.000000000000E+00 -0.288541863447E-01
  0.329832195175E+00  0.000000000000E+00  0.288541863447E-01
  0.329832196040E+00  0.217527970672E+00 -0.288541764567E-01
  0.329832196040E+00  0.217527970672E+00  0.288541764567E-01
  0.329832203100E+00  0.448061168194E+00 -0.288540957614E-01
  0.329832203100E+00  0.448061168194E+00  0.288540957614E-01
  0.329832208967E+00  0.689725637436E+00 -0.288540287094E-01
  0.329832208967E+00  0.689725637436E+00  0.288540287094E-01
  0.329832213360E+00  0.940178275108E+00 -0.288539784943E-01
  0.329832213360E+00  0.940178275108E+00  0.288539784943E-01
  0.329832216060E+00  0.119668114185E+01 -0.288539476290E-01
  0.329832216060E+00  0.119668114185E+01  0.288539476290E-01
[...]
POINT_DATA                 446
SCALARS phi float 1
LOOKUP_TABLE default
 -0.787698014455E-14
 -0.276295883730E-17
  0.161413317119E-15
 -0.174658491773E-13
  0.444218467678E-15
 -0.312337423669E-14
 -0.289165317842E-14
  0.160252486822E-14
 -0.511865922765E-14
 -0.335055538777E-15
 -0.328611364102E-13
  0.410252218534E-16
 -0.568445201219E-13
  0.232940456227E-14
  0.421443909181E-13
 -0.162792730480E-13
  0.466876015277E-14
  0.995865663476E-13
  0.958618388236E-14
 -0.536057378211E-13
 -0.586824425858E-17
 -0.119655262261E-15
 -0.174990230639E-15
  0.377130645506E-13
 -0.940138808816E-16
  0.431160234468E-13
  0.227936566106E-15
  0.169376502841E-13
  0.246742730414E-14
  0.319754734301E-13
 -0.992309262104E-15
 -0.589290850275E-13
  0.455966983463E-14
  0.311898944172E-13
  0.698307514244E-15
  0.342529281848E-14
 -0.258426364075E-14
  0.685642542091E-13
  0.944814430685E-15
 -0.626211186855E-13
  0.526613935835E-15
  0.416667839554E-13
 -0.256224078413E-15
  0.301747423706E-13
 -0.531827931845E-14
 -0.602182149631E-14
  0.356769599757E-14
  0.563163068696E-14
  0.170285809650E-14
  0.297345156310E-14
 -0.740434189656E-14
 -0.593101278810E-14
  0.478279355953E-14
  0.627435928734E-14
 -0.288176194062E-14
 -0.166893070002E-13
 -0.548597828948E-15
  0.344904362232E-14
  0.800568819407E-13
 -0.246786776128E-13
  0.168203633259E-14
  0.572995088335E-14
  0.116328794470E-13
 -0.381639164715E-16
 -0.572944469646E-13
 -0.322008045228E-15
 -0.181263424409E-13
  0.267797936604E-15
  0.117590399223E-13
  0.349134783584E-14
  0.582650247494E-14
  0.189063174838E-14
 -0.480843663497E-14
  0.462086965913E-15
  0.348527630367E-14
  0.319167435536E-14
 -0.445997405674E-14
 -0.318300073798E-14
  0.500250882385E-15
 -0.216298333411E-14
  0.175640751943E-16
  0.106989070381E-14
 -0.298567594259E-14
  0.470348586468E-14
 -0.826400579912E-14
  0.114058068545E-14
 -0.265928772059E-13
  0.346315857935E-14
 -0.584048868296E-14
  0.153429569397E-12
  0.248650926238E-14
 -0.520663156686E-13
 -0.876870191041E-14
  0.123006205915E-12
  0.658110718699E-15
  0.163121903138E-12
  0.799740048490E-14
  0.241744558399E-14
  0.147576178708E-13
 -0.961188593995E-14
 -0.322658566532E-15
  0.746928560669E-14
  0.507610717782E-13
 -0.425170966142E-13
  0.230504634477E-13
  0.373434464775E-13
 -0.152655665886E-15
  0.000000000000E+00
  0.588938620094E-15
  0.200501507758E-14
  0.262875658741E-14
 -0.107167624926E-13
 -0.118785190018E-14
  0.698944483020E-14
 -0.168918698473E-14
 -0.502251235393E-14
 -0.581934674060E-14
  0.272614504755E-14
  0.357353036051E-14
  0.755163076169E-14
 -0.721124548964E-14
 -0.849445297088E-14
  0.242536025985E-14
 -0.255584670181E-13
  0.346879643065E-14
 -0.123311734088E-13
 -0.997899679556E-14
  0.643763335825E-14
 -0.233016730911E-14
  0.578530279238E-15
 -0.192536958599E-13
 -0.312716432610E-14
  0.503080650055E-14
 -0.519831306805E-13
  0.417423257418E-14
  0.689725511947E-13
 -0.187362061629E-13
 -0.718771721829E-12
  0.184159328412E-13
 -0.111504880849E-12
  0.161140577878E-12
  0.654477557219E-13
  0.342888044347E-11
  0.392143782724E-12
  0.164511958743E-12
  0.284632560577E-12
 -0.120913153621E-12
 -0.324553751929E-13
  0.547103622172E-12
 -0.645317133063E-14
 -0.123512311490E-13
  0.193924737379E-13
 -0.444895856266E-12
  0.188130760970E-14
  0.356497817378E-12
  0.197204232111E-12
  0.234760128004E-13
 -0.411597839145E-13
 -0.181117273956E-12
 -0.444022422996E-12
  0.108295317158E-12
 -0.116595101629E-12
 -0.339020478357E-12
  0.357164818554E-12
  0.387225841669E-12
 -0.367052742367E-12
 -0.448445100498E-12
 -0.160470595145E-13
 -0.311903280981E-14
 -0.798042187888E-13
 -0.257328880426E-13
  0.122147084114E-12
 -0.268915098522E-12
 -0.786011880582E-13
 -0.195374966205E-12
 -0.196776622774E-12
 -0.228383284506E-12
 -0.287374291030E-13
 -0.612947193002E-13
 -0.194635974005E-14
 -0.360267371491E-13
 -0.110120246255E-13
 -0.176421377507E-14
 -0.550861439796E-13
 -0.144979514505E-12
 -0.885330003753E-12
 -0.160391838699E-11
 -0.401848693210E-12
  0.349298714952E-12
  0.196865961033E-12
  0.169612005105E-11
  0.681746326059E-14
  0.510286257693E-13
 -0.280053757962E-13
 -0.128855259796E-13
 -0.468778661722E-13
  0.265343302885E-13
  0.128039939762E-12
 -0.161086421979E-13
  0.490753271354E-13
 -0.119924903341E-12
  0.678693212741E-13
 -0.304270497686E-14
 -0.356659146661E-13
 -0.147409862095E-12
 -0.281927259316E-13
  0.118793863635E-13
 -0.428823643261E-13
 -0.120122661817E-12
 -0.617284001692E-13
 -0.154588147838E-12
  0.597265292779E-13
  0.514251835559E-12
 -0.156961249553E-12
  0.143295098010E-12
 -0.389011739488E-12
  0.248932818803E-14
 -0.306057262867E-12
  0.503602368140E-12
 -0.296540569877E-12
 -0.217775450451E-12
  0.323092247401E-13
 -0.168112052057E-12
 -0.260364646509E-13
  0.196183347345E-12
 -0.226397026126E-12
 -0.120870327636E-11
 -0.234537216037E-12
  0.421246371118E-12
  0.112208853320E-11
 -0.245001588461E-11
 -0.107765879553E-11
 -0.370883011802E-12
 -0.126524658806E-12
  0.115417137653E-11
  0.628663787694E-12
 -0.115796261468E-12
  0.309266501297E-13
 -0.350414142147E-15
  0.285283949242E-13
 -0.184748050192E-15
  0.200392220179E-12
 -0.565736693603E-13
 -0.226104725221E-12
 -0.315153502253E-12
  0.266054539511E-13
  0.336067220059E-12
 -0.182622146572E-12
 -0.411488117885E-12
  0.261545993196E-12
  0.397690777879E-13
 -0.378475029095E-12
 -0.105182952192E-12
  0.104409753413E-12
 -0.629811415694E-13
 -0.203767558382E-12
  0.658908691498E-12
  0.110014428123E-12
  0.147139245232E-13
 -0.799069144186E-12
  0.790097154368E-13
  0.282031342724E-13
  0.358263765876E-12
 -0.121951060361E-13
  0.952857435424E-12
  0.837767355488E-13
  0.868752986216E-12
  0.390398824379E-11
 -0.698835433965E-11
  0.196587190970E-11
  0.323546744951E-12
 -0.490937845932E-11
 -0.316943693512E-11
 -0.188484644559E-11
 -0.732545968329E-12
 -0.940129918359E-12
 -0.928514209964E-12
 -0.393469284932E-11
  0.431599200823E-13
  0.573374681068E-12
  0.431286950597E-12
 -0.268007838145E-12
 -0.133672586888E-12
 -0.343024220140E-13
  0.992782245302E-14
 -0.163604373105E-12
  0.169286459850E-12
 -0.750311271447E-13
 -0.217230747279E-13
 -0.143886638715E-12
 -0.429826313431E-12
  0.264530584937E-12
 -0.415691786548E-13
 -0.135660579992E-12
 -0.384121554009E-12
  0.322404429542E-12
 -0.181947339140E-12
  0.766064729013E-13
 -0.496980061271E-12
 -0.509659155157E-12
  0.186163584548E-12
 -0.126038415815E-11
 -0.136945229462E-11
  0.179547782891E-12
 -0.142218962301E-11
 -0.615280396077E-13
  0.141008732468E-11
  0.934866767333E-12
 -0.295583002519E-12
 -0.367761376907E-13
  0.951005940664E-11
 -0.917599329853E-12
 -0.159067203853E-10
 -0.227940444297E-10
 -0.130784272301E-11
  0.240041320154E-11
 -0.395290744581E-11
 -0.141534006737E-11
  0.112472531288E-11
 -0.307323611004E-12
  0.256683563293E-12
 -0.261957122660E-12
 -0.227928786956E-12
  0.373034936274E-12
  0.781319453580E-12
  0.526384491550E-13
 -0.932087740324E-12
 -0.298660401965E-12
 -0.197151323045E-12
 -0.415278922361E-12
 -0.449570936034E-13
  0.781860687304E-12
  0.607805472619E-12
  0.136127220607E-12
 -0.104652397859E-12
  0.487394846704E-12
 -0.336120020705E-13
 -0.131808453041E-11
 -0.117547638290E-11
 -0.140401579252E-11
 -0.136337469092E-11
 -0.960308221831E-13
 -0.445015552186E-12
  0.289233914597E-12
 -0.196204164027E-12
  0.131214483723E-12
  0.877881101147E-12
  0.110252779129E-11
 -0.260576976663E-11
 -0.426721158409E-11
  0.187072579649E-13
 -0.844413428069E-11
 -0.179409820333E-10
  0.829747381914E-11
  0.171386238534E-10
 -0.487571094610E-11
  0.581423797996E-11
 -0.167815761287E-11
 -0.981270620315E-12
  0.775574049428E-12
  0.651839693333E-12
 -0.191592575138E-11
  0.476277350892E-11
  0.296235258546E-12
  0.411476408502E-12
  0.176747505520E-12
  0.139885325545E-11
  0.170284619738E-11
 -0.118433041152E-12
  0.133129618440E-12
  0.988653603429E-13
 -0.293855217937E-12
 -0.189820381635E-12
 -0.116021081631E-11
 -0.103991121270E-11
 -0.414460132880E-13
 -0.920583054231E-13
 -0.693868573709E-12
  0.699371116575E-12
  0.128105165365E-11
  0.436421732086E-12
  0.135433331216E-12
 -0.695915547411E-12
 -0.940553190887E-12
 -0.158595359068E-11
 -0.398583943628E-12
 -0.370944941430E-11
  0.174762981864E-12
  0.127650667814E-11
  0.691183221768E-12
  0.159658397614E-11
  0.586808379666E-12
  0.130037647317E-11
  0.209239570115E-11
 -0.105896402758E-10
 -0.173655811953E-10
 -0.654210019491E-11
 -0.519750908978E-11
 -0.121913590334E-11
 -0.227606822278E-11
 -0.255190313325E-11
  0.502764496702E-12
  0.583882941996E-11
 -0.359184904042E-11
  0.606598105080E-12
  0.123659416040E-11
 -0.108829611989E-12
  0.788258347484E-12
  0.228385366174E-11
  0.555111512313E-15
 -0.199146255042E-14
 -0.516239828663E-12
 -0.548866507799E-13
 -0.608957329007E-13
 -0.371924713249E-14
  0.249915366179E-11
  0.831071322871E-13
 -0.145750078673E-11
  0.348193696098E-13
 -0.792331478205E-12
 -0.805411293214E-12
 -0.471442329619E-12
 -0.743613504106E-11
 -0.413535872212E-11
 -0.189104287784E-11
 -0.163535851527E-11
 -0.219071982777E-11
  0.282246448435E-12
  0.233937869076E-11
 -0.156707979926E-12
  0.331748517546E-13
 -0.783054177056E-12
 -0.568017854974E-13
 -0.577010661473E-12
 -0.853483950181E-13
  0.374533737357E-12
 -0.414182577124E-13
 -0.984004544513E-12
  0.765693064508E-12
 -0.551378387392E-12
 -0.136680944340E-11
  0.139403766308E-11
 -0.962407931127E-11
 -0.529143395767E-11
 -0.136357591884E-11
 -0.245625741968E-11
SCALARS phi_mu float 1
LOOKUP_TABLE default
 -0.167140606910E-14
  0.616000306319E-14
  0.692447401501E-14
 -0.101964877514E-13
  0.808879872805E-14
  0.473579508942E-14
  0.500380986646E-14
  0.935297846116E-14
  0.231759056391E-14
  0.664312355125E-14
 -0.264501962000E-13
  0.581479309147E-14
 -0.517389950327E-13
  0.115888743914E-13
  0.500855697790E-13
 -0.955449098745E-14
  0.103037966614E-13
  0.104269408523E-12
  0.154559423257E-13
  0.130319847524E-13
  0.464468037816E-04
  0.374959023485E-04
  0.275839040657E-04
  0.612254622460E-04
  0.274878276809E-04
  0.611345104748E-04
  0.274118871468E-04
  0.610622214379E-04
  0.273571809482E-04
  0.610098020254E-04
  0.273245189032E-04
  0.609781622798E-04
  0.273143976306E-04
  0.609678595807E-04
  0.273269857022E-04
  0.609790659586E-04
  0.273621158186E-04
  0.610115611256E-04
  0.274192818236E-04
  0.610647462342E-04
  0.274976430629E-04
  0.611376810942E-04
  0.275960422917E-04
  0.612291414882E-04
  0.181854174462E-04
  0.518100722510E-04
  0.879109995841E-05
  0.424059173258E-04
  0.893966449260E-05
  0.425434841007E-04
  0.910181493489E-05
  0.426938229246E-04
  0.927604176521E-05
  0.428558593028E-04
 -0.682996431113E-07
  0.334994354828E-04
  0.126192755325E-06
  0.336824484593E-04
 -0.253885353793E-04
  0.365399983653E-04
 -0.140197649479E-04
  0.217423800961E-04
  0.246123103553E-05
  0.992407842056E-02
  0.234604340581E-01
 -0.126420072936E-02
 -0.100888436180E-02
 -0.134094074875E-02
 -0.108574542303E-02
 -0.133227762315E-02
 -0.107719726478E-02
 -0.137939483867E-02
 -0.112442499723E-02
 -0.140819603654E-02
 -0.115333379127E-02
 -0.141732386657E-02
 -0.116256781486E-02
 -0.140633887211E-02
 -0.115168906977E-02
 -0.137576353449E-02
 -0.112122137954E-02
 -0.132702922408E-02
 -0.107259708368E-02
 -0.126233628766E-02
 -0.100801684292E-02
 -0.125640673471E-02
 -0.100220188245E-02
 -0.116842309329E-02
 -0.914332521067E-03
 -0.107352164129E-02
 -0.819540940263E-03
 -0.974763548204E-03
 -0.720882081723E-03
 -0.874923716742E-03
 -0.621122394600E-03
 -0.776381449477E-03
 -0.522630535989E-03
 -0.717051526528E-03
 -0.535269985748E-03
 -0.626446087428E-03
 -0.444617783334E-03
 -0.298212092013E-03
  0.137435664239E-03
 -0.318860572532E-03
 -0.341598415595E-04
 -0.244273915009E-03
  0.331314228720E-01
  0.473154371048E-01
 -0.902822534868E-03
  0.161148655176E-03
 -0.102056764602E-02
  0.418646932003E-04
 -0.111756581736E-02
 -0.565935744740E-04
 -0.118963696944E-02
 -0.130044310140E-03
 -0.123350201283E-02
 -0.175206515715E-03
 -0.124708565857E-02
 -0.190002224882E-03
 -0.122972003521E-02
 -0.173758084980E-03
 -0.118221208049E-02
 -0.127271204786E-03
 -0.110676446436E-02
 -0.527272952664E-04
 -0.100676455905E-02
  0.465122223653E-04
 -0.103502479447E-02
 -0.279422509859E-03
 -0.899231255835E-03
 -0.143981755004E-03
 -0.752860408374E-03
  0.232400872444E-05
 -0.303571540475E-03
  0.451902093971E-03
  0.295761092448E-03
  0.754845475139E-03
  0.447209487158E-03
  0.907493925656E-03
  0.444837705033E-03
  0.906869360083E-03
  0.400928598759E-02
  0.477076122638E-02
 -0.943127387543E-03
  0.100037171953E-02
 -0.502328051093E-03
  0.765671179909E-03
  0.192277572991E-03
  0.865349140362E-01
  0.100183650417E+00
  0.590175860935E-02
  0.824945647669E-02
  0.574814820745E-02
  0.808808039757E-02
  0.562188739745E-02
  0.795457398027E-02
  0.552849184839E-02
  0.785448550276E-02
  0.547226793758E-02
  0.779218214715E-02
  0.456463222468E-02
  0.687916515766E-02
  0.548026449765E-02
  0.779022435713E-02
  0.554418055981E-02
  0.785050979861E-02
  0.564467713564E-02
  0.794847958453E-02
  0.577719230897E-02
  0.807975740498E-02
  0.593599769049E-02
  0.823882184639E-02
  0.700597953916E-02
  0.841947977002E-02
  0.157967849775E-01
  0.172252033093E-01
  0.226059895189E-01
  0.237241491833E-01
  0.157394859671E-01
  0.171397252206E-01
  0.103882869470E-01
  0.115011560238E-01
  0.598053148450E-02
  0.828449530720E-02
 -0.239127200123E-01
 -0.285566412440E-01
 -0.585049421833E-02
  0.152608272138E-02
 -0.577920030741E-02
 -0.149127995098E-03
  0.256420373845E-02
  0.100869084868E+00
  0.139318398531E+00
 -0.209000277574E-01
 -0.222490902635E-02
  0.264017001174E-01
  0.295265893406E-01
  0.259812390124E-01
  0.307189167718E-01
  0.266676469938E-01
  0.314008212384E-01
  0.270531862891E-01
  0.317833044960E-01
  0.271432704166E-01
  0.318688386470E-01
  0.269827565689E-01
  0.316973269357E-01
  0.265518710574E-01
  0.312508740379E-01
  0.258474654188E-01
  0.305321689665E-01
  0.264068709554E-01
  0.304212408695E-01
  0.154942570855E-01
  0.192986674535E-01
  0.104869727898E-01
  0.131591836788E-01
  0.101945856832E-01
  0.128169187770E-01
  0.131126233415E-01
  0.149237952831E-01
  0.110127625514E-01
  0.148822240492E-01
  0.746614946129E-02
  0.151014554633E-01
  0.311265209161E-01
 -0.196435452112E-02
 -0.693562874627E-01
 -0.619135967142E-01
 -0.236440155619E-01
 -0.512753907115E-02
 -0.528554950065E-02
  0.622567612064E-02
  0.590378555994E-02
  0.224860385122E+00
  0.235824149240E+00
 -0.318594578902E-01
 -0.207179780397E-01
  0.203659361503E-02
  0.584992522102E-02
  0.394035311900E-03
  0.419825238829E-02
 -0.214959715686E-02
  0.166571265614E-02
 -0.434004012356E-02
 -0.510977323632E-03
 -0.466958388263E-02
 -0.836717914908E-03
 -0.462372438796E-02
 -0.807004978444E-03
 -0.424619407891E-02
 -0.462718819009E-03
 -0.185678364520E-02
 -0.159540440717E-03
  0.467979088862E-02
  0.634556673876E-02
  0.639551431357E-02
  0.805489703343E-02
  0.199736394273E-01
  0.198249694285E-01
  0.102682873041E-01
  0.120483907644E-01
 -0.757816385121E-02
 -0.111547451452E-03
 -0.133662284586E-01
 -0.747752133960E-02
  0.182521687397E+00
  0.194127788474E+00
 -0.245720349419E+00
 -0.243273961069E+00
 -0.173148512822E+00
 -0.158969717373E+00
 -0.453526016887E-01
 -0.386864011422E-01
 -0.394213144722E-01
 -0.324855292390E-01
 -0.268945962760E-01
 -0.587896868802E-01
 -0.429075350228E-01
 -0.529046028549E-01
 -0.431918601922E-01
 -0.138755512272E-01
 -0.861469154799E-02
  0.451616173122E-02
  0.583981345819E-02
 -0.632904962252E-02
 -0.500610984454E-02
 -0.627808894345E-02
 -0.506811216870E-02
 -0.592999214241E-02
 -0.471978081276E-02
 -0.587394493856E-02
 -0.467685387757E-02
 -0.619976663270E-02
 -0.502449070615E-02
 -0.164775310558E-02
 -0.309849607966E-03
  0.493531327479E-02
  0.604316950763E-02
  0.147986684027E-01
  0.158175704542E-01
 -0.305065874250E-02
 -0.252680191296E-02
 -0.287386302020E-02
 -0.328136784116E-02
 -0.153403607441E-01
 -0.169730638798E-01
 -0.489173983898E-01
 -0.492785550021E-01
 -0.356947485937E+00
 -0.359705875326E+00
 -0.443508124707E+00
 -0.445140944809E+00
 -0.258738811172E+00
 -0.254762498888E+00
 -0.881266754651E-01
 -0.849064938818E-01
 -0.795862099674E-01
 -0.783577144593E-01
 -0.754971088210E-01
  0.120053427513E+00
  0.115021330536E+00
 -0.920071087109E-01
 -0.906034224189E-01
 -0.779044834736E-01
 -0.751822019168E-01
  0.226793425644E-01
  0.227077118978E-01
  0.343550551926E-01
  0.342419919256E-01
  0.490742694529E-01
  0.491673588198E-01
  0.625615041602E-01
  0.631827311587E-01
  0.608589077953E-01
  0.614644434590E-01
  0.316796053048E-01
  0.317971252197E-01
  0.344485650991E-01
  0.344406318221E-01
 -0.208125626744E-01
 -0.232003183241E-01
 -0.511709435990E-01
 -0.493728240058E-01
 -0.761034137305E-01
 -0.760331950228E-01
 -0.549882679116E-01
 -0.547086360415E-01
 -0.909381328048E-01
 -0.905594257673E-01
  0.315362069905E+00
  0.315615586717E+00
 -0.564757573354E+00
 -0.561383644660E+00
 -0.499640850449E+00
 -0.500593407689E+00
 -0.276670937658E+00
 -0.274235491980E+00
 -0.101787087445E+00
 -0.101394076138E+00
 -0.963587834213E-01
 -0.961120630658E-01
 -0.937839564499E-01
  0.143542633928E+00
  0.134418729708E+00
 -0.122998029106E+00
 -0.121607396581E+00
 -0.121169927347E+00
 -0.119911171180E+00
 -0.544530320882E-01
 -0.544229875292E-01
 -0.730394890845E-01
 -0.728539746273E-01
 -0.522841295516E-01
 -0.521628622879E-01
 -0.525004642903E-01
 -0.523841710791E-01
 -0.439023483580E-01
 -0.438120382751E-01
 -0.585329311574E-01
 -0.584336451161E-01
 -0.288763793767E-01
 -0.283715991922E-01
 -0.827336287990E-01
 -0.828283796352E-01
 -0.742320714443E-01
 -0.742004748979E-01
 -0.782309251453E-01
 -0.782539981895E-01
 -0.805243660824E-01
 -0.804554840708E-01
 -0.808477716362E-01
 -0.807831200437E-01
  0.128340451280E+00
  0.128564652127E+00
 -0.644644677948E+00
 -0.644882061308E+00
 -0.511848675009E+00
 -0.515457057158E+00
 -0.313406765182E+00
 -0.313499205885E+00
 -0.138645580448E+00
 -0.138630175295E+00
 -0.140462417513E+00
 -0.140454670391E+00
 -0.139601318618E+00
  0.212654443192E+00
 -0.123971606448E+00
 -0.147825335628E+00
 -0.552867223723E-01
 -0.671115266597E-01
 -0.723097840575E-01
 -0.738576650240E-01
 -0.734841328717E-01
 -0.723728309773E-01
 -0.602127959221E-01
 -0.782286559249E-01
 -0.656387690906E-01
 -0.575908406886E-01
 -0.105038001303E+00
 -0.101575623255E+00
  0.917833322509E-01
 -0.568140146198E+00
 -0.701300510560E+00
 -0.337772226880E+00
 -0.163689701744E+00
  0.211065121496E+00
 -0.123971574551E+00
 -0.147825301862E+00
 -0.552867961112E-01
 -0.671115316497E-01
 -0.723097960326E-01
 -0.738576683801E-01
 -0.734841364867E-01
 -0.723728515383E-01
 -0.602127997481E-01
 -0.782286694401E-01
 -0.656387726298E-01
 -0.575908394892E-01
 -0.105038007007E+00
 -0.101575624694E+00
  0.917833368343E-01
 -0.568140146022E+00
 -0.701300527559E+00
 -0.337772229818E+00
SCALARS phi_sigma float 1
LOOKUP_TABLE default
 -0.620557407545E-14
 -0.616276602203E-14
 -0.676306069789E-14
 -0.726936142592E-14
 -0.764458026037E-14
 -0.785916932611E-14
 -0.789546304488E-14
 -0.775045359294E-14
 -0.743624979155E-14
 -0.697817909003E-14
 -0.641094021023E-14
 -0.577376786962E-14
 -0.510552508911E-14
 -0.925946982910E-14
 -0.794117886099E-14
 -0.672478206060E-14
 -0.563503650861E-14
 -0.468284217594E-14
 -0.586975844333E-14
 -0.666377225735E-13
 -0.464468037816E-04
 -0.374959023487E-04
 -0.275839040658E-04
 -0.612254622083E-04
 -0.274878276810E-04
 -0.611345104317E-04
 -0.274118871466E-04
 -0.610622214210E-04
 -0.273571809458E-04
 -0.610098019934E-04
 -0.273245189042E-04
 -0.609781623387E-04
 -0.273143976261E-04
 -0.609678595495E-04
 -0.273269857015E-04
 -0.609790659551E-04
 -0.273621158212E-04
 -0.610115610571E-04
 -0.274192818227E-04
 -0.610647462968E-04
 -0.274976430624E-04
 -0.611376810525E-04
 -0.275960422919E-04
 -0.612291414580E-04
 -0.181854174516E-04
 -0.518100722570E-04
 -0.879109995484E-05
 -0.424059173202E-04
 -0.893966449089E-05
 -0.425434840977E-04
 -0.910181494230E-05
 -0.426938229305E-04