# vtk DataFile Version 3.0
MachLine results file. Generated by MachLine, USU AeroLab (c) 2022.
ASCII
DATASET POLYDATA
POINTS                6675 float
  0.000000000000E+00  0.000000000000E+00  0.000000000000E+00
  0.000000000000E+00  0.510472208261E-01  0.000000000000E+00
  0.000000000000E+00  0.102911889553E+00  0.000000000000E+00
  0.000000000000E+00  0.155575945973E+00  0.000000000000E+00
  0.000000000000E+00  0.209019616246E+00  0.000000000000E+00
  0.000000000000E+00  0.263221412897E+00  0.000000000000E+00
  0.000000000000E+00  0.318158149719E+00  0.000000000000E+00
  0.000000000000E+00  0.373804926872E+00  0.000000000000E+00
  0.000000000000E+00  0.430135160685E+00  0.000000000000E+00
  0.000000000000E+00  0.487120658159E+00  0.000000000000E+00
  0.000000000000E+00  0.544731616974E+00  0.000000000000E+00
  0.000000000000E+00  0.602936685085E+00  0.000000000000E+00
  0.000000000000E+00  0.661702930927E+00  0.000000000000E+00
  0.000000000000E+00  0.720996081829E+00  0.000000000000E+00
  0.000000000000E+00  0.780780434608E+00  0.000000000000E+00
  0.000000000000E+00  0.841019034386E+00  0.000000000000E+00
  0.000000000000E+00  0.901673555374E+00  0.000000000000E+00
  0.000000000000E+00  0.962704777718E+00  0.000000000000E+00
  0.000000000000E+00  0.102407228947E+01  0.000000000000E+00
  0.000000000000E+00  0.108573472500E+01  0.000000000000E+00
  0.000000000000E+00  0.114765012264E+01  0.000000000000E+00
  0.000000000000E+00  0.120977556705E+01  0.000000000000E+00
  0.000000000000E+00  0.127206754684E+01  0.000000000000E+00
  0.000000000000E+00  0.133448243141E+01  0.000000000000E+00
  0.000000000000E+00  0.139697575569E+01  0.000000000000E+00
  0.000000000000E+00  0.145950317383E+01  0.000000000000E+00
  0.000000000000E+00  0.152202010155E+01  0.000000000000E+00
  0.000000000000E+00  0.158448207378E+01  0.000000000000E+00
  0.000000000000E+00  0.164684462547E+01  0.000000000000E+00
  0.000000000000E+00  0.170906376839E+01  0.000000000000E+00
  0.000000000000E+00  0.177109575272E+01  0.000000000000E+00
  0.000000000000E+00  0.183289742470E+01  0.000000000000E+00
  0.000000000000E+00  0.189442634583E+01  0.000000000000E+00
  0.000000000000E+00  0.195564067364E+01  0.000000000000E+00
  0.000000000000E+00  0.201649975777E+01  0.000000000000E+00
  0.000000000000E+00  0.207696342468E+01  0.000000000000E+00
  0.000000000000E+00  0.213699293137E+01  0.000000000000E+00
  0.000000000000E+00  0.219655084610E+01  0.000000000000E+00
  0.000000000000E+00  0.225560045242E+01  0.000000000000E+00
  0.000000000000E+00  0.231410670280E+01  0.000000000000E+00
  0.000000000000E+00  0.237203645706E+01  0.000000000000E+00
  0.000000000000E+00  0.242935681343E+01  0.000000000000E+00
  0.000000000000E+00  0.248603773117E+01  0.000000000000E+00
  0.000000000000E+00  0.254204988480E+01  0.000000000000E+00
  0.000000000000E+00  0.259736585617E+01  0.000000000000E+00
  0.000000000000E+00  0.265195989609E+01  0.000000000000E+00
  0.000000000000E+00  0.270580768585E+01  0.000000000000E+00
  0.000000000000E+00  0.275888729095E+01  0.000000000000E+00
  0.000000000000E+00  0.281117749214E+01  0.000000000000E+00
  0.000000000000E+00  0.286265993118E+01  0.000000000000E+00
  0.000000000000E+00  0.291331672668E+01  0.000000000000E+00
  0.000000000000E+00  0.296313285828E+01  0.000000000000E+00
  0.000000000000E+00  0.301209402084E+01  0.000000000000E+00
  0.000000000000E+00  0.306018829346E+01  0.000000000000E+00
  0.000000000000E+00  0.310740518570E+01  0.000000000000E+00
  0.000000000000E+00  0.315373587608E+01  0.000000000000E+00
  0.000000000000E+00  0.319917249680E+01  0.000000000000E+00
  0.000000000000E+00  0.324370956421E+01  0.000000000000E+00
  0.000000000000E+00  0.328734278679E+01  0.000000000000E+00
  0.000000000000E+00  0.333006930351E+01  0.000000000000E+00
  0.000000000000E+00  0.337188720703E+01  0.000000000000E+00
  0.000000000000E+00  0.341279649734E+01  0.000000000000E+00
  0.000000000000E+00  0.345279836655E+01  0.000000000000E+00
  0.000000000000E+00  0.349189519882E+01  0.000000000000E+00
  0.000000000000E+00  0.353009009361E+01  0.000000000000E+00
  0.000000000000E+00  0.356738781929E+01  0.000000000000E+00
  0.000000000000E+00  0.360379409790E+01  0.000000000000E+00
  0.000000000000E+00  0.363931536674E+01  0.000000000000E+00
  0.000000000000E+00  0.367395877838E+01  0.000000000000E+00
  0.000000000000E+00  0.370773339272E+01  0.000000000000E+00
  0.000000000000E+00  0.374064779282E+01  0.000000000000E+00
  0.000000000000E+00  0.377271175385E+01  0.000000000000E+00
  0.000000000000E+00  0.380393624306E+01  0.000000000000E+00
  0.000000000000E+00  0.383433246613E+01  0.000000000000E+00
  0.000000000000E+00  0.386391162872E+01  0.000000000000E+00
  0.000000000000E+00  0.389268636703E+01  0.000000000000E+00
  0.000000000000E+00  0.392066931725E+01  0.000000000000E+00
  0.000000000000E+00  0.394787359238E+01  0.000000000000E+00
  0.000000000000E+00  0.397431254387E+01  0.000000000000E+00
  0.000000000000E+00  0.400000000000E+01  0.000000000000E+00
  0.674483925104E-02  0.000000000000E+00 -0.590096984524E-03
  0.674483925104E-02  0.000000000000E+00  0.590096984524E-03
  0.674483925104E-02  0.510472208261E-01 -0.590096984524E-03
  0.674483925104E-02  0.510472208261E-01  0.590096984524E-03
  0.674483925104E-02  0.102911889553E+00 -0.590096984524E-03
  0.674483925104E-02  0.102911889553E+00  0.590096984524E-03
  0.674483925104E-02  0.155575945973E+00 -0.590096984524E-03
  0.674483925104E-02  0.155575945973E+00  0.590096984524E-03
  0.674483925104E-02  0.209019616246E+00 -0.590096984524E-03
  0.674483925104E-02  0.209019616246E+00  0.590096984524E-03
  0.674483925104E-02  0.263221412897E+00 -0.590096984524E-03
  0.674483925104E-02  0.263221412897E+00  0.590096984524E-03
  0.674483925104E-02  0.318158149719E+00 -0.590096984524E-03
  0.674483925104E-02  0.318158149719E+00  0.590096984524E-03
  0.674483925104E-02  0.373804926872E+00 -0.590096984524E-03
  0.674483925104E-02  0.373804926872E+00  0.590096984524E-03
  0.674483925104E-02  0.430135160685E+00 -0.590096984524E-03
  0.674483925104E-02  0.430135160685E+00  0.590096984524E-03
  0.674483925104E-02  0.487120658159E+00 -0.590096984524E-03
  0.674483925104E-02  0.487120658159E+00  0.590096984524E-03
  0.674483925104E-02  0.544731616974E+00 -0.590096984524E-03
  0.674483925104E-02  0.544731616974E+00  0.590096984524E-03
  0.674483925104E-02  0.602936685085E+00 -0.590096984524E-03
  0.674483925104E-02  0.602936685085E+00  0.590096984524E-03
  0.674483925104E-02  0.661702930927E+00 -0.590096984524E-03
  0.674483925104E-02  0.661702930927E+00  0.590096984524E-03
  0.674483925104E-02  0.720996081829E+00 -0.590096984524E-03
  0.674483925104E-02  0.720996081829E+00  0.590096984524E-03
  0.674483925104E-02  0.780780434608E+00 -0.590096984524E-03
  0.674483925104E-02  0.780780434608E+00  0.590096984524E-03
  0.674483925104E-02  0.841019034386E+00 -0.590096984524E-03
  0.674483925104E-02  0.841019034386E+00  0.590096984524E-03
  0.674483925104E-02  0.901673555374E+00 -0.590096984524E-03
  0.674483925104E-02  0.901673555374E+00  0.590096984524E-03
  0.674483925104E-02  0.962704777718E+00 -0.590096984524E-03
  0.674483925104E-02  0.962704777718E+00  0.590096984524E-03
  0.674483925104E-02  0.102407228947E+01 -0.590096984524E-03
  0.674483925104E-02  0.102407228947E+01  0.590096984524E-03
  0.674483925104E-02  0.108573472500E+01 -0.590096984524E-03
  0.674483925104E-02  0.108573472500E+01  0.590096984524E-03
  0.674483925104E-02  0.114765012264E+01 -0.590096984524E-03
  0.674483925104E-02  0.114765012264E+01  0.590096984524E-03
  0.674483925104E-02  0.120977556705E+01 -0.590096984524E-03
  0.674483925104E-02  0.120977556705E+01  0.590096984524E-03
  0.674483925104E-02  0.127206754684E+01 -0.590096984524E-03
  0.674483925104E-02  0.127206754684E+01  0.590096984524E-03
  0.674483925104E-02  0.133448243141E+01 -0.590096984524E-03
  0.674483925104E-02  0.133448243141E+01  0.590096984524E-03
  0.674483925104E-02  0.139697575569E+01 -0.590096984524E-03
  0.674483925104E-02  0.139697575569E+01  0.590096984524E-03
  0.674483925104E-02  0.145950317383E+01 -0.590096984524E-03
  0.674483925104E-02  0.145950317383E+01  0.590096984524E-03
  0.674483925104E-02  0.152202010155E+01 -0.590096984524E-03
  0.674483925104E-02  0.152202010155E+01  0.590096984524E-03
  0.674483925104E-02  0.158448207378E+01 -0.590096984524E-03
  0.674483925104E-02  0.158448207378E+01  0.590096984524E-03
  0.674483925104E-02  0.164684462547E+01 -0.590096984524E-03
  0.674483925104E-02  0.164684462547E+01  0.590096984524E-03
  0.674483925104E-02  0.170906376839E+01 -0.590096984524E-03
  0.674483925104E-02  0.170906376839E+01  0.590096984524E-03
  0.674483925104E-02  0.177109575272E+01 -0.590096984524E-03
  0.674483925104E-02  0.177109575272E+01  0.590096984524E-03
  0.674483925104E-02  0.183289742470E+01 -0.590096984524E-03
  0.674483925104E-02  0.183289742470E+01  0.590096984524E-03
  0.674483925104E-02  0.189442634583E+01 -0.590096984524E-03
  0.674483925104E-02  0.189442634583E+01  0.590096984524E-03
  0.674483925104E-02  0.195564067364E+01 -0.590096984524E-03
  0.674483925104E-02  0.195564067364E+01  0.590096984524E-03
  0.674483925104E-02  0.201649975777E+01 -0.590096984524E-03
  0.674483925104E-02  0.201649975777E+01  0.590096984524E-03
  0.674483925104E-02  0.207696342468E+01 -0.590096984524E-03
  0.674483925104E-02  0.207696342468E+01  0.590096984524E-03
  0.674483925104E-02  0.213699293137E+01 -0.590096984524E-03
  0.674483925104E-02  0.213699293137E+01  0.590096984524E-03
  0.674483925104E-02  0.219655084610E+01 -0.590096984524E-03
  0.674483925104E-02  0.219655084610E+01  0.590096984524E-03
  0.674483925104E-02  0.225560045242E+01 -0.590096984524E-03
  0.674483925104E-02  0.225560045242E+01  0.590096984524E-03
  0.674483925104E-02  0.231410670280E+01 -0.590096984524E-03
  0.674483925104E-02  0.231410670280E+01  0.590096984524E-03
  0.674483925104E-02  0.237203645706E+01 -0.590096984524E-03
[...]
CELL_DATA               12952
SCALARS sigma float 1
LOOKUP_TABLE default
  0.124021577848E-01
  0.124021577849E-01
  0.124018410090E-01
  0.124018410090E-01
  0.124017208382E-01
  0.124017208382E-01
  0.124018107186E-01
  0.124018107185E-01
  0.124017447578E-01
  0.124017447578E-01
  0.124021011966E-01
  0.124021011966E-01
  0.124018313306E-01
  0.124018313306E-01
  0.124018631243E-01
  0.124018631243E-01
  0.124018357407E-01
  0.124018357407E-01
  0.124018584624E-01
  0.124018584624E-01
  0.124017738235E-01
  0.124017738235E-01
  0.124019260823E-01
  0.124019260823E-01
  0.124018556710E-01
  0.124018556710E-01
  0.124020152023E-01
  0.124020152023E-01
  0.124017644486E-01
  0.124017644486E-01
  0.124018602050E-01
  0.124018602050E-01
  0.124018620095E-01
  0.124018620095E-01
  0.124019300477E-01
  0.124019300477E-01
  0.124018577277E-01
  0.124018577277E-01
  0.124018443677E-01
  0.124018443677E-01
  0.185848309812E+00
  0.185848309812E+00
  0.185848296684E+00
  0.185848296684E+00
  0.185848225618E+00
  0.185848225618E+00
  0.185848355068E+00
  0.185848355068E+00
  0.185848294249E+00
  0.185848294249E+00
  0.185848247996E+00
  0.185848247996E+00
  0.185848255282E+00
  0.185848255282E+00
  0.185848298705E+00
  0.185848298705E+00
  0.185848274632E+00
  0.185848274632E+00
  0.185848329169E+00
  0.185848329169E+00
  0.185848240207E+00
  0.185848240207E+00
  0.185848286966E+00
  0.185848286966E+00
  0.185848291378E+00
  0.185848291378E+00
  0.185848282367E+00
  0.185848282367E+00
  0.185848264348E+00
  0.185848264348E+00
  0.185848302220E+00
  0.185848302220E+00
  0.185848282168E+00
  0.185848282168E+00
  0.185848282212E+00
  0.185848282212E+00
  0.185848282669E+00
  0.185848282669E+00
  0.185848284547E+00
  0.185848284547E+00
 -0.124018700785E-01
 -0.124018700785E-01
 -0.124018719902E-01
 -0.124018719902E-01
 -0.124018724547E-01
 -0.124018724547E-01
 -0.124018724999E-01
 -0.124018724999E-01
 -0.124018520935E-01
 -0.124018520935E-01
 -0.124018906344E-01
 -0.124018906344E-01
 -0.124018722972E-01
 -0.124018722972E-01
 -0.124018631268E-01
 -0.124018631268E-01
 -0.124018676172E-01
 -0.124018676172E-01
 -0.124019152019E-01
 -0.124019152019E-01
 -0.124018246695E-01
 -0.124018246695E-01
 -0.124018801688E-01
 -0.124018801688E-01
 -0.124018556710E-01
 -0.124018556710E-01
 -0.124018998603E-01
 -0.124018998603E-01
 -0.124019072745E-01
 -0.124019072745E-01
 -0.124018602050E-01
 -0.124018602050E-01
 -0.124017983124E-01
 -0.124017983124E-01
 -0.124019300477E-01
 -0.124019300477E-01
 -0.124018577277E-01
 -0.124018577277E-01
 -0.124018443677E-01
 -0.124018443677E-01
 -0.185848309812E+00
 -0.185848309812E+00
 -0.185848296684E+00
 -0.185848296684E+00
 -0.185848225618E+00
 -0.185848225618E+00
 -0.185848292476E+00
 -0.185848292476E+00
 -0.185848294249E+00
 -0.185848294249E+00
 -0.185848388345E+00
 -0.185848388345E+00
 -0.185848141941E+00
 -0.185848141941E+00
 -0.185848298705E+00
 -0.185848298705E+00
 -0.185848229515E+00
 -0.185848229515E+00
 -0.185848379133E+00
 -0.185848379133E+00
 -0.185848295962E+00
 -0.185848295962E+00
 -0.185848318289E+00
 -0.185848318289E+00
 -0.185848291381E+00
 -0.185848291381E+00
 -0.185848322623E+00
 -0.185848322623E+00
 -0.185848057438E+00
 -0.185848057438E+00
 -0.185848407694E+00
 -0.185848407694E+00
 -0.185848342878E+00
 -0.185848342878E+00
 -0.185848431199E+00
 -0.185848431199E+00
 -0.185848313112E+00
 -0.185848313112E+00
 -0.185848001831E+00
 -0.185848001831E+00
  0.124021577848E-01
  0.124021577849E-01
  0.124018410090E-01
  0.124018410090E-01
  0.124017208382E-01
  0.124017208382E-01
  0.124018107186E-01
  0.124018107185E-01
  0.124017447578E-01
  0.124017447578E-01
  0.124021011966E-01
  0.124021011966E-01
  0.124018313306E-01
  0.124018313306E-01
  0.124018631243E-01
  0.124018631243E-01
  0.124018357407E-01
  0.124018357407E-01
  0.124018584624E-01
  0.124018584624E-01
  0.124017738235E-01
  0.124017738235E-01
  0.124019260823E-01
  0.124019260823E-01
  0.124018556710E-01
  0.124018556710E-01
  0.124020152023E-01
  0.124020152023E-01
  0.124017644486E-01
  0.124017644486E-01
  0.124018602050E-01
  0.124018602050E-01
  0.124018620095E-01
  0.124018620095E-01
  0.124019300477E-01
  0.124019300477E-01
  0.124018577277E-01
  0.124018577277E-01
  0.124018443677E-01
  0.124018443677E-01
  0.185848309812E+00
  0.185848309812E+00
  0.185848296684E+00
  0.185848296684E+00
  0.185848225618E+00
  0.185848225618E+00
  0.185848355068E+00
  0.185848355068E+00
  0.185848294249E+00
  0.185848294249E+00
  0.185848247996E+00
  0.185848247996E+00
  0.185848255282E+00
  0.185848255282E+00
  0.185848298705E+00
  0.185848298705E+00
  0.185848274632E+00
  0.185848274632E+00
  0.185848329169E+00
  0.185848329169E+00
  0.185848240207E+00
  0.185848240207E+00
  0.185848286966E+00
  0.185848286966E+00
  0.185848291378E+00
  0.185848291378E+00
  0.185848282367E+00
  0.185848282367E+00
  0.185848264348E+00
  0.185848264348E+00
  0.185848302220E+00
  0.185848302220E+00
  0.185848282168E+00
  0.185848282168E+00
  0.185848282212E+00
  0.185848282212E+00
  0.185848282669E+00
  0.185848282669E+00
  0.185848284547E+00
  0.185848284547E+00
 -0.124018700785E-01
 -0.124018700785E-01
 -0.124018719902E-01
 -0.124018719902E-01
 -0.124018724547E-01
 -0.124018724547E-01
 -0.124018724999E-01
 -0.124018724999E-01
 -0.124018520935E-01
 -0.124018520935E-01
 -0.124018906344E-01
 -0.124018906344E-01
 -0.124018722972E-01
 -0.124018722972E-01
 -0.124018631268E-01
 -0.124018631268E-01
 -0.124018676172E-01
 -0.124018676172E-01
 -0.124019152019E-01
 -0.124019152019E-01
 -0.124018246695E-01
 -0.124018246695E-01
 -0.124018801688E-01
 -0.124018801688E-01
 -0.124018556710E-01
 -0.124018556710E-01
 -0.124018998603E-01
 -0.124018998603E-01
 -0.124019072745E-01
 -0.124019072745E-01
 -0.124018602050E-01
 -0.124018602050E-01
 -0.124017983124E-01
 -0.124017983124E-01
 -0.124019300477E-01
 -0.124019300477E-01
 -0.124018577277E-01
 -0.124018577277E-01
 -0.124018443677E-01
 -0.124018443677E-01
 -0.185848309812E+00
 -0.185848309812E+00
 -0.185848296684E+00
 -0.185848296684E+00
 -0.185848225618E+00
 -0.185848225618E+00
 -0.185848292476E+00
 -0.185848292476E+00
 -0.185848294249E+00
 -0.185848294249E+00
 -0.185848388345E+00
 -0.185848388345E+00
 -0.185848141941E+00
 -0.185848141941E+00
 -0.185848298705E+00
 -0.185848298705E+00
 -0.185848229515E+00
 -0.185848229515E+00
 -0.185848379133E+00
 -0.185848379133E+00
 -0.185848295962E+00
 -0.185848295962E+00
 -0.185848318289E+00
 -0.185848318289E+00
 -0.185848291381E+00
 -0.185848291381E+00
 -0.185848322623E+00
 -0.185848322623E+00
 -0.185848057438E+00
 -0.185848057438E+00
 -0.185848407694E+00
 -0.185848407694E+00
 -0.185848342878E+00
 -0.185848342878E+00
 -0.185848431199E+00
 -0.185848431199E+00
 -0.185848313112E+00
 -0.185848313112E+00
 -0.185848001831E+00
 -0.185848001831E+00
  0.124021577848E-01
  0.124021577849E-01
  0.124018410090E-01
  0.124018410090E-01
  0.124017208382E-01
  0.124017208382E-01
  0.124018107186E-01
  0.124018107185E-01
  0.124017447578E-01
  0.124017447578E-01
  0.124021011966E-01
  0.124021011966E-01
  0.124018313306E-01
  0.124018313306E-01
  0.124018631243E-01
  0.124018631243E-01
  0.124018357407E-01
  0.124018357407E-01
  0.124018584624E-01
  0.124018584624E-01
  0.124017738235E-01
  0.124017738235E-01
  0.124019260823E-01
  0.124019260823E-01
  0.124018556710E-01
  0.124018556710E-01
  0.124020152023E-01
  0.124020152023E-01
  0.124017644486E-01
  0.124017644486E-01
  0.124018602050E-01
  0.124018602050E-01
  0.124018620095E-01
  0.124018620095E-01
  0.124019300477E-01
  0.124019300477E-01
  0.124018577277E-01
  0.124018577277E-01
  0.124018443677E-01
  0.124018443677E-01
  0.185848309812E+00
  0.185848309812E+00
  0.185848296684E+00
  0.185848296684E+00
  0.185848225618E+00
  0.185848225618E+00
  0.185848355068E+00
  0.185848355068E+00
  0.185848294249E+00
  0.185848294249E+00
  0.185848247996E+00
  0.185848247996E+00
  0.185848255282E+00
  0.185848255282E+00
  0.185848298705E+00
  0.185848298705E+00
  0.185848274632E+00
  0.185848274632E+00
  0.185848329169E+00
  0.185848329169E+00
  0.185848240207E+00
  0.185848240207E+00
  0.185848286966E+00
  0.185848286966E+00
  0.185848291378E+00
  0.185848291378E+00
  0.185848282367E+00
  0.185848282367E+00
  0.185848264348E+00
  0.185848264348E+00
  0.185848302220E+00
  0.185848302220E+00
  0.185848282168E+00
  0.185848282168E+00
  0.185848282212E+00
  0.185848282212E+00
  0.185848282669E+00
  0.185848282669E+00
  0.185848284547E+00
  0.185848284547E+00
 -0.124018700785E-01
 -0.124018700785E-01
 -0.124018719902E-01
 -0.124018719902E-01
 -0.124018724547E-01
 -0.124018724547E-01
 -0.124018724999E-01
 -0.124018724999E-01
 -0.124018520935E-01
 -0.124018520935E-01
 -0.124018906344E-01
 -0.124018906344E-01
 -0.124018722972E-01
 -0.124018722972E-01
 -0.124018631268E-01
 -0.124018631268E-01
 -0.124018676172E-01
 -0.124018676172E-01
 -0.124019152019E-01
 -0.124019152019E-01
 -0.124018246695E-01
 -0.124018246695E-01
 -0.124018801688E-01
 -0.124018801688E-01
 -0.124018556710E-01
 -0.124018556710E-01
 -0.124018998603E-01
 -0.124018998603E-01
 -0.124019072745E-01
 -0.124019072745E-01
 -0.124018602050E-01
 -0.124018602050E-01
 -0.124017983124E-01
 -0.124017983124E-01
 -0.124019300477E-01
 -0.124019300477E-01
 -0.124018577277E-01
 -0.124018577277E-01
 -0.124018443677E-01
 -0.124018443677E-01
 -0.185848309812E+00
 -0.185848309812E+00
 -0.185848296684E+00
 -0.185848296684E+00
 -0.185848225618E+00
 -0.185848225618E+00
 -0.185848292476E+00
 -0.185848292476E+00
 -0.185848294249E+00
 -0.185848294249E+00
 -0.185848388345E+00
 -0.185848388345E+00
 -0.185848141941E+00
 -0.185848141941E+00
 -0.185848298705E+00
 -0.185848298705E+00
 -0.185848229515E+00
 -0.185848229515E+00
 -0.185848379133E+00
 -0.185848379133E+00
 -0.185848295962E+00
 -0.185848295962E+00
 -0.185848318289E+00
 -0.185848318289E+00
 -0.185848291381E+00
 -0.185848291381E+00
 -0.185848322623E+00
 -0.185848322623E+00
 -0.185848057438E+00
 -0.185848057438E+00
 -0.185848407694E+00
 -0.185848407694E+00
 -0.185848342878E+00
 -0.185848342878E+00
 -0.185848431199E+00
 -0.185848431199E+00
 -0.185848313112E+00
 -0.185848313112E+00
 -0.185848001831E+00
 -0.185848001831E+00
  0.124021577848E-01
  0.124021577849E-01
  0.124018410090E-01
  0.124018410090E-01
  0.124017208382E-01
  0.124017208382E-01
  0.124018107186E-01
  0.124018107185E-01
  0.124017447578E-01
  0.124017447578E-01
  0.124021011966E-01
  0.124021011966E-01
  0.124018313306E-01
  0.124018313306E-01
  0.124018631243E-01
  0.124018631243E-01
  0.124018357407E-01
  0.124018357407E-01
  0.124018584624E-01
  0.124018584624E-01
  0.124017738235E-01
  0.124017738235E-01
  0.124019260823E-01
  0.124019260823E-01
  0.124018556710E-01
  0.124018556710E-01
  0.124020152023E-01
  0.124020152023E-01
  0.124017644486E-01
  0.124017644486E-01
  0.124018602050E-01
  0.124018602050E-01
  0.124018620095E-01
  0.124018620095E-01
  0.124019300477E-01
  0.124019300477E-01
  0.124018577277E-01
  0.124018577277E-01
  0.124018443677E-01
  0.124018443677E-01
  0.185848309812E+00
  0.185848309812E+00
  0.185848296684E+00
  0.185848296684E+00
  0.185848225618E+00
  0.185848225618E+00
  0.185848355068E+00
  0.185848355068E+00
  0.185848294249E+00
  0.185848294249E+00
  0.185848247996E+00
  0.185848247996E+00
  0.185848255282E+00
  0.185848255282E+00
  0.185848298705E+00
  0.185848298705E+00
  0.185848274632E+00
  0.185848274632E+00
  0.185848329169E+00
  0.185848329169E+00
  0.185848240207E+00
  0.185848240207E+00
  0.185848286966E+00
  0.185848286966E+00
  0.185848291378E+00
  0.185848291378E+00
  0.185848282367E+00
  0.185848282367E+00
  0.185848264348E+00
  0.185848264348E+00
  0.185848302220E+00
  0.185848302220E+00
  0.185848282168E+00
  0.185848282168E+00
  0.185848282212E+00
  0.185848282212E+00
  0.185848282669E+00
  0.185848282669E+00
  0.185848284547E+00
  0.185848284547E+00
 -0.124018700785E-01
 -0.124018700785E-01
 -0.124018719902E-01
 -0.124018719902E-01
 -0.124018724547E-01
 -0.124018724547E-01
 -0.124018724999E-01
 -0.124018724999E-01
 -0.124018520935E-01
 -0.124018520935E-01
 -0.124018906344E-01
 -0.124018906344E-01
 -0.124018722972E-01
 -0.124018722972E-01
 -0.124018631268E-01
 -0.124018631268E-01
 -0.124018676172E-01
 -0.124018676172E-01
 -0.124019152019E-01
 -0.124019152019E-01
 -0.124018246695E-01
 -0.124018246695E-01
 -0.124018801688E-01
 -0.124018801688E-01
 -0.124018556710E-01
 -0.124018556710E-01
 -0.124018998603E-01
 -0.124018998603E-01
 -0.124019072745E-01
 -0.124019072745E-01
 -0.124018602050E-01
 -0.124018602050E-01
 -0.124017983124E-01
 -0.124017983124E-01
 -0.124019300477E-01
 -0.124019300477E-01
 -0.124018577277E-01
 -0.124018577277E-01
 -0.124018443677E-01
 -0.124018443677E-01
 -0.185848309812E+00
 -0.185848309812E+00
 -0.185848296684E+00
 -0.185848296684E+00
 -0.185848225618E+00
 -0.185848225618E+00
 -0.185848292476E+00
 -0.185848292476E+00
 -0.185848294249E+00
 -0.185848294249E+00
 -0.185848388345E+00
 -0.185848388345E+00
 -0.185848141941E+00
 -0.185848141941E+00
 -0.185848298705E+00
 -0.185848298705E+00
 -0.185848229515E+00
 -0.185848229515E+00
 -0.185848379133E+00
 -0.185848379133E+00
 -0.185848295962E+00
 -0.185848295962E+00
 -0.185848318289E+00
 -0.185848318289E+00
 -0.185848291381E+00
 -0.185848291381E+00
 -0.185848322623E+00
 -0.185848322623E+00
 -0.185848057438E+00
 -0.185848057438E+00
 -0.185848407694E+00
 -0.185848407694E+00
 -0.185848342878E+00
 -0.185848342878E+00
 -0.185848431199E+00
 -0.185848431199E+00
 -0.185848313112E+00
 -0.185848313112E+00
 -0.185848001831E+00
 -0.185848001831E+00
  0.124021577848E-01
  0.124021577849E-01
  0.124018410090E-01
  0.124018410090E-01
  0.124017208382E-01
  0.124017208382E-01
  0.124018107186E-01
  0.124018107185E-01
  0.124017447578E-01
  0.124017447578E-01
  0.124021011966E-01
  0.124021011966E-01
  0.124018313306E-01
  0.124018313306E-01
  0.124018631243E-01
  0.124018631243E-01
  0.124018357407E-01
  0.124018357407E-01
  0.124018584624E-01
  0.124018584624E-01
  0.124017738235E-01
  0.124017738235E-01
  0.124019260823E-01
  0.124019260823E-01
  0.124018556710E-01
  0.124018556710E-01
  0.124020152023E-01
  0.124020152023E-01
  0.124017644486E-01
  0.124017644486E-01
  0.124018602050E-01
  0.124018602050E-01
  0.124018620095E-01
  0.124018620095E-01
  0.124019300477E-01
  0.124019300477E-01
  0.124018577277E-01
  0.124018577277E-01
  0.124018443677E-01
  0.124018443677E-01
  0.185848309812E+00
  0.185848309812E+00
  0.185848296684E+00
  0.185848296684E+00
  0.185848225618E+00
  0.185848225618E+00
  0.185848355068E+00
  0.185848355068E+00
  0.185848294249E+00
  0.185848294249E+00
  0.185848247996E+00
  0.185848247996E+00
  0.185848255282E+00
  0.185848255282E+00
  0.185848298705E+00
  0.185848298705E+00
  0.185848274632E+00
  0.185848274632E+00
  0.185848329169E+00
  0.185848329169E+00
  0.185848240207E+00
  0.185848240207E+00
  0.185848286966E+00
  0.185848286966E+00
  0.185848291378E+00
  0.185848291378E+00
  0.185848282367E+00
  0.185848282367E+00
  0.185848264348E+00
  0.185848264348E+00
  0.185848302220E+00
  0.185848302220E+00
  0.185848282168E+00
  0.185848282168E+00
  0.185848282212E+00
  0.185848282212E+00
  0.185848282669E+00
  0.185848282669E+00
  0.185848284547E+00
  0.185848284547E+00
 -0.124018700785E-01
 -0.124018700785E-01
 -0.124018719902E-01
 -0.124018719902E-01
 -0.124018724547E-01
 -0.124018724547E-01
 -0.124018724999E-01
 -0.124018724999E-01
 -0.124018520935E-01
 -0.124018520935E-01
 -0.124018906344E-01
 -0.124018906344E-01
 -0.124018722972E-01
 -0.124018722972E-01
 -0.124018631268E-01
 -0.124018631268E-01
 -0.124018676172E-01
 -0.124018676172E-01
 -0.124019152019E-01
 -0.124019152019E-01
 -0.124018246695E-01
 -0.124018246695E-01
 -0.124018801688E-01
 -0.124018801688E-01
 -0.124018556710E-01
 -0.124018556710E-01
 -0.124018998603E-01
 -0.124018998603E-01
 -0.124019072745E-01
 -0.124019072745E-01
 -0.124018602050E-01
 -0.124018602050E-01
 -0.124017983124E-01
 -0.124017983124E-01
 -0.124019300477E-01
 -0.124019300477E-01
 -0.124018577277E-01
 -0.124018577277E-01
 -0.124018443677E-01
 -0.124018443677E-01
 -0.185848309812E+00
 -0.185848309812E+00
 -0.185848296684E+00
 -0.185848296684E+00
 -0.185848225618E+00
 -0.185848225618E+00
 -0.185848292476E+00
 -0.185848292476E+00
 -0.185848294249E+00
 -0.185848294249E+00
 -0.185848388345E+00
 -0.185848388345E+00
 -0.185848141941E+00
 -0.185848141941E+00
 -0.185848298705E+00
 -0.185848298705E+00
 -0.185848229515E+00
 -0.185848229515E+00
 -0.185848379133E+00
 -0.185848379133E+00
 -0.185848295962E+00
 -0.185848295962E+00
 -0.185848318289E+00
 -0.185848318289E+00
 -0.185848291381E+00
 -0.185848291381E+00
 -0.185848322623E+00
 -0.185848322623E+00
 -0.185848057438E+00
 -0.185848057438E+00
 -0.185848407694E+00
 -0.185848407694E+00
 -0.185848342878E+00
 -0.185848342878E+00
 -0.185848431199E+00
 -0.185848431199E+00
 -0.185848313112E+00
 -0.185848313112E+00
 -0.185848001831E+00
 -0.185848001831E+00
  0.124021577848E-01
  0.124021577849E-01
  0.124018410090E-01
  0.124018410090E-01
  0.124017208382E-01
  0.124017208382E-01
  0.124018107186E-01
  0.124018107185E-01
  0.124017447578E-01
  0.124017447578E-01
  0.124021011966E-01
  0.124021011966E-01
  0.124018313306E-01
  0.124018313306E-01
  0.124018631243E-01
  0.124018631243E-01
  0.124018357407E-01
  0.124018357407E-01
  0.124018584624E-01
  0.124018584624E-01
  0.124017738235E-01
  0.124017738235E-01
  0.124019260823E-01
  0.124019260823E-01
  0.124018556710E-01
  0.124018556710E-01
  0.124020152023E-01
  0.124020152023E-01
  0.124017644486E-01
  0.124017644486E-01
  0.124018602050E-01
  0.124018602050E-01
  0.124018620095E-01
  0.124018620095E-01
  0.124019300477E-01
  0.124019300477E-01
  0.124018577277E-01
  0.124018577277E-01
  0.124018443677E-01
  0.124018443677E-01
  0.185848309812E+00
  0.185848309812E+00
  0.185848296684E+00
  0.185848296684E+00
  0.185848225618E+00
  0.185848225618E+00
  0.185848355068E+00
  0.185848355068E+00
  0.185848294249E+00
  0.185848294249E+00
  0.185848247996E+00
  0.185848247996E+00
  0.185848255282E+00
  0.185848255282E+00
  0.185848298705E+00
  0.185848298705E+00
  0.185848274632E+00
  0.185848274632E+00
  0.185848329169E+00
  0.185848329169E+00
  0.185848240207E+00
  0.185848240207E+00
  0.185848286966E+00
  0.185848286966E+00
  0.185848291378E+00
  0.185848291378E+00
  0.185848282367E+00
  0.185848282367E+00
  0.185848264348E+00
  0.185848264348E+00
  0.185848302220E+00
  0.185848302220E+00
  0.185848282168E+00
  0.185848282168E+00
  0.185848282212E+00
  0.185848282212E+00
  0.185848282669E+00
  0.185848282669E+00
  0.185848284547E+00
  0.185848284547E+00
 -0.124018700785E-01
 -0.124018700785E-01
 -0.124018719902E-01
 -0.124018719902E-01
 -0.124018724547E-01
 -0.124018724547E-01
 -0.124018724999E-01
 -0.124018724999E-01
 -0.124018520935E-01
 -0.124018520935E-01
 -0.124018906344E-01
 -0.124018906344E-01
 -0.124018722972E-01
 -0.124018722972E-01
 -0.124018631268E-01
 -0.124018631268E-01
 -0.124018676172E-01
 -0.124018676172E-01
 -0.124019152019E-01
 -0.124019152019E-01
 -0.124018246695E-01
 -0.124018246695E-01
 -0.124018801688E-01
 -0.124018801688E-01
 -0.124018556710E-01
 -0.124018556710E-01
 -0.124018998603E-01
 -0.124018998603E-01
 -0.124019072745E-01
 -0.124019072745E-01
 -0.124018602050E-01
 -0.124018602050E-01
 -0.124017983124E-01
 -0.124017983124E-01
 -0.124019300477E-01
 -0.124019300477E-01
 -0.124018577277E-01
 -0.124018577277E-01
 -0.124018443677E-01
 -0.124018443677E-01
 -0.185848309812E+00
 -0.185848309812E+00
 -0.185848296684E+00
 -0.185848296684E+00
 -0.185848225618E+00
 -0.185848225618E+00
 -0.185848292476E+00
 -0.185848292476E+00
 -0.185848294249E+00
 -0.185848294249E+00
 -0.185848388345E+00
 -0.185848388345E+00
 -0.185848141941E+00
 -0.185848141941E+00
 -0.185848298705E+00
 -0.185848298705E+00
 -0.185848229515E+00
 -0.185848229515E+00
 -0.185848379133E+00
 -0.185848379133E+00
 -0.185848295962E+00
 -0.185848295962E+00
 -0.185848318289E+00
 -0.185848318289E+00
 -0.185848291381E+00
 -0.185848291381E+00
 -0.185848322623E+00
 -0.185848322623E+00