# vtk DataFile Version 3.0
TriPan results file. Generated by TriPan, USU AeroLab (c) 2021.
ASCII
DATASET POLYDATA
POINTS                 446 float
  0.000000000000E+00  0.000000000000E+00  0.000000000000E+00
  0.000000000000E+00  0.217527970672E+00  0.000000000000E+00
  0.000000000000E+00  0.448061168194E+00  0.000000000000E+00
  0.000000000000E+00  0.689725637436E+00  0.000000000000E+00
  0.000000000000E+00  0.940178275108E+00  0.000000000000E+00
  0.000000000000E+00  0.119668114185E+01  0.000000000000E+00
  0.000000000000E+00  0.145621216297E+01  0.000000000000E+00
  0.000000000000E+00  0.171560299397E+01  0.000000000000E+00
  0.000000000000E+00  0.197169232368E+01  0.000000000000E+00
  0.000000000000E+00  0.222147774696E+01  0.000000000000E+00
  0.000000000000E+00  0.246225214005E+01  0.000000000000E+00
  0.000000000000E+00  0.269171094894E+01  0.000000000000E+00
  0.000000000000E+00  0.290802383423E+01  0.000000000000E+00
  0.000000000000E+00  0.310986590385E+01  0.000000000000E+00
  0.000000000000E+00  0.329641318321E+01  0.000000000000E+00
  0.000000000000E+00  0.346730756760E+01  0.000000000000E+00
  0.000000000000E+00  0.362259936333E+01  0.000000000000E+00
  0.000000000000E+00  0.376267743111E+01  0.000000000000E+00
  0.000000000000E+00  0.388819599152E+01  0.000000000000E+00
  0.000000000000E+00  0.400000000000E+01  0.000000000000E+00
  0.341100133955E-01  0.000000000000E+00 -0.298423948698E-02
  0.341100133955E-01  0.000000000000E+00  0.298423948698E-02
  0.341100133955E-01  0.217527970672E+00 -0.298423948698E-02
  0.341100133955E-01  0.217527970672E+00  0.298423948698E-02
  0.341100133955E-01  0.448061168194E+00 -0.298423948698E-02
  0.341100133955E-01  0.448061168194E+00  0.298423948698E-02
  0.341100133955E-01  0.689725637436E+00 -0.298423948698E-02
  0.341100133955E-01  0.689725637436E+00  0.298423948698E-02
  0.341100133955E-01  0.940178275108E+00 -0.298423948698E-02
  0.341100133955E-01  0.940178275108E+00  0.298423948698E-02
  0.341100133955E-01  0.119668114185E+01 -0.298423948698E-02
  0.341100133955E-01  0.119668114185E+01  0.298423948698E-02
  0.341100133955E-01  0.145621216297E+01 -0.298423948698E-02
  0.341100133955E-01  0.145621216297E+01  0.298423948698E-02
  0.341100133955E-01  0.171560299397E+01 -0.298423948698E-02
  0.341100133955E-01  0.171560299397E+01  0.298423948698E-02
  0.341100133955E-01  0.197169232368E+01 -0.298423948698E-02
  0.341100133955E-01  0.197169232368E+01  0.298423948698E-02
  0.341100133955E-01  0.222147774696E+01 -0.298423948698E-02
  0.341100133955E-01  0.222147774696E+01  0.298423948698E-02
  0.341100133955E-01  0.246225214005E+01 -0.298423948698E-02
  0.341100133955E-01  0.246225214005E+01  0.298423948698E-02
  0.341100133955E-01  0.269171094894E+01 -0.298423948698E-02
  0.341100133955E-01  0.269171094894E+01  0.298423948698E-02
  0.341100133955E-01  0.290802383423E+01 -0.298423948698E-02
  0.341100133955E-01  0.290802383423E+01  0.298423948698E-02
  0.341100133955E-01  0.310986590385E+01 -0.298423948698E-02
  0.341100133955E-01  0.310986590385E+01  0.298423948698E-02
  0.341100133955E-01  0.329641318321E+01 -0.298423948698E-02
  0.341100133955E-01  0.329641318321E+01  0.298423948698E-02
  0.341100133955E-01  0.346730756760E+01 -0.298423948698E-02
  0.341100133955E-01  0.346730756760E+01  0.298423948698E-02
  0.341100133955E-01  0.362259936333E+01 -0.298423948698E-02
  0.341100133955E-01  0.362259936333E+01  0.298423948698E-02
  0.341100133955E-01  0.376267743111E+01 -0.298423948698E-02
  0.341100133955E-01  0.376267743111E+01  0.298423948698E-02
  0.341100133955E-01  0.388819599152E+01 -0.298423948698E-02
  0.341100133955E-01  0.388819599152E+01  0.298423948698E-02
  0.341100133955E-01  0.400000000000E+01 -0.298423948698E-02
  0.341100133955E-01  0.400000000000E+01  0.298423948698E-02
  0.341100133955E-01  0.400210952759E+01 -0.210976228118E-02
  0.341100133955E-01  0.400210952759E+01  0.210976228118E-02
  0.341100133955E-01  0.400298404694E+01  0.000000000000E+00
  0.937237665057E-01  0.000000000000E+00 -0.819976720959E-02
  0.937237665057E-01  0.000000000000E+00  0.819976720959E-02
  0.937237665057E-01  0.217527970672E+00 -0.819976720959E-02
  0.937237665057E-01  0.217527970672E+00  0.819976720959E-02
  0.937237665057E-01  0.448061168194E+00 -0.819976720959E-02
  0.937237665057E-01  0.448061168194E+00  0.819976720959E-02
  0.937237665057E-01  0.689725637436E+00 -0.819976720959E-02
  0.937237665057E-01  0.689725637436E+00  0.819976720959E-02
  0.937237665057E-01  0.940178275108E+00 -0.819976720959E-02
  0.937237665057E-01  0.940178275108E+00  0.819976720959E-02
  0.937237665057E-01  0.119668114185E+01 -0.819976720959E-02
  0.937237665057E-01  0.119668114185E+01  0.819976720959E-02
  0.937237665057E-01  0.145621216297E+01 -0.819976720959E-02
  0.937237665057E-01  0.145621216297E+01  0.819976720959E-02
  0.937237665057E-01  0.171560299397E+01 -0.819976720959E-02
  0.937237665057E-01  0.171560299397E+01  0.819976720959E-02
  0.937237665057E-01  0.197169232368E+01 -0.819976720959E-02
  0.937237665057E-01  0.197169232368E+01  0.819976720959E-02
  0.937237665057E-01  0.222147774696E+01 -0.819976720959E-02
  0.937237665057E-01  0.222147774696E+01  0.819976720959E-02
  0.937237665057E-01  0.246225214005E+01 -0.819976720959E-02
  0.937237665057E-01  0.246225214005E+01  0.819976720959E-02
  0.937237665057E-01  0.269171094894E+01 -0.819976720959E-02
  0.937237665057E-01  0.269171094894E+01  0.819976720959E-02
  0.937237665057E-01  0.290802383423E+01 -0.819976720959E-02
  0.937237665057E-01  0.290802383423E+01  0.819976720959E-02
  0.937237665057E-01  0.310986590385E+01 -0.819976720959E-02
  0.937237665057E-01  0.310986590385E+01  0.819976720959E-02
  0.937237665057E-01  0.329641318321E+01 -0.819976720959E-02
  0.937237665057E-01  0.329641318321E+01  0.819976720959E-02
  0.937237665057E-01  0.346730756760E+01 -0.819976720959E-02
  0.937237665057E-01  0.346730756760E+01  0.819976720959E-02
  0.937237665057E-01  0.362259936333E+01 -0.819976720959E-02
  0.937237665057E-01  0.362259936333E+01  0.819976720959E-02
  0.937237665057E-01  0.376267743111E+01 -0.819976720959E-02
  0.937237665057E-01  0.376267743111E+01  0.819976720959E-02
  0.937237665057E-01  0.388819599152E+01 -0.819976720959E-02
  0.937237665057E-01  0.388819599152E+01  0.819976720959E-02
  0.937237665057E-01  0.400000000000E+01 -0.819976720959E-02
  0.937237665057E-01  0.400000000000E+01  0.819976720959E-02
  0.937237665057E-01  0.400579690933E+01 -0.579697405919E-02
  0.937237665057E-01  0.400579690933E+01  0.579697405919E-02
  0.937237665057E-01  0.400819969177E+01  0.000000000000E+00
  0.190432325006E+00  0.000000000000E+00 -0.166606698185E-01
  0.190432325006E+00  0.000000000000E+00  0.166606698185E-01
  0.190432325006E+00  0.217527970672E+00 -0.166606698185E-01
  0.190432325006E+00  0.217527970672E+00  0.166606698185E-01
  0.190432325006E+00  0.448061168194E+00 -0.166606698185E-01
  0.190432325006E+00  0.448061168194E+00  0.166606698185E-01
  0.190432325006E+00  0.689725637436E+00 -0.166606698185E-01
  0.190432325006E+00  0.689725637436E+00  0.166606698185E-01
  0.190432325006E+00  0.940178275108E+00 -0.166606698185E-01
  0.190432325006E+00  0.940178275108E+00  0.166606698185E-01
  0.190432325006E+00  0.119668114185E+01 -0.166606698185E-01
  0.190432325006E+00  0.119668114185E+01  0.166606698185E-01
  0.190432325006E+00  0.145621216297E+01 -0.166606698185E-01
  0.190432325006E+00  0.145621216297E+01  0.166606698185E-01
  0.190432325006E+00  0.171560299397E+01 -0.166606698185E-01
  0.190432325006E+00  0.171560299397E+01  0.166606698185E-01
  0.190432325006E+00  0.197169232368E+01 -0.166606698185E-01
  0.190432325006E+00  0.197169232368E+01  0.166606698185E-01
  0.190432325006E+00  0.222147774696E+01 -0.166606698185E-01
  0.190432325006E+00  0.222147774696E+01  0.166606698185E-01
  0.190432325006E+00  0.246225214005E+01 -0.166606698185E-01
  0.190432325006E+00  0.246225214005E+01  0.166606698185E-01
  0.190432325006E+00  0.269171094894E+01 -0.166606698185E-01
  0.190432325006E+00  0.269171094894E+01  0.166606698185E-01
  0.190432325006E+00  0.290802383423E+01 -0.166606698185E-01
  0.190432325006E+00  0.290802383423E+01  0.166606698185E-01
  0.190432325006E+00  0.310986590385E+01 -0.166606698185E-01
  0.190432325006E+00  0.310986590385E+01  0.166606698185E-01
  0.190432325006E+00  0.329641318321E+01 -0.166606698185E-01
  0.190432325006E+00  0.329641318321E+01  0.166606698185E-01
  0.190432325006E+00  0.346730756760E+01 -0.166606698185E-01
  0.190432325006E+00  0.346730756760E+01  0.166606698185E-01
  0.190432325006E+00  0.362259936333E+01 -0.166606698185E-01
  0.190432325006E+00  0.362259936333E+01  0.166606698185E-01
  0.190432325006E+00  0.376267743111E+01 -0.166606698185E-01
  0.190432325006E+00  0.376267743111E+01  0.166606698185E-01
  0.190432325006E+00  0.388819599152E+01 -0.166606698185E-01
  0.190432325006E+00  0.388819599152E+01  0.166606698185E-01
  0.190432325006E+00  0.400000000000E+01 -0.166606698185E-01
  0.190432325006E+00  0.400000000000E+01  0.166606698185E-01
  0.190432325006E+00  0.401177835464E+01 -0.117785623297E-01
  0.190432325006E+00  0.401177835464E+01  0.117785623297E-01
  0.190432325006E+00  0.401666069031E+01 -0.272416755980E-17
  0.329831987619E+00  0.000000000000E+00 -0.288565587252E-01
  0.329831987619E+00  0.000000000000E+00  0.288565587252E-01
  0.329831987619E+00  0.217527970672E+00 -0.288565587252E-01
  0.329831987619E+00  0.217527970672E+00  0.288565587252E-01
  0.329831987619E+00  0.448061168194E+00 -0.288565587252E-01
  0.329831987619E+00  0.448061168194E+00  0.288565587252E-01
  0.329831987619E+00  0.689725637436E+00 -0.288565587252E-01
  0.329831987619E+00  0.689725637436E+00  0.288565587252E-01
  0.329831987619E+00  0.940178275108E+00 -0.288565587252E-01
  0.329831987619E+00  0.940178275108E+00  0.288565587252E-01
  0.329831987619E+00  0.119668114185E+01 -0.288565587252E-01
  0.329831987619E+00  0.119668114185E+01  0.288565587252E-01
[...]
CELL_DATA                 832
SCALARS sigma float 1
LOOKUP_TABLE default
 -0.871557522570E-01
 -0.871557522570E-01
 -0.871557287754E-01
 -0.871557287754E-01
 -0.871557634975E-01
 -0.871557634975E-01
 -0.871557429768E-01
 -0.871557429768E-01
 -0.871557414567E-01
 -0.871557414567E-01
  0.871557566045E-01
  0.871557566045E-01
  0.871557337317E-01
  0.871557337317E-01
  0.871557435062E-01
  0.871557435062E-01
  0.871557449904E-01
  0.871557449904E-01
  0.871557428102E-01
  0.871557428102E-01
  0.871557428102E-01
  0.871557428102E-01
  0.871557449904E-01
  0.871557449904E-01
  0.871557435062E-01
  0.871557435062E-01
  0.871557337317E-01
  0.871557337317E-01
  0.871557566045E-01
  0.871557566045E-01
 -0.871557414567E-01
 -0.871557414567E-01
 -0.871557429768E-01
 -0.871557429768E-01
 -0.871557634975E-01
 -0.871557634975E-01
 -0.871557287754E-01
 -0.871557287754E-01
 -0.871557522570E-01
 -0.871557522570E-01
 -0.871557522570E-01
 -0.871557522570E-01
 -0.871557287754E-01
 -0.871557287754E-01
 -0.871557634975E-01
 -0.871557634975E-01
 -0.871557429768E-01
 -0.871557429768E-01
 -0.871557414567E-01
 -0.871557414567E-01
  0.871557566045E-01
  0.871557566045E-01
  0.871557337317E-01
  0.871557337317E-01
  0.871557435062E-01
  0.871557435062E-01
  0.871557449904E-01
  0.871557449904E-01
  0.871557428102E-01
  0.871557428102E-01
  0.871557428102E-01
  0.871557428102E-01
  0.871557449904E-01
  0.871557449904E-01
  0.871557435062E-01
  0.871557435062E-01
  0.871557337317E-01
  0.871557337317E-01
  0.871557566045E-01
  0.871557566045E-01
 -0.871557414567E-01
 -0.871557414567E-01
 -0.871557429768E-01
 -0.871557429768E-01
 -0.871557634975E-01
 -0.871557634975E-01
 -0.871557287754E-01
 -0.871557287754E-01
 -0.871557522570E-01
 -0.871557522570E-01
 -0.871557522570E-01
 -0.871557522570E-01
 -0.871557287754E-01
 -0.871557287754E-01
 -0.871557634975E-01
 -0.871557634975E-01
 -0.871557429768E-01
 -0.871557429768E-01
 -0.871557414567E-01
 -0.871557414567E-01
  0.871557566045E-01
  0.871557566045E-01
  0.871557337317E-01
  0.871557337317E-01
  0.871557435062E-01
  0.871557435062E-01
  0.871557449904E-01
  0.871557449904E-01
  0.871557428102E-01
  0.871557428102E-01
  0.871557428102E-01
  0.871557428102E-01
  0.871557449904E-01
  0.871557449904E-01
  0.871557435062E-01
  0.871557435062E-01
  0.871557337317E-01
  0.871557337317E-01
  0.871557566045E-01
  0.871557566045E-01
 -0.871557414567E-01
 -0.871557414567E-01
 -0.871557429768E-01
 -0.871557429768E-01
 -0.871557634975E-01
 -0.871557634975E-01
 -0.871557287754E-01
 -0.871557287754E-01
 -0.871557522570E-01
 -0.871557522570E-01
 -0.871557522570E-01
 -0.871557522570E-01
 -0.871557287754E-01
 -0.871557287754E-01
 -0.871557634975E-01
 -0.871557634975E-01
 -0.871557429768E-01
 -0.871557429768E-01
 -0.871557414567E-01
 -0.871557414567E-01
  0.871557566045E-01
  0.871557566045E-01
  0.871557337317E-01
  0.871557337317E-01
  0.871557435062E-01
  0.871557435062E-01
  0.871557449904E-01
  0.871557449904E-01
  0.871557428102E-01
  0.871557428102E-01
  0.871557428102E-01
  0.871557428102E-01
  0.871557449904E-01
  0.871557449904E-01
  0.871557435062E-01
  0.871557435062E-01
  0.871557337317E-01
  0.871557337317E-01
  0.871557566045E-01
  0.871557566045E-01
 -0.871557414567E-01
 -0.871557414567E-01
 -0.871557429768E-01
 -0.871557429768E-01
 -0.871557634975E-01
 -0.871557634975E-01
 -0.871557287754E-01
 -0.871557287754E-01
 -0.871557522570E-01
 -0.871557522570E-01
 -0.871557522570E-01
 -0.871557522570E-01
 -0.871557287754E-01
 -0.871557287754E-01
 -0.871557634975E-01
 -0.871557634975E-01
 -0.871557429768E-01
 -0.871557429768E-01
 -0.871557414567E-01
 -0.871557414567E-01
  0.871557566045E-01
  0.871557566045E-01
  0.871557337317E-01
  0.871557337317E-01
  0.871557435062E-01
  0.871557435062E-01
  0.871557449904E-01
  0.871557449904E-01
  0.871557428102E-01
  0.871557428102E-01
  0.871557428102E-01
  0.871557428102E-01
  0.871557449904E-01
  0.871557449904E-01
  0.871557435062E-01
  0.871557435062E-01
  0.871557337317E-01
  0.871557337317E-01
  0.871557566045E-01
  0.871557566045E-01
 -0.871557414567E-01
 -0.871557414567E-01
 -0.871557429768E-01
 -0.871557429768E-01
 -0.871557634975E-01
 -0.871557634975E-01
 -0.871557287754E-01
 -0.871557287754E-01
 -0.871557522570E-01
 -0.871557522570E-01
 -0.871557522570E-01
 -0.871557522570E-01
 -0.871557287754E-01
 -0.871557287754E-01
 -0.871557634975E-01
 -0.871557634975E-01
 -0.871557429768E-01
 -0.871557429768E-01
 -0.871557414567E-01
 -0.871557414567E-01
  0.871557566045E-01
  0.871557566045E-01
  0.871557337317E-01
  0.871557337317E-01
  0.871557435062E-01
  0.871557435062E-01
  0.871557449904E-01
  0.871557449904E-01
  0.871557428102E-01
  0.871557428102E-01
  0.871557428102E-01
  0.871557428102E-01
  0.871557449904E-01
  0.871557449904E-01
  0.871557435062E-01
  0.871557435062E-01
  0.871557337317E-01
  0.871557337317E-01
  0.871557566045E-01
  0.871557566045E-01
 -0.871557414567E-01
 -0.871557414567E-01
 -0.871557429768E-01
 -0.871557429768E-01
 -0.871557634975E-01
 -0.871557634975E-01
 -0.871557287754E-01
 -0.871557287754E-01
 -0.871557522570E-01
 -0.871557522570E-01
 -0.871557522570E-01
 -0.871557522570E-01
 -0.871557287754E-01
 -0.871557287754E-01
 -0.871557634975E-01
 -0.871557634975E-01
 -0.871557429768E-01
 -0.871557429768E-01
 -0.871557414567E-01
 -0.871557414567E-01
  0.871557566045E-01
  0.871557566045E-01
  0.871557337317E-01
  0.871557337317E-01
  0.871557435062E-01
  0.871557435062E-01
  0.871557449904E-01
  0.871557449904E-01
  0.871557428102E-01
  0.871557428102E-01
  0.871557428102E-01
  0.871557428102E-01
  0.871557449904E-01
  0.871557449904E-01
  0.871557435062E-01
  0.871557435062E-01
  0.871557337317E-01
  0.871557337317E-01
  0.871557566045E-01
  0.871557566045E-01
 -0.871557414567E-01
 -0.871557414567E-01
 -0.871557429768E-01
 -0.871557429768E-01
 -0.871557634975E-01
 -0.871557634975E-01
 -0.871557287754E-01
 -0.871557287754E-01
 -0.871557522570E-01
 -0.871557522570E-01
 -0.871557522570E-01
 -0.871557522570E-01
 -0.871557287754E-01
 -0.871557287754E-01
 -0.871557634975E-01
 -0.871557634975E-01
 -0.871557429768E-01
 -0.871557429768E-01
 -0.871557414567E-01
 -0.871557414567E-01
  0.871557566045E-01
  0.871557566045E-01
  0.871557337317E-01
  0.871557337317E-01
  0.871557435062E-01
  0.871557435062E-01
  0.871557449904E-01
  0.871557449904E-01
  0.871557428102E-01
  0.871557428102E-01
  0.871557428102E-01
  0.871557428102E-01
  0.871557449904E-01
  0.871557449904E-01
  0.871557435062E-01
  0.871557435062E-01
  0.871557337317E-01
  0.871557337317E-01
  0.871557566045E-01
  0.871557566045E-01
 -0.871557414567E-01
 -0.871557414567E-01
 -0.871557429768E-01
 -0.871557429768E-01
 -0.871557634975E-01
 -0.871557634975E-01
 -0.871557287754E-01
 -0.871557287754E-01
 -0.871557522570E-01
 -0.871557522570E-01
 -0.871557522570E-01
 -0.871557522570E-01
 -0.871557287754E-01
 -0.871557287754E-01
 -0.871557634975E-01
 -0.871557634975E-01
 -0.871557429768E-01
 -0.871557429768E-01
 -0.871557414567E-01
 -0.871557414567E-01
  0.871557566045E-01
  0.871557566045E-01
  0.871557337317E-01
  0.871557337317E-01
  0.871557435062E-01
  0.871557435062E-01
  0.871557449904E-01
  0.871557449904E-01
  0.871557428102E-01
  0.871557428102E-01
  0.871557428102E-01
  0.871557428102E-01
  0.871557449904E-01
  0.871557449904E-01
  0.871557435062E-01
  0.871557435062E-01
  0.871557337317E-01
  0.871557337317E-01
  0.871557566045E-01
  0.871557566045E-01
 -0.871557414567E-01
 -0.871557414567E-01
 -0.871557429768E-01
 -0.871557429768E-01
 -0.871557634975E-01
 -0.871557634975E-01
 -0.871557287754E-01
 -0.871557287754E-01
 -0.871557522570E-01
 -0.871557522570E-01
 -0.871557522570E-01
 -0.871557522570E-01
 -0.871557287754E-01
 -0.871557287754E-01
 -0.871557634975E-01
 -0.871557634975E-01
 -0.871557429768E-01
 -0.871557429768E-01
 -0.871557414567E-01
 -0.871557414567E-01
  0.871557566045E-01
  0.871557566045E-01
  0.871557337317E-01
  0.871557337317E-01
  0.871557435062E-01
  0.871557435062E-01
  0.871557449904E-01
  0.871557449904E-01
  0.871557428102E-01
  0.871557428102E-01
  0.871557428102E-01
  0.871557428102E-01
  0.871557449904E-01
  0.871557449904E-01
  0.871557435062E-01
  0.871557435062E-01
  0.871557337317E-01
  0.871557337317E-01
  0.871557566045E-01
  0.871557566045E-01
 -0.871557414567E-01
 -0.871557414567E-01
 -0.871557429768E-01
 -0.871557429768E-01
 -0.871557634975E-01
 -0.871557634975E-01
 -0.871557287754E-01
 -0.871557287754E-01
 -0.871557522570E-01
 -0.871557522570E-01
 -0.871557522570E-01
 -0.871557522570E-01
 -0.871557287754E-01
 -0.871557287754E-01
 -0.871557634975E-01
 -0.871557634975E-01
 -0.871557429768E-01
 -0.871557429768E-01
 -0.871557414567E-01
 -0.871557414567E-01
  0.871557566045E-01
  0.871557566045E-01
  0.871557337317E-01
  0.871557337317E-01
  0.871557435062E-01
  0.871557435062E-01
  0.871557449904E-01
  0.871557449904E-01
  0.871557428102E-01
  0.871557428102E-01
  0.871557428102E-01
  0.871557428102E-01
  0.871557449904E-01
  0.871557449904E-01
  0.871557435062E-01
  0.871557435062E-01
  0.871557337317E-01
  0.871557337317E-01
  0.871557566045E-01
  0.871557566045E-01
 -0.871557414567E-01
 -0.871557414567E-01
 -0.871557429768E-01
 -0.871557429768E-01
 -0.871557634975E-01
 -0.871557634975E-01
 -0.871557287754E-01
 -0.871557287754E-01
 -0.871557522570E-01
 -0.871557522570E-01
 -0.871557522570E-01
 -0.871557522570E-01
 -0.871557287754E-01
 -0.871557287754E-01
 -0.871557634975E-01
 -0.871557634975E-01
 -0.871557429768E-01
 -0.871557429768E-01
 -0.871557414567E-01
 -0.871557414567E-01
  0.871557566045E-01
  0.871557566045E-01
  0.871557337317E-01
  0.871557337317E-01
  0.871557435062E-01
  0.871557435062E-01
  0.871557449904E-01
  0.871557449904E-01
  0.871557428102E-01
  0.871557428102E-01
  0.871557428102E-01
  0.871557428102E-01
  0.871557449904E-01
  0.871557449904E-01
  0.871557435062E-01
  0.871557435062E-01
  0.871557337317E-01
  0.871557337317E-01
  0.871557566045E-01
  0.871557566045E-01
 -0.871557414567E-01
 -0.871557414567E-01
 -0.871557429768E-01
 -0.871557429768E-01
 -0.871557634975E-01
 -0.871557634975E-01
 -0.871557287754E-01
 -0.871557287754E-01
 -0.871557522570E-01
 -0.871557522570E-01
 -0.871557522570E-01
 -0.871557522570E-01
 -0.871557287754E-01
 -0.871557287754E-01
 -0.871557634975E-01
 -0.871557634975E-01
 -0.871557429768E-01
 -0.871557429768E-01
 -0.871557414567E-01
 -0.871557414567E-01
  0.871557566045E-01
  0.871557566045E-01
  0.871557337317E-01
  0.871557337317E-01
  0.871557435062E-01
  0.871557435062E-01
  0.871557449904E-01
  0.871557449904E-01
  0.871557428102E-01
  0.871557428102E-01
  0.871557428102E-01
  0.871557428102E-01
  0.871557449904E-01
  0.871557449904E-01
  0.871557435062E-01
  0.871557435062E-01
  0.871557337317E-01
  0.871557337317E-01
  0.871557566045E-01
  0.871557566045E-01
 -0.871557414567E-01
 -0.871557414567E-01
 -0.871557429768E-01
 -0.871557429768E-01
 -0.871557634975E-01
 -0.871557634975E-01
 -0.871557287754E-01
 -0.871557287754E-01
 -0.871557522570E-01
 -0.871557522570E-01
 -0.871557522570E-01
 -0.871557522570E-01
 -0.871557287754E-01
 -0.871557287754E-01
 -0.871557634975E-01
 -0.871557634975E-01
 -0.871557429768E-01
 -0.871557429768E-01
 -0.871557414567E-01
 -0.871557414567E-01
  0.871557566045E-01
  0.871557566045E-01
  0.871557337317E-01
  0.871557337317E-01
  0.871557435062E-01
  0.871557435062E-01
  0.871557449904E-01
  0.871557449904E-01
  0.871557428102E-01
  0.871557428102E-01
  0.871557428102E-01
  0.871557428102E-01
  0.871557449904E-01
  0.871557449904E-01
  0.871557435062E-01
  0.871557435062E-01
  0.871557337317E-01
  0.871557337317E-01
  0.871557566045E-01
  0.871557566045E-01
 -0.871557414567E-01
 -0.871557414567E-01
 -0.871557429768E-01
 -0.871557429768E-01
 -0.871557634975E-01
 -0.871557634975E-01
 -0.871557287754E-01
 -0.871557287754E-01
 -0.871557522570E-01
 -0.871557522570E-01
 -0.871557522570E-01
 -0.871557522570E-01
 -0.871557287754E-01
 -0.871557287754E-01
 -0.871557634975E-01
 -0.871557634975E-01
 -0.871557429768E-01
 -0.871557429768E-01
 -0.871557414567E-01
 -0.871557414567E-01
  0.871557566045E-01
  0.871557566045E-01
  0.871557337317E-01
  0.871557337317E-01
  0.871557435062E-01
  0.871557435062E-01
  0.871557449904E-01
  0.871557449904E-01
  0.871557428102E-01
  0.871557428102E-01
  0.871557428102E-01
  0.871557428102E-01
  0.871557449904E-01
  0.871557449904E-01
  0.871557435062E-01
  0.871557435062E-01
  0.871557337317E-01
  0.871557337317E-01
  0.871557566045E-01
  0.871557566045E-01
 -0.871557414567E-01
 -0.871557414567E-01
 -0.871557429768E-01
 -0.871557429768E-01
 -0.871557634975E-01
 -0.871557634975E-01
 -0.871557287754E-01
 -0.871557287754E-01
 -0.871557522570E-01
 -0.871557522570E-01
 -0.871557522570E-01
 -0.871557522570E-01
 -0.871557287754E-01
 -0.871557287754E-01
 -0.871557634975E-01
 -0.871557634975E-01
 -0.871557429768E-01
 -0.871557429768E-01
 -0.871557414567E-01
 -0.871557414567E-01
  0.871557566045E-01
  0.871557566045E-01
  0.871557337317E-01
  0.871557337317E-01
  0.871557435062E-01
  0.871557435062E-01
  0.871557449904E-01
  0.871557449904E-01
  0.871557428102E-01
  0.871557428102E-01
  0.871557428102E-01
  0.871557428102E-01
  0.871557449904E-01
  0.871557449904E-01
  0.871557435062E-01
  0.871557435062E-01
  0.871557337317E-01
  0.871557337317E-01
  0.871557566045E-01
  0.871557566045E-01
 -0.871557414567E-01
 -0.871557414567E-01
 -0.871557429768E-01
 -0.871557429768E-01
 -0.871557634975E-01
 -0.871557634975E-01
 -0.871557287754E-01
 -0.871557287754E-01
 -0.871557522570E-01
 -0.871557522570E-01
 -0.871557522570E-01
 -0.871557522570E-01
 -0.871557287754E-01
 -0.871557287754E-01
 -0.871557634975E-01
 -0.871557634975E-01
 -0.871557429768E-01
 -0.871557429768E-01
 -0.871557414567E-01
 -0.871557414567E-01
  0.871557566045E-01
  0.871557566045E-01
  0.871557337317E-01
  0.871557337317E-01
  0.871557435062E-01
  0.871557435062E-01
  0.871557449904E-01
  0.871557449904E-01
  0.871557428102E-01
  0.871557428102E-01
  0.871557428102E-01
  0.871557428102E-01
  0.871557449904E-01
  0.871557449904E-01
  0.871557435062E-01
  0.871557435062E-01
  0.871557337317E-01
  0.871557337317E-01
  0.871557566045E-01
  0.871557566045E-01
 -0.871557414567E-01
 -0.871557414567E-01
 -0.871557429768E-01
 -0.871557429768E-01
 -0.871557634975E-01
 -0.871557634975E-01
 -0.871557287754E-01
 -0.871557287754E-01
 -0.871557522570E-01
 -0.871557522570E-01
 -0.871557522570E-01
 -0.871557522570E-01
 -0.871557287754E-01
 -0.871557287754E-01
 -0.871557634975E-01
 -0.871557634975E-01
 -0.871557429768E-01
 -0.871557429768E-01
 -0.871557414567E-01
 -0.871557414567E-01
  0.871557566045E-01
  0.871557566045E-01
  0.871557337317E-01
  0.871557337317E-01
  0.871557435062E-01
  0.871557435062E-01
  0.871557449904E-01
  0.871557449904E-01
  0.871557428102E-01
  0.871557428102E-01
  0.871557428102E-01
  0.871557428102E-01
  0.871557449904E-01
  0.871557449904E-01
  0.871557435062E-01
  0.871557435062E-01
  0.871557337317E-01
  0.871557337317E-01
  0.871557566045E-01
  0.871557566045E-01
 -0.871557414567E-01
 -0.871557414567E-01
 -0.871557429768E-01
 -0.871557429768E-01
 -0.871557634975E-01
 -0.871557634975E-01
 -0.871557287754E-01
 -0.871557287754E-01
 -0.871557522570E-01
 -0.871557522570E-01
 -0.871557522570E-01
 -0.871557522570E-01
 -0.871557287754E-01
 -0.871557287754E-01
 -0.871557634975E-01
 -0.871557634975E-01
 -0.871557429768E-01
 -0.871557429768E-01
 -0.871557414567E-01
 -0.871557414567E-01
  0.871557566045E-01
  0.871557566045E-01
  0.871557337317E-01
  0.871557337317E-01
  0.871557435062E-01
  0.871557435062E-01
  0.871557449904E-01
  0.871557449904E-01
  0.871557428102E-01
  0.871557428102E-01
  0.871557428102E-01
  0.871557428102E-01
  0.871557449904E-01
  0.871557449904E-01
  0.871557435062E-01
  0.871557435062E-01
  0.871557337317E-01
  0.871557337317E-01
  0.871557566045E-01
  0.871557566045E-01
 -0.871557414567E-01
 -0.871557414567E-01
 -0.871557429768E-01
 -0.871557429768E-01
 -0.871557634975E-01
 -0.871557634975E-01
 -0.871557287754E-01
 -0.871557287754E-01
 -0.871557522570E-01
 -0.871557522570E-01
 -0.805570854206E-01
 -0.805607490770E-01
 -0.805582366092E-01
 -0.805579675070E-01
 -0.805581921972E-01
 -0.805587675784E-01
 -0.805582988966E-01
 -0.805585603312E-01
 -0.805583422474E-01
  0.805583562642E-01
  0.805585743480E-01
  0.805582903418E-01
  0.805587590236E-01
  0.805581736985E-01
  0.805579490084E-01
  0.805582516135E-01
  0.805607640817E-01
  0.805570766793E-01
  0.805570766793E-01
  0.805607640817E-01
  0.805582516135E-01
  0.805579490084E-01
  0.805581736985E-01
  0.805587590236E-01
  0.805582903418E-01
  0.805585743480E-01
  0.805583562642E-01
 -0.805583422474E-01
 -0.805585603312E-01
 -0.805582988966E-01
 -0.805587675784E-01
 -0.805581921972E-01
 -0.805579675070E-01
 -0.805582366092E-01
 -0.805607490770E-01
 -0.805570854206E-01
 -0.805526614465E-01
 -0.805596007597E-01
 -0.805609217743E-01
 -0.805593595294E-01
 -0.805575932169E-01
 -0.805589806506E-01
 -0.805592763996E-01
 -0.805580998396E-01
 -0.805589203269E-01
  0.805589343439E-01
  0.805581138564E-01
  0.805592678448E-01
  0.805589720958E-01
  0.805575747185E-01
  0.805593410305E-01
  0.805609367791E-01
  0.805596157642E-01
  0.805526527056E-01
  0.805526527056E-01
  0.805596157642E-01
  0.805609367791E-01
  0.805593410305E-01
  0.805575747185E-01
  0.805589720958E-01
  0.805592678448E-01
  0.805581138564E-01
  0.805589343439E-01
 -0.805589203269E-01
 -0.805580998396E-01
 -0.805592763996E-01
 -0.805589806506E-01
 -0.805575932169E-01
 -0.805593595294E-01
 -0.805609217743E-01
 -0.805596007597E-01
 -0.805526614465E-01
SCALARS C_p_ise float 1
LOOKUP_TABLE default
 -0.357142857143E+00
 -0.357142857143E+00
 -0.357142857143E+00
 -0.357142857143E+00
 -0.357142857143E+00
 -0.357142857143E+00
 -0.357142857143E+00
 -0.357142857143E+00
 -0.357142857143E+00
 -0.357142857143E+00
 -0.357142857143E+00
 -0.357142857143E+00
 -0.355993800459E+00
  0.905569642460E+00
  0.143633861796E+00
  0.814120402275E-01
  0.149369404341E+00
  0.879949992223E-01
 -0.162048008477E+00
 -0.703447383743E-01
  0.135578630850E+00
  0.363876086212E-01
 -0.118563535191E+00
 -0.824834251218E-01
  0.176780217333E+00
  0.542803104554E+00
  0.173234901430E+01
  0.181345967922E+01
 -0.357142857143E+00
 -0.357142857143E+00
 -0.357142857143E+00
 -0.357142857143E+00
 -0.357142857143E+00
 -0.357142857143E+00
 -0.357142857143E+00
 -0.357142857143E+00
 -0.357142857143E+00
 -0.357142857143E+00
 -0.357142857143E+00
 -0.357142857143E+00
 -0.357142857143E+00
 -0.357142857143E+00
 -0.357142857143E+00
 -0.357142857143E+00
 -0.357142857143E+00
 -0.357142857143E+00
 -0.357142857143E+00
 -0.357142857143E+00
 -0.357142857143E+00
 -0.357142857143E+00
 -0.357142857143E+00
 -0.357142857143E+00
  0.843424591655E+00
  0.452674073512E+00
  0.815958339014E-01
  0.642490898330E-01
  0.886968924491E-01
  0.100569467803E+00
 -0.702811161729E-01
  0.369585149406E-01
  0.260791310085E+00
  0.135683517506E+00
 -0.129390036509E+00
 -0.118199427479E+00
  0.157623189506E+00
  0.176916986148E+00
  0.150952920693E+01
  0.724677591689E+00
 -0.357142857143E+00
 -0.357142857143E+00
 -0.357142857143E+00
 -0.357142857143E+00
 -0.357142857143E+00
 -0.357142857143E+00
 -0.357142857143E+00
 -0.357142857143E+00
 -0.357142857143E+00
 -0.357142857143E+00
 -0.357142857143E+00
 -0.357142857143E+00
 -0.357142857143E+00
 -0.357142857143E+00
 -0.357142857143E+00
 -0.357142857143E+00
 -0.357142857143E+00
 -0.357142857143E+00
 -0.357142857143E+00
 -0.357142857143E+00
 -0.357142857143E+00
 -0.357142857143E+00
 -0.357142857143E+00
 -0.357142857143E+00
  0.192410079187E+00
 -0.242760023024E+00
  0.604083096253E-01
 -0.568453849738E-01
  0.100279107161E+00
  0.152660772734E+00
  0.363299944099E-01
  0.684782567200E-01
  0.192601531380E+00
  0.258959602717E+00
 -0.961005048609E-01
 -0.129926598190E+00
  0.271617601276E-01
  0.151569747095E+00
 -0.308495743631E+00
  0.469909445284E-02
 -0.357142857143E+00
 -0.357142857143E+00
 -0.357142857143E+00
 -0.357142857143E+00
 -0.357142857143E+00
 -0.357142857143E+00