# vtk DataFile Version 3.0
MachLine results file. Generated by MachLine, USU AeroLab (c) 2022.
ASCII
DATASET POLYDATA
POINTS                1127 float
  0.979463808399E-06  0.000000000000E+00  0.000000000000E+00
  0.907223102979E-06  0.105263157890E+00  0.000000000000E+00
  0.146815849535E-05  0.210526315790E+00  0.000000000000E+00
  0.160288625560E-05  0.315789473680E+00  0.000000000000E+00
  0.108515546632E-05  0.421052631580E+00  0.000000000000E+00
  0.930068942207E-06  0.526315789470E+00  0.000000000000E+00
  0.795128609358E-06  0.631578947370E+00  0.000000000000E+00
  0.162356684344E-05  0.736842105260E+00  0.000000000000E+00
  0.136035635301E-05  0.842105263160E+00  0.000000000000E+00
  0.101789748682E-05  0.947368421050E+00  0.000000000000E+00
  0.113217323195E-05  0.105263157890E+01  0.000000000000E+00
  0.217075266569E-05  0.115789473680E+01  0.000000000000E+00
  0.183447491575E-05  0.126315789470E+01  0.000000000000E+00
  0.113145091946E-05  0.136842105260E+01  0.000000000000E+00
  0.147302196475E-05  0.147368421050E+01  0.000000000000E+00
  0.273831128764E-05  0.157894736840E+01  0.000000000000E+00
  0.231587571267E-05  0.168421052630E+01  0.000000000000E+00
  0.131583260234E-05  0.178947368420E+01  0.000000000000E+00
  0.187373755155E-05  0.189473684210E+01  0.000000000000E+00
  0.374726029139E-06  0.199999776711E+01 -0.605911178381E-22
  0.921256780568E-06 -0.105263157890E+00  0.000000000000E+00
  0.138963360154E-05 -0.210526315790E+00  0.000000000000E+00
  0.113207121364E-05 -0.315789473680E+00  0.000000000000E+00
  0.128792375080E-05 -0.421052631580E+00  0.000000000000E+00
  0.118077829168E-05 -0.526315789470E+00  0.000000000000E+00
  0.189578663175E-05 -0.631578947370E+00  0.000000000000E+00
  0.156566992265E-05 -0.736842105260E+00  0.000000000000E+00
  0.141993840015E-05 -0.842105263160E+00  0.000000000000E+00
  0.149761887947E-05 -0.947368421050E+00  0.000000000000E+00
  0.244056525139E-05 -0.105263157890E+01  0.000000000000E+00
  0.200138902512E-05 -0.115789473680E+01  0.000000000000E+00
  0.156333688353E-05 -0.126315789470E+01  0.000000000000E+00
  0.183774376303E-05 -0.136842105260E+01  0.000000000000E+00
  0.299681777328E-05 -0.147368421050E+01  0.000000000000E+00
  0.243572135352E-05 -0.157894736840E+01  0.000000000000E+00
  0.168466697769E-05 -0.168421052630E+01  0.000000000000E+00
  0.217258465950E-05 -0.178947368420E+01  0.000000000000E+00
  0.346355878443E-05 -0.189473684210E+01  0.000000000000E+00
  0.451756253310E-06 -0.199999730811E+01  0.000000000000E+00
  0.269655977157E-01  0.000000000000E+00 -0.235847171437E-02
  0.269655981451E-01  0.105263157890E+00 -0.235846680662E-02
  0.269656233537E-01  0.105263157890E+00  0.235817867102E-02
  0.269656343254E-01  0.000000000000E+00  0.235805326400E-02
  0.269656419042E-01  0.210526315790E+00 -0.235796663784E-02
  0.269656267399E-01  0.210526315790E+00  0.235813996652E-02
  0.269656603894E-01  0.315789473680E+00 -0.235775535076E-02
  0.269656469074E-01  0.315789473680E+00  0.235790945089E-02
  0.269656840179E-01  0.421052631580E+00 -0.235748527586E-02
  0.269656537558E-01  0.421052631580E+00  0.235783117342E-02
  0.269656604462E-01  0.526315789470E+00 -0.235775470119E-02
  0.269656352002E-01  0.526315789470E+00  0.235804326394E-02
  0.269655965616E-01  0.631578947370E+00 -0.235848490587E-02
  0.269656032780E-01  0.631578947370E+00  0.235840813671E-02
  0.269656486605E-01  0.736842105260E+00 -0.235788941307E-02
  0.269656587436E-01  0.736842105260E+00  0.235777416222E-02
  0.269656640041E-01  0.842105263160E+00 -0.235771403403E-02
  0.269656624186E-01  0.842105263160E+00  0.235773215664E-02
  0.269656542597E-01  0.947368421050E+00 -0.235782541361E-02
  0.269656558848E-01  0.947368421050E+00  0.235780683830E-02
  0.269656191823E-01  0.105263157890E+01 -0.235822634950E-02
  0.269656257910E-01  0.105263157890E+01  0.235815081189E-02
  0.269656829917E-01  0.115789473680E+01 -0.235749700488E-02
  0.269656930000E-01  0.115789473680E+01  0.235738261025E-02
  0.269657100437E-01  0.126315789470E+01 -0.235718779911E-02
  0.269657101911E-01  0.126315789470E+01  0.235718611452E-02
  0.269656751712E-01  0.136842105260E+01 -0.235758639377E-02
  0.269656778091E-01  0.136842105260E+01  0.235755624278E-02
  0.269656428130E-01  0.147368421050E+01 -0.235795624989E-02
  0.269656485030E-01  0.147368421050E+01  0.235789121308E-02
  0.269657203863E-01  0.157894736840E+01 -0.235706958338E-02
  0.269657297821E-01  0.157894736840E+01  0.235696218844E-02
  0.269657582464E-01  0.168421052630E+01 -0.235663684018E-02
  0.269657584767E-01  0.168421052630E+01  0.235663420746E-02
  0.269657030623E-01  0.178947368420E+01 -0.235726759769E-02
  0.269657032005E-01  0.178947368420E+01  0.235726601772E-02
  0.269656732086E-01  0.189473684210E+01 -0.235760882688E-02
  0.269656765813E-01  0.189473684210E+01  0.235757027609E-02
  0.269657622072E-01  0.199999974116E+01 -0.235659156736E-02
  0.269657671342E-01  0.199999973553E+01  0.235653525230E-02
  0.269657740467E-01  0.200091677975E+01 -0.217119135422E-02
  0.269657744968E-01  0.200091677757E+01  0.217118668855E-02
  0.269657153364E-01  0.200166635695E+01 -0.166646973663E-02
  0.269657121626E-01  0.200166638360E+01  0.166649439598E-02
  0.269657290576E-01  0.200217158911E+01 -0.917159564293E-03
  0.269657265200E-01  0.200217161632E+01  0.917169695119E-03
  0.269656903179E-01  0.200235741327E+01  0.250873310282E-22
  0.269656048683E-01 -0.105263157890E+00 -0.235838995967E-02
  0.269656174408E-01 -0.105263157890E+00  0.235824625545E-02
  0.269656453219E-01 -0.210526315790E+00 -0.235792757331E-02
  0.269656524184E-01 -0.210526315790E+00  0.235784645965E-02
  0.269656341855E-01 -0.315789473680E+00 -0.235805486268E-02
  0.269656375029E-01 -0.315789473680E+00  0.235801694478E-02
  0.269656538315E-01 -0.421052631580E+00 -0.235783030774E-02
  0.269656587028E-01 -0.421052631580E+00  0.235777462818E-02
  0.269656261622E-01 -0.526315789470E+00 -0.235814656885E-02
  0.269656320612E-01 -0.526315789470E+00  0.235807914297E-02
  0.269656776917E-01 -0.631578947370E+00 -0.235755758458E-02
  0.269656865038E-01 -0.631578947370E+00  0.235745686174E-02
  0.269656782435E-01 -0.736842105260E+00 -0.235755127693E-02
  0.269656809283E-01 -0.736842105260E+00  0.235752059032E-02
  0.269656779356E-01 -0.842105263160E+00 -0.235755479623E-02
  0.269656817002E-01 -0.842105263160E+00  0.235751176719E-02
  0.269656484175E-01 -0.947368421050E+00 -0.235789218984E-02
  0.269656542493E-01 -0.947368421050E+00  0.235782553175E-02
  0.269657140563E-01 -0.105263157890E+01 -0.235714193499E-02
  0.269657230070E-01 -0.105263157890E+01  0.235703962842E-02
  0.269657232852E-01 -0.115789473680E+01 -0.235703644848E-02
  0.269657254060E-01 -0.115789473680E+01  0.235701220751E-02
  0.269657024816E-01 -0.126315789470E+01 -0.235727423469E-02
  0.269657051643E-01 -0.126315789470E+01  0.235724357144E-02
  0.269656723575E-01 -0.136842105260E+01 -0.235761855473E-02
  0.269656777066E-01 -0.136842105260E+01  0.235755741461E-02
  0.269657519835E-01 -0.147368421050E+01 -0.235670842544E-02
  0.269657592151E-01 -0.147368421050E+01  0.235662576735E-02
  0.269657684036E-01 -0.157894736840E+01 -0.235652074259E-02
  0.269657684954E-01 -0.157894736840E+01  0.235651969310E-02
  0.269657266644E-01 -0.168421052630E+01 -0.235699782398E-02
  0.269657260390E-01 -0.168421052630E+01  0.235700497205E-02
  0.269656966836E-01 -0.178947368420E+01 -0.235734050630E-02
  0.269657002803E-01 -0.178947368420E+01  0.235729939502E-02
  0.269657871624E-01 -0.189473684210E+01 -0.235630632879E-02
  0.269657903887E-01 -0.189473684210E+01  0.235626945175E-02
  0.269658084609E-01 -0.199999968827E+01 -0.235606288537E-02
  0.269658076405E-01 -0.199999968921E+01  0.235607226278E-02
  0.269657568878E-01 -0.200091686267E+01 -0.217136920231E-02
  0.269657554362E-01 -0.200091686969E+01  0.217138424774E-02
  0.269658040272E-01 -0.200166561211E+01 -0.166578065154E-02
  0.269658103672E-01 -0.200166555886E+01  0.166573139306E-02
  0.269657413122E-01 -0.200217145775E+01 -0.917110641605E-03
  0.269657471672E-01 -0.200217139498E+01  0.917087267326E-03
  0.269658431487E-01 -0.200235566641E+01  0.000000000000E+00
  0.702823454444E-01  0.000000000000E+00 -0.614763595262E-02
  0.702823110571E-01  0.105263157890E+00 -0.614802900054E-02
  0.702823377407E-01  0.105263157890E+00  0.614772400556E-02
  0.702823498589E-01  0.000000000000E+00  0.614758549432E-02
  0.702823344596E-01  0.210526315790E+00 -0.614776150929E-02
  0.702823108510E-01  0.210526315790E+00  0.614803135677E-02
  0.702823562057E-01  0.315789473680E+00 -0.614751294984E-02
  0.702823494690E-01  0.315789473680E+00  0.614758995146E-02
  0.702824117504E-01  0.421052631580E+00 -0.614687807174E-02
  0.702823342943E-01  0.421052631580E+00  0.614776339900E-02
  0.702823578025E-01  0.526315789470E+00 -0.614749469852E-02
  0.702823342160E-01  0.526315789470E+00  0.614776429374E-02
  0.702823393821E-01  0.631578947370E+00 -0.614770524523E-02
  0.702823089693E-01  0.631578947370E+00  0.614805286484E-02
  0.702823494352E-01  0.736842105260E+00 -0.614759033730E-02
  0.702823611079E-01  0.736842105260E+00  0.614745691762E-02
  0.702823595224E-01  0.842105263160E+00 -0.614747504012E-02
  0.702823612636E-01  0.842105263160E+00  0.614745513828E-02
  0.702823479174E-01  0.947368421050E+00 -0.614760768573E-02
  0.702823546177E-01  0.947368421050E+00  0.614753110114E-02
  0.702823193868E-01  0.105263157890E+01 -0.614793379259E-02
  0.702823277446E-01  0.105263157890E+01  0.614783826231E-02
  0.702823749295E-01  0.115789473680E+01 -0.614729893590E-02
  0.702823949870E-01  0.115789473680E+01  0.614706967835E-02
  0.702824053571E-01  0.126315789470E+01 -0.614695114750E-02
  0.702824088849E-01  0.126315789470E+01  0.614691082399E-02
  0.702823700676E-01  0.136842105260E+01 -0.614735450733E-02
  0.702823760106E-01  0.136842105260E+01  0.614728657925E-02
  0.702823404616E-01  0.147368421050E+01 -0.614769290556E-02
  0.702823494237E-01  0.147368421050E+01  0.614759046847E-02
[...]
POINT_DATA                1127
SCALARS phi float 1
LOOKUP_TABLE default
 -0.326487936133E-06
 -0.302407700993E-06
 -0.489386165117E-06
 -0.534295418532E-06
 -0.361718488774E-06
 -0.310022980736E-06
 -0.265042869786E-06
 -0.541188947815E-06
 -0.453452117672E-06
 -0.339299162274E-06
 -0.377391077316E-06
 -0.723584221897E-06
 -0.611491638585E-06
 -0.377150306487E-06
 -0.491007321582E-06
 -0.912770429213E-06
 -0.771958570891E-06
 -0.438610867446E-06
 -0.624579183851E-06
 -0.124908676380E-06
 -0.307085593523E-06
 -0.463211200513E-06
 -0.377357071215E-06
 -0.429307916935E-06
 -0.393592763893E-06
 -0.631928877252E-06
 -0.521889974216E-06
 -0.473312800050E-06
 -0.499206293157E-06
 -0.813521750464E-06
 -0.667129675040E-06
 -0.521112294511E-06
 -0.612581254344E-06
 -0.998939257761E-06
 -0.811907117841E-06
 -0.561555659231E-06
 -0.724194886500E-06
 -0.115451959481E-05
 -0.150585417770E-06
 -0.898853257190E-02
 -0.898853271502E-02
 -0.898854111789E-02
 -0.898854477512E-02
 -0.898854730139E-02
 -0.898854224662E-02
 -0.898855346313E-02
 -0.898854896912E-02
 -0.898856133929E-02
 -0.898855125192E-02
 -0.898855348207E-02
 -0.898854506675E-02
 -0.898853218720E-02
 -0.898853442601E-02
 -0.898854955349E-02
 -0.898855291453E-02
 -0.898855466804E-02
 -0.898855413954E-02
 -0.898855141989E-02
 -0.898855196160E-02
 -0.898853972745E-02
 -0.898854193034E-02
 -0.898856099724E-02
 -0.898856433332E-02
 -0.898857001457E-02
 -0.898857006370E-02
 -0.898855839040E-02
 -0.898855926969E-02
 -0.898854760433E-02
 -0.898854950099E-02
 -0.898857346209E-02
 -0.898857659403E-02
 -0.898858608213E-02
 -0.898858615891E-02
 -0.898856768742E-02
 -0.898856773349E-02
 -0.898855773619E-02
 -0.898855886044E-02
 -0.898858740241E-02
 -0.898858904472E-02
 -0.898859134890E-02
 -0.898859149895E-02
 -0.898857177881E-02
 -0.898857072086E-02
 -0.898857635254E-02
 -0.898857550666E-02
 -0.898856343929E-02
 -0.898853495610E-02
 -0.898853914693E-02
 -0.898854844062E-02
 -0.898855080613E-02
 -0.898854472850E-02
 -0.898854583429E-02
 -0.898855127717E-02
 -0.898855290094E-02
 -0.898854205408E-02
 -0.898854402041E-02
 -0.898855923056E-02
 -0.898856216793E-02
 -0.898855941451E-02
 -0.898856030942E-02
 -0.898855931188E-02
 -0.898856056673E-02
 -0.898854947251E-02
 -0.898855141645E-02
 -0.898857135210E-02
 -0.898857433566E-02
 -0.898857442840E-02
 -0.898857513533E-02
 -0.898856749386E-02
 -0.898856838809E-02
 -0.898855745250E-02
 -0.898855923552E-02
 -0.898858399450E-02
 -0.898858640504E-02
 -0.898858946787E-02
 -0.898858949848E-02
 -0.898857555480E-02
 -0.898857534634E-02
 -0.898856556119E-02
 -0.898856676012E-02
 -0.898859572079E-02
 -0.898859679624E-02
 -0.898860282031E-02
 -0.898860254684E-02
 -0.898858562927E-02
 -0.898858514541E-02
 -0.898860134241E-02
 -0.898860345573E-02
 -0.898858043740E-02
 -0.898858238907E-02
 -0.898861438289E-02
 -0.234274484815E-01
 -0.234274370190E-01
 -0.234274459136E-01
 -0.234274499530E-01
 -0.234274448199E-01
 -0.234274369503E-01
 -0.234274520686E-01
 -0.234274498230E-01
 -0.234274705835E-01
 -0.234274447648E-01
 -0.234274526008E-01
 -0.234274447387E-01
 -0.234274464607E-01
 -0.234274363231E-01
 -0.234274498117E-01
 -0.234274537026E-01
 -0.234274531741E-01
 -0.234274537545E-01
 -0.234274493058E-01
 -0.234274515392E-01
 -0.234274397956E-01
 -0.234274425815E-01
 -0.234274583098E-01
 -0.234274649957E-01
 -0.234274684524E-01
 -0.234274696283E-01
 -0.234274566892E-01
 -0.234274586702E-01
 -0.234274468205E-01
 -0.234274498079E-01
 -0.234274708582E-01
 -0.234274768259E-01
 -0.234274844594E-01
 -0.234274856808E-01
 -0.234274661412E-01
 -0.234274664255E-01
 -0.234274568071E-01
 -0.234274580907E-01
 -0.234274851832E-01
 -0.234274881800E-01
 -0.234274990383E-01
 -0.234274992053E-01
 -0.234274751486E-01
 -0.234274728839E-01
 -0.234274598073E-01
 -0.234274579773E-01
 -0.234274494717E-01
 -0.234274396811E-01
 -0.234274423885E-01
 -0.234274528688E-01
 -0.234274510485E-01
 -0.234274428142E-01
 -0.234274452407E-01
 -0.234274491472E-01
 -0.234274526471E-01
 -0.234274406758E-01
 -0.234274439685E-01
 -0.234274563812E-01
 -0.234274622081E-01
 -0.234274570274E-01
 -0.234274595214E-01
 -0.234274572211E-01
 -0.234274599882E-01
 -0.234274481047E-01
 -0.234274512486E-01
 -0.234274684740E-01
 -0.234274743014E-01
 -0.234274721666E-01
 -0.234274743764E-01
 -0.234274654692E-01
 -0.234274671937E-01
 -0.234274561060E-01
 -0.234274585323E-01
 -0.234274811761E-01
 -0.234274857238E-01
 -0.234274873104E-01
 -0.234274887620E-01
 -0.234274738366E-01
 -0.234274734479E-01
 -0.234274642398E-01
 -0.234274656755E-01
 -0.234274936390E-01
 -0.234274957942E-01
 -0.234275018640E-01
 -0.234275018260E-01
 -0.234274802211E-01
 -0.234274785688E-01
 -0.234274749569E-01
 -0.234274784748E-01
 -0.234274707982E-01
 -0.234274740629E-01
 -0.234275038583E-01
 -0.456051087489E-01
 -0.456050964110E-01
 -0.456051056497E-01
 -0.456051094344E-01
 -0.456051046008E-01
 -0.456050945397E-01
 -0.456051056344E-01
 -0.456050995129E-01
 -0.456051252063E-01
 -0.456050939300E-01
 -0.456051167777E-01
 -0.456051010669E-01
 -0.456051140254E-01
 -0.456050909587E-01
 -0.456051033138E-01
 -0.456051105473E-01
 -0.456051083043E-01
 -0.456051093918E-01
 -0.456051037676E-01
 -0.456051071260E-01
 -0.456050931142E-01
 -0.456050970258E-01
 -0.456051116072E-01
 -0.456051216963E-01
 -0.456051228648E-01
 -0.456051251379E-01
 -0.456051108538E-01
 -0.456051140015E-01
 -0.456051000890E-01
 -0.456051039639E-01
 -0.456051238993E-01
 -0.456051326170E-01
 -0.456051387650E-01
 -0.456051405782E-01
 -0.456051204777E-01
 -0.456051208267E-01
 -0.456051109266E-01
 -0.456051117569E-01
 -0.456051387752E-01
 -0.456051430771E-01
 -0.456051522094E-01
 -0.456051536245E-01
 -0.456051287447E-01
 -0.456051265233E-01
 -0.456051135786E-01
 -0.456051105193E-01
 -0.456051018420E-01
 -0.456051099380E-01
 -0.456050987370E-01
 -0.456051056704E-01
 -0.456051063476E-01
 -0.456051119453E-01
 -0.456050998542E-01
 -0.456051118752E-01
 -0.456051070398E-01
 -0.456050923558E-01
 -0.456050974305E-01
 -0.456051084212E-01
 -0.456051178099E-01
 -0.456051102254E-01
 -0.456051142501E-01
 -0.456051102775E-01
 -0.456051143014E-01
 -0.456051003594E-01
 -0.456051046824E-01
 -0.456051210261E-01
 -0.456051298987E-01
 -0.456051255401E-01
 -0.456051291717E-01
 -0.456051186674E-01
 -0.456051210125E-01
 -0.456051086085E-01
 -0.456051119083E-01
 -0.456051338388E-01
 -0.456051403549E-01
 -0.456051408270E-01
 -0.456051425477E-01
 -0.456051272055E-01
 -0.456051266354E-01
 -0.456051172049E-01
 -0.456051189638E-01
 -0.456051470914E-01
 -0.456051503486E-01
 -0.456051555164E-01
 -0.456051556563E-01
 -0.456051334966E-01
 -0.456051317945E-01
 -0.456051275951E-01
 -0.456051211718E-01
 -0.456051230094E-01
 -0.456051172129E-01
 -0.456051577080E-01
 -0.774286334153E-01
 -0.774286299849E-01
 -0.774286304799E-01
 -0.774286339138E-01
 -0.774286305311E-01
 -0.774286184739E-01
 -0.774286244328E-01
 -0.774286206308E-01
 -0.774286437836E-01
 -0.774286143573E-01
 -0.774286354610E-01
 -0.774286205784E-01
 -0.774286338267E-01
 -0.774286114557E-01
 -0.774286243532E-01
 -0.774286313958E-01
 -0.774286285326E-01
 -0.774286290917E-01
 -0.774286223303E-01
 -0.774286267686E-01
 -0.774286116800E-01
 -0.774286177545E-01
 -0.774286291642E-01
 -0.774286423745E-01
 -0.774286411704E-01
 -0.774286445270E-01
 -0.774286288353E-01
 -0.774286332979E-01
 -0.774286186910E-01
 -0.774286243175E-01
 -0.774286411574E-01
 -0.774286524234E-01
 -0.774286568850E-01
 -0.774286597705E-01
 -0.774286384707E-01
 -0.774286384378E-01
 -0.774286293680E-01
 -0.774286302542E-01
 -0.774286562887E-01
 -0.774286614645E-01
 -0.774286714010E-01
 -0.774286727943E-01
 -0.774286483770E-01
 -0.774286437327E-01
 -0.774286329761E-01
 -0.774286275297E-01
 -0.774286198292E-01
 -0.774286377851E-01
 -0.774286209908E-01
 -0.774286299787E-01
 -0.774286256249E-01
 -0.774286453564E-01
 -0.774286180280E-01
 -0.774286289738E-01
 -0.774286259845E-01
 -0.774286200272E-01
 -0.774286163577E-01
 -0.774286249065E-01
 -0.774286371503E-01
 -0.774286263875E-01
 -0.774286324392E-01
 -0.774286270712E-01
 -0.774286327408E-01
 -0.774286178275E-01
 -0.774286234892E-01
 -0.774286370733E-01
 -0.774286491325E-01
 -0.774286423957E-01
 -0.774286474098E-01
 -0.774286354748E-01
 -0.774286386556E-01
 -0.774286260584E-01
 -0.774286296908E-01
 -0.774286499465E-01
 -0.774286584829E-01
 -0.774286578610E-01
 -0.774286608586E-01
 -0.774286441045E-01
 -0.774286434384E-01
 -0.774286346798E-01
 -0.774286365724E-01
 -0.774286633475E-01
 -0.774286574949E-01
 -0.774286732815E-01
 -0.774286632846E-01
 -0.774286521668E-01
 -0.774286485521E-01
 -0.774286447171E-01
 -0.774286269570E-01
 -0.774286396785E-01
 -0.774286349345E-01
 -0.774286649421E-01
 -0.118903194798E+00
 -0.118903191585E+00
 -0.118903202302E+00
 -0.118903205289E+00
 -0.118903194360E+00
 -0.118903188500E+00
 -0.118903190525E+00
 -0.118903189972E+00
 -0.118903210486E+00
 -0.118903183608E+00
 -0.118903201413E+00
 -0.118903189093E+00
 -0.118903199922E+00
 -0.118903178876E+00
 -0.118903190524E+00
 -0.118903200441E+00
 -0.118903206433E+00
 -0.118903197260E+00
 -0.118903199023E+00
 -0.118903194750E+00
 -0.118903178126E+00
 -0.118903184623E+00
 -0.118903195549E+00
 -0.118903211240E+00
 -0.118903208124E+00
 -0.118903212080E+00
 -0.118903196629E+00
 -0.118903200819E+00
 -0.118903185967E+00
 -0.118903190711E+00
 -0.118903207935E+00
 -0.118903220520E+00
 -0.118903222979E+00
 -0.118903225900E+00
 -0.118903205051E+00
 -0.118903204216E+00
 -0.118903196084E+00
 -0.118903195629E+00
 -0.118903222029E+00
 -0.118903227663E+00
 -0.118903236284E+00
 -0.118903238833E+00
 -0.118903213846E+00
 -0.118903208480E+00
 -0.118903198449E+00
 -0.118903191054E+00
 -0.118903183474E+00
 -0.118903200354E+00
 -0.118903188994E+00
 -0.118903194133E+00
 -0.118903192593E+00
 -0.118903210743E+00
 -0.118903183898E+00
 -0.118903203501E+00
 -0.118903191281E+00
 -0.118903194608E+00
 -0.118903180709E+00
 -0.118903188277E+00
 -0.118903204218E+00
 -0.118903190576E+00
 -0.118903198076E+00
 -0.118903191210E+00
 -0.118903197890E+00
 -0.118903180877E+00
 -0.118903187732E+00
 -0.118903200451E+00
 -0.118903215544E+00
 -0.118903206876E+00
 -0.118903212545E+00
 -0.118903199565E+00
 -0.118903203174E+00
 -0.118903189285E+00
 -0.118903193749E+00
 -0.118903213369E+00
 -0.118903224147E+00
 -0.118903222535E+00
 -0.118903225543E+00
 -0.118903208286E+00
 -0.118903213741E+00
 -0.118903198249E+00
 -0.118903207725E+00
 -0.118903226959E+00
 -0.118903211815E+00
 -0.118903238146E+00
 -0.118903228018E+00
 -0.118903215677E+00
 -0.118903209336E+00
 -0.118903208124E+00
 -0.118903197096E+00
 -0.118903202792E+00
 -0.118903187534E+00
 -0.118903217533E+00
 -0.166666666667E+00
 -0.166666666667E+00
 -0.166666666667E+00
 -0.166666666667E+00
 -0.166666666667E+00
 -0.166666666667E+00
 -0.166666666667E+00
 -0.166666666667E+00
 -0.166666666667E+00
 -0.166666666667E+00
 -0.166666666667E+00
 -0.166666666667E+00
 -0.166666666667E+00
 -0.166666666667E+00
 -0.166666666667E+00
 -0.166666666667E+00
 -0.166666666667E+00
 -0.166666666667E+00
 -0.166666666667E+00
 -0.166666666667E+00
 -0.166666666667E+00
 -0.166666666667E+00
 -0.166666666667E+00
 -0.166666666667E+00
 -0.166666666667E+00
 -0.166666666667E+00
 -0.166666666667E+00
 -0.166666666667E+00
 -0.166666666667E+00
 -0.166666666667E+00
 -0.166666666667E+00
 -0.166666666667E+00
 -0.166666666667E+00
 -0.166666666667E+00
 -0.166666666667E+00
 -0.166666666667E+00
 -0.166666666667E+00
 -0.166666666667E+00
 -0.166666666667E+00
 -0.166666666667E+00
 -0.166666666667E+00
 -0.166666666667E+00
 -0.166666666667E+00
 -0.166666666667E+00
 -0.166666666667E+00
 -0.166666666667E+00
 -0.166666666667E+00
 -0.166666666667E+00
 -0.166666666667E+00
 -0.166666666667E+00
 -0.166666666667E+00
 -0.166666666667E+00
 -0.166666666667E+00
 -0.166666666667E+00
 -0.166666666667E+00
 -0.166666666667E+00
 -0.166666666667E+00
 -0.166666666667E+00
 -0.166666666667E+00
 -0.166666666667E+00
 -0.166666666667E+00
 -0.166666666667E+00
 -0.166666666667E+00
 -0.166666666667E+00
 -0.166666666667E+00
 -0.166666666667E+00
 -0.166666666667E+00
 -0.166666666667E+00
 -0.166666666667E+00
 -0.166666666667E+00
 -0.166666666667E+00
 -0.166666666667E+00
 -0.166666666667E+00
 -0.166666666667E+00
 -0.166666666667E+00
 -0.166666666667E+00
 -0.166666666667E+00
 -0.166666666667E+00
 -0.166666666667E+00
 -0.166666666667E+00
 -0.166666666667E+00
 -0.166666666667E+00
 -0.166666666667E+00
 -0.166666666667E+00
 -0.166666666667E+00
 -0.166666666667E+00
 -0.166666666667E+00
 -0.166666666667E+00
 -0.166666666667E+00
 -0.166666666667E+00
 -0.166666666667E+00
 -0.166666666667E+00
 -0.214430147738E+00
 -0.214430143129E+00
 -0.214430136766E+00
 -0.214430137192E+00
 -0.214430142718E+00
 -0.214430151711E+00
 -0.214430140902E+00
 -0.214430136606E+00
 -0.214430121984E+00
 -0.214430141956E+00
 -0.214430130345E+00
 -0.214430138096E+00
 -0.214430130233E+00
 -0.214430149072E+00
 -0.214430139903E+00
 -0.214430126943E+00
 -0.214430115261E+00
 -0.214430129955E+00
 -0.214430121568E+00
 -0.214430133645E+00
 -0.214430130502E+00
 -0.214430144796E+00
 -0.214430136732E+00
 -0.214430116592E+00
 -0.214430130373E+00
 -0.214430117202E+00
 -0.214430133998E+00
 -0.214430129680E+00
 -0.214430142640E+00
 -0.214430140287E+00
 -0.214430122924E+00
 -0.214430108940E+00
 -0.214430111597E+00
 -0.214430105117E+00
 -0.214430126222E+00
 -0.214430127936E+00
 -0.214430133534E+00
 -0.214430136123E+00
 -0.214430110172E+00
 -0.214430101573E+00
 -0.214430098995E+00
 -0.214430093081E+00
 -0.214430119399E+00
 -0.214430125791E+00
 -0.214430132705E+00
 -0.214430144531E+00
 -0.214430149430E+00
 -0.214430138349E+00
 -0.214430145544E+00
 -0.214430141867E+00
 -0.214430138343E+00
 -0.214430124406E+00
 -0.214430148500E+00
 -0.214430133125E+00
 -0.214430141815E+00
 -0.214430136835E+00
 -0.214430153993E+00
 -0.214430145466E+00
 -0.214430127133E+00
 -0.214430140197E+00
 -0.214430136228E+00
 -0.214430135258E+00
 -0.214430137898E+00
 -0.214430145084E+00
 -0.214430149311E+00
 -0.214430139475E+00
 -0.214430117830E+00
 -0.214430131668E+00
 -0.214430122904E+00
 -0.214430138469E+00
 -0.214430134749E+00
 -0.214430147912E+00
 -0.214430144320E+00
 -0.214430126056E+00
 -0.214430110606E+00
 -0.214430115255E+00
 -0.214430109570E+00
 -0.214430130212E+00
 -0.214430117460E+00
 -0.214430138633E+00
 -0.214430122595E+00
 -0.214430111551E+00
 -0.214430107927E+00
 -0.214430099366E+00
 -0.214430118411E+00
 -0.214430122402E+00
 -0.214430131575E+00
 -0.214430128851E+00
 -0.214430132839E+00
 -0.214430136728E+00
 -0.214430132968E+00
 -0.214430124064E+00
 -0.255904714879E+00
 -0.255904711684E+00
 -0.255904706263E+00
 -0.255904715243E+00
 -0.255904708270E+00
 -0.255904713677E+00
 -0.255904705412E+00
 -0.255904699657E+00
 -0.255904688053E+00
 -0.255904705098E+00
 -0.255904695168E+00
 -0.255904701014E+00
 -0.255904694245E+00
 -0.255904711272E+00
 -0.255904704347E+00
 -0.255904690407E+00
 -0.255904681086E+00
 -0.255904693725E+00
 -0.255904686420E+00
 -0.255904697117E+00
 -0.255904695321E+00
 -0.255904707509E+00
 -0.255904702948E+00
 -0.255904680817E+00
 -0.255904696512E+00
 -0.255904681623E+00
 -0.255904698540E+00
 -0.255904694643E+00
 -0.255904706750E+00
 -0.255904704258E+00
 -0.255904688716E+00
 -0.255904673611E+00
 -0.255904677956E+00
 -0.255904670149E+00
 -0.255904690980E+00
 -0.255904693163E+00
 -0.255904698302E+00
 -0.255904700246E+00
 -0.255904676409E+00
 -0.255904666107E+00
 -0.255904664750E+00
 -0.255904670164E+00
 -0.255904683883E+00
 -0.255904702809E+00
 -0.255904697316E+00
 -0.255904710211E+00
 -0.255904713351E+00
 -0.255904705189E+00
 -0.255904715690E+00
 -0.255904708462E+00
 -0.255904703012E+00
 -0.255904691460E+00
 -0.255904713107E+00
 -0.255904700211E+00
 -0.255904705220E+00
 -0.255904698213E+00
 -0.255904717422E+00
 -0.255904709012E+00
 -0.255904692153E+00
 -0.255904696222E+00
 -0.255904702271E+00
 -0.255904702761E+00
 -0.255904704210E+00
 -0.255904701490E+00
 -0.255904715960E+00
 -0.255904707832E+00
 -0.255904684139E+00
 -0.255904699387E+00
 -0.255904690017E+00
 -0.255904706533E+00
 -0.255904702807E+00
 -0.255904715333E+00
 -0.255904711388E+00
 -0.255904695531E+00
 -0.255904677272E+00
 -0.255904683000E+00
 -0.255904687724E+00
 -0.255904698566E+00
 -0.255904697219E+00
 -0.255904706382E+00
 -0.255904689489E+00
 -0.255904680256E+00
 -0.255904674522E+00
 -0.255904667075E+00
 -0.255904686372E+00
 -0.255904689188E+00
 -0.255904699171E+00
 -0.255904696387E+00
 -0.255904700615E+00
 -0.255904704408E+00
 -0.255904699308E+00
 -0.255904692580E+00
 -0.287728234867E+00
 -0.287728233034E+00
 -0.287728230073E+00
 -0.287728231554E+00
 -0.287728227519E+00
 -0.287728230428E+00
 -0.287728224482E+00
 -0.287728215659E+00
 -0.287728206614E+00
 -0.287728220957E+00
 -0.287728213565E+00
 -0.287728217542E+00
 -0.287728212231E+00
 -0.287728228244E+00
 -0.287728222423E+00
 -0.287728206492E+00
 -0.287728199339E+00
 -0.287728209991E+00
 -0.287728204882E+00
 -0.287728213756E+00
 -0.287728212912E+00
 -0.287728224810E+00
 -0.287728220890E+00
 -0.287728197536E+00
 -0.287728214042E+00
 -0.287728199409E+00
 -0.287728206390E+00
 -0.287728212359E+00
 -0.287728213699E+00
 -0.287728221823E+00
 -0.287728207002E+00
 -0.287728190695E+00
 -0.287728196575E+00
 -0.287728188448E+00
 -0.287728207731E+00
 -0.287728210969E+00
 -0.287728215210E+00
 -0.287728209763E+00
 -0.287728194988E+00
 -0.287728185658E+00
 -0.287728184875E+00
 -0.287728188489E+00
 -0.287728202748E+00
 -0.287728231688E+00
 -0.287728216187E+00
 -0.287728229385E+00
 -0.287728231936E+00
 -0.287728226015E+00
 -0.287728232954E+00
 -0.287728228285E+00
 -0.287728219702E+00
 -0.287728210628E+00
 -0.287728229622E+00
 -0.287728220273E+00
 -0.287728222815E+00
 -0.287728218240E+00
 -0.287728235069E+00
 -0.287728228986E+00
 -0.287728209151E+00
 -0.287728204190E+00
 -0.287728219637E+00
 -0.287728211830E+00
 -0.287728223047E+00
 -0.287728222432E+00
 -0.287728234538E+00
 -0.287728228133E+00
 -0.287728202374E+00
 -0.287728217808E+00
 -0.287728209728E+00
 -0.287728226209E+00
 -0.287728222628E+00
 -0.287728236153E+00
 -0.287728226695E+00
 -0.287728216091E+00
 -0.287728201423E+00
 -0.287728202629E+00
 -0.287728207569E+00
 -0.287728218741E+00
 -0.287728227783E+00
 -0.287728226005E+00
 -0.287728208726E+00
 -0.287728200289E+00
 -0.287728192489E+00
 -0.287728186721E+00
 -0.287728206169E+00
 -0.287728209500E+00
 -0.287728218582E+00
 -0.287728217235E+00
 -0.287728221240E+00
 -0.287728224388E+00
 -0.287728218332E+00
 -0.287728213835E+00
 -0.309905889653E+00
 -0.309905889119E+00
 -0.309905882137E+00
 -0.309905883557E+00
 -0.309905881511E+00
 -0.309905881890E+00
 -0.309905878711E+00
 -0.309905868009E+00
 -0.309905861948E+00
 -0.309905873598E+00
 -0.309905867949E+00
 -0.309905869738E+00
 -0.309905866058E+00
 -0.309905879928E+00
 -0.309905876519E+00
 -0.309905859045E+00
 -0.309905854443E+00
 -0.309905862915E+00
 -0.309905858802E+00
 -0.309905866305E+00
 -0.309905866030E+00
 -0.309905877184E+00
 -0.309905874305E+00
 -0.309905851148E+00
 -0.309905857861E+00
 -0.309905852665E+00
 -0.309905859699E+00
 -0.309905866181E+00
 -0.309905856995E+00
 -0.309905874808E+00
 -0.309905866316E+00
 -0.309905844320E+00
 -0.309905856619E+00
 -0.309905852664E+00
 -0.309905862073E+00
 -0.309905868489E+00
 -0.309905868462E+00
 -0.309905863199E+00
 -0.309905849586E+00
 -0.309905841736E+00
 -0.309905839056E+00
 -0.309905854416E+00
 -0.309905855205E+00
 -0.309905886163E+00
 -0.309905868732E+00
 -0.309905883933E+00
 -0.309905884898E+00
 -0.309905880847E+00
 -0.309905884302E+00
 -0.309905883105E+00
 -0.309905872668E+00
 -0.309905866002E+00
 -0.309905882507E+00
 -0.309905875493E+00
 -0.309905874725E+00
 -0.309905872361E+00
 -0.309905887318E+00
 -0.309905883942E+00
 -0.309905863355E+00
 -0.309905859663E+00
 -0.309905872685E+00
 -0.309905867180E+00
 -0.309905876203E+00
 -0.309905876075E+00
 -0.309905887498E+00
 -0.309905884087E+00
 -0.309905856761E+00
 -0.309905874352E+00
 -0.309905863648E+00
 -0.309905881678E+00
 -0.309905874464E+00
 -0.309905890365E+00
 -0.309905881626E+00
 -0.309905871569E+00
 -0.309905862250E+00
 -0.309905858326E+00
 -0.309905874022E+00
 -0.309905874021E+00
 -0.309905882986E+00
 -0.309905880748E+00
 -0.309905862802E+00