# vtk DataFile Version 3.0
MachLine results file. Generated by MachLine, USU AeroLab (c) 2023.
ASCII
DATASET POLYDATA
POINTS                1127 float
  0.999999900096E+00  0.000000000000E+00 -0.437022220829E-08
  0.973034455424E+00  0.105263157890E+00 -0.235907907443E-02
  0.999999900096E+00  0.105263157890E+00 -0.437022220829E-08
  0.973034455424E+00  0.000000000000E+00 -0.235907907443E-02
  0.929717756324E+00  0.105263157890E+00 -0.614879918673E-02
  0.929717756324E+00  0.000000000000E+00 -0.614879918673E-02
  0.863184792724E+00  0.105263157890E+00 -0.119696792525E-01
  0.863184792724E+00  0.000000000000E+00 -0.119696792525E-01
  0.767714234464E+00  0.105263157890E+00 -0.203222708005E-01
  0.767714234464E+00  0.000000000000E+00 -0.203222708005E-01
  0.643290536184E+00  0.105263157890E+00 -0.312079338745E-01
  0.643290536184E+00  0.000000000000E+00 -0.312079338745E-01
  0.500000000000E+00  0.105263157890E+00 -0.437442317630E-01
  0.500000000000E+00  0.000000000000E+00 -0.437442317630E-01
  0.356709463816E+00  0.000000000000E+00 -0.312079338745E-01
  0.356709463816E+00  0.105263157890E+00 -0.312079338745E-01
  0.232285765536E+00  0.000000000000E+00 -0.203222708005E-01
  0.232285765536E+00  0.105263157890E+00 -0.203222708005E-01
  0.136815207276E+00  0.000000000000E+00 -0.119696792525E-01
  0.136815207276E+00  0.105263157890E+00 -0.119696792525E-01
  0.702822436746E-01  0.000000000000E+00 -0.614879918673E-02
  0.702822436746E-01  0.105263157890E+00 -0.614879918673E-02
  0.269655445786E-01  0.000000000000E+00 -0.235907907443E-02
  0.269655445786E-01  0.105263157890E+00 -0.235907907443E-02
  0.100000000000E-06  0.000000000000E+00  0.000000000000E+00
  0.100000000000E-06  0.105263157890E+00  0.000000000000E+00
  0.269655445786E-01  0.105263157890E+00  0.235907907443E-02
  0.269655445786E-01  0.000000000000E+00  0.235907907443E-02
  0.702822436746E-01  0.105263157890E+00  0.614879918673E-02
  0.702822436746E-01  0.000000000000E+00  0.614879918673E-02
  0.136815207276E+00  0.105263157890E+00  0.119696792525E-01
  0.136815207276E+00  0.000000000000E+00  0.119696792525E-01
  0.232285765536E+00  0.105263157890E+00  0.203222708005E-01
  0.232285765536E+00  0.000000000000E+00  0.203222708005E-01
  0.356709463816E+00  0.105263157890E+00  0.312079338745E-01
  0.356709463816E+00  0.000000000000E+00  0.312079338745E-01
  0.500000000000E+00  0.105263157890E+00  0.437442317630E-01
  0.500000000000E+00  0.000000000000E+00  0.437442317630E-01
  0.643290536184E+00  0.000000000000E+00  0.312079338745E-01
  0.643290536184E+00  0.105263157890E+00  0.312079338745E-01
  0.767714234464E+00  0.000000000000E+00  0.203222708005E-01
  0.767714234464E+00  0.105263157890E+00  0.203222708005E-01
  0.863184792724E+00  0.000000000000E+00  0.119696792525E-01
  0.863184792724E+00  0.105263157890E+00  0.119696792525E-01
  0.929717756324E+00  0.000000000000E+00  0.614879918673E-02
  0.929717756324E+00  0.105263157890E+00  0.614879918673E-02
  0.973034455424E+00  0.000000000000E+00  0.235907907443E-02
  0.973034455424E+00  0.105263157890E+00  0.235907907443E-02
  0.973034455424E+00  0.210526315790E+00 -0.235907907443E-02
  0.999999900096E+00  0.210526315790E+00 -0.437022220829E-08
  0.929717756324E+00  0.210526315790E+00 -0.614879918673E-02
  0.863184792724E+00  0.210526315790E+00 -0.119696792525E-01
  0.767714234464E+00  0.210526315790E+00 -0.203222708005E-01
  0.643290536184E+00  0.210526315790E+00 -0.312079338745E-01
  0.500000000000E+00  0.210526315790E+00 -0.437442317630E-01
  0.356709463816E+00  0.210526315790E+00 -0.312079338745E-01
  0.232285765536E+00  0.210526315790E+00 -0.203222708005E-01
  0.136815207276E+00  0.210526315790E+00 -0.119696792525E-01
  0.702822436746E-01  0.210526315790E+00 -0.614879918673E-02
  0.269655445786E-01  0.210526315790E+00 -0.235907907443E-02
  0.100000000000E-06  0.210526315790E+00  0.000000000000E+00
  0.269655445786E-01  0.210526315790E+00  0.235907907443E-02
  0.702822436746E-01  0.210526315790E+00  0.614879918673E-02
  0.136815207276E+00  0.210526315790E+00  0.119696792525E-01
  0.232285765536E+00  0.210526315790E+00  0.203222708005E-01
  0.356709463816E+00  0.210526315790E+00  0.312079338745E-01
  0.500000000000E+00  0.210526315790E+00  0.437442317630E-01
  0.643290536184E+00  0.210526315790E+00  0.312079338745E-01
  0.767714234464E+00  0.210526315790E+00  0.203222708005E-01
  0.863184792724E+00  0.210526315790E+00  0.119696792525E-01
  0.929717756324E+00  0.210526315790E+00  0.614879918673E-02
  0.973034455424E+00  0.210526315790E+00  0.235907907443E-02
  0.973034455424E+00  0.315789473680E+00 -0.235907907443E-02
  0.999999900096E+00  0.315789473680E+00 -0.437022220829E-08
  0.929717756324E+00  0.315789473680E+00 -0.614879918673E-02
  0.863184792724E+00  0.315789473680E+00 -0.119696792525E-01
  0.767714234464E+00  0.315789473680E+00 -0.203222708005E-01
  0.643290536184E+00  0.315789473680E+00 -0.312079338745E-01
  0.500000000000E+00  0.315789473680E+00 -0.437442317630E-01
  0.356709463816E+00  0.315789473680E+00 -0.312079338745E-01
  0.232285765536E+00  0.315789473680E+00 -0.203222708005E-01
  0.136815207276E+00  0.315789473680E+00 -0.119696792525E-01
  0.702822436746E-01  0.315789473680E+00 -0.614879918673E-02
  0.269655445786E-01  0.315789473680E+00 -0.235907907443E-02
  0.100000000000E-06  0.315789473680E+00  0.000000000000E+00
  0.269655445786E-01  0.315789473680E+00  0.235907907443E-02
  0.702822436746E-01  0.315789473680E+00  0.614879918673E-02
  0.136815207276E+00  0.315789473680E+00  0.119696792525E-01
  0.232285765536E+00  0.315789473680E+00  0.203222708005E-01
  0.356709463816E+00  0.315789473680E+00  0.312079338745E-01
  0.500000000000E+00  0.315789473680E+00  0.437442317630E-01
  0.643290536184E+00  0.315789473680E+00  0.312079338745E-01
  0.767714234464E+00  0.315789473680E+00  0.203222708005E-01
  0.863184792724E+00  0.315789473680E+00  0.119696792525E-01
  0.929717756324E+00  0.315789473680E+00  0.614879918673E-02
  0.973034455424E+00  0.315789473680E+00  0.235907907443E-02
  0.973034455424E+00  0.421052631580E+00 -0.235907907443E-02
  0.999999900096E+00  0.421052631580E+00 -0.437022220829E-08
  0.929717756324E+00  0.421052631580E+00 -0.614879918673E-02
  0.863184792724E+00  0.421052631580E+00 -0.119696792525E-01
  0.767714234464E+00  0.421052631580E+00 -0.203222708005E-01
  0.643290536184E+00  0.421052631580E+00 -0.312079338745E-01
  0.500000000000E+00  0.421052631580E+00 -0.437442317630E-01
  0.356709463816E+00  0.421052631580E+00 -0.312079338745E-01
  0.232285765536E+00  0.421052631580E+00 -0.203222708005E-01
  0.136815207276E+00  0.421052631580E+00 -0.119696792525E-01
  0.702822436746E-01  0.421052631580E+00 -0.614879918673E-02
  0.269655445786E-01  0.421052631580E+00 -0.235907907443E-02
  0.100000000000E-06  0.421052631580E+00  0.000000000000E+00
  0.269655445786E-01  0.421052631580E+00  0.235907907443E-02
  0.702822436746E-01  0.421052631580E+00  0.614879918673E-02
  0.136815207276E+00  0.421052631580E+00  0.119696792525E-01
  0.232285765536E+00  0.421052631580E+00  0.203222708005E-01
  0.356709463816E+00  0.421052631580E+00  0.312079338745E-01
  0.500000000000E+00  0.421052631580E+00  0.437442317630E-01
  0.643290536184E+00  0.421052631580E+00  0.312079338745E-01
  0.767714234464E+00  0.421052631580E+00  0.203222708005E-01
  0.863184792724E+00  0.421052631580E+00  0.119696792525E-01
  0.929717756324E+00  0.421052631580E+00  0.614879918673E-02
  0.973034455424E+00  0.421052631580E+00  0.235907907443E-02
  0.973034455424E+00  0.526315789470E+00 -0.235907907443E-02
  0.999999900096E+00  0.526315789470E+00 -0.437022220829E-08
  0.929717756324E+00  0.526315789470E+00 -0.614879918673E-02
  0.863184792724E+00  0.526315789470E+00 -0.119696792525E-01
  0.767714234464E+00  0.526315789470E+00 -0.203222708005E-01
  0.643290536184E+00  0.526315789470E+00 -0.312079338745E-01
  0.500000000000E+00  0.526315789470E+00 -0.437442317630E-01
  0.356709463816E+00  0.526315789470E+00 -0.312079338745E-01
  0.232285765536E+00  0.526315789470E+00 -0.203222708005E-01
  0.136815207276E+00  0.526315789470E+00 -0.119696792525E-01
  0.702822436746E-01  0.526315789470E+00 -0.614879918673E-02
  0.269655445786E-01  0.526315789470E+00 -0.235907907443E-02
  0.100000000000E-06  0.526315789470E+00  0.000000000000E+00
  0.269655445786E-01  0.526315789470E+00  0.235907907443E-02
  0.702822436746E-01  0.526315789470E+00  0.614879918673E-02
  0.136815207276E+00  0.526315789470E+00  0.119696792525E-01
  0.232285765536E+00  0.526315789470E+00  0.203222708005E-01
  0.356709463816E+00  0.526315789470E+00  0.312079338745E-01
  0.500000000000E+00  0.526315789470E+00  0.437442317630E-01
  0.643290536184E+00  0.526315789470E+00  0.312079338745E-01
  0.767714234464E+00  0.526315789470E+00  0.203222708005E-01
  0.863184792724E+00  0.526315789470E+00  0.119696792525E-01
  0.929717756324E+00  0.526315789470E+00  0.614879918673E-02
  0.973034455424E+00  0.526315789470E+00  0.235907907443E-02
  0.973034455424E+00  0.631578947370E+00 -0.235907907443E-02
  0.999999900096E+00  0.631578947370E+00 -0.437022220829E-08
  0.929717756324E+00  0.631578947370E+00 -0.614879918673E-02
  0.863184792724E+00  0.631578947370E+00 -0.119696792525E-01
  0.767714234464E+00  0.631578947370E+00 -0.203222708005E-01
  0.643290536184E+00  0.631578947370E+00 -0.312079338745E-01
  0.500000000000E+00  0.631578947370E+00 -0.437442317630E-01
  0.356709463816E+00  0.631578947370E+00 -0.312079338745E-01
  0.232285765536E+00  0.631578947370E+00 -0.203222708005E-01
  0.136815207276E+00  0.631578947370E+00 -0.119696792525E-01
  0.702822436746E-01  0.631578947370E+00 -0.614879918673E-02
  0.269655445786E-01  0.631578947370E+00 -0.235907907443E-02
  0.100000000000E-06  0.631578947370E+00  0.000000000000E+00
  0.269655445786E-01  0.631578947370E+00  0.235907907443E-02
  0.702822436746E-01  0.631578947370E+00  0.614879918673E-02
  0.136815207276E+00  0.631578947370E+00  0.119696792525E-01
  0.232285765536E+00  0.631578947370E+00  0.203222708005E-01
[...]
POINT_DATA                1127
SCALARS BC_type int 1
LOOKUP_TABLE default
           1
           1
           1
           1
           1
           1
           1
           1
           1
           1
           1
           1
           1
           1
           1
           1
           1
           1
           1
           1
           1
           1
           1
           1
           1
           1
           1
           1
           1
           1
           1
           1
           1
           1
           1
           1
           1
           1
           1
           1
           1
           1
           1
           1
           1
           1
           1
           1
           1
           1
           1
           1
           1
           1
           1
           1
           1
           1
           1
           1
           1
           1
           1
           1
           1
           1
           1
           1
           1
           1
           1
           1
           1
           1
           1
           1
           1
           1
           1
           1
           1
           1
           1
           1
           1
           1
           1
           1
           1
           1
           1
           1
           1
           1
           1
           1
           1
           1
           1
           1
           1
           1
           1
           1
           1
           1
           1
           1
           1
           1
           1
           1
           1
           1
           1
           1
           1
           1
           1
           1
           1
           1
           1
           1
           1
           1
           1
           1
           1
           1
           1
           1
           1
           1
           1
           1
           1
           1
           1
           1
           1
           1
           1
           1
           1
           1
           1
           1
           1
           1
           1
           1
           1
           1
           1
           1
           1
           1
           1
           1
           1
           1
           1
           1
           1
           1
           1
           1
           1
           1
           1
           1
           1
           1
           1
           1
           1
           1
           1
           1
           1
           1
           1
           1
           1
           1
           1
           1
           1
           1
           1
           1
           1
           1
           1
           1
           1
           1
           1
           1
           1
           1
           1
           1
           1
           1
           1
           1
           1
           1
           1
           1
           1
           1
           1
           1
           1
           1
           1
           1
           1
           1
           1
           1
           1
           1
           1
           1
           1
           1
           1
           1
           1
           1
           1
           1
           1
           1
           1
           1
           1
           1
           1
           1
           1
           1
           1
           1
           1
           1
           1
           1
           1
           1
           1
           1
           1
           1
           1
           1
           1
           1
           1
           1
           1
           1
           1
           1
           1
           1
           1
           1
           1
           1
           1
           1
           1
           1
           1
           1
           1
           1
           1
           1
           1
           1
           1
           1
           1
           1
           1
           1
           1
           1
           1
           1
           1
           1
           1
           1
           1
           1
           1
           1
           1
           1
           1
           1
           1
           1
           1
           1
           1
           1
           1
           1
           1
           1
           1
           1
           1
           1
           1
           1
           1
           1
           1
           1
           1
           1
           1
           1
           1
           1
           1
           1
           1
           1
           1
           1
           1
           1
           1
           1
           1
           1
           1
           1
           1
           1
           1
           1
           1
           1
           1
           1
           1
           1
           1
           1
           1
           1
           1
           1
           1
           1
           1
           1
           1
           1
           1
           1
           1
           1
           1
           1
           1
           1
           1
           1
           1
           1
           1
           1
           1
           1
           1
           1
           1
           1
           1
           1
           1
           1
           1
           1
           1
           1
           1
           1
           1
           1
           1
           1
           1
           1
           1
           1
           1
           1
           1
           1
           1
           1
           1
           1
           1
           1
           1
           1
           1
           1
           1
           1
           1
           1
           1
           1
           1
           1
           1
           1
           1
           1
           1
           1
           1
           1
           1
           1
           1
           1
           1
           1
           1
           1
           1
           1
           1
           1
           1
           1
           1
           1
           1
           1
           1
           1
           1
           1
           1
           1
           1
           1
           1
           1
           1
           1
           1
           1
           1
           1
           1
           1
           1
           1
           1
           1
           1
           1
           1
           1
           1
           1
           1
           1
           1
           1
           1
           1
           1
           1
           1
           1
           1
           1
           1
           1
           1
           1
           1
           1
           1
           1
           1
           1
           1
           1
           1
           1
           1
           1
           1
           1
           1
           1
           1
           1
           1
           1
           1
           1
           1
           1
           1
           1
           1
           1
           1
           1
           1
           1
           1
           1
           1
           1
           1
           1
           1
           1
           1
           1
           1
           1
           1
           1
           1
           1
           1
           1
           1
           1
           1
           1
           1
           1
           1
           1
           1
           1
           1
           1
           1
           1
           1
           1
           1
           1
           1
           1
           1
           1
           1
           1
           1
           1
           1
           1
           1
           1
           1
           1
           1
           1
           1
           1
           1
           1
           1
           1
           1
           1
           1
           1
           1
           1
           1
           1
           1
           1
           1
           1
           1
           1
           1
           1
           1
           1
           1
           1
           1
           1
           1
           1
           1
           1
           1
           1
           1
           1
           1
           1
           1
           1
           1
           1
           1
           1
           1
           1
           1
           1
           1
           1
           1
           1
           1
           1
           1
           1
           1
           1
           1
           1
           1
           1
           1
           1
           1
           1
           1
           1
           1
           1
           1
           1
           1
           1
           1
           1
           1
           1
           1
           1
           1
           1
           1
           1
           1
           1
           1
           1
           1
           1
           1
           1
           1
           1
           1
           1
           1
           1
           1
           1
           1
           1
           1
           1
           1
           1
           1
           1
           1
           1
           1
           1
           1
           1
           1
           1
           1
           1
           1
           1
           1
           1
           1
           1
           1
           1
           1
           1
           1
           1
           1
           1
           1
           1
           1
           1
           1
           1
           1
           1
           1
           1
           1
           1
           1
           1
           1
           1
           1
           1
           1
           1
           1
           1
           1
           1
           1
           1
           1
           1
           1
           1
           1
           1
           1
           1
           1
           1
           1
           1
           1
           1
           1
           1
           1
           1
           1
           1
           1
           1
           1
           1
           1
           1
           1
           1
           1
           1
           1
           1
           1
           1
           1
           1
           1
           1
           1
           1
           1
           1
           1
           1
           1
           1
           1
           1
           1
           1
           1
           1
           1
           1
           1
           1
           1
           1
           1
           1
           1
           1
           1
           1
           1
           1
           1
           1
           1
           1
           1
           1
           1
           1
           1
           1
           1
           1
           1
           1
           1
           1
           1
           1
           1
           1
           1
           1
           1
           1
           1
           1
           1
           1
           1
           1
           1
           1
           1
           1
           1
           1
           1
           1
           1
           1
           1
           1
           1
           1
           1
           1
           1
           1
           1
           1
           1
           1
           1
           1
           1
           1
           1
           1
           1
           1
           1
           1
           1
           1
           1
           1
           1
           1
           1
           1
           1
           1
           1
           1
           1
           1
           1
           1
           1
           1
           1
           1
           1
           1
           1
           1
           1
           1
           1
           1
           1
           1
           1
           1
           1
           1
           1
           1
           1
           1
           1
           1
           1
           1
           1
           1
           1
           1
           1
           1
           1
           1
           1
           1
           1
           1
           1
           1
           1
           1
           1
           1
           1
           1
           1
           1
           1
           1
           1
           1
           1
           1
           1
           1
           1
           1
           1
           1
           1
           1
           1
           1
           1
           1
           1
           1
           1
           1
           1
           1
           1
           1
           1
           1
           1
           1
           1
           1
           1
           1
           1
           1
           1
           1
           1
           1
           1
           1
           1
           1
           1
           1
           1
           1
           1
           1
           1
           1
           1
           1
           1
           1
           1
           1
           1
           1
           1
           1
           1
           1
           1
           1
           1
           1
           1
           1
           1
           1
           1
           1
           1
           1
           1
           1
           1
           1
           1
           1
           1
           1
           1
           1
           1
           1
           1
           1
           1
           1
           1
           1
           1
           1
           1
           1
           1
           1
           1
           1
           1
           1
           1
           1
           1
           1
           1
           1
           1
           1
           1
           1
           1
           1
           1
           1
           1
           1
           1
           1
           1
           1
           1
           1
           1
           1
           1
           1
           1
           1
           1
           1
           1
           1
           1
           1
           1
           1
           1
           1
           1
           1
           1
           1
           1
           1
           1
           1
           1
           1
           1
           1
           1
           1
           1
           1
           1
           1
           1
           1
           1
           1
           1
           1
           1
           1
           1
           1
           1
           1
           1
           1
           1
           1
           1
           1
           1
           1
           1
           1
           1
           1
           1
           1
           1
           1
           1
           1
           1
           1
           1
SCALARS residual float 1
LOOKUP_TABLE default
 -0.896197819553E-13
 -0.887927177817E-13
 -0.812904195043E-13
 -0.729682629064E-13
 -0.634348024798E-13
 -0.494231512625E-13
 -0.286789227258E-13
 -0.182706920488E-14
  0.425448476569E-13
  0.120261421425E-12
  0.412520775166E-12
 -0.163483592983E-13
 -0.534780553174E-13
 -0.389662260791E-13
 -0.226641622136E-13
 -0.132741040382E-13
 -0.664572563647E-14
 -0.654684639834E-14
 -0.274606726247E-14
 -0.433680868994E-18
 -0.887680914468E-13
 -0.813273029104E-13
 -0.729181360260E-13
 -0.633645805980E-13
 -0.494261746093E-13
 -0.286739659254E-13
 -0.177970526156E-14
  0.425793003928E-13
  0.120320020230E-12
  0.412672535247E-12
 -0.159400487601E-13
 -0.530573848745E-13
 -0.386522411300E-13
 -0.223970147983E-13
 -0.131006316906E-13
 -0.650347831144E-14
 -0.617908502143E-14
 -0.310515502200E-14
  0.260208521397E-17
  0.887670440029E-13
  0.863339257187E-13
  0.787728768423E-13
  0.707809035324E-13
  0.636979737554E-13
  0.493635810947E-13
  0.300075239253E-13
  0.144279937255E-14
 -0.408482213406E-13
 -0.120044828309E-12
 -0.413171127100E-12
  0.172316588082E-13
  0.527869848527E-13
  0.376261521939E-13
  0.219971610371E-13
  0.126999105676E-13
  0.718348991402E-14
  0.677582989717E-14
  0.313464532109E-14
  0.863571854965E-13
  0.787417786381E-13
  0.708284521322E-13
  0.637651352459E-13
  0.493579352793E-13
  0.300111553706E-13
  0.148998669130E-14
 -0.408097202703E-13
 -0.119997724201E-12
 -0.413017161158E-12
  0.176435472135E-13
  0.532037521678E-13
  0.379349329727E-13
  0.222695126229E-13
  0.128820565326E-13
  0.729624693996E-14
  0.713491765669E-14
  0.276514922071E-14
  0.694062862738E-14
 -0.332737309927E-13
 -0.279394563041E-13
 -0.161082085171E-13
  0.173108055668E-13
  0.319752904709E-13
  0.193412993954E-13
 -0.520417042793E-15
 -0.264536656469E-13
 -0.215110047830E-13
 -0.864499444253E-14
  0.128668777022E-13
  0.143780386902E-13
  0.243197389310E-14
 -0.861767254778E-14
 -0.132055824609E-13
  0.303576608296E-15
  0.977863623408E-14
  0.123919971506E-13
  0.658435979350E-15
  0.208075744135E-13
  0.375589316592E-13
  0.100188954355E-13
 -0.146597144146E-13
 -0.304712852173E-13
 -0.240289559084E-13
  0.658847976176E-14
  0.210604103601E-13
  0.262095033177E-13
  0.450767895233E-14
 -0.978210568103E-14
 -0.151354623279E-13
 -0.408267170071E-14
  0.114378992389E-13
  0.102686956160E-13
  0.209901540593E-14
 -0.121153087562E-13
 -0.106191097582E-13
  0.535595873208E-16
 -0.166961713552E-14
 -0.201721235202E-14
 -0.195850280438E-14
 -0.201097818953E-14
 -0.107634170673E-15
  0.856248665720E-16
  0.720777604268E-15
  0.119758261467E-14
  0.284060969191E-16
  0.778240319410E-15
 -0.702129326902E-15
  0.294550625210E-15
 -0.204426319622E-15
  0.104983296362E-14
  0.452164347631E-13
 -0.104092082176E-13
  0.338743789963E-13
  0.200195762745E-13
 -0.283544888957E-13
 -0.405305129736E-13
 -0.249344815628E-13
  0.857256973741E-14
  0.363888606747E-13
  0.283050492766E-13
  0.266236685476E-14
 -0.270439053096E-13
 -0.314613786412E-13
 -0.128897543680E-13
  0.748142867102E-14
  0.209164283116E-13
  0.110519232654E-13
  0.704297731247E-15
 -0.668909372337E-14
  0.125837925150E-14
 -0.259870250319E-13
 -0.498585547848E-13
 -0.806559680155E-14
  0.205057325287E-13
  0.435242120123E-13
  0.259991680962E-13
 -0.116421629281E-13
 -0.332954150362E-13
 -0.311499957772E-13
  0.407660016855E-16
  0.250524427592E-13
  0.313861350104E-13
  0.150706270380E-13
 -0.107869442545E-13
 -0.178381615035E-13
 -0.139072781069E-13
  0.138951350426E-14
  0.471584576944E-14
  0.271636012295E-14
 -0.120294399442E-13
  0.935709842942E-14
 -0.477135692067E-14
 -0.131925720348E-14
  0.361082691525E-14
 -0.253616572188E-14
  0.300540842213E-14
 -0.646531439497E-14
  0.114803999640E-13
 -0.816013923099E-14
  0.117527515497E-14
  0.764405899689E-14
 -0.660409227304E-14
  0.575667985503E-14
 -0.952363188311E-15
  0.528808767608E-14
 -0.729711430170E-14
  0.129540475569E-13
 -0.677409517369E-14
  0.332112809476E-14
  0.938311928156E-14
 -0.477569372936E-14
 -0.128976690439E-14
  0.367587904559E-14
 -0.249453235845E-14
  0.296550978218E-14
 -0.655031584529E-14
  0.113797860024E-13
 -0.853657422528E-14
  0.387710696881E-15
  0.634301638991E-14
 -0.856519716264E-14
  0.332676594605E-14
 -0.381075379585E-14
  0.227118671092E-14
 -0.104074734941E-13
  0.971792091242E-14
 -0.941434430413E-14
  0.736867164508E-14
 -0.172604985860E-15
  0.393771387025E-14
 -0.346402594109E-14
  0.603250088771E-15
 -0.562462403042E-14
 -0.152612297799E-14
 -0.582238250668E-14
 -0.179934192546E-14
 -0.540995200027E-14
 -0.142334061204E-14
 -0.488346342531E-14
 -0.968409380464E-15
 -0.118915294278E-14
  0.269554344123E-14
 -0.662924576345E-14
  0.899974539337E-14
  0.200880978518E-14
  0.184661314018E-14
 -0.130017524524E-14
 -0.191166527053E-14
  0.196283961307E-14
  0.359521440396E-14
 -0.949153949881E-14
  0.795804394604E-14
  0.771951946810E-15
 -0.716007114709E-14
  0.888872309091E-14
 -0.208600497986E-14
  0.139124822773E-14
 -0.188542757795E-15
  0.931633242773E-14
 -0.102331337848E-13
  0.984021891748E-14
  0.547045048149E-14
 -0.661536797564E-14
  0.202095284951E-14
  0.185788884277E-14
 -0.128976690439E-14
 -0.191773680269E-14
  0.193161459050E-14
  0.349720252757E-14
 -0.960342916301E-14