# vtk DataFile Version 3.0
MachLine results file. Generated by MachLine, USU AeroLab (c) 2022.
ASCII
DATASET POLYDATA
POINTS                 419 float
  0.100000000000E+01  0.000000000000E+00  0.000000000000E+00
  0.953837434700E+00  0.222222222220E+00 -0.403870114270E-02
  0.100000000000E+01  0.222222222220E+00  0.000000000000E+00
  0.953837434700E+00  0.000000000000E+00 -0.403870114270E-02
  0.863184801440E+00  0.222222222220E+00 -0.119697788720E-01
  0.863184801440E+00  0.000000000000E+00 -0.119697788720E-01
  0.708754398800E+00  0.222222222220E+00 -0.254806884070E-01
  0.708754398800E+00  0.000000000000E+00 -0.254806884070E-01
  0.500000000000E+00  0.222222222220E+00 -0.437443317630E-01
  0.500000000000E+00  0.000000000000E+00 -0.437443317630E-01
  0.291245601200E+00  0.000000000000E+00 -0.254806884070E-01
  0.291245601200E+00  0.222222222220E+00 -0.254806884070E-01
  0.136815198560E+00  0.000000000000E+00 -0.119697788720E-01
  0.136815198560E+00  0.222222222220E+00 -0.119697788720E-01
  0.461625652960E-01  0.000000000000E+00 -0.403870114270E-02
  0.461625652960E-01  0.222222222220E+00 -0.403870114270E-02
  0.000000000000E+00  0.000000000000E+00  0.000000000000E+00
  0.000000000000E+00  0.222222222220E+00  0.000000000000E+00
  0.461625652960E-01  0.222222222220E+00  0.403870114270E-02
  0.461625652960E-01  0.000000000000E+00  0.403870114270E-02
  0.136815198560E+00  0.222222222220E+00  0.119697788720E-01
  0.136815198560E+00  0.000000000000E+00  0.119697788720E-01
  0.291245601200E+00  0.222222222220E+00  0.254806884070E-01
  0.291245601200E+00  0.000000000000E+00  0.254806884070E-01
  0.500000000000E+00  0.222222222220E+00  0.437443317630E-01
  0.500000000000E+00  0.000000000000E+00  0.437443317630E-01
  0.708754398800E+00  0.000000000000E+00  0.254806884070E-01
  0.708754398800E+00  0.222222222220E+00  0.254806884070E-01
  0.863184801440E+00  0.000000000000E+00  0.119697788720E-01
  0.863184801440E+00  0.222222222220E+00  0.119697788720E-01
  0.953837434700E+00  0.000000000000E+00  0.403870114270E-02
  0.953837434700E+00  0.222222222220E+00  0.403870114270E-02
  0.953837434700E+00  0.444444444440E+00 -0.403870114270E-02
  0.100000000000E+01  0.444444444440E+00  0.000000000000E+00
  0.863184801440E+00  0.444444444440E+00 -0.119697788720E-01
  0.708754398800E+00  0.444444444440E+00 -0.254806884070E-01
  0.500000000000E+00  0.444444444440E+00 -0.437443317630E-01
  0.291245601200E+00  0.444444444440E+00 -0.254806884070E-01
  0.136815198560E+00  0.444444444440E+00 -0.119697788720E-01
  0.461625652960E-01  0.444444444440E+00 -0.403870114270E-02
  0.000000000000E+00  0.444444444440E+00  0.000000000000E+00
  0.461625652960E-01  0.444444444440E+00  0.403870114270E-02
  0.136815198560E+00  0.444444444440E+00  0.119697788720E-01
  0.291245601200E+00  0.444444444440E+00  0.254806884070E-01
  0.500000000000E+00  0.444444444440E+00  0.437443317630E-01
  0.708754398800E+00  0.444444444440E+00  0.254806884070E-01
  0.863184801440E+00  0.444444444440E+00  0.119697788720E-01
  0.953837434700E+00  0.444444444440E+00  0.403870114270E-02
  0.953837434700E+00  0.666666666670E+00 -0.403870114270E-02
  0.100000000000E+01  0.666666666670E+00  0.000000000000E+00
  0.863184801440E+00  0.666666666670E+00 -0.119697788720E-01
  0.708754398800E+00  0.666666666670E+00 -0.254806884070E-01
  0.500000000000E+00  0.666666666670E+00 -0.437443317630E-01
  0.291245601200E+00  0.666666666670E+00 -0.254806884070E-01
  0.136815198560E+00  0.666666666670E+00 -0.119697788720E-01
  0.461625652960E-01  0.666666666670E+00 -0.403870114270E-02
  0.000000000000E+00  0.666666666670E+00  0.000000000000E+00
  0.461625652960E-01  0.666666666670E+00  0.403870114270E-02
  0.136815198560E+00  0.666666666670E+00  0.119697788720E-01
  0.291245601200E+00  0.666666666670E+00  0.254806884070E-01
  0.500000000000E+00  0.666666666670E+00  0.437443317630E-01
  0.708754398800E+00  0.666666666670E+00  0.254806884070E-01
  0.863184801440E+00  0.666666666670E+00  0.119697788720E-01
  0.953837434700E+00  0.666666666670E+00  0.403870114270E-02
  0.953837434700E+00  0.888888888890E+00 -0.403870114270E-02
  0.100000000000E+01  0.888888888890E+00  0.000000000000E+00
  0.863184801440E+00  0.888888888890E+00 -0.119697788720E-01
  0.708754398800E+00  0.888888888890E+00 -0.254806884070E-01
  0.500000000000E+00  0.888888888890E+00 -0.437443317630E-01
  0.291245601200E+00  0.888888888890E+00 -0.254806884070E-01
  0.136815198560E+00  0.888888888890E+00 -0.119697788720E-01
  0.461625652960E-01  0.888888888890E+00 -0.403870114270E-02
  0.000000000000E+00  0.888888888890E+00  0.000000000000E+00
  0.461625652960E-01  0.888888888890E+00  0.403870114270E-02
  0.136815198560E+00  0.888888888890E+00  0.119697788720E-01
  0.291245601200E+00  0.888888888890E+00  0.254806884070E-01
  0.500000000000E+00  0.888888888890E+00  0.437443317630E-01
  0.708754398800E+00  0.888888888890E+00  0.254806884070E-01
  0.863184801440E+00  0.888888888890E+00  0.119697788720E-01
  0.953837434700E+00  0.888888888890E+00  0.403870114270E-02
  0.953837434700E+00  0.111111111110E+01 -0.403870114270E-02
  0.100000000000E+01  0.111111111110E+01  0.000000000000E+00
  0.863184801440E+00  0.111111111110E+01 -0.119697788720E-01
  0.708754398800E+00  0.111111111110E+01 -0.254806884070E-01
  0.500000000000E+00  0.111111111110E+01 -0.437443317630E-01
  0.291245601200E+00  0.111111111110E+01 -0.254806884070E-01
  0.136815198560E+00  0.111111111110E+01 -0.119697788720E-01
  0.461625652960E-01  0.111111111110E+01 -0.403870114270E-02
  0.000000000000E+00  0.111111111110E+01  0.000000000000E+00
  0.461625652960E-01  0.111111111110E+01  0.403870114270E-02
  0.136815198560E+00  0.111111111110E+01  0.119697788720E-01
  0.291245601200E+00  0.111111111110E+01  0.254806884070E-01
  0.500000000000E+00  0.111111111110E+01  0.437443317630E-01
  0.708754398800E+00  0.111111111110E+01  0.254806884070E-01
  0.863184801440E+00  0.111111111110E+01  0.119697788720E-01
  0.953837434700E+00  0.111111111110E+01  0.403870114270E-02
  0.953837434700E+00  0.133333333330E+01 -0.403870114270E-02
  0.100000000000E+01  0.133333333330E+01  0.000000000000E+00
  0.863184801440E+00  0.133333333330E+01 -0.119697788720E-01
  0.708754398800E+00  0.133333333330E+01 -0.254806884070E-01
  0.500000000000E+00  0.133333333330E+01 -0.437443317630E-01
  0.291245601200E+00  0.133333333330E+01 -0.254806884070E-01
  0.136815198560E+00  0.133333333330E+01 -0.119697788720E-01
  0.461625652960E-01  0.133333333330E+01 -0.403870114270E-02
  0.000000000000E+00  0.133333333330E+01  0.000000000000E+00
  0.461625652960E-01  0.133333333330E+01  0.403870114270E-02
  0.136815198560E+00  0.133333333330E+01  0.119697788720E-01
  0.291245601200E+00  0.133333333330E+01  0.254806884070E-01
  0.500000000000E+00  0.133333333330E+01  0.437443317630E-01
  0.708754398800E+00  0.133333333330E+01  0.254806884070E-01
  0.863184801440E+00  0.133333333330E+01  0.119697788720E-01
  0.953837434700E+00  0.133333333330E+01  0.403870114270E-02
  0.953837434700E+00  0.155555555560E+01 -0.403870114270E-02
  0.100000000000E+01  0.155555555560E+01  0.000000000000E+00
  0.863184801440E+00  0.155555555560E+01 -0.119697788720E-01
  0.708754398800E+00  0.155555555560E+01 -0.254806884070E-01
  0.500000000000E+00  0.155555555560E+01 -0.437443317630E-01
  0.291245601200E+00  0.155555555560E+01 -0.254806884070E-01
  0.136815198560E+00  0.155555555560E+01 -0.119697788720E-01
  0.461625652960E-01  0.155555555560E+01 -0.403870114270E-02
  0.000000000000E+00  0.155555555560E+01  0.000000000000E+00
  0.461625652960E-01  0.155555555560E+01  0.403870114270E-02
  0.136815198560E+00  0.155555555560E+01  0.119697788720E-01
  0.291245601200E+00  0.155555555560E+01  0.254806884070E-01
  0.500000000000E+00  0.155555555560E+01  0.437443317630E-01
  0.708754398800E+00  0.155555555560E+01  0.254806884070E-01
  0.863184801440E+00  0.155555555560E+01  0.119697788720E-01
  0.953837434700E+00  0.155555555560E+01  0.403870114270E-02
  0.953837434700E+00  0.177777777780E+01 -0.403870114270E-02
  0.100000000000E+01  0.177777777780E+01  0.000000000000E+00
  0.863184801440E+00  0.177777777780E+01 -0.119697788720E-01
  0.708754398800E+00  0.177777777780E+01 -0.254806884070E-01
  0.500000000000E+00  0.177777777780E+01 -0.437443317630E-01
  0.291245601200E+00  0.177777777780E+01 -0.254806884070E-01
  0.136815198560E+00  0.177777777780E+01 -0.119697788720E-01
  0.461625652960E-01  0.177777777780E+01 -0.403870114270E-02
  0.000000000000E+00  0.177777777780E+01  0.000000000000E+00
  0.461625652960E-01  0.177777777780E+01  0.403870114270E-02
  0.136815198560E+00  0.177777777780E+01  0.119697788720E-01
  0.291245601200E+00  0.177777777780E+01  0.254806884070E-01
  0.500000000000E+00  0.177777777780E+01  0.437443317630E-01
  0.708754398800E+00  0.177777777780E+01  0.254806884070E-01
  0.863184801440E+00  0.177777777780E+01  0.119697788720E-01
  0.953837434700E+00  0.177777777780E+01  0.403870114270E-02
  0.953837434700E+00  0.200000000000E+01 -0.403870114270E-02
  0.100000000000E+01  0.200000000000E+01  0.000000000000E+00
  0.863184801440E+00  0.200000000000E+01 -0.119697788720E-01
  0.708754398800E+00  0.200000000000E+01 -0.254806884070E-01
  0.500000000000E+00  0.200000000000E+01 -0.437443317630E-01
  0.291245601200E+00  0.200000000000E+01 -0.254806884070E-01
  0.136815198560E+00  0.200000000000E+01 -0.119697788720E-01
  0.461625652960E-01  0.200000000000E+01 -0.403870114270E-02
  0.000000000000E+00  0.200000000000E+01  0.000000000000E+00
  0.461625652960E-01  0.200000000000E+01  0.403870114270E-02
  0.136815198560E+00  0.200000000000E+01  0.119697788720E-01
  0.291245601200E+00  0.200000000000E+01  0.254806884070E-01
  0.500000000000E+00  0.200000000000E+01  0.437443317630E-01
  0.708754398800E+00  0.200000000000E+01  0.254806884070E-01
  0.863184801440E+00  0.200000000000E+01  0.119697788720E-01
  0.953837434700E+00  0.200000000000E+01  0.403870114270E-02
  0.953837434700E+00  0.200157141480E+01 -0.372111000410E-02
[...]
CELL_DATA                 800
SCALARS C_p_ise float 1
LOOKUP_TABLE default
 -0.866637854359E-01
 -0.866637849907E-01
 -0.866637849679E-01
 -0.866637850540E-01
 -0.866637848542E-01
 -0.866637850609E-01
 -0.866637850258E-01
 -0.866637850356E-01
  0.116357274793E+00
  0.116357274755E+00
  0.116357274792E+00
  0.116357274787E+00
  0.116357274788E+00
  0.116357274788E+00
  0.116357274790E+00
  0.116357274790E+00
  0.116357274790E+00
  0.116357274790E+00
  0.116357274788E+00
  0.116357274788E+00
  0.116357274787E+00
  0.116357274792E+00
  0.116357274755E+00
  0.116357274793E+00
 -0.866637850356E-01
 -0.866637850258E-01
 -0.866637850609E-01
 -0.866637848542E-01
 -0.866637850540E-01
 -0.866637849679E-01
 -0.866637849748E-01
 -0.866637854309E-01
 -0.866637781131E-01
 -0.866637854359E-01
 -0.866637852346E-01
 -0.866637849679E-01
 -0.866637875797E-01
 -0.866637848542E-01
 -0.866637852909E-01
 -0.866637850258E-01
  0.116357274755E+00
  0.116357275233E+00
  0.116357274787E+00
  0.116357274896E+00
  0.116357274788E+00
  0.116357274789E+00
  0.116357274790E+00
  0.116357274790E+00
  0.116357274790E+00
  0.116357274790E+00
  0.116357274789E+00
  0.116357274788E+00
  0.116357274896E+00
  0.116357274787E+00
  0.116357275233E+00
  0.116357274755E+00
 -0.866637850258E-01
 -0.866637852909E-01
 -0.866637848542E-01
 -0.866637875797E-01
 -0.866637849679E-01
 -0.866637852346E-01
 -0.866637854309E-01
 -0.866637781125E-01
 -0.866639048838E-01
 -0.866637781131E-01
 -0.866638004355E-01
 -0.866637852346E-01
 -0.866637511504E-01
 -0.866637875797E-01
 -0.866637788221E-01
 -0.866637852909E-01
  0.116357275233E+00
  0.116357269256E+00
  0.116357274896E+00
  0.116357272748E+00
  0.116357274789E+00
  0.116357274743E+00
  0.116357274790E+00
  0.116357274790E+00
  0.116357274790E+00
  0.116357274790E+00
  0.116357274743E+00
  0.116357274789E+00
  0.116357272748E+00
  0.116357274896E+00
  0.116357269256E+00
  0.116357275233E+00
 -0.866637852909E-01
 -0.866637788221E-01
 -0.866637875797E-01
 -0.866637511504E-01
 -0.866637852346E-01
 -0.866638004355E-01
 -0.866637781125E-01
 -0.866639048966E-01
 -0.866617040366E-01
 -0.866639048838E-01
 -0.866631605607E-01
 -0.866638004355E-01
 -0.866641987048E-01
 -0.866637511504E-01
 -0.866639249614E-01
 -0.866637788221E-01
  0.116357269256E+00
  0.116357333294E+00
  0.116357272748E+00
  0.116357314658E+00
  0.116357274743E+00
  0.116357276351E+00
  0.116357274790E+00
  0.116357274802E+00
  0.116357274802E+00
  0.116357274790E+00
  0.116357276351E+00
  0.116357274743E+00
  0.116357314658E+00
  0.116357272748E+00
  0.116357333294E+00
  0.116357269256E+00
 -0.866637788221E-01
 -0.866639249614E-01
 -0.866637511504E-01
 -0.866641987048E-01
 -0.866638004355E-01
 -0.866631605607E-01
 -0.866639048966E-01
 -0.866617039835E-01
 -0.866997405231E-01
 -0.866617040378E-01
 -0.866815484925E-01
 -0.866631605688E-01
 -0.866595927650E-01
 -0.866641987061E-01
 -0.866607877443E-01
 -0.866639249616E-01
  0.116357333294E+00
  0.116356892539E+00
  0.116357314658E+00
  0.116356508874E+00
  0.116357276351E+00
  0.116357221438E+00
  0.116357274802E+00
  0.116357273823E+00
  0.116357273823E+00
  0.116357274802E+00
  0.116357221438E+00
  0.116357276351E+00
  0.116356508874E+00
  0.116357314658E+00
  0.116356892539E+00
  0.116357333294E+00
 -0.866639249616E-01
 -0.866607877443E-01
 -0.866641987061E-01
 -0.866595927650E-01
 -0.866631605688E-01
 -0.866815484925E-01
 -0.866617039847E-01
 -0.866997405353E-01
 -0.861445061525E-01
 -0.866997455909E-01
 -0.861671504626E-01
 -0.866815500220E-01
 -0.866881250123E-01
 -0.866595935793E-01
 -0.867253003574E-01
 -0.866607877535E-01
  0.116356892524E+00
  0.116353673645E+00
  0.116356508844E+00
  0.116371576235E+00
  0.116357221438E+00
  0.116359075263E+00
  0.116357273823E+00
  0.116357353543E+00
  0.116357353543E+00
  0.116357273823E+00
  0.116359075263E+00
  0.116357221438E+00
  0.116371576235E+00
  0.116356508844E+00
  0.116353673645E+00
  0.116356892524E+00
 -0.866607877535E-01
 -0.867253003574E-01
 -0.866595935793E-01
 -0.866881250123E-01
 -0.866815500220E-01
 -0.861671504626E-01
 -0.866997456031E-01
 -0.861445061676E-01
 -0.103177927425E+00
 -0.861527656935E-01
 -0.993840964140E-01
 -0.861671453598E-01
 -0.884720172560E-01
 -0.866885518285E-01
 -0.853905554679E-01
 -0.867252995659E-01
  0.116353673628E+00
  0.116564106817E+00
  0.116371565756E+00
  0.116104684011E+00
  0.116359075102E+00
  0.116298172004E+00
  0.116357353543E+00
  0.116350864068E+00
  0.116350864068E+00
  0.116357353543E+00
  0.116298172004E+00
  0.116359075102E+00
  0.116104684011E+00
  0.116371565756E+00
  0.116564106817E+00
  0.116353673628E+00
 -0.867252995659E-01
 -0.853905554679E-01
 -0.866885518285E-01
 -0.884720172560E-01
 -0.861671453598E-01
 -0.993840964141E-01
 -0.861527657086E-01
 -0.103177927395E+00
 -0.975134505895E-01
 -0.103682505009E+00
 -0.112588264966E+00
 -0.997870774919E-01
 -0.112000932043E+00
 -0.886133500512E-01
 -0.108536766110E+00
 -0.853902046083E-01
  0.116563999875E+00
  0.111774757026E+00
  0.116101313526E+00
  0.120325529436E+00
  0.116297995340E+00
  0.118161465119E+00
  0.116350861252E+00
  0.116879262417E+00
  0.116879262417E+00
  0.116350861252E+00
  0.118161465119E+00
  0.116297995340E+00
  0.120325529436E+00
  0.116101313526E+00
  0.111774757026E+00
  0.116563999875E+00
 -0.853902046083E-01
 -0.108536766110E+00
 -0.886133500512E-01
 -0.112000932043E+00
 -0.997870774919E-01
 -0.112588264966E+00
 -0.103682504980E+00
 -0.975134506590E-01
 -0.185817978477E-01
 -0.972076080927E-01
 -0.288268742634E-01
 -0.112084487867E+00
 -0.363008335426E-01
 -0.112449861860E+00
 -0.886707326960E-01
 -0.109951088699E+00
  0.109342334556E+00
  0.682329125363E-01
  0.119443131552E+00
  0.722889149379E-01
  0.117986655153E+00
  0.740386980763E-01
  0.116860586232E+00
  0.747775800462E-01
  0.747775800462E-01
  0.116860586232E+00
  0.740386980763E-01
  0.117986655153E+00
  0.722889149379E-01
  0.119443131552E+00
  0.682329125364E-01
  0.109342334556E+00
 -0.109951088699E+00
 -0.886707326961E-01
 -0.112449861860E+00
 -0.363008335425E-01
 -0.112084487867E+00
 -0.288268742633E-01
 -0.972076081617E-01
 -0.185817978481E-01
 -0.465886645820E-01
 -0.498371918251E-01
 -0.386465896282E-01
 -0.384521686144E-01
 -0.377945042917E-01
 -0.724510790679E-01
 -0.922619175327E-01
  0.556698392074E-01
  0.552451596019E-01
  0.575239933515E-01
  0.571386553236E-01
  0.582565295714E-01
  0.580151121310E-01
  0.585429409817E-01
  0.585429409817E-01
  0.580151121309E-01
  0.582565295714E-01
  0.571386553236E-01
  0.575239933516E-01
  0.552451596019E-01
  0.556698392073E-01
 -0.922619175327E-01
 -0.724510790679E-01
 -0.377945042917E-01
 -0.384521686144E-01
 -0.386465896282E-01
 -0.498371918252E-01
 -0.465886645820E-01
 -0.475754306164E-01
 -0.450440374549E-01
 -0.380450487799E-01
 -0.336015481256E-01
 -0.347014680915E-01
 -0.617167192594E-01
 -0.747863256247E-01
  0.543885576890E-01
  0.543055889267E-01
  0.561995082851E-01
  0.560750577879E-01
  0.570007542489E-01
  0.569176938943E-01
  0.573533084885E-01
  0.573533084885E-01
  0.569176938942E-01
  0.570007542488E-01
  0.560750577879E-01
  0.561995082852E-01
  0.543055889267E-01
  0.543885576890E-01
 -0.747863256247E-01
 -0.617167192594E-01
 -0.347014680915E-01
 -0.336015481255E-01
 -0.380450487799E-01
 -0.450440374548E-01
 -0.475754306163E-01
 -0.454387027295E-01
 -0.389103900106E-01
 -0.368968216704E-01
 -0.299865700398E-01
 -0.318433981533E-01
 -0.554160317610E-01
 -0.622350559793E-01
  0.540995730950E-01
  0.541712955818E-01
  0.558687908537E-01
  0.558677067535E-01
  0.566919387002E-01
  0.566781903816E-01
  0.570646352089E-01
  0.570646352089E-01
  0.566781903816E-01
  0.566919387002E-01
  0.558677067536E-01
  0.558687908537E-01
  0.541712955818E-01
  0.540995730950E-01
 -0.622350559793E-01
 -0.554160317611E-01
 -0.318433981533E-01
 -0.299865700398E-01
 -0.368968216704E-01
 -0.389103900106E-01
 -0.454387027295E-01
 -0.435920330842E-01
 -0.355532376623E-01
 -0.359674531682E-01
 -0.287683609829E-01
 -0.298137291688E-01
 -0.533046662936E-01
 -0.552176084356E-01
  0.540000254170E-01
  0.540625530179E-01
  0.557218864253E-01
  0.557432847672E-01
  0.565419337826E-01
  0.565479109176E-01
  0.569183230977E-01
  0.569183230977E-01
  0.565479109176E-01
  0.565419337826E-01
  0.557432847672E-01
  0.557218864253E-01
  0.540625530179E-01
  0.540000254171E-01
 -0.552176084356E-01
 -0.533046662936E-01
 -0.298137291688E-01
 -0.287683609829E-01
 -0.359674531682E-01
 -0.355532376623E-01
 -0.435920330842E-01
 -0.866637854379E-01
 -0.866637849907E-01
 -0.866637849679E-01
 -0.866637850540E-01
 -0.866637848542E-01
 -0.866637850609E-01
 -0.866637850258E-01
 -0.866637850356E-01
  0.116357274793E+00
  0.116357274755E+00
  0.116357274792E+00
  0.116357274787E+00
  0.116357274788E+00
  0.116357274788E+00
  0.116357274790E+00
  0.116357274790E+00
  0.116357274790E+00
  0.116357274790E+00
  0.116357274788E+00
  0.116357274788E+00
  0.116357274787E+00
  0.116357274792E+00
  0.116357274755E+00
  0.116357274793E+00
 -0.866637850356E-01
 -0.866637850258E-01
 -0.866637850609E-01
 -0.866637848542E-01
 -0.866637850540E-01
 -0.866637849679E-01
 -0.866637849748E-01
 -0.866637854289E-01
 -0.866637781311E-01
 -0.866637854379E-01
 -0.866637852346E-01
 -0.866637849679E-01
 -0.866637875797E-01
 -0.866637848542E-01
 -0.866637852909E-01
 -0.866637850258E-01
  0.116357274755E+00
  0.116357275233E+00
  0.116357274787E+00
  0.116357274896E+00
  0.116357274788E+00
  0.116357274789E+00
  0.116357274790E+00
  0.116357274790E+00
  0.116357274790E+00
  0.116357274790E+00
  0.116357274789E+00
  0.116357274788E+00
  0.116357274896E+00
  0.116357274787E+00
  0.116357275233E+00
  0.116357274755E+00
 -0.866637850258E-01
 -0.866637852909E-01
 -0.866637848542E-01
 -0.866637875797E-01
 -0.866637849679E-01
 -0.866637852346E-01
 -0.866637854289E-01
 -0.866637780944E-01
 -0.866639049259E-01
 -0.866637781311E-01
 -0.866638004355E-01
 -0.866637852346E-01
 -0.866637511504E-01
 -0.866637875797E-01
 -0.866637788221E-01
 -0.866637852909E-01
  0.116357275233E+00
  0.116357269256E+00
  0.116357274896E+00
  0.116357272748E+00
  0.116357274789E+00
  0.116357274743E+00
  0.116357274790E+00
  0.116357274790E+00
  0.116357274790E+00
  0.116357274790E+00
  0.116357274743E+00
  0.116357274789E+00
  0.116357272748E+00
  0.116357274896E+00
  0.116357269256E+00
  0.116357275233E+00
 -0.866637852909E-01
 -0.866637788221E-01
 -0.866637875797E-01
 -0.866637511504E-01
 -0.866637852346E-01
 -0.866638004355E-01
 -0.866637780944E-01
 -0.866639048545E-01
 -0.866617040076E-01
 -0.866639049259E-01
 -0.866631605607E-01
 -0.866638004355E-01
 -0.866641987048E-01
 -0.866637511504E-01
 -0.866639249614E-01
 -0.866637788221E-01
  0.116357269256E+00
  0.116357333294E+00
  0.116357272748E+00
  0.116357314658E+00
  0.116357274743E+00
  0.116357276351E+00
  0.116357274790E+00
  0.116357274802E+00
  0.116357274802E+00
  0.116357274790E+00
  0.116357276351E+00
  0.116357274743E+00
  0.116357314658E+00
  0.116357272748E+00
  0.116357333294E+00
  0.116357269256E+00
 -0.866637788221E-01
 -0.866639249614E-01
 -0.866637511504E-01
 -0.866641987048E-01
 -0.866638004355E-01
 -0.866631605607E-01
 -0.866639048545E-01
 -0.866617040126E-01
 -0.866997405413E-01
 -0.866617040088E-01
 -0.866815484925E-01
 -0.866631605688E-01
 -0.866595927650E-01
 -0.866641987061E-01
 -0.866607877443E-01
 -0.866639249616E-01
  0.116357333294E+00
  0.116356892539E+00
  0.116357314658E+00
  0.116356508874E+00
  0.116357276351E+00
  0.116357221438E+00
  0.116357274802E+00
  0.116357273823E+00
  0.116357273823E+00
  0.116357274802E+00
  0.116357221438E+00
  0.116357276351E+00
  0.116356508874E+00
  0.116357314658E+00
  0.116356892539E+00
  0.116357333294E+00
 -0.866639249616E-01
 -0.866607877443E-01
 -0.866641987061E-01
 -0.866595927650E-01
 -0.866631605688E-01
 -0.866815484925E-01
 -0.866617040138E-01
 -0.866997405170E-01
 -0.861445062098E-01
 -0.866997456092E-01
 -0.861671504626E-01
 -0.866815500220E-01
 -0.866881250123E-01
 -0.866595935793E-01
 -0.867253003574E-01
 -0.866607877535E-01
  0.116356892524E+00
  0.116353673645E+00
  0.116356508844E+00
  0.116371576235E+00
  0.116357221438E+00
  0.116359075263E+00
  0.116357273823E+00
  0.116357353543E+00
  0.116357353543E+00
  0.116357273823E+00
  0.116359075263E+00
  0.116357221438E+00
  0.116371576235E+00
  0.116356508844E+00
  0.116353673645E+00
  0.116356892524E+00
 -0.866607877535E-01
 -0.867253003574E-01
 -0.866595935793E-01
 -0.866881250123E-01
 -0.866815500220E-01
 -0.861671504626E-01
 -0.866997455848E-01
 -0.861445061103E-01
 -0.103177927410E+00
 -0.861527657508E-01
 -0.993840964141E-01
 -0.861671453598E-01
 -0.884720172560E-01
 -0.866885518285E-01
 -0.853905554679E-01
 -0.867252995659E-01
  0.116353673628E+00
  0.116564106817E+00
  0.116371565756E+00
  0.116104684011E+00
  0.116359075102E+00
  0.116298172004E+00
  0.116357353543E+00
  0.116350864068E+00
  0.116350864068E+00
  0.116357353543E+00
  0.116298172004E+00
  0.116359075102E+00
  0.116104684011E+00
  0.116371565756E+00
  0.116564106817E+00
  0.116353673628E+00
 -0.867252995659E-01
 -0.853905554679E-01
 -0.866885518285E-01
 -0.884720172560E-01
 -0.861671453598E-01
 -0.993840964141E-01
 -0.861527656513E-01
 -0.103177927410E+00
 -0.975134506877E-01
 -0.103682504994E+00
 -0.112588264966E+00
 -0.997870774920E-01
 -0.112000932042E+00
 -0.886133500512E-01
 -0.108536766110E+00
 -0.853902046083E-01
  0.116563999875E+00
  0.111774757026E+00
  0.116101313526E+00
  0.120325529437E+00
  0.116297995340E+00
  0.118161465119E+00
  0.116350861252E+00
  0.116879262417E+00
  0.116879262417E+00
  0.116350861252E+00
  0.118161465119E+00
  0.116297995340E+00
  0.120325529437E+00
  0.116101313526E+00
  0.111774757026E+00
  0.116563999875E+00
 -0.853902046083E-01
 -0.108536766110E+00
 -0.886133500512E-01
 -0.112000932042E+00
 -0.997870774920E-01
 -0.112588264966E+00
 -0.103682504995E+00
 -0.975134505611E-01
 -0.185817978483E-01
 -0.972076081904E-01
 -0.288268742633E-01
 -0.112084487867E+00
 -0.363008335425E-01
 -0.112449861859E+00
 -0.886707326961E-01
 -0.109951088699E+00
  0.109342334556E+00
  0.682329125366E-01
  0.119443131552E+00
  0.722889149376E-01
  0.117986655153E+00
  0.740386980763E-01
  0.116860586232E+00
  0.747775800462E-01
  0.747775800462E-01
  0.116860586232E+00
  0.740386980763E-01
  0.117986655153E+00
  0.722889149376E-01
  0.119443131552E+00
  0.682329125366E-01
  0.109342334556E+00
 -0.109951088699E+00
 -0.886707326960E-01
 -0.112449861859E+00
 -0.363008335426E-01
 -0.112084487867E+00
 -0.288268742633E-01
 -0.972076080644E-01
 -0.185817978476E-01
 -0.465886645820E-01
 -0.498371918250E-01
 -0.386465896279E-01
 -0.384521686148E-01
 -0.377945042920E-01
 -0.724510790676E-01
 -0.922619175327E-01
  0.556698392076E-01
  0.552451596029E-01
  0.575239933536E-01
  0.571386553245E-01
  0.582565295714E-01
  0.580151121309E-01
  0.585429409817E-01
  0.585429409817E-01
  0.580151121309E-01
  0.582565295714E-01
  0.571386553233E-01
  0.575239933514E-01
  0.552451596022E-01
  0.556698392076E-01
 -0.922619175327E-01
 -0.724510790679E-01
 -0.377945042917E-01
 -0.384521686143E-01
 -0.386465896280E-01
 -0.498371918250E-01
 -0.465886645819E-01
 -0.475754306164E-01
 -0.450440374549E-01
 -0.380450487800E-01
 -0.336015481263E-01
 -0.347014680921E-01
 -0.617167192590E-01
 -0.747863256243E-01
  0.543885576883E-01
  0.543055889264E-01
  0.561995082883E-01
  0.560750577904E-01
  0.570007542488E-01
  0.569176938942E-01
  0.573533084885E-01
  0.573533084885E-01
  0.569176938943E-01
  0.570007542489E-01
  0.560750577876E-01
  0.561995082848E-01
  0.543055889268E-01
  0.543885576890E-01
 -0.747863256248E-01
 -0.617167192593E-01
 -0.347014680915E-01
 -0.336015481257E-01
 -0.380450487801E-01
 -0.450440374549E-01
 -0.475754306164E-01
 -0.454387027295E-01
 -0.389103900106E-01
 -0.368968216704E-01
 -0.299865700398E-01
 -0.318433981537E-01
 -0.554160317613E-01
 -0.622350559789E-01
  0.540995730932E-01
  0.541712955799E-01
  0.558687908568E-01
  0.558677067567E-01
  0.566919387002E-01
  0.566781903816E-01
  0.570646352089E-01
  0.570646352089E-01
  0.566781903816E-01
  0.566919387002E-01
  0.558677067532E-01
  0.558687908534E-01
  0.541712955821E-01
  0.540995730952E-01
 -0.622350559792E-01
 -0.554160317611E-01
 -0.318433981532E-01
 -0.299865700397E-01
 -0.368968216705E-01
 -0.389103900107E-01
 -0.454387027295E-01
 -0.435920330842E-01
 -0.355532376623E-01
 -0.359674531682E-01
 -0.287683609829E-01
 -0.298137291688E-01
 -0.533046662937E-01
 -0.552176084357E-01
  0.540000254149E-01
  0.540625530168E-01
  0.557218864277E-01
  0.557432847690E-01
  0.565419337825E-01
  0.565479109176E-01
  0.569183230977E-01
  0.569183230977E-01
  0.565479109176E-01
  0.565419337825E-01
  0.557432847690E-01
  0.557218864260E-01
  0.540625530167E-01
  0.540000254174E-01
 -0.552176084357E-01
 -0.533046662937E-01
 -0.298137291687E-01
 -0.287683609829E-01
 -0.359674531682E-01
 -0.355532376623E-01
 -0.435920330842E-01
SCALARS sigma float 1
LOOKUP_TABLE default
 -0.871557427407E-01
 -0.871557427407E-01
 -0.871557427507E-01
 -0.871557427507E-01
 -0.871557427493E-01
 -0.871557427493E-01
 -0.871557427469E-01
 -0.871557427469E-01
  0.871557427469E-01
  0.871557427469E-01
  0.871557427493E-01
  0.871557427493E-01
  0.871557427469E-01
  0.871557427469E-01
  0.871557427482E-01
  0.871557427482E-01
  0.871557427482E-01
  0.871557427482E-01
  0.871557427469E-01
  0.871557427469E-01
  0.871557427493E-01
  0.871557427493E-01
  0.871557427469E-01
  0.871557427469E-01
 -0.871557427469E-01
 -0.871557427469E-01
 -0.871557427493E-01
 -0.871557427493E-01
 -0.871557427507E-01
 -0.871557427507E-01
 -0.871557427407E-01
 -0.871557427407E-01
 -0.871557427407E-01
 -0.871557427407E-01
 -0.871557427507E-01
 -0.871557427507E-01
 -0.871557427493E-01
 -0.871557427493E-01
 -0.871557427469E-01
 -0.871557427469E-01
  0.871557427469E-01
  0.871557427469E-01
  0.871557427493E-01
  0.871557427493E-01
  0.871557427469E-01
  0.871557427469E-01
  0.871557427482E-01
  0.871557427482E-01
  0.871557427482E-01
  0.871557427482E-01
  0.871557427469E-01
  0.871557427469E-01
  0.871557427493E-01
  0.871557427493E-01
  0.871557427469E-01
  0.871557427469E-01
 -0.871557427469E-01
 -0.871557427469E-01
 -0.871557427493E-01
 -0.871557427493E-01
 -0.871557427507E-01
 -0.871557427507E-01
 -0.871557427407E-01
 -0.871557427407E-01
 -0.871557427407E-01
 -0.871557427407E-01
 -0.871557427507E-01
 -0.871557427507E-01
 -0.871557427493E-01
 -0.871557427493E-01
 -0.871557427469E-01
 -0.871557427469E-01
  0.871557427469E-01
  0.871557427469E-01
  0.871557427493E-01
  0.871557427493E-01
  0.871557427469E-01
  0.871557427469E-01
  0.871557427482E-01
  0.871557427482E-01
  0.871557427482E-01
  0.871557427482E-01
  0.871557427469E-01
  0.871557427469E-01
  0.871557427493E-01
  0.871557427493E-01
  0.871557427469E-01
  0.871557427469E-01
 -0.871557427469E-01
 -0.871557427469E-01
 -0.871557427493E-01
 -0.871557427493E-01
 -0.871557427507E-01
 -0.871557427507E-01
 -0.871557427407E-01
 -0.871557427407E-01
 -0.871557427407E-01
 -0.871557427407E-01
 -0.871557427507E-01
 -0.871557427507E-01
 -0.871557427493E-01
 -0.871557427493E-01
 -0.871557427469E-01
 -0.871557427469E-01
  0.871557427469E-01
  0.871557427469E-01
  0.871557427493E-01
  0.871557427493E-01
  0.871557427469E-01
  0.871557427469E-01
  0.871557427482E-01
  0.871557427482E-01
  0.871557427482E-01
  0.871557427482E-01
  0.871557427469E-01
  0.871557427469E-01
  0.871557427493E-01
  0.871557427493E-01
  0.871557427469E-01
  0.871557427469E-01
 -0.871557427469E-01
 -0.871557427469E-01
 -0.871557427493E-01
 -0.871557427493E-01
 -0.871557427507E-01
 -0.871557427507E-01
 -0.871557427407E-01
 -0.871557427407E-01
 -0.871557427407E-01
 -0.871557427407E-01
 -0.871557427507E-01
 -0.871557427507E-01
 -0.871557427493E-01
 -0.871557427493E-01
 -0.871557427469E-01
 -0.871557427469E-01
  0.871557427469E-01
  0.871557427469E-01
  0.871557427493E-01
  0.871557427493E-01
  0.871557427469E-01
  0.871557427469E-01
  0.871557427482E-01
  0.871557427482E-01
  0.871557427482E-01
  0.871557427482E-01