# vtk DataFile Version 3.0
MachLine results file. Generated by MachLine, USU AeroLab (c) 2022.
ASCII
DATASET POLYDATA
POINTS                4838 float
 -0.395940000000E+00 -0.124060000000E+01 -0.277140000000E+00
 -0.857850000000E-01 -0.124060000000E+01 -0.259040000000E+00
 -0.857850000000E-01 -0.108550000000E+01 -0.238240000000E+00
 -0.395940000000E+00 -0.108550000000E+01 -0.259850000000E+00
 -0.287720000000E+01  0.000000000000E+00 -0.144490000000E+01
 -0.256700000000E+01  0.000000000000E+00 -0.145020000000E+01
  0.208530000000E+01  0.000000000000E+00 -0.140560000000E+01
  0.239550000000E+01  0.000000000000E+00 -0.138370000000E+01
 -0.395940000000E+00  0.000000000000E+00 -0.147380000000E+01
 -0.857850000000E-01  0.000000000000E+00 -0.147330000000E+01
  0.735790000000E+01 -0.114870000000E+01 -0.288040000000E+00
  0.704780000000E+01 -0.114920000000E+01 -0.288040000000E+00
  0.704780000000E+01 -0.124060000000E+01 -0.162980000000E+00
  0.735790000000E+01 -0.124060000000E+01 -0.205690000000E+00
 -0.411780000000E+01 -0.479800000000E+00 -0.908350000000E+00
 -0.411780000000E+01 -0.542420000000E+00 -0.830810000000E+00
 -0.504830000000E+01 -0.572820000000E+00 -0.753270000000E+00
 -0.535840000000E+01 -0.560800000000E+00 -0.753270000000E+00
 -0.504830000000E+01 -0.438320000000E+00 -0.908350000000E+00
 -0.535840000000E+01 -0.421120000000E+00 -0.908350000000E+00
  0.332590000000E+01 -0.124060000000E+01 -0.800490000000E+00
  0.363610000000E+01 -0.124060000000E+01 -0.787060000000E+00
  0.363610000000E+01 -0.108550000000E+01 -0.831040000000E+00
  0.332590000000E+01 -0.108550000000E+01 -0.841800000000E+00
  0.208530000000E+01 -0.124060000000E+01 -0.860850000000E+00
  0.239550000000E+01 -0.124060000000E+01 -0.844680000000E+00
  0.239550000000E+01 -0.108550000000E+01 -0.877710000000E+00
  0.208530000000E+01 -0.108550000000E+01 -0.891200000000E+00
  0.844680000000E+00 -0.124060000000E+01 -0.196270000000E+00
  0.115480000000E+01 -0.124060000000E+01 -0.172930000000E+00
  0.115480000000E+01 -0.108550000000E+01 -0.133190000000E+00
  0.844680000000E+00 -0.108550000000E+01 -0.161780000000E+00
 -0.535840000000E+01 -0.465970000000E+00  0.332270000000E+00
 -0.504830000000E+01 -0.479920000000E+00  0.332270000000E+00
 -0.504830000000E+01 -0.407000000000E+00  0.487350000000E+00
 -0.535840000000E+01 -0.396360000000E+00  0.487350000000E+00
 -0.163660000000E+01  0.000000000000E+00 -0.146380000000E+01
 -0.132640000000E+01  0.000000000000E+00 -0.146760000000E+01
 -0.411780000000E+01  0.000000000000E+00 -0.138230000000E+01
 -0.380760000000E+01  0.000000000000E+00 -0.140230000000E+01
  0.844680000000E+00  0.000000000000E+00 -0.145990000000E+01
  0.115480000000E+01  0.000000000000E+00 -0.145080000000E+01
 -0.659900000000E+01  0.000000000000E+00  0.278190000000E+00
 -0.629540000000E+01  0.000000000000E+00  0.487350000000E+00
 -0.628890000000E+01 -0.510690000000E+00 -0.753270000000E+00
 -0.659900000000E+01 -0.488340000000E+00 -0.753270000000E+00
 -0.628890000000E+01 -0.465230000000E+00 -0.800050000000E+00
  0.611730000000E+01 -0.124060000000E+01 -0.705820000000E+00
  0.580720000000E+01 -0.124060000000E+01 -0.713540000000E+00
  0.611730000000E+01 -0.108550000000E+01 -0.769790000000E+00
  0.580720000000E+01 -0.108550000000E+01 -0.776090000000E+00
  0.487670000000E+01 -0.124060000000E+01 -0.740920000000E+00
  0.456650000000E+01 -0.124060000000E+01 -0.751510000000E+00
  0.487670000000E+01 -0.108550000000E+01 -0.795230000000E+00
  0.456650000000E+01 -0.108550000000E+01 -0.803180000000E+00
 -0.752950000000E+01 -0.511550000000E+00 -0.288040000000E+00
 -0.783970000000E+01 -0.465230000000E+00 -0.360460000000E+00
 -0.752950000000E+01 -0.465230000000E+00 -0.242550000000E+00
  0.580720000000E+01  0.000000000000E+00 -0.822460000000E+00
  0.611730000000E+01  0.000000000000E+00 -0.811070000000E+00
  0.224370000000E+00 -0.620310000000E+00  0.723770000000E-01
  0.534530000000E+00 -0.620310000000E+00  0.901550000000E-01
  0.534530000000E+00 -0.465230000000E+00  0.160540000000E+00
  0.224370000000E+00 -0.465230000000E+00  0.151070000000E+00
 -0.395940000000E+00 -0.620310000000E+00  0.413740000000E-01
 -0.857850000000E-01 -0.620310000000E+00  0.560870000000E-01
 -0.857850000000E-01 -0.465230000000E+00  0.142860000000E+00
 -0.395940000000E+00 -0.465230000000E+00  0.136280000000E+00
 -0.225690000000E+01 -0.620310000000E+00  0.203310000000E-01
 -0.194670000000E+01 -0.620310000000E+00  0.980140000000E-02
 -0.194670000000E+01 -0.465230000000E+00  0.140810000000E+00
 -0.225690000000E+01 -0.465230000000E+00  0.158440000000E+00
 -0.706100000000E+00 -0.620310000000E+00  0.286860000000E-01
 -0.706100000000E+00 -0.465230000000E+00  0.131560000000E+00
 -0.101630000000E+01 -0.465230000000E+00  0.128990000000E+00
 -0.163660000000E+01 -0.620310000000E+00  0.778220000000E-02
 -0.132640000000E+01 -0.620310000000E+00  0.111900000000E-01
 -0.132640000000E+01 -0.465230000000E+00  0.128830000000E+00
 -0.163660000000E+01 -0.465230000000E+00  0.131870000000E+00
  0.518690000000E+01  0.000000000000E+00  0.136160000000E+00
  0.549700000000E+01  0.000000000000E+00  0.133610000000E+00
  0.456650000000E+01 -0.186090000000E+01 -0.243080000000E+00
  0.487670000000E+01 -0.186090000000E+01 -0.235540000000E+00
  0.487670000000E+01 -0.170590000000E+01 -0.185270000000E+00
  0.456650000000E+01 -0.170590000000E+01 -0.189690000000E+00
  0.580720000000E+01 -0.186090000000E+01 -0.225260000000E+00
  0.611730000000E+01 -0.186090000000E+01 -0.226640000000E+00
  0.611730000000E+01 -0.170590000000E+01 -0.189600000000E+00
  0.580720000000E+01 -0.170590000000E+01 -0.183460000000E+00
 -0.132640000000E+01 -0.182400000000E+01 -0.753270000000E+00
 -0.163660000000E+01 -0.180320000000E+01 -0.753270000000E+00
 -0.132640000000E+01 -0.168360000000E+01 -0.908350000000E+00
 -0.163660000000E+01 -0.166610000000E+01 -0.908350000000E+00
 -0.256700000000E+01 -0.173600000000E+01 -0.753270000000E+00
 -0.287720000000E+01 -0.158030000000E+01 -0.908350000000E+00
 -0.287720000000E+01 -0.164640000000E+01 -0.830810000000E+00
 -0.256700000000E+01 -0.160370000000E+01 -0.908350000000E+00
  0.239550000000E+01 -0.186090000000E+01 -0.702650000000E+00
  0.208530000000E+01 -0.186090000000E+01 -0.724840000000E+00
  0.239550000000E+01 -0.170590000000E+01 -0.775790000000E+00
  0.208530000000E+01 -0.170590000000E+01 -0.807440000000E+00
  0.844680000000E+00 -0.186090000000E+01 -0.782090000000E+00
  0.115480000000E+01 -0.186090000000E+01 -0.773220000000E+00
  0.115480000000E+01 -0.170590000000E+01 -0.885300000000E+00
  0.844680000000E+00 -0.170590000000E+01 -0.900980000000E+00
  0.239550000000E+01 -0.170590000000E+01 -0.257070000000E+00
  0.208530000000E+01 -0.170590000000E+01 -0.267520000000E+00
  0.363610000000E+01 -0.170590000000E+01 -0.214970000000E+00
  0.332590000000E+01 -0.170590000000E+01 -0.225370000000E+00
  0.224370000000E+00 -0.124060000000E+01 -0.239520000000E+00
  0.534530000000E+00 -0.124060000000E+01 -0.218240000000E+00
  0.534530000000E+00 -0.108550000000E+01 -0.188900000000E+00
  0.224370000000E+00 -0.108550000000E+01 -0.214820000000E+00
  0.270560000000E+01 -0.124060000000E+01 -0.578890000000E-01
  0.301580000000E+01 -0.124060000000E+01 -0.373990000000E-01
  0.270560000000E+01 -0.108550000000E+01  0.119370000000E-01
  0.301580000000E+01 -0.108550000000E+01  0.377630000000E-01
  0.208530000000E+01 -0.930470000000E+00  0.292730000000E-01
  0.239550000000E+01 -0.930470000000E+00  0.594350000000E-01
  0.239550000000E+01 -0.775390000000E+00  0.142240000000E+00
  0.208530000000E+01 -0.775390000000E+00  0.118160000000E+00
 -0.535840000000E+01 -0.831480000000E+00 -0.288040000000E+00
 -0.504830000000E+01 -0.842690000000E+00 -0.288040000000E+00
 -0.504830000000E+01 -0.801020000000E+00 -0.132960000000E+00
 -0.535840000000E+01 -0.788340000000E+00 -0.132960000000E+00
 -0.458300000000E+01 -0.855610000000E+00 -0.288040000000E+00
 -0.458300000000E+01 -0.834600000000E+00 -0.210500000000E+00
 -0.256700000000E+01 -0.930470000000E+00 -0.309880000000E+00
 -0.287720000000E+01 -0.838460000000E+00 -0.210500000000E+00
 -0.225690000000E+01 -0.930470000000E+00 -0.315690000000E+00
 -0.194670000000E+01 -0.930470000000E+00 -0.315880000000E+00
 -0.194670000000E+01 -0.752600000000E+00 -0.132960000000E+00
 -0.225690000000E+01 -0.755730000000E+00 -0.132960000000E+00
 -0.721940000000E+01  0.000000000000E+00  0.523620000000E-01
 -0.690920000000E+01  0.000000000000E+00  0.126220000000E+00
  0.704780000000E+01 -0.186090000000E+01 -0.245820000000E+00
  0.735790000000E+01 -0.186090000000E+01 -0.255240000000E+00
  0.735790000000E+01 -0.170590000000E+01 -0.247040000000E+00
  0.704780000000E+01 -0.170590000000E+01 -0.232280000000E+00
  0.518690000000E+01 -0.124060000000E+01  0.182740000000E-01
  0.549700000000E+01 -0.124060000000E+01  0.619280000000E-02
  0.549700000000E+01 -0.108550000000E+01  0.852090000000E-01
  0.518690000000E+01 -0.108550000000E+01  0.101430000000E+00
  0.456650000000E+01 -0.124060000000E+01  0.245550000000E-01
  0.487670000000E+01 -0.124060000000E+01  0.241050000000E-01
  0.487670000000E+01 -0.108550000000E+01  0.110660000000E+00
  0.456650000000E+01 -0.108550000000E+01  0.113140000000E+00
 -0.908030000000E+01  0.000000000000E+00 -0.778200000000E+00
 -0.877010000000E+01  0.000000000000E+00 -0.860970000000E+00
 -0.402810000000E+01 -0.116310000000E+01 -0.598200000000E+00
 -0.397360000000E+01 -0.124060000000E+01 -0.598200000000E+00
 -0.404660000000E+01 -0.124060000000E+01 -0.520660000000E+00
 -0.410130000000E+01 -0.116310000000E+01 -0.520660000000E+00
 -0.397020000000E+01 -0.930470000000E+00 -0.830810000000E+00
 -0.402400000000E+01 -0.852930000000E+00 -0.830810000000E+00
 -0.389700000000E+01 -0.930470000000E+00 -0.908350000000E+00
 -0.395060000000E+01 -0.852930000000E+00 -0.908350000000E+00
 -0.504830000000E+01 -0.799920000000E+00 -0.443120000000E+00
 -0.535840000000E+01 -0.797170000000E+00 -0.443120000000E+00
 -0.504830000000E+01 -0.692180000000E+00 -0.598200000000E+00
 -0.535840000000E+01 -0.684990000000E+00 -0.598200000000E+00
[...]
CELL_DATA                9567
SCALARS C_p_inc float 1
LOOKUP_TABLE default
 -0.226206271661E+03
 -0.787849634219E+00
 -0.913627947981E+04
 -0.274193609468E+01
 -0.908915759797E+00
 -0.329941430290E+02
 -0.612538618199E+00
 -0.290381243650E+00
 -0.448776297460E+01
  0.169671903159E+00
 -0.412360377630E-01
 -0.270789260175E-01
  0.330721737290E+00
  0.613815262138E-01
  0.401964545377E+00
  0.335434611804E+00
  0.103566720250E+00
  0.345126748008E+00
  0.292333730093E+00
  0.116293181057E+00
  0.246981733436E+00
  0.238456045614E+00
  0.113054285174E+00
  0.170388861868E+00
  0.187298566176E+00
  0.100902655198E+00
  0.116497535349E+00
  0.142281966853E+00
  0.840569780977E-01
  0.790726909806E-01
  0.103643750718E+00
  0.655482411025E-01
  0.522136567697E-01
  0.720289160738E-01
  0.471313521354E-01
  0.311191627878E-01
  0.481759155614E-01
  0.296224345705E-01
  0.134111242480E-01
  0.314015111959E-01
  0.131511897238E-01
 -0.175199750446E-02
  0.134318616316E-01
 -0.239184448997E-02
 -0.155810310588E-01
 -0.285040285352E-02
 -0.168440193956E-01
 -0.287086674072E-01
 -0.170254559411E-01
 -0.301126565805E-01
 -0.410724700842E-01
 -0.300248152259E-01
 -0.422097143461E-01
 -0.532276514167E-01
 -0.417138841425E-01
 -0.544307824346E-01
 -0.649821099444E-01
 -0.555345731276E-01
 -0.649693500992E-01
 -0.763343020343E-01
 -0.619681870758E-01
 -0.738224044994E-01
 -0.894699974862E-01
 -0.656464882777E-01
 -0.872837449571E-01
 -0.110843300681E+00
 -0.772511886558E-01
 -0.115313212070E+00
 -0.140982394065E+00
 -0.119087734774E+00
 -0.150995377706E+00
 -0.173899170943E+00
 -0.162830922391E+00
 -0.184910722947E+00
 -0.213579447935E+00
 -0.193425421369E+00
 -0.221208391874E+00
 -0.272010077781E+00
 -0.224487665082E+00
 -0.268391137440E+00
 -0.369816605969E+00
 -0.249800062311E+00
 -0.336429932971E+00
 -0.539882100346E+00
 -0.294370461500E+00
 -0.435408123239E+00
 -0.843347302801E+00
 -0.340113028867E+00
 -0.577864945943E+00
 -0.139429195549E+01
 -0.370185600027E+00
 -0.774227022727E+00
 -0.242011972033E+01
 -0.388731007325E+00
 -0.102681591295E+01
 -0.436423412112E+01
 -0.394179154333E+00
 -0.132407850813E+01
 -0.824035996676E+01
 -0.356497663284E+00
 -0.162070209042E+01
 -0.163909094052E+02
 -0.254464808156E+00
 -0.179077554688E+01
 -0.347353429417E+02
 -0.739345789145E-01
 -0.159526954068E+01
 -0.806411191306E+02
  0.151497696541E+00
 -0.771956675178E+00
 -0.230979056006E+03
  0.289317243651E+00
 -0.779977005604E+00
 -0.520665780365E+03
 -0.362109720713E-02
 -0.237754268332E+02
 -0.197576168956E+05
 -0.172772989202E+01
 -0.193902708622E+03
 -0.115862308511E+07
 -0.502048846588E+05
 -0.140172952697E+02
 -0.127091851453E+01
 -0.777550745703E+01
 -0.913438358509E+00
 -0.968720717966E+00
 -0.227171745613E+02
  0.993528788931E-01
 -0.365692321358E+00
 -0.297411234441E+01
  0.282031846818E+00
 -0.107007090053E+00
  0.103144528323E+00
  0.306215006385E+00
  0.130112264933E-01
  0.695806140607E+00
  0.285373129135E+00
  0.695305780502E-01
  0.660083299828E+00
  0.248268079197E+00
  0.937346497689E-01
  0.498873850570E+00
  0.206204126480E+00
  0.987871645905E-01
  0.348849325471E+00
  0.164946711469E+00
  0.921932919874E-01
  0.236743315716E+00
  0.127103075061E+00
  0.789281815067E-01
  0.165782723445E+00
  0.931310782232E-01
  0.624173604600E-01
  0.121080875285E+00
  0.650300532348E-01
  0.449078050635E-01
  0.768470922631E-01
  0.441061350061E-01
  0.276069957072E-01
  0.506141955693E-01
  0.285156775010E-01
  0.112057609619E-01
  0.258324871061E-01
  0.111284083256E-01
 -0.404079317698E-02
  0.693091771484E-02
 -0.507501785785E-02
 -0.182153284350E-01
 -0.112883091492E-01
 -0.193262652021E-01
 -0.312797069462E-01
 -0.150459022226E-01
 -0.326137965609E-01
 -0.432650340997E-01
 -0.313166994846E-01
 -0.436045619382E-01
 -0.553739102249E-01
 -0.454799307565E-01
 -0.568053716899E-01
 -0.656896415125E-01
 -0.544023815080E-01
 -0.629087203384E-01
 -0.747486124546E-01
 -0.564184750497E-01
 -0.667117223819E-01
 -0.882289517456E-01
 -0.477907136697E-01
 -0.783204395956E-01
 -0.115522849776E+00
 -0.351357214142E-01
 -0.118529492949E+00
 -0.150738717862E+00
 -0.133592164747E+00
 -0.162693392142E+00
 -0.184553334861E+00
 -0.190071308577E+00
 -0.193403202520E+00
 -0.219855907300E+00
 -0.206176513196E+00
 -0.223181265885E+00
 -0.264275581148E+00
 -0.217747218266E+00
 -0.246230837603E+00
 -0.326396204966E+00
 -0.231078881512E+00
 -0.286911448086E+00
 -0.415776848618E+00
 -0.235050884032E+00
 -0.328110453983E+00
 -0.543970411141E+00
 -0.241800419032E+00
 -0.355276656188E+00
 -0.722164463971E+00
 -0.246528862690E+00
 -0.374474865519E+00
 -0.970757802029E+00
 -0.246388039522E+00
 -0.391483276981E+00
 -0.132892197919E+01
 -0.255373948045E+00
 -0.390021749539E+00
 -0.189294236659E+01
 -0.258085398042E+00
 -0.370659783631E+00
 -0.294691471160E+01
 -0.254933173796E+00
 -0.352415117361E+00
 -0.541818773474E+01
 -0.254609663983E+00
 -0.390983733163E+00
 -0.131958449873E+02
 -0.276402718896E+00
 -0.588638872361E+00
 -0.370968087145E+02
 -0.380359157443E+00
 -0.906766718407E+00
 -0.308018812077E+03
 -0.791826464070E+00
 -0.136592867318E+01
 -0.617490321979E+03
 -0.714227860293E+03
  0.490317929052E+00
  0.679689689621E+00
  0.355780133844E+00
  0.231090054212E+00
  0.207107584500E+00
  0.235611333951E+00
  0.292717577910E+00
  0.358169816855E+00
  0.345348918979E+00
 -0.122862274900E+03
  0.266705728919E+00
  0.472098721370E+00
  0.247170781519E+00
  0.165477415377E+00
  0.149896951564E+00
  0.166506743639E+00
  0.203694649880E+00
  0.247482418633E+00
  0.258374685498E+00
 -0.209800385080E+02
  0.990891792618E-01
  0.338753580038E+00
  0.192412522272E+00
  0.134740325632E+00
  0.124468525774E+00
  0.137421338878E+00
  0.165283371378E+00
  0.199068958137E+00
  0.217949619385E+00
 -0.111250912894E+02
 -0.823566867779E-01
  0.236269096871E+00
  0.151135296641E+00
  0.110724459150E+00
  0.103823917357E+00
  0.115742091769E+00
  0.138013437761E+00
  0.165087569908E+00
  0.187959409848E+00
 -0.623104409870E+01
 -0.202551254737E+00
  0.153626293032E+00
  0.116055022086E+00
  0.902493470434E-01
  0.863388543127E-01
  0.965225771958E-01
  0.115541764077E+00
  0.138469761554E+00
  0.162639884610E+00
 -0.390710296781E+01
 -0.272803402954E+00
  0.847274049725E-01
  0.846108619657E-01
  0.710049393169E-01
  0.693038813449E-01
  0.783775858320E-01
  0.944918701156E-01
  0.114747442039E+00
  0.139106101448E+00
 -0.257260142606E+01
 -0.306750345414E+00
  0.294240023652E-01
  0.559907875212E-01
  0.521872188041E-01
  0.535395607748E-01
  0.619618495733E-01
  0.756867771108E-01
  0.926912958948E-01
  0.117665118012E+00
 -0.175519894362E+01
 -0.313193262690E+00
 -0.152013612280E-01
  0.297575909491E-01
  0.347864246825E-01
  0.388182278650E-01
  0.471658009314E-01
  0.589635414663E-01
  0.736462206866E-01
  0.983759826898E-01
 -0.122555553424E+01
 -0.303236657700E+00
 -0.501358374518E-01
  0.547469672590E-02
  0.175445223943E-01
  0.237799157561E-01
  0.317471598620E-01
  0.426051072132E-01
  0.560268585236E-01
  0.794382415228E-01
 -0.872914989505E+00
 -0.283254871302E+00
 -0.767827051223E-01
 -0.174961695552E-01
 -0.306296216178E-03
  0.815135616908E-02
  0.160530492027E-01
  0.257549547123E-01
  0.377420639799E-01
  0.607781362367E-01
 -0.631858585914E+00
 -0.258355412508E+00
 -0.958665775183E-01
 -0.375906658866E-01
 -0.170229707669E-01
 -0.724629135496E-02
  0.596437485139E-03
  0.901972017996E-02
  0.191080019468E-01
  0.416469902599E-01
 -0.465866301025E+00
 -0.232127834543E+00
 -0.108752886357E+00
 -0.554828595408E-01
 -0.335188300384E-01
 -0.228584334809E-01
 -0.155713346727E-01
 -0.832079216760E-02
  0.227471902936E-03
  0.212484377283E-01
 -0.352762142243E+00
 -0.208515832263E+00
 -0.117965917853E+00
 -0.715652806669E-01
 -0.496732647576E-01
 -0.385207756824E-01
 -0.314384507885E-01
 -0.252835576946E-01
 -0.178558143211E-01
  0.120610713010E-02
 -0.275709214739E+00
 -0.187866102180E+00
 -0.123542195137E+00
 -0.852995238181E-01
 -0.647260865799E-01
 -0.537226355812E-01
 -0.470122276163E-01
 -0.418061052698E-01
 -0.351447088750E-01
 -0.180027775635E-01
 -0.223435477203E+00
 -0.170610823093E+00
 -0.126706267863E+00
 -0.969707827617E-01
 -0.792008233236E-01
 -0.691083171775E-01
 -0.632518506403E-01
 -0.590542309387E-01
 -0.538000856017E-01
 -0.390976139386E-01
 -0.187535087348E+00
 -0.156357823512E+00
 -0.127803978298E+00
 -0.106139434327E+00
 -0.919274367576E-01
 -0.834939505203E-01
 -0.787137835196E-01
 -0.756304089352E-01
 -0.718994670989E-01
 -0.603941208436E-01
 -0.160688265696E+00
 -0.143630480980E+00
 -0.126616150774E+00
 -0.112452217632E+00
 -0.102318832852E+00
 -0.960866133705E-01
 -0.927612810757E-01
 -0.910695371012E-01
 -0.889248862978E-01
 -0.807863672792E-01
 -0.138104042120E+00
 -0.131489863632E+00
 -0.123474594956E+00
 -0.115967009371E+00
 -0.110242948391E+00
 -0.106721910118E+00
 -0.105295556111E+00
 -0.105339484541E+00
 -0.105246191070E+00
 -0.100997223686E+00
 -0.117023204936E+00
 -0.118427495054E+00
 -0.117462981528E+00
 -0.115633168264E+00
 -0.114055999075E+00
 -0.113520223213E+00
 -0.114291397087E+00
 -0.116185480234E+00
 -0.118287361409E+00
 -0.118133600573E+00
 -0.992562167206E-01
 -0.105223891399E+00
 -0.108917869066E+00
 -0.111304940382E+00
 -0.113194092409E+00
 -0.115345671449E+00
 -0.118269866443E+00
 -0.122085657653E+00
 -0.126317937440E+00
 -0.129732232025E+00
 -0.854358905714E-01
 -0.926451520705E-01
 -0.984598687061E-01
 -0.103269213073E+00
 -0.107534111192E+00
 -0.111737025591E+00
 -0.116402876987E+00
 -0.121848950967E+00
 -0.128087975828E+00
 -0.134318031850E+00
 -0.730683505291E-01
 -0.801560911176E-01
 -0.865743865835E-01
 -0.924053181806E-01
 -0.978769762617E-01
 -0.103299226344E+00
 -0.109075960108E+00
 -0.115619056777E+00
 -0.123176864966E+00
 -0.131501482019E+00
 -0.608938136784E-01
 -0.677697206806E-01
 -0.742519937423E-01
 -0.803352327453E-01
 -0.861712032819E-01
 -0.920073374355E-01
 -0.981489242021E-01
 -0.105069812519E+00
 -0.113122973468E+00
 -0.122554447882E+00
 -0.487011634509E-01
 -0.555535734948E-01
 -0.619938599108E-01
 -0.680144901966E-01
 -0.738420119263E-01
 -0.796616002243E-01
 -0.858262930721E-01
 -0.925908358125E-01
 -0.100648760321E+00
 -0.110438403842E+00
 -0.366634457017E-01
 -0.437536118917E-01
 -0.500871358366E-01
 -0.559103631463E-01
 -0.614346983341E-01
 -0.669506420328E-01
 -0.726538826290E-01
 -0.790535335596E-01
 -0.864469121380E-01
 -0.960974292261E-01
 -0.245501679940E-01
 -0.322267908293E-01
 -0.386015030496E-01
 -0.442283967357E-01
 -0.494008152588E-01
 -0.544904126516E-01
 -0.597276239676E-01
 -0.654535190526E-01
 -0.720684686327E-01
 -0.807985847989E-01
 -0.124511205702E-01
 -0.211958198361E-01
 -0.278413450006E-01
 -0.332235616842E-01
 -0.380624609479E-01
 -0.426731246072E-01
 -0.473469702265E-01
 -0.522540015505E-01
 -0.580384394064E-01
 -0.658788938567E-01
 -0.339497436483E-04
 -0.105707906958E-01
 -0.175584058388E-01
 -0.226980246993E-01
 -0.271161479874E-01
 -0.311218078945E-01
 -0.349314339179E-01
 -0.390159945973E-01
 -0.437255468348E-01
 -0.502313478604E-01
  0.131626493554E-01
 -0.145241011968E-03
 -0.776559047369E-02
 -0.128337013093E-01
 -0.167988398117E-01
 -0.204040054336E-01
 -0.238531813780E-01
 -0.272119523200E-01
 -0.308567360123E-01
 -0.363755432580E-01
  0.272322819347E-01
  0.979170668544E-02
  0.125775518753E-02
 -0.370929820663E-02
 -0.713761912926E-02
 -0.102866830353E-01
 -0.133252515454E-01
 -0.160796723634E-01
 -0.187258708170E-01
 -0.232212927172E-01
  0.424634632058E-01
  0.190287120256E-01
  0.957182873111E-02
  0.492427690451E-02
  0.177476876338E-02
 -0.669688897269E-03
 -0.276005297827E-02
 -0.482768587741E-02
 -0.632658770860E-02
 -0.902446739595E-02
  0.601571996798E-01
  0.282263711355E-01
  0.178528158185E-01
  0.137130681175E-01
  0.109129592370E-01
  0.902043200481E-02
  0.753324275181E-02
  0.652748446474E-02
  0.580904526105E-02
  0.455949881449E-02
  0.805460619130E-01
  0.371250625821E-01
  0.259092460011E-01
  0.222914548779E-01
  0.202937939977E-01
  0.186965942162E-01
  0.174784509066E-01
  0.173412806199E-01
  0.175404020078E-01
  0.174360461297E-01
  0.103141594786E+00
  0.450174550219E-01
  0.334372159495E-01
  0.302595070715E-01
  0.289097067943E-01
  0.276959274988E-01
  0.273328521474E-01
  0.274322894007E-01
  0.290603491472E-01
  0.308128162463E-01
  0.128414404598E+00
  0.512254296071E-01
  0.403232831027E-01
  0.383965631589E-01
  0.370653272914E-01
  0.365512462909E-01
  0.371302178863E-01
  0.379039535119E-01
  0.401111710189E-01
  0.432573333799E-01
  0.153988316448E+00
  0.552693716185E-01
  0.470102631504E-01
  0.464416220659E-01
  0.458852774598E-01
  0.461063917758E-01
  0.464814956553E-01
  0.486281918711E-01
  0.517094592408E-01
  0.566109412984E-01
  0.170102943253E+00
  0.557135311770E-01
  0.533584285600E-01
  0.545614396413E-01
  0.553470186116E-01
  0.555943513513E-01
  0.563954064207E-01
  0.597150866630E-01
  0.643952595484E-01
  0.704688239535E-01
  0.141930417555E+00
  0.486087620834E-01
  0.588898989573E-01
  0.635426319321E-01
  0.647610140332E-01
  0.654274306296E-01
  0.673337574112E-01
  0.712299731695E-01
  0.773989895181E-01
  0.858158727290E-01
 -0.118953460074E+00
  0.258433112899E-01
  0.630812326618E-01
  0.725417743130E-01
  0.751851086161E-01
  0.770331555144E-01
  0.792228178105E-01
  0.839452510838E-01
  0.935443517280E-01
  0.106605835725E+00
 -0.256026866023E+01
 -0.336859940394E-01
  0.720487934757E-01
  0.919634393400E-01
  0.973733827905E-01
  0.100116823097E+00
  0.104645506146E+00
  0.112714430537E+00
  0.128022075474E+00
  0.149466453459E+00
 -0.450732530766E+06
 -0.111498952385E+03
  0.444675163333E+00
  0.674583726976E+00
  0.354861135415E+00
  0.231032127826E+00
  0.207288192994E+00
  0.235820338703E+00
  0.292718286382E+00
  0.356296108725E+00
 -0.831915072416E+04
 -0.121471778225E+01
  0.834993353593E+00
  0.488906326065E+00
  0.249710537139E+00
  0.166282050531E+00
  0.150309756802E+00
  0.166708464512E+00
  0.203589014162E+00
  0.245597210166E+00
 -0.271641025981E+03
  0.679157218612E-01
  0.693314573205E+00
  0.369747176212E+00
  0.197088394427E+00
  0.136080914110E+00
  0.125021202382E+00
  0.137688432879E+00
  0.165153583896E+00
  0.197181912863E+00
 -0.126896351136E+03
 -0.878618298021E+00
  0.451241753926E+00
  0.276770402517E+00
  0.157466875915E+00
  0.112523965809E+00
  0.104539214135E+00
  0.116041215362E+00
  0.137883685130E+00
  0.163239724572E+00
 -0.490396120232E+02
 -0.137975708560E+01
  0.230936797116E+00
  0.197451560095E+00
  0.123743458511E+00
  0.924773468129E-01
  0.871863592050E-01
  0.968549572021E-01
  0.115420461831E+00
  0.136711472916E+00
 -0.231276111818E+02
 -0.147750041275E+01
  0.556592403107E-01
  0.129622766417E+00
  0.932646105895E-01
  0.734776191334E-01
  0.702552432768E-01
  0.787494338841E-01
  0.943737917541E-01
  0.113093935426E+00
 -0.118280574278E+02
 -0.136292841662E+01
 -0.679130444863E-01
  0.709726798051E-01
  0.650794457842E-01
  0.549212318479E-01
  0.545923311379E-01
  0.623614996143E-01
  0.755819187408E-01
  0.911793791458E-01
 -0.641473616662E+01
 -0.116104035725E+01
 -0.149606491592E+00
  0.213753426934E-01
  0.389718768819E-01
  0.377112103396E-01
  0.399607654532E-01
  0.475812019106E-01
  0.588634783048E-01
  0.721745405340E-01
 -0.362509537687E+01
 -0.942928117858E+00
 -0.195502994389E+00
 -0.195210128315E-01
  0.141474515769E-01
  0.204693585875E-01
  0.249384791440E-01
  0.321794219443E-01
  0.425247579555E-01
  0.547427721128E-01
 -0.212072098335E+01
 -0.744604423583E+00
 -0.216643158096E+00
 -0.529689698412E-01
 -0.954401382255E-02
  0.256104230876E-02
  0.932417965761E-02
  0.164973395940E-01
  0.256863369560E-01
  0.366082170072E-01
 -0.128070661794E+01
 -0.577224393208E+00
 -0.219103985807E+00
 -0.782767401671E-01
 -0.309358810911E-01
 -0.143564165371E-01
 -0.611602695424E-02
  0.102325804885E-02
  0.895989388541E-02
  0.181495494749E-01
 -0.801079777509E+00
 -0.443751407605E+00
 -0.210412246007E+00
 -0.966988179024E-01
 -0.500579653350E-01
 -0.311786768521E-01
 -0.218381010421E-01
 -0.151752265157E-01
 -0.837876477045E-02
 -0.572755837714E-03
 -0.525477159587E+00
 -0.344614858265E+00
 -0.197192205211E+00
 -0.110124759310E+00
 -0.674441615958E-01
 -0.476969825559E-01
 -0.376073321909E-01
 -0.310860256421E-01
 -0.253356370506E-01
 -0.184747105323E-01
 -0.365718176193E+00
 -0.273218288687E+00
 -0.182445378545E+00
 -0.118973249243E+00
 -0.824870994463E-01
 -0.632281976754E-01
 -0.529925704539E-01
 -0.467195606080E-01
 -0.418471109127E-01
 -0.356109556973E-01
 -0.271412860955E+00
 -0.223005668852E+00
 -0.168315247811E+00
 -0.124262613883E+00
 -0.952010305214E-01
 -0.781566121714E-01
 -0.685682079327E-01
 -0.630392689732E-01
 -0.590919295468E-01
 -0.541136240640E-01
 -0.213873005799E+00
 -0.187772539056E+00
 -0.155626871469E+00
 -0.126758765407E+00
 -0.105230630881E+00
 -0.913140354061E-01
 -0.831617370621E-01
 -0.785881484022E-01
 -0.756715100856E-01
 -0.721078464470E-01
 -0.174147979663E+00
 -0.161061904576E+00
 -0.143602246612E+00
 -0.126327823438E+00
 -0.112110242916E+00
 -0.102053776367E+00
 -0.959341729655E-01
 -0.927145450006E-01
 -0.911180242165E-01
 -0.890526630674E-01
 -0.141024421748E+00
 -0.138358261344E+00
 -0.131664687292E+00
 -0.123527162201E+00
 -0.115943946419E+00
 -0.110203902875E+00
 -0.106704082334E+00
 -0.105314490224E+00
 -0.105396176933E+00
 -0.105326729779E+00
 -0.110831435830E+00
 -0.116927952134E+00
 -0.118469488090E+00
 -0.117534160505E+00
 -0.115691374091E+00
 -0.114099922611E+00
 -0.113560805341E+00
 -0.114336693731E+00
 -0.116240456178E+00
 -0.118340619172E+00
 -0.893633929321E-01
 -0.987758266850E-01
 -0.104952435405E+00
 -0.108786793258E+00
 -0.111251163754E+00
 -0.113179187182E+00
 -0.115349862512E+00
 -0.118287021695E+00
 -0.122114312412E+00
 -0.126349119864E+00
 -0.761113115607E-01
 -0.847847207474E-01
 -0.921252739960E-01
 -0.980893503298E-01
 -0.103021745275E+00
 -0.107369109746E+00
 -0.111632049458E+00
 -0.116340176032E+00
 -0.121822031972E+00
 -0.128091282624E+00
 -0.646909439340E-01
 -0.723886666121E-01
 -0.795323231916E-01
 -0.860658256995E-01
 -0.920130851309E-01
 -0.975814487003E-01
 -0.103079522417E+00
 -0.108923714127E+00
 -0.115528870030E+00
 -0.123149171113E+00
 -0.529367256166E-01
 -0.602485796506E-01
 -0.671400992655E-01
 -0.737120971167E-01
 -0.798960910743E-01
 -0.858151275354E-01
 -0.917279547625E-01
 -0.979422706828E-01
 -0.104937948949E+00
 -0.113076224756E+00
 -0.407676038081E-01
 -0.481373064756E-01
 -0.549749953312E-01
 -0.614951876814E-01
 -0.675915726295E-01
 -0.734869765386E-01
 -0.793672066363E-01
 -0.856014195559E-01
 -0.924425044291E-01
 -0.100600576663E+00
 -0.284424348673E-01
 -0.362145324452E-01
 -0.432683412213E-01
 -0.496756746295E-01
 -0.555496459522E-01
 -0.611185263417E-01
 -0.666800022312E-01
 -0.724422549856E-01
 -0.789095539608E-01
 -0.864113873299E-01
 -0.153693391600E-01
 -0.242352259098E-01
 -0.318743192894E-01
 -0.383030225153E-01
 -0.439516179900E-01
 -0.491421039265E-01
 -0.542608620840E-01
 -0.595382024614E-01
 -0.653337091910E-01
 -0.720548403131E-01
 -0.159247873915E-02
 -0.123015060284E-01
 -0.210156029101E-01
 -0.276792576800E-01
 -0.330454054128E-01
 -0.378705755617E-01
 -0.424920283007E-01
 -0.471970171582E-01
 -0.521590276900E-01
 -0.580511499940E-01
  0.136266612131E-01
 -0.843420623855E-04
 -0.106144782307E-01
 -0.175567448562E-01
 -0.226180411079E-01
 -0.269965852957E-01
 -0.309962048417E-01
 -0.348205009763E-01
 -0.389495053569E-01
 -0.437700076662E-01
  0.317353173153E-01
  0.128613840222E-01
 -0.483391375715E-03
 -0.793622591346E-02
 -0.128521452302E-01
 -0.167460190866E-01
 -0.203228470096E-01
 -0.237764683033E-01
 -0.271743406875E-01
 -0.309284431643E-01
  0.539090331357E-01
  0.265750495064E-01
  0.907319071714E-02
  0.901060648199E-03
 -0.383134096584E-02
 -0.714197425887E-02
 -0.102454943656E-01
 -0.132824907173E-01
 -0.160707737050E-01
 -0.188189811977E-01
  0.831626179454E-01
  0.412778982599E-01
  0.178080380789E-01
  0.899954243304E-02
  0.470729321622E-02
  0.171906402002E-02
 -0.670882755446E-03
 -0.275047703965E-02