# vtk DataFile Version 3.0
TriPan results file. Generated by TriPan, USU AeroLab (c) 2021.
ASCII
DATASET POLYDATA
POINTS                1375 float
  0.254366756317E-05 -0.799999770501E+01  0.808768670280E-21
  0.447911186671E-05 -0.757894754410E+01  0.000000000000E+00
  0.447911330738E-05 -0.715789461136E+01  0.000000000000E+00
  0.447911099252E-05 -0.673684215546E+01  0.000000000000E+00
  0.447911186674E-05 -0.631578969955E+01  0.000000000000E+00
  0.447911330735E-05 -0.589473676682E+01  0.000000000000E+00
  0.447911186676E-05 -0.547368431091E+01  0.000000000000E+00
  0.447911330738E-05 -0.505263137817E+01  0.000000000000E+00
  0.447911099250E-05 -0.463157892227E+01  0.000000000000E+00
  0.447911142961E-05 -0.421052646637E+01  0.000000000000E+00
  0.447911258705E-05 -0.378947377205E+01  0.000000000000E+00
  0.447911258705E-05 -0.336842107773E+01  0.000000000000E+00
  0.447911258705E-05 -0.294736838341E+01  0.000000000000E+00
  0.447911214996E-05 -0.252631568909E+01  0.000000000000E+00
  0.447911142965E-05 -0.210526323318E+01  0.000000000000E+00
  0.447911258705E-05 -0.168421053886E+01  0.000000000000E+00
  0.447911236849E-05 -0.126315784454E+01  0.000000000000E+00
  0.447911189904E-05 -0.842105269432E+00  0.182066632791E-21
  0.447911218842E-05 -0.421052634716E+00  0.000000000000E+00
  0.476456375309E-05  0.000000000000E+00  0.000000000000E+00
  0.447911218842E-05  0.421052634716E+00  0.000000000000E+00
  0.447911189904E-05  0.842105269432E+00  0.182066632791E-21
  0.447911236849E-05  0.126315784454E+01  0.000000000000E+00
  0.447911258705E-05  0.168421053886E+01  0.000000000000E+00
  0.447911142965E-05  0.210526323318E+01  0.000000000000E+00
  0.447911214996E-05  0.252631568909E+01  0.000000000000E+00
  0.447911258705E-05  0.294736838341E+01  0.000000000000E+00
  0.447911258705E-05  0.336842107773E+01  0.000000000000E+00
  0.447911258705E-05  0.378947377205E+01  0.000000000000E+00
  0.447911142961E-05  0.421052646637E+01  0.000000000000E+00
  0.447911099250E-05  0.463157892227E+01  0.000000000000E+00
  0.447911330738E-05  0.505263137817E+01  0.000000000000E+00
  0.447911186676E-05  0.547368431091E+01  0.000000000000E+00
  0.447911330735E-05  0.589473676682E+01  0.000000000000E+00
  0.447911186674E-05  0.631578969955E+01  0.000000000000E+00
  0.447911099252E-05  0.673684215546E+01  0.000000000000E+00
  0.447911330738E-05  0.715789461136E+01  0.000000000000E+00
  0.447911186671E-05  0.757894754410E+01  0.000000000000E+00
  0.254366756317E-05  0.799999770501E+01  0.808768670280E-21
  0.257792941477E+00 -0.813179767392E+01 -0.140524563986E-15
  0.257792938451E+00 -0.809319512484E+01 -0.931951994684E-01
  0.257792938451E+00 -0.809319512484E+01  0.931951994684E-01
  0.257793344885E+00 -0.799999933573E+01 -0.131796711276E+00
  0.257793344885E+00 -0.799999933573E+01  0.131796711276E+00
  0.257793646802E+00 -0.757894754410E+01 -0.131795735340E+00
  0.257793646802E+00 -0.757894754410E+01  0.131795735340E+00
  0.257793646802E+00 -0.715789461136E+01 -0.131795735340E+00
  0.257793646802E+00 -0.715789461136E+01  0.131795735340E+00
  0.257793646801E+00 -0.673684215546E+01 -0.131795735341E+00
  0.257793646801E+00 -0.673684215546E+01  0.131795735341E+00
  0.257793646802E+00 -0.631578969955E+01 -0.131795735340E+00
  0.257793646802E+00 -0.631578969955E+01  0.131795735340E+00
  0.257793646802E+00 -0.589473676682E+01 -0.131795735340E+00
  0.257793646802E+00 -0.589473676682E+01  0.131795735340E+00
  0.257793646802E+00 -0.547368431091E+01 -0.131795735340E+00
  0.257793646802E+00 -0.547368431091E+01  0.131795735340E+00
  0.257793646802E+00 -0.505263137817E+01 -0.131795735340E+00
  0.257793646802E+00 -0.505263137817E+01  0.131795735340E+00
  0.257793646801E+00 -0.463157892227E+01 -0.131795735341E+00
  0.257793646801E+00 -0.463157892227E+01  0.131795735341E+00
  0.257793646802E+00 -0.421052646637E+01 -0.131795735341E+00
  0.257793646802E+00 -0.421052646637E+01  0.131795735341E+00
  0.257793646802E+00 -0.378947377205E+01 -0.131795735340E+00
  0.257793646802E+00 -0.378947377205E+01  0.131795735340E+00
  0.257793646802E+00 -0.336842107773E+01 -0.131795735340E+00
  0.257793646802E+00 -0.336842107773E+01  0.131795735340E+00
  0.257793646802E+00 -0.294736838341E+01 -0.131795735340E+00
  0.257793646802E+00 -0.294736838341E+01  0.131795735340E+00
  0.257793646802E+00 -0.252631568909E+01 -0.131795735341E+00
  0.257793646802E+00 -0.252631568909E+01  0.131795735341E+00
  0.257793646802E+00 -0.210526323318E+01 -0.131795735341E+00
  0.257793646802E+00 -0.210526323318E+01  0.131795735341E+00
  0.257793646802E+00 -0.168421053886E+01 -0.131795735340E+00
  0.257793646802E+00 -0.168421053886E+01  0.131795735340E+00
  0.257793646802E+00 -0.126315784454E+01 -0.131795735340E+00
  0.257793646802E+00 -0.126315784454E+01  0.131795735340E+00
  0.257793646802E+00 -0.842105269432E+00 -0.131795735340E+00
  0.257793646802E+00 -0.842105269432E+00  0.131795735340E+00
  0.257793646802E+00 -0.421052634716E+00 -0.131795735340E+00
  0.257793646802E+00 -0.421052634716E+00  0.131795735340E+00
  0.257793408580E+00  0.000000000000E+00 -0.131795675270E+00
  0.257793408580E+00  0.000000000000E+00  0.131795675270E+00
  0.257793646802E+00  0.421052634716E+00 -0.131795735340E+00
  0.257793646802E+00  0.421052634716E+00  0.131795735340E+00
  0.257793646802E+00  0.842105269432E+00 -0.131795735340E+00
  0.257793646802E+00  0.842105269432E+00  0.131795735340E+00
  0.257793646802E+00  0.126315784454E+01 -0.131795735340E+00
  0.257793646802E+00  0.126315784454E+01  0.131795735340E+00
  0.257793646802E+00  0.168421053886E+01 -0.131795735340E+00
  0.257793646802E+00  0.168421053886E+01  0.131795735340E+00
  0.257793646802E+00  0.210526323318E+01 -0.131795735341E+00
  0.257793646802E+00  0.210526323318E+01  0.131795735341E+00
  0.257793646802E+00  0.252631568909E+01 -0.131795735341E+00
  0.257793646802E+00  0.252631568909E+01  0.131795735341E+00
  0.257793646802E+00  0.294736838341E+01 -0.131795735340E+00
  0.257793646802E+00  0.294736838341E+01  0.131795735340E+00
  0.257793646802E+00  0.336842107773E+01 -0.131795735340E+00
  0.257793646802E+00  0.336842107773E+01  0.131795735340E+00
  0.257793646802E+00  0.378947377205E+01 -0.131795735340E+00
  0.257793646802E+00  0.378947377205E+01  0.131795735340E+00
  0.257793646802E+00  0.421052646637E+01 -0.131795735341E+00
  0.257793646802E+00  0.421052646637E+01  0.131795735341E+00
  0.257793646801E+00  0.463157892227E+01 -0.131795735341E+00
  0.257793646801E+00  0.463157892227E+01  0.131795735341E+00
  0.257793646802E+00  0.505263137817E+01 -0.131795735340E+00
  0.257793646802E+00  0.505263137817E+01  0.131795735340E+00
  0.257793646802E+00  0.547368431091E+01 -0.131795735340E+00
  0.257793646802E+00  0.547368431091E+01  0.131795735340E+00
  0.257793646802E+00  0.589473676682E+01 -0.131795735340E+00
  0.257793646802E+00  0.589473676682E+01  0.131795735340E+00
  0.257793646802E+00  0.631578969955E+01 -0.131795735340E+00
  0.257793646802E+00  0.631578969955E+01  0.131795735340E+00
  0.257793646801E+00  0.673684215546E+01 -0.131795735341E+00
  0.257793646801E+00  0.673684215546E+01  0.131795735341E+00
  0.257793646802E+00  0.715789461136E+01 -0.131795735340E+00
  0.257793646802E+00  0.715789461136E+01  0.131795735340E+00
  0.257793646802E+00  0.757894754410E+01 -0.131795735340E+00
  0.257793646802E+00  0.757894754410E+01  0.131795735340E+00
  0.257793344885E+00  0.799999933573E+01 -0.131796711276E+00
  0.257793344885E+00  0.799999933573E+01  0.131796711276E+00
  0.257792938451E+00  0.809319512484E+01 -0.931951994684E-01
  0.257792938451E+00  0.809319512484E+01  0.931951994684E-01
  0.257792941477E+00  0.813179767392E+01 -0.140524563986E-15
  0.536310984225E+00 -0.817226724107E+01  0.124536798326E-17
  0.536310951866E+00 -0.812181100008E+01 -0.121811262543E+00
  0.536310951866E+00 -0.812181100008E+01  0.121811262543E+00
  0.536311043437E+00 -0.799999932197E+01 -0.172266299248E+00
  0.536311043437E+00 -0.799999932197E+01  0.172266299248E+00
  0.536311145390E+00 -0.757894754410E+01 -0.172265343804E+00
  0.536311145390E+00 -0.757894754410E+01  0.172265343804E+00
  0.536311145390E+00 -0.715789461136E+01 -0.172265343804E+00
  0.536311145390E+00 -0.715789461136E+01  0.172265343804E+00
  0.536311145389E+00 -0.673684215546E+01 -0.172265343806E+00
  0.536311145389E+00 -0.673684215546E+01  0.172265343806E+00
  0.536311145390E+00 -0.631578969955E+01 -0.172265343804E+00
  0.536311145390E+00 -0.631578969955E+01  0.172265343804E+00
  0.536311145390E+00 -0.589473676682E+01 -0.172265343804E+00
  0.536311145390E+00 -0.589473676682E+01  0.172265343804E+00
  0.536311145390E+00 -0.547368431091E+01 -0.172265343804E+00
  0.536311145390E+00 -0.547368431091E+01  0.172265343804E+00
  0.536311145390E+00 -0.505263137817E+01 -0.172265343804E+00
  0.536311145390E+00 -0.505263137817E+01  0.172265343804E+00
  0.536311145389E+00 -0.463157892227E+01 -0.172265343806E+00
  0.536311145389E+00 -0.463157892227E+01  0.172265343806E+00
  0.536311145389E+00 -0.421052646637E+01 -0.172265343805E+00
  0.536311145389E+00 -0.421052646637E+01  0.172265343805E+00
  0.536311145390E+00 -0.378947377205E+01 -0.172265343804E+00
  0.536311145390E+00 -0.378947377205E+01  0.172265343804E+00
  0.536311145390E+00 -0.336842107773E+01 -0.172265343804E+00
  0.536311145390E+00 -0.336842107773E+01  0.172265343804E+00
  0.536311145390E+00 -0.294736838341E+01 -0.172265343804E+00
  0.536311145390E+00 -0.294736838341E+01  0.172265343804E+00
  0.536311145389E+00 -0.252631568909E+01 -0.172265343805E+00
  0.536311145389E+00 -0.252631568909E+01  0.172265343805E+00
  0.536311145389E+00 -0.210526323318E+01 -0.172265343805E+00
  0.536311145389E+00 -0.210526323318E+01  0.172265343805E+00
  0.536311145390E+00 -0.168421053886E+01 -0.172265343804E+00
  0.536311145390E+00 -0.168421053886E+01  0.172265343804E+00
  0.536311145390E+00 -0.126315784454E+01 -0.172265343805E+00
  0.536311145390E+00 -0.126315784454E+01  0.172265343805E+00
  0.536311145389E+00 -0.842105269432E+00 -0.172265343805E+00
[...]
POINT_DATA                1375
SCALARS phi float 1
LOOKUP_TABLE default
  0.000000000000E+00
  0.360822483003E-15
 -0.832667268469E-16
  0.888178419700E-15
  0.111022302463E-15
  0.111022302463E-15
  0.610622663544E-15
  0.749400541622E-15
  0.804911692853E-15
 -0.333066907388E-15
  0.194289029309E-15
  0.527355936697E-15
 -0.693889390391E-15
  0.555111512313E-16
 -0.194289029309E-15
 -0.416333634234E-15
  0.194289029309E-15
 -0.721644966006E-15
 -0.222044604925E-15
  0.333066907388E-15
 -0.555111512313E-16
 -0.555111512313E-15
  0.277555756156E-16
 -0.527355936697E-15
  0.277555756156E-15
  0.416333634234E-15
  0.388578058619E-15
 -0.749400541622E-15
 -0.333066907388E-15
 -0.416333634234E-15
 -0.388578058619E-15
 -0.333066907388E-15
  0.832667268469E-16
 -0.305311331772E-15
  0.416333634234E-15
  0.471844785466E-15
 -0.111022302463E-15
  0.360822483003E-15
 -0.555111512313E-15
  0.610622663544E-15
  0.138777878078E-15
 -0.333066907388E-15
 -0.166533453694E-15
 -0.402455846427E-15
 -0.277555756156E-16
  0.166533453694E-15
 -0.124900090270E-14
 -0.666133814775E-15
  0.305311331772E-15
  0.832667268469E-15
  0.555111512313E-16
  0.111022302463E-15
 -0.194289029309E-15
 -0.249800180541E-15
 -0.416333634234E-15
  0.832667268469E-16
  0.444089209850E-15
 -0.416333634234E-15
  0.388578058619E-15
  0.111022302463E-15
 -0.249800180541E-15
 -0.832667268469E-16
 -0.111022302463E-15
 -0.138777878078E-15
  0.555111512313E-15
  0.555111512313E-15
  0.277555756156E-16
  0.249800180541E-15
  0.832667268469E-16
  0.108246744901E-14
  0.416333634234E-15
 -0.444089209850E-15
 -0.555111512313E-16
 -0.360822483003E-15
 -0.138777878078E-15
 -0.860422844084E-15
 -0.416333634234E-15
 -0.111022302463E-15
  0.333066907388E-15
 -0.102695629778E-14
  0.305311331772E-15
 -0.388578058619E-15
 -0.249800180541E-15
  0.249800180541E-15
  0.832667268469E-16
 -0.166533453694E-15
  0.832667268469E-16
  0.333066907388E-15
  0.111022302463E-15
 -0.194289029309E-15
 -0.832667268469E-16
  0.277555756156E-16
  0.444089209850E-15
 -0.277555756156E-15
 -0.388578058619E-15
 -0.277555756156E-16
 -0.194289029309E-15
  0.194289029309E-15
  0.555111512313E-16
 -0.471844785466E-15
  0.666133814775E-15
  0.111022302463E-15
 -0.666133814775E-15
  0.832667268469E-16
  0.333066907388E-15
  0.832667268469E-16
 -0.693889390391E-15
 -0.527355936697E-15
 -0.249800180541E-15
 -0.305311331772E-15
  0.194289029309E-15
 -0.194289029309E-15
  0.444089209850E-15
  0.166533453694E-15
  0.610622663544E-15
  0.111022302463E-15
  0.360822483003E-15
 -0.555111512313E-16
 -0.235922392733E-15
 -0.555111512313E-16
  0.000000000000E+00
 -0.291433543964E-15
 -0.166533453694E-15
 -0.360822483003E-15
  0.138777878078E-15
 -0.166533453694E-15
  0.166533453694E-15
  0.152655665886E-15
  0.138777878078E-15
 -0.166533453694E-15
  0.235922392733E-15
 -0.111022302463E-15
  0.499600361081E-15
 -0.444089209850E-15
 -0.111022302463E-15
 -0.416333634234E-16
 -0.832667268469E-16
 -0.249800180541E-15
  0.555111512313E-16
  0.388578058619E-15
  0.555111512313E-16
 -0.388578058619E-15
 -0.222044604925E-15
 -0.832667268469E-16
 -0.277555756156E-15
 -0.166533453694E-15
  0.222044604925E-15
 -0.555111512313E-16
 -0.194289029309E-15
 -0.138777878078E-15
 -0.305311331772E-15
 -0.638378239159E-15
 -0.555111512313E-16
 -0.111022302463E-15
  0.138777878078E-15
  0.666133814775E-15
 -0.138777878078E-15
  0.333066907388E-15
  0.138777878078E-15
 -0.638378239159E-15
  0.444089209850E-15
 -0.249800180541E-15
 -0.138777878078E-15
  0.277555756156E-16
  0.499600361081E-15
  0.111022302463E-15
 -0.832667268469E-16
 -0.555111512313E-15
  0.333066907388E-15
 -0.416333634234E-15
  0.222044604925E-15
  0.666133814775E-15
 -0.499600361081E-15
  0.194289029309E-15
  0.777156117238E-15
  0.388578058619E-15
 -0.138777878078E-15
  0.444089209850E-15
  0.194289029309E-15
 -0.111022302463E-15
 -0.832667268469E-16
  0.166533453694E-15
 -0.693889390391E-16
  0.138777878078E-15
 -0.457966997658E-15
 -0.111022302463E-15
  0.166533453694E-15
 -0.444089209850E-15
  0.319189119580E-15
  0.166533453694E-15
  0.471844785466E-15
  0.249800180541E-15
 -0.555111512313E-16
  0.166533453694E-15
 -0.235922392733E-15
 -0.222044604925E-15
 -0.152655665886E-15
  0.416333634234E-15
  0.124900090270E-15
 -0.138777878078E-15
  0.222044604925E-15
 -0.305311331772E-15
 -0.138777878078E-15
 -0.124900090270E-15
 -0.138777878078E-16
 -0.222044604925E-15
  0.152655665886E-15
 -0.138777878078E-16
 -0.832667268469E-16
  0.173472347598E-15
  0.208166817117E-16
 -0.277555756156E-16
 -0.416333634234E-15
  0.277555756156E-15
 -0.402455846427E-15
 -0.138777878078E-15
  0.249800180541E-15
  0.971445146547E-16
 -0.832667268469E-16
  0.416333634234E-16
  0.291433543964E-15
 -0.416333634234E-16
 -0.416333634234E-16
 -0.152655665886E-15
 -0.277555756156E-16
  0.111022302463E-15
  0.208166817117E-15
 -0.194289029309E-15
  0.416333634234E-16
 -0.555111512313E-16
  0.693889390391E-16
 -0.360822483003E-15
  0.152655665886E-15
 -0.555111512313E-16
 -0.416333634234E-16
 -0.693889390391E-16
  0.971445146547E-16
  0.693889390391E-16
  0.111022302463E-15
  0.277555756156E-16
  0.152655665886E-15
  0.263677968348E-15
 -0.180411241502E-15
  0.416333634234E-15
  0.832667268469E-16
  0.277555756156E-15
 -0.277555756156E-16
  0.138777878078E-16
 -0.180411241502E-15
  0.152655665886E-15
  0.277555756156E-15
  0.111022302463E-15
 -0.166533453694E-15
  0.152655665886E-15
  0.416333634234E-16
  0.499600361081E-15
 -0.374700270811E-15
  0.124900090270E-15
 -0.277555756156E-16
  0.208166817117E-15
 -0.416333634234E-16
  0.416333634234E-16
 -0.138777878078E-16
  0.832667268469E-16
  0.152655665886E-15
  0.000000000000E+00
 -0.111022302463E-15
 -0.138777878078E-16
 -0.111022302463E-15
  0.194289029309E-15
  0.138777878078E-15
  0.555111512313E-16
 -0.277555756156E-16
  0.305311331772E-15
  0.416333634234E-16
  0.111022302463E-15
 -0.305311331772E-15
  0.971445146547E-16
  0.124900090270E-15
  0.124900090270E-15
 -0.832667268469E-16
 -0.416333634234E-16
  0.000000000000E+00
  0.832667268469E-16
 -0.138777878078E-16
  0.166533453694E-15
 -0.222044604925E-15
 -0.166533453694E-15
  0.902056207508E-16
 -0.138777878078E-16
  0.346944695195E-16
 -0.346944695195E-16
 -0.346944695195E-16
 -0.797972798949E-16
 -0.277555756156E-16
  0.416333634234E-16
 -0.624500451352E-16
 -0.117961196366E-15
  0.000000000000E+00
 -0.173472347598E-15
 -0.208166817117E-16
 -0.138777878078E-16
  0.117961196366E-15
 -0.222044604925E-15
  0.693889390391E-16
  0.208166817117E-16
 -0.117961196366E-15
 -0.416333634234E-16
  0.485722573274E-16
 -0.194289029309E-15
  0.624500451352E-16
  0.138777878078E-16
  0.485722573274E-16
  0.902056207508E-16
 -0.124900090270E-15
  0.124900090270E-15
 -0.693889390391E-17
 -0.693889390391E-17
 -0.763278329430E-16
 -0.693889390391E-16
  0.277555756156E-16
  0.693889390391E-17
 -0.346944695195E-16
  0.131838984174E-15
 -0.208166817117E-16
 -0.624500451352E-16
  0.166533453694E-15
 -0.173472347598E-15
  0.277555756156E-16
  0.152655665886E-15
 -0.763278329430E-16
 -0.416333634234E-16
 -0.693889390391E-16
  0.971445146547E-16
 -0.555111512313E-16
 -0.249800180541E-15
 -0.138777878078E-15
 -0.346944695195E-15
  0.693889390391E-17
 -0.263677968348E-15
  0.971445146547E-16
  0.693889390391E-16
 -0.832667268469E-16
 -0.305311331772E-15
  0.555111512313E-16
 -0.277555756156E-16
  0.117961196366E-15
 -0.166533453694E-15
 -0.208166817117E-16
 -0.277555756156E-16
 -0.346944695195E-16
  0.249800180541E-15
 -0.173472347598E-15
  0.832667268469E-16
  0.111022302463E-15
 -0.111022302463E-15
  0.832667268469E-16
  0.693889390391E-16
  0.624500451352E-16
 -0.194289029309E-15
  0.971445146547E-16
  0.971445146547E-16
  0.117961196366E-15
 -0.319189119580E-15
 -0.215105711021E-15
 -0.249800180541E-15
  0.111022302463E-15
 -0.693889390391E-16
 -0.117961196366E-15
 -0.159594559790E-15
  0.277555756156E-16
  0.693889390391E-16
  0.124900090270E-15
 -0.416333634234E-16
  0.242861286637E-16
  0.135308431126E-15
 -0.121430643318E-16
 -0.173472347598E-17
  0.971445146547E-16
  0.537764277553E-16
  0.346944695195E-17
 -0.589805981832E-16
  0.329597460436E-16
  0.346944695195E-17
  0.173472347598E-16
  0.312250225676E-16
 -0.225514051877E-16
 -0.589805981832E-16
  0.520417042793E-17
  0.138777878078E-16
  0.346944695195E-17
  0.208166817117E-16
 -0.589805981832E-16
  0.138777878078E-15
 -0.312250225676E-16
 -0.693889390391E-16
  0.000000000000E+00
 -0.520417042793E-16
 -0.381639164715E-16
 -0.659194920871E-16
  0.277555756156E-16
 -0.312250225676E-16
  0.659194920871E-16
 -0.693889390391E-17
 -0.242861286637E-16
 -0.104083408559E-15
 -0.693889390391E-16
 -0.173472347598E-16
  0.242861286637E-16
  0.555111512313E-16
  0.173472347598E-16
 -0.589805981832E-16
 -0.416333634234E-16
 -0.902056207508E-16
  0.346944695195E-17
 -0.104083408559E-16
 -0.346944695195E-16
  0.100613961607E-15
 -0.416333634234E-16
  0.111022302463E-15
 -0.346944695195E-17
  0.117961196366E-15
 -0.107552855511E-15
 -0.346944695195E-16
 -0.173472347598E-16
 -0.104083408559E-15
 -0.104083408559E-16
  0.485722573274E-16
 -0.624500451352E-16
  0.346944695195E-16
 -0.242861286637E-16
 -0.693889390391E-17
  0.832667268469E-16
  0.416333634234E-16
 -0.451028103754E-16
 -0.117961196366E-15
 -0.381639164715E-16
 -0.117961196366E-15
 -0.277555756156E-16
  0.000000000000E+00
  0.312250225676E-16
 -0.416333634234E-16
  0.520417042793E-16
  0.346944695195E-16
 -0.555111512313E-16
  0.416333634234E-16
 -0.104083408559E-16
  0.121430643318E-15
  0.555111512313E-16
 -0.485722573274E-16
 -0.520417042793E-16
  0.104083408559E-16
 -0.121430643318E-16
 -0.693889390391E-17
 -0.294902990916E-16
  0.659194920871E-16
 -0.138777878078E-16
 -0.381639164715E-16
 -0.520417042793E-17
 -0.685215773011E-16
  0.260208521397E-16
  0.108420217249E-15
  0.156125112838E-16
 -0.127068494615E-15
 -0.503069808033E-16
 -0.398986399475E-16
 -0.277555756156E-16
  0.834835672814E-17
  0.312250225676E-16
 -0.552943107968E-17
 -0.468375338514E-16
  0.173472347598E-17
 -0.485722573274E-16
 -0.374049749507E-17
  0.242861286637E-16
  0.114925430283E-16
  0.537764277553E-16
 -0.114925430283E-16
 -0.398986399475E-16
 -0.477048955894E-17
  0.138777878078E-16
  0.130104260698E-17
 -0.173472347598E-17
 -0.455364912444E-17
 -0.156125112838E-16
  0.346944695195E-17
 -0.346944695195E-17
 -0.106251812904E-16
 -0.693889390391E-17
  0.125767452008E-16
 -0.208166817117E-16
  0.477048955894E-17
  0.555111512313E-16
 -0.238524477947E-17
 -0.346944695195E-17
 -0.238524477947E-17
 -0.173472347598E-16
  0.138777878078E-16
 -0.242861286637E-16
 -0.151788304148E-16
 -0.260208521397E-16
  0.346944695195E-17
 -0.156125112838E-16
  0.954097911787E-17
  0.954097911787E-17
 -0.390312782095E-17
  0.173472347598E-16
 -0.186482773668E-16
  0.121430643318E-16
  0.823993651089E-17
 -0.164798730218E-16
 -0.954097911787E-17
 -0.468375338514E-16
  0.173472347598E-17
 -0.156125112838E-16
 -0.346944695195E-17
 -0.173472347598E-16
 -0.520417042793E-17
 -0.867361737988E-17
 -0.164798730218E-16
  0.225514051877E-16
 -0.173472347598E-17
 -0.867361737988E-17
  0.303576608296E-17
 -0.130104260698E-16
 -0.121430643318E-16
 -0.867361737988E-18
 -0.212503625807E-16
 -0.199493199737E-16
  0.346944695195E-17
  0.208166817117E-16
 -0.190819582357E-16
 -0.572458747072E-16
  0.433680868994E-17
  0.346944695195E-17
 -0.477048955894E-17
  0.000000000000E+00
  0.813151629364E-18
 -0.338271077815E-16
  0.626126754610E-17
  0.433680868994E-17
  0.184314369323E-16
 -0.108420217249E-16
 -0.277555756156E-16
  0.000000000000E+00
  0.104083408559E-15
 -0.104083408559E-16
  0.659194920871E-16
  0.000000000000E+00
 -0.111022302463E-15
  0.208166817117E-15
  0.104083408559E-16
 -0.624500451352E-16
 -0.104083408559E-16
  0.555111512313E-16
 -0.451028103754E-16
  0.104083408559E-15
 -0.208166817117E-16
  0.485722573274E-16
 -0.693889390391E-17
 -0.187350135405E-15
  0.832667268469E-16
  0.117961196366E-15
  0.451028103754E-16
 -0.138777878078E-15
 -0.242861286637E-16
 -0.485722573274E-16
 -0.346944695195E-17
 -0.485722573274E-16
  0.728583859910E-16
 -0.277555756156E-16
 -0.312250225676E-16
  0.131838984174E-15
  0.346944695195E-16
 -0.104083408559E-15
 -0.104083408559E-16
  0.201227923213E-15
  0.277555756156E-16
  0.138777878078E-15
  0.277555756156E-16
  0.485722573274E-16
  0.277555756156E-16
  0.277555756156E-16
 -0.346944695195E-17
 -0.485722573274E-16
  0.451028103754E-16
 -0.138777878078E-16
 -0.312250225676E-16
 -0.138777878078E-16
 -0.208166817117E-16
 -0.902056207508E-16
 -0.416333634234E-16
  0.145716771982E-15
  0.173472347598E-16
 -0.763278329430E-16
  0.173472347598E-16
 -0.555111512313E-16
  0.312250225676E-16
 -0.145716771982E-15
 -0.104083408559E-16
 -0.277555756156E-16
  0.173472347598E-16
  0.138777878078E-16
 -0.589805981832E-16
 -0.902056207508E-16
 -0.277555756156E-16
 -0.485722573274E-16
  0.346944695195E-16
  0.416333634234E-16
  0.693889390391E-17
  0.346944695195E-16
  0.100613961607E-15
 -0.624500451352E-16
 -0.104083408559E-16
 -0.693889390391E-17
  0.104083408559E-15
  0.520417042793E-16
  0.208166817117E-16
  0.107552855511E-15
  0.208166817117E-16
 -0.485722573274E-16
  0.867361737988E-16
  0.381639164715E-16
 -0.208166817117E-16
 -0.936750677027E-16
 -0.797972798949E-16
 -0.520417042793E-16
  0.485722573274E-16
  0.124900090270E-15
 -0.659194920871E-16
 -0.763278329430E-16
  0.000000000000E+00
  0.555111512313E-16
  0.416333634234E-16
  0.208166817117E-16
  0.180411241502E-15
  0.693889390391E-17
 -0.117961196366E-15
  0.131838984174E-15
  0.693889390391E-16
  0.208166817117E-16
  0.693889390391E-16
  0.277555756156E-16
  0.208166817117E-16
 -0.319189119580E-15
  0.485722573274E-16
  0.138777878078E-15
 -0.138777878078E-15
 -0.131838984174E-15
  0.693889390391E-16
 -0.555111512313E-16
  0.763278329430E-16
 -0.111022302463E-15
  0.138777878078E-16
  0.902056207508E-16
  0.124900090270E-15
 -0.971445146547E-16
 -0.902056207508E-16
 -0.346944695195E-16
  0.111022302463E-15
 -0.138777878078E-16
  0.131838984174E-15
  0.131838984174E-15
 -0.124900090270E-15
 -0.763278329430E-16
  0.166533453694E-15
  0.485722573274E-16
 -0.971445146547E-16
  0.111022302463E-15
  0.346944695195E-16
  0.111022302463E-15
  0.763278329430E-16
 -0.346944695195E-16
  0.832667268469E-16
 -0.693889390391E-17
 -0.624500451352E-16
 -0.693889390391E-16
 -0.173472347598E-15
  0.228983498829E-15
 -0.693889390391E-16
 -0.117961196366E-15
  0.485722573274E-16
 -0.693889390391E-16
  0.763278329430E-16
 -0.346944695195E-16
 -0.693889390391E-17
  0.693889390391E-17
  0.902056207508E-16
 -0.131838984174E-15
  0.152655665886E-15
 -0.971445146547E-16
  0.277555756156E-16
 -0.222044604925E-15
 -0.173472347598E-15
 -0.346944695195E-16
  0.346944695195E-16
 -0.346944695195E-16
 -0.416333634234E-16
  0.235922392733E-15
 -0.208166817117E-16
 -0.763278329430E-16
 -0.208166817117E-15
  0.763278329430E-16
 -0.832667268469E-16
 -0.416333634234E-16
  0.346944695195E-16
 -0.555111512313E-16
 -0.624500451352E-16
  0.693889390391E-17
  0.693889390391E-16
 -0.624500451352E-16
 -0.763278329430E-16
  0.693889390391E-17
  0.277555756156E-16
  0.555111512313E-16
 -0.693889390391E-17
 -0.104083408559E-15
 -0.416333634234E-16
  0.319189119580E-15
  0.131838984174E-15
  0.180411241502E-15
  0.152655665886E-15
 -0.152655665886E-15
  0.971445146547E-16
 -0.152655665886E-15
 -0.277555756156E-16
 -0.277555756156E-16
  0.832667268469E-16
  0.222044604925E-15
  0.263677968348E-15
 -0.555111512313E-16
 -0.319189119580E-15
 -0.138777878078E-16
 -0.138777878078E-16
 -0.444089209850E-15
 -0.124900090270E-15
 -0.360822483003E-15
 -0.555111512313E-16
  0.222044604925E-15
  0.416333634234E-16
  0.555111512313E-16
 -0.124900090270E-15
 -0.166533453694E-15
  0.138777878078E-16
  0.166533453694E-15
 -0.277555756156E-16
 -0.166533453694E-15
 -0.138777878078E-15
 -0.305311331772E-15
 -0.222044604925E-15
  0.111022302463E-15
 -0.124900090270E-15
 -0.971445146547E-16
  0.555111512313E-16
  0.000000000000E+00
  0.555111512313E-16
  0.416333634234E-16
 -0.832667268469E-16
 -0.360822483003E-15
 -0.693889390391E-16
 -0.138777878078E-16
  0.152655665886E-15
 -0.430211422042E-15
  0.277555756156E-16
  0.180411241502E-15
  0.152655665886E-15
 -0.416333634234E-16
 -0.208166817117E-15
 -0.111022302463E-15
  0.194289029309E-15
  0.138777878078E-15
 -0.333066907388E-15
 -0.249800180541E-15
  0.277555756156E-15
  0.416333634234E-16
  0.124900090270E-15
 -0.111022302463E-15
 -0.555111512313E-16
  0.194289029309E-15
  0.832667268469E-16
 -0.111022302463E-15
 -0.104083408559E-15
 -0.416333634234E-16
  0.277555756156E-16
  0.194289029309E-15
 -0.902056207508E-16
 -0.138777878078E-16
 -0.208166817117E-16
  0.180411241502E-15
 -0.152655665886E-15
 -0.693889390391E-16
  0.277555756156E-16
 -0.173472347598E-15
  0.693889390391E-16
 -0.131838984174E-15
 -0.693889390391E-16
  0.277555756156E-16
  0.832667268469E-16
 -0.117961196366E-15
 -0.138777878078E-15
 -0.138777878078E-15
 -0.124900090270E-15
 -0.416333634234E-16
  0.555111512313E-16
  0.263677968348E-15
 -0.166533453694E-15
 -0.444089209850E-15
 -0.277555756156E-16
  0.277555756156E-16
 -0.152655665886E-15
 -0.138777878078E-16
 -0.444089209850E-15
  0.152655665886E-15
  0.138777878078E-16
  0.416333634234E-16
 -0.249800180541E-15
  0.000000000000E+00
  0.263677968348E-15
  0.138777878078E-16
  0.166533453694E-15
  0.194289029309E-15
  0.249800180541E-15
 -0.277555756156E-16
  0.235922392733E-15
  0.152655665886E-15
  0.693889390391E-16
  0.000000000000E+00
 -0.416333634234E-15
  0.277555756156E-16
 -0.249800180541E-15
 -0.693889390391E-16
 -0.263677968348E-15
 -0.222044604925E-15
  0.832667268469E-16
 -0.555111512313E-16
  0.457966997658E-15
  0.124900090270E-15
  0.971445146547E-16
  0.346944695195E-15
  0.277555756156E-16
 -0.235922392733E-15
 -0.124900090270E-15
 -0.693889390391E-16
 -0.277555756156E-16
 -0.124900090270E-15
  0.971445146547E-16
  0.249800180541E-15
 -0.832667268469E-16
 -0.138777878078E-15
  0.416333634234E-16
  0.249800180541E-15
 -0.263677968348E-15
  0.291433543964E-15
 -0.152655665886E-15
  0.138777878078E-16
  0.000000000000E+00
 -0.249800180541E-15
 -0.277555756156E-15
 -0.152655665886E-15
  0.693889390391E-16
 -0.416333634234E-16
  0.166533453694E-15
 -0.971445146547E-16
 -0.166533453694E-15
 -0.416333634234E-16
  0.180411241502E-15
  0.249800180541E-15
  0.138777878078E-16
  0.263677968348E-15
  0.152655665886E-15
  0.138777878078E-15
  0.693889390391E-16
 -0.832667268469E-16
 -0.277555756156E-16
  0.166533453694E-15
 -0.111022302463E-15
  0.485722573274E-16
  0.971445146547E-16
 -0.902056207508E-16
  0.111022302463E-15
 -0.485722573274E-16
 -0.624500451352E-16
  0.152655665886E-15
 -0.277555756156E-16
  0.111022302463E-15
  0.138777878078E-16
 -0.319189119580E-15
 -0.111022302463E-15
 -0.263677968348E-15
  0.832667268469E-16
  0.000000000000E+00
 -0.416333634234E-16
 -0.166533453694E-15
 -0.166533453694E-15
 -0.693889390391E-16
 -0.152655665886E-15
 -0.111022302463E-15
 -0.416333634234E-16
 -0.277555756156E-16
  0.138777878078E-15
 -0.180411241502E-15
  0.499600361081E-15
  0.208166817117E-15
  0.971445146547E-16
 -0.971445146547E-16
  0.374700270811E-15
 -0.235922392733E-15
 -0.305311331772E-15
 -0.305311331772E-15
  0.194289029309E-15
  0.208166817117E-15
  0.305311331772E-15
 -0.416333634234E-16
 -0.693889390391E-16
  0.208166817117E-15
  0.555111512313E-16
 -0.208166817117E-15
 -0.138777878078E-15
 -0.555111512313E-16
  0.152655665886E-15
  0.124900090270E-15
  0.374700270811E-15
  0.832667268469E-16
 -0.416333634234E-16
 -0.555111512313E-16
  0.138777878078E-16
 -0.124900090270E-15
 -0.971445146547E-16
  0.430211422042E-15
 -0.360822483003E-15
  0.832667268469E-16
 -0.277555756156E-16
  0.166533453694E-15
 -0.291433543964E-15
 -0.263677968348E-15
 -0.971445146547E-16
  0.971445146547E-16
 -0.235922392733E-15
 -0.138777878078E-15
 -0.194289029309E-15
  0.222044604925E-15
 -0.166533453694E-15
 -0.249800180541E-15
 -0.124900090270E-15
  0.832667268469E-16
  0.249800180541E-15
 -0.416333634234E-16
  0.277555756156E-15