# vtk DataFile Version 3.0
MachLine results file. Generated by MachLine, USU AeroLab (c) 2022.
ASCII
DATASET POLYDATA
POINTS                  78 float
  0.400000000000E+01 -0.210526323318E+01  0.000000000000E+00
  0.962840579882E+02  0.255799541633E+02 -0.922840579882E+01
  0.400000000000E+01 -0.252631568909E+01  0.000000000000E+00
  0.963988904761E+02  0.251933514537E+02 -0.923988904761E+01
  0.400000000000E+01  0.252631568909E+01  0.000000000000E+00
  0.950209001003E+02  0.298325857192E+02 -0.910209001003E+01
  0.400000000000E+01  0.210526323318E+01  0.000000000000E+00
  0.951357325882E+02  0.294459830097E+02 -0.911357325882E+01
  0.400000000000E+01  0.421052634716E+00  0.000000000000E+00
  0.955950627515E+02  0.278995714602E+02 -0.915950627515E+01
  0.400000000000E+01  0.000000000000E+00  0.000000000000E+00
  0.957098952882E+02  0.275129685865E+02 -0.917098952882E+01
  0.400000000000E+01 -0.673684215546E+01  0.000000000000E+00
  0.975472158760E+02  0.213273226074E+02 -0.935472158760E+01
  0.400000000000E+01 -0.715789461136E+01  0.000000000000E+00
  0.976620483640E+02  0.209407198978E+02 -0.936620483640E+01
  0.400000000000E+01 -0.463157892227E+01  0.000000000000E+00
  0.969730531761E+02  0.232603370306E+02 -0.929730531761E+01
  0.400000000000E+01 -0.505263137817E+01  0.000000000000E+00
  0.970878856641E+02  0.228737343210E+02 -0.930878856641E+01
  0.400000000000E+01  0.715789461136E+01  0.000000000000E+00
  0.937577422124E+02  0.340852172751E+02 -0.897577422124E+01
  0.400000000000E+01  0.673684215546E+01  0.000000000000E+00
  0.938725747003E+02  0.336986145656E+02 -0.898725747003E+01
  0.400000000000E+01 -0.294736838341E+01  0.000000000000E+00
  0.965137230291E+02  0.248067485253E+02 -0.925137230291E+01
  0.400000000000E+01  0.505263137817E+01  0.000000000000E+00
  0.943319049123E+02  0.321522028519E+02 -0.903319049123E+01
  0.400000000000E+01  0.463157892227E+01  0.000000000000E+00
  0.944467374003E+02  0.317656001424E+02 -0.904467374003E+01
  0.400000000000E+01  0.294736838341E+01  0.000000000000E+00
  0.949060675473E+02  0.302191886476E+02 -0.909060675473E+01
  0.400000000000E+01 -0.547368431091E+01  0.000000000000E+00
  0.972027182821E+02  0.224871311737E+02 -0.932027182821E+01
  0.400000000000E+01 -0.757894754410E+01  0.000000000000E+00
  0.977768809820E+02  0.205541167505E+02 -0.937768809820E+01
  0.400000000000E+01 -0.336842107773E+01  0.000000000000E+00
  0.966285555821E+02  0.244201455969E+02 -0.926285555821E+01
  0.400000000000E+01  0.757894754410E+01  0.000000000000E+00
  0.936429095944E+02  0.344718204224E+02 -0.896429095944E+01
  0.400000000000E+01  0.547368431091E+01  0.000000000000E+00
  0.942170722943E+02  0.325388059992E+02 -0.902170722943E+01
  0.400000000000E+01  0.842105269432E+00  0.000000000000E+00
  0.954802302147E+02  0.282861743338E+02 -0.914802302147E+01
  0.400000000000E+01 -0.589473676682E+01  0.000000000000E+00
  0.973175507701E+02  0.221005284642E+02 -0.933175507701E+01
  0.400000000000E+01 -0.800000000000E+01  0.000000000000E+00
  0.978917134700E+02  0.201675140410E+02 -0.938917134700E+01
  0.400000000000E+01 -0.378947377205E+01  0.000000000000E+00
  0.967433881351E+02  0.240335426685E+02 -0.927433881351E+01
  0.400000000000E+01  0.589473676682E+01  0.000000000000E+00
  0.941022398063E+02  0.329254087087E+02 -0.901022398063E+01
  0.400000000000E+01 -0.631578969955E+01  0.000000000000E+00
  0.974323833881E+02  0.217139253169E+02 -0.934323833881E+01
  0.400000000000E+01  0.800000000000E+01  0.000000000000E+00
  0.935280771064E+02  0.348584231319E+02 -0.895280771064E+01
  0.400000000000E+01  0.378947377205E+01  0.000000000000E+00
  0.946764024413E+02  0.309923945044E+02 -0.906764024413E+01
  0.400000000000E+01  0.336842107773E+01  0.000000000000E+00
  0.947912349943E+02  0.306057915760E+02 -0.907912349943E+01
  0.400000000000E+01  0.126315784454E+01  0.000000000000E+00
  0.953653976942E+02  0.286727771528E+02 -0.913653976942E+01
  0.400000000000E+01 -0.421052646637E+01  0.000000000000E+00
  0.968582206881E+02  0.236469397401E+02 -0.928582206881E+01
  0.400000000000E+01  0.631578969955E+01  0.000000000000E+00
  0.939874071883E+02  0.333120118560E+02 -0.899874071883E+01
  0.400000000000E+01  0.421052646637E+01  0.000000000000E+00
  0.945615698883E+02  0.313789974329E+02 -0.905615698883E+01
  0.400000000000E+01  0.168421053886E+01  0.000000000000E+00
  0.952505651412E+02  0.290593800812E+02 -0.912505651412E+01
  0.400000000000E+01 -0.421052634716E+00  0.000000000000E+00
  0.958247278249E+02  0.271263657128E+02 -0.918247278249E+01
  0.400000000000E+01 -0.842105269432E+00  0.000000000000E+00
  0.959395603617E+02  0.267397628391E+02 -0.919395603617E+01
  0.400000000000E+01 -0.126315784454E+01  0.000000000000E+00
  0.960543928822E+02  0.263531600201E+02 -0.920543928822E+01
  0.400000000000E+01 -0.168421053886E+01  0.000000000000E+00
  0.961692254352E+02  0.259665570917E+02 -0.921692254352E+01
POLYGONS                  76                 304
3                   8                   9                  11
3                   8                  11                  10
3                  42                  43                   9
3                  42                   9                   8
3                  60                  61                  43
3                  60                  43                  42
3                  68                  69                  61
3                  68                  61                  60
3                   6                   7                  69
3                   6                  69                  68
3                   4                   5                   7
3                   4                   7                   6
3                  30                  31                   5
3                  30                   5                   4
3                  56                  57                  59
3                  56                  59                  58
3                  58                  59                  31
3                  58                  31                  30
3                  66                  67                  57
3                  66                  57                  56
3                  28                  29                  67
3                  28                  67                  66
3                  26                  27                  29
3                  26                  29                  28
3                  40                  41                  27
3                  40                  27                  26
3                  50                  51                  41
3                  50                  41                  40
3                  64                  65                  51
3                  64                  51                  50
3                  22                  23                  65
3                  22                  65                  64
3                  20                  21                  23
3                  20                  23                  22
3                  38                  39                  21
3                  38                  21                  20
3                  54                  55                  39
3                  54                  39                  38
3                  10                  11                  71
3                  10                  71                  70
3                  70                  71                  73
3                  70                  73                  72
3                  72                  73                  75
3                  72                  75                  74
3                  74                  75                  77
3                  74                  77                  76
3                  76                  77                   1
3                  76                   1                   0
3                   0                   1                   3
3                   0                   3                   2
3                   2                   3                  25
3                   2                  25                  24
3                  24                  25                  37
3                  24                  37                  36
3                  36                  37                  49
3                  36                  49                  48
3                  48                  49                  63
3                  48                  63                  62
3                  62                  63                  17
3                  62                  17                  16
3                  16                  17                  19
3                  16                  19                  18
3                  18                  19                  33
3                  18                  33                  32
3                  32                  33                  45
3                  32                  45                  44
3                  44                  45                  53
3                  44                  53                  52
3                  52                  53                  13
3                  52                  13                  12
3                  12                  13                  15
3                  12                  15                  14
3                  14                  15                  35
3                  14                  35                  34
3                  34                  35                  47
3                  34                  47                  46
CELL_DATA                  76
NORMALS normals float
 -0.995037190210E-01  0.586639148241E-14 -0.995037190210E+00
 -0.995037190210E-01 -0.000000000000E+00 -0.995037190210E+00
 -0.995037190210E-01 -0.293687769857E-14 -0.995037190210E+00
 -0.995037190210E-01 -0.000000000000E+00 -0.995037190210E+00
 -0.995037190210E-01  0.000000000000E+00 -0.995037190210E+00
 -0.995037190210E-01 -0.000000000000E+00 -0.995037190210E+00
 -0.995037190210E-01  0.000000000000E+00 -0.995037190210E+00
 -0.995037190210E-01 -0.000000000000E+00 -0.995037190210E+00
 -0.995037190210E-01  0.589595765164E-14 -0.995037190210E+00
 -0.995037190210E-01 -0.000000000000E+00 -0.995037190210E+00
 -0.995037190210E-01 -0.590339936817E-14 -0.995037190210E+00
 -0.995037190210E-01 -0.000000000000E+00 -0.995037190210E+00
 -0.995037190210E-01  0.295542659797E-14 -0.995037190210E+00
 -0.995037190210E-01 -0.000000000000E+00 -0.995037190210E+00
 -0.995037190210E-01  0.000000000000E+00 -0.995037190210E+00
 -0.995037190210E-01 -0.000000000000E+00 -0.995037190210E+00
 -0.995037190210E-01  0.000000000000E+00 -0.995037190210E+00
 -0.995037190210E-01 -0.000000000000E+00 -0.995037190210E+00
 -0.995037190210E-01  0.593333817594E-14 -0.995037190210E+00
 -0.995037190210E-01 -0.000000000000E+00 -0.995037190210E+00
 -0.995037190210E-01  0.000000000000E+00 -0.995037190210E+00
 -0.995037190210E-01 -0.000000000000E+00 -0.995037190210E+00
 -0.995037190210E-01  0.000000000000E+00 -0.995037190210E+00
 -0.995037190210E-01 -0.000000000000E+00 -0.995037190210E+00
 -0.995037190210E-01  0.297799574938E-14 -0.995037190210E+00
 -0.995037190210E-01 -0.000000000000E+00 -0.995037190210E+00
 -0.995037190210E-01  0.298179448867E-14 -0.995037190210E+00
 -0.995037190210E-01 -0.000000000000E+00 -0.995037190210E+00
 -0.995037190210E-01 -0.298559616523E-14 -0.995037190210E+00
 -0.995037190210E-01 -0.000000000000E+00 -0.995037190210E+00
 -0.995037190210E-01  0.597882864637E-14 -0.995037190210E+00
 -0.995037190210E-01 -0.000000000000E+00 -0.995037190210E+00
 -0.995037190210E-01 -0.299323886113E-14 -0.995037190210E+00
 -0.995037190210E-01 -0.000000000000E+00 -0.995037190210E+00
 -0.995037190210E-01  0.000000000000E+00 -0.995037190210E+00
 -0.995037190210E-01 -0.000000000000E+00 -0.995037190210E+00
 -0.995037190210E-01 -0.300091737431E-14 -0.995037190210E+00
 -0.995037190210E-01 -0.000000000000E+00 -0.995037190210E+00
 -0.995037190210E-01  0.000000000000E+00 -0.995037190210E+00
 -0.995037190210E-01 -0.000000000000E+00 -0.995037190210E+00
 -0.995037190210E-01 -0.292585945357E-14 -0.995037190210E+00
 -0.995037190210E-01 -0.000000000000E+00 -0.995037190210E+00
 -0.995037190210E-01  0.000000000000E+00 -0.995037190210E+00
 -0.995037190210E-01 -0.000000000000E+00 -0.995037190210E+00
 -0.995037190210E-01  0.291855935968E-14 -0.995037190210E+00
 -0.995037190210E-01 -0.000000000000E+00 -0.995037190210E+00
 -0.995037190210E-01 -0.291492316093E-14 -0.995037190210E+00
 -0.995037190210E-01 -0.000000000000E+00 -0.995037190210E+00
 -0.995037190210E-01  0.000000000000E+00 -0.995037190210E+00
 -0.995037190210E-01 -0.000000000000E+00 -0.995037190210E+00
 -0.995037190210E-01 -0.290767787969E-14 -0.995037190210E+00
 -0.995037190210E-01 -0.000000000000E+00 -0.995037190210E+00
 -0.995037190210E-01 -0.290406872785E-14 -0.995037190210E+00
 -0.995037190210E-01 -0.000000000000E+00 -0.995037190210E+00
 -0.995037190210E-01  0.000000000000E+00 -0.995037190210E+00
 -0.995037190210E-01 -0.000000000000E+00 -0.995037190210E+00
 -0.995037190210E-01  0.289687723673E-14 -0.995037190210E+00
 -0.995037190210E-01 -0.000000000000E+00 -0.995037190210E+00
 -0.995037190210E-01 -0.289329646946E-14 -0.995037190210E+00
 -0.995037190210E-01 -0.000000000000E+00 -0.995037190210E+00
 -0.995037190210E-01 -0.288972291325E-14 -0.995037190210E+00
 -0.995037190210E-01 -0.000000000000E+00 -0.995037190210E+00
 -0.995037190210E-01  0.000000000000E+00 -0.995037190210E+00
 -0.995037190210E-01 -0.000000000000E+00 -0.995037190210E+00
 -0.995037190210E-01  0.288260221400E-14 -0.995037190210E+00
 -0.995037190210E-01 -0.000000000000E+00 -0.995037190210E+00
 -0.995037190210E-01 -0.287905174968E-14 -0.995037190210E+00
 -0.995037190210E-01 -0.000000000000E+00 -0.995037190210E+00
 -0.995037190210E-01  0.287551652145E-14 -0.995037190210E+00
 -0.995037190210E-01 -0.000000000000E+00 -0.995037190210E+00
 -0.995037190210E-01 -0.287198672415E-14 -0.995037190210E+00
 -0.995037190210E-01 -0.000000000000E+00 -0.995037190210E+00
 -0.995037190210E-01  0.000000000000E+00 -0.995037190210E+00
 -0.995037190210E-01 -0.000000000000E+00 -0.995037190210E+00
 -0.995037190210E-01 -0.286495305947E-14 -0.995037190210E+00
 -0.995037190210E-01 -0.000000000000E+00 -0.995037190210E+00
POINT_DATA                  78
SCALARS mu float 1
LOOKUP_TABLE default
  0.804592527349E+00
  0.804592527349E+00
  0.789402754971E+00
  0.789402754971E+00
  0.848020237872E+00
  0.848020237872E+00
  0.853213243975E+00
  0.853213243975E+00
  0.854677394483E+00
  0.854677394483E+00
  0.850781089965E+00
  0.850781089965E+00
  0.409745000857E+00
  0.409745000857E+00
  0.314163114673E+00
  0.314163114673E+00
  0.670863723699E+00
  0.670863723699E+00
  0.635112233357E+00
  0.635112233357E+00
  0.453496245359E+00
  0.453496245359E+00
  0.554954743983E+00
  0.554954743983E+00
  0.771841110375E+00
  0.771841110375E+00
  0.753812145873E+00
  0.753812145873E+00
  0.779855422618E+00
  0.779855422618E+00
  0.840517075566E+00
  0.840517075566E+00
  0.593273619895E+00
  0.593273619895E+00
  0.183948792350E+00
  0.183948792350E+00
  0.751625875750E+00
  0.751625875750E+00
  0.293642986179E+00
  0.293642986179E+00
  0.721168374844E+00
  0.721168374844E+00
  0.856951831343E+00
  0.856951831343E+00
  0.543698359521E+00
  0.543698359521E+00
  0.000000000000E+00
  0.000000000000E+00
  0.728395216779E+00
  0.728395216779E+00
  0.679824372451E+00
  0.679824372451E+00
  0.483878782588E+00
  0.483878782588E+00
  0.000000000000E+00
  0.000000000000E+00
  0.817312984931E+00
  0.817312984931E+00
  0.830412889942E+00
  0.830412889942E+00
  0.857532359960E+00
  0.857532359960E+00
  0.701679869450E+00
  0.701679869450E+00
  0.626405721609E+00
  0.626405721609E+00
  0.800697671700E+00
  0.800697671700E+00
  0.856328639268E+00
  0.856328639268E+00
  0.845195940192E+00
  0.845195940192E+00
  0.837828463306E+00
  0.837828463306E+00
  0.828663328406E+00
  0.828663328406E+00
  0.817623522619E+00
  0.817623522619E+00
