# vtk DataFile Version 3.0
MFTran results file. Generated by MFTran, USU AeroLab (c) 2021.
ASCII
DATASET POLYDATA
POINTS                1375 float
      0.000002543668     -7.999997705012      0.000000000000
      0.000004479112     -7.578947544100      0.000000000000
      0.000004479113     -7.157894611360      0.000000000000
      0.000004479111     -6.736842155460      0.000000000000
      0.000004479112     -6.315789699550      0.000000000000
      0.000004479113     -5.894736766820      0.000000000000
      0.000004479112     -5.473684310910      0.000000000000
      0.000004479113     -5.052631378170      0.000000000000
      0.000004479111     -4.631578922270      0.000000000000
      0.000004479111     -4.210526466370      0.000000000000
      0.000004479113     -3.789473772050      0.000000000000
      0.000004479113     -3.368421077730      0.000000000000
      0.000004479113     -2.947368383410      0.000000000000
      0.000004479112     -2.526315689090      0.000000000000
      0.000004479111     -2.105263233180      0.000000000000
      0.000004479113     -1.684210538860      0.000000000000
      0.000004479112     -1.263157844540      0.000000000000
      0.000004479112     -0.842105269432      0.000000000000
      0.000004479112     -0.421052634716      0.000000000000
      0.000004764564      0.000000000000      0.000000000000
      0.000004479112      0.421052634716      0.000000000000
      0.000004479112      0.842105269432      0.000000000000
      0.000004479112      1.263157844540      0.000000000000
      0.000004479113      1.684210538860      0.000000000000
      0.000004479111      2.105263233180      0.000000000000
      0.000004479112      2.526315689090      0.000000000000
      0.000004479113      2.947368383410      0.000000000000
      0.000004479113      3.368421077730      0.000000000000
      0.000004479113      3.789473772050      0.000000000000
      0.000004479111      4.210526466370      0.000000000000
      0.000004479111      4.631578922270      0.000000000000
      0.000004479113      5.052631378170      0.000000000000
      0.000004479112      5.473684310910      0.000000000000
      0.000004479113      5.894736766820      0.000000000000
      0.000004479112      6.315789699550      0.000000000000
      0.000004479111      6.736842155460      0.000000000000
      0.000004479113      7.157894611360      0.000000000000
      0.000004479112      7.578947544100      0.000000000000
      0.000002543668      7.999997705012      0.000000000000
      0.257792941477     -8.131797673924     -0.000000000000
      0.257792938451     -8.093195124844     -0.093195199468
      0.257792938451     -8.093195124844      0.093195199468
      0.257793344885     -7.999999335729     -0.131796711276
      0.257793344885     -7.999999335729      0.131796711276
      0.257793646802     -7.578947544100     -0.131795735340
      0.257793646802     -7.578947544100      0.131795735340
      0.257793646802     -7.157894611360     -0.131795735340
      0.257793646802     -7.157894611360      0.131795735340
      0.257793646801     -6.736842155460     -0.131795735341
      0.257793646801     -6.736842155460      0.131795735341
      0.257793646802     -6.315789699550     -0.131795735340
      0.257793646802     -6.315789699550      0.131795735340
      0.257793646802     -5.894736766820     -0.131795735340
      0.257793646802     -5.894736766820      0.131795735340
      0.257793646802     -5.473684310910     -0.131795735340
      0.257793646802     -5.473684310910      0.131795735340
      0.257793646802     -5.052631378170     -0.131795735340
      0.257793646802     -5.052631378170      0.131795735340
      0.257793646801     -4.631578922270     -0.131795735341
      0.257793646801     -4.631578922270      0.131795735341
      0.257793646802     -4.210526466370     -0.131795735341
      0.257793646802     -4.210526466370      0.131795735341
      0.257793646802     -3.789473772050     -0.131795735340
      0.257793646802     -3.789473772050      0.131795735340
      0.257793646802     -3.368421077730     -0.131795735340
      0.257793646802     -3.368421077730      0.131795735340
      0.257793646802     -2.947368383410     -0.131795735340
      0.257793646802     -2.947368383410      0.131795735340
      0.257793646802     -2.526315689090     -0.131795735341
      0.257793646802     -2.526315689090      0.131795735341
      0.257793646802     -2.105263233180     -0.131795735341
      0.257793646802     -2.105263233180      0.131795735341
      0.257793646802     -1.684210538860     -0.131795735340
      0.257793646802     -1.684210538860      0.131795735340
      0.257793646802     -1.263157844540     -0.131795735340
      0.257793646802     -1.263157844540      0.131795735340
      0.257793646802     -0.842105269432     -0.131795735340
      0.257793646802     -0.842105269432      0.131795735340
      0.257793646802     -0.421052634716     -0.131795735340
      0.257793646802     -0.421052634716      0.131795735340
      0.257793408580      0.000000000000     -0.131795675270
      0.257793408580      0.000000000000      0.131795675270
      0.257793646802      0.421052634716     -0.131795735340
      0.257793646802      0.421052634716      0.131795735340
      0.257793646802      0.842105269432     -0.131795735340
      0.257793646802      0.842105269432      0.131795735340
      0.257793646802      1.263157844540     -0.131795735340
      0.257793646802      1.263157844540      0.131795735340
      0.257793646802      1.684210538860     -0.131795735340
      0.257793646802      1.684210538860      0.131795735340
      0.257793646802      2.105263233180     -0.131795735341
      0.257793646802      2.105263233180      0.131795735341
      0.257793646802      2.526315689090     -0.131795735341
      0.257793646802      2.526315689090      0.131795735341
      0.257793646802      2.947368383410     -0.131795735340
      0.257793646802      2.947368383410      0.131795735340
      0.257793646802      3.368421077730     -0.131795735340
      0.257793646802      3.368421077730      0.131795735340
      0.257793646802      3.789473772050     -0.131795735340
      0.257793646802      3.789473772050      0.131795735340
      0.257793646802      4.210526466370     -0.131795735341
      0.257793646802      4.210526466370      0.131795735341
      0.257793646801      4.631578922270     -0.131795735341
      0.257793646801      4.631578922270      0.131795735341
      0.257793646802      5.052631378170     -0.131795735340
      0.257793646802      5.052631378170      0.131795735340
      0.257793646802      5.473684310910     -0.131795735340
      0.257793646802      5.473684310910      0.131795735340
      0.257793646802      5.894736766820     -0.131795735340
      0.257793646802      5.894736766820      0.131795735340
      0.257793646802      6.315789699550     -0.131795735340
      0.257793646802      6.315789699550      0.131795735340
      0.257793646801      6.736842155460     -0.131795735341
      0.257793646801      6.736842155460      0.131795735341
      0.257793646802      7.157894611360     -0.131795735340
      0.257793646802      7.157894611360      0.131795735340
      0.257793646802      7.578947544100     -0.131795735340
      0.257793646802      7.578947544100      0.131795735340
      0.257793344885      7.999999335729     -0.131796711276
      0.257793344885      7.999999335729      0.131796711276
      0.257792938451      8.093195124844     -0.093195199468
      0.257792938451      8.093195124844      0.093195199468
      0.257792941477      8.131797673924     -0.000000000000
      0.536310984225     -8.172267241072      0.000000000000
      0.536310951866     -8.121811000078     -0.121811262543
      0.536310951866     -8.121811000078      0.121811262543
      0.536311043437     -7.999999321970     -0.172266299248
      0.536311043437     -7.999999321970      0.172266299248
      0.536311145390     -7.578947544100     -0.172265343804
      0.536311145390     -7.578947544100      0.172265343804
      0.536311145390     -7.157894611360     -0.172265343804
      0.536311145390     -7.157894611360      0.172265343804
      0.536311145389     -6.736842155460     -0.172265343806
      0.536311145389     -6.736842155460      0.172265343806
      0.536311145390     -6.315789699550     -0.172265343804
      0.536311145390     -6.315789699550      0.172265343804
      0.536311145390     -5.894736766820     -0.172265343804
      0.536311145390     -5.894736766820      0.172265343804
      0.536311145390     -5.473684310910     -0.172265343804
      0.536311145390     -5.473684310910      0.172265343804
      0.536311145390     -5.052631378170     -0.172265343804
      0.536311145390     -5.052631378170      0.172265343804
      0.536311145389     -4.631578922270     -0.172265343806
      0.536311145389     -4.631578922270      0.172265343806
      0.536311145389     -4.210526466370     -0.172265343805
      0.536311145389     -4.210526466370      0.172265343805
      0.536311145390     -3.789473772050     -0.172265343804
      0.536311145390     -3.789473772050      0.172265343804
      0.536311145390     -3.368421077730     -0.172265343804
      0.536311145390     -3.368421077730      0.172265343804
      0.536311145390     -2.947368383410     -0.172265343804
      0.536311145390     -2.947368383410      0.172265343804
      0.536311145389     -2.526315689090     -0.172265343805
      0.536311145389     -2.526315689090      0.172265343805
      0.536311145389     -2.105263233180     -0.172265343805
      0.536311145389     -2.105263233180      0.172265343805
      0.536311145390     -1.684210538860     -0.172265343804
      0.536311145390     -1.684210538860      0.172265343804
      0.536311145390     -1.263157844540     -0.172265343805
      0.536311145390     -1.263157844540      0.172265343805
      0.536311145389     -0.842105269432     -0.172265343805
[...]
POINT_DATA                1375
SCALARS phi float 1
LOOKUP_TABLE default
     -0.000000000000
      0.000000000000
      0.000000000000
     -0.000000000000
     -0.000000000000
     -0.000000000000
      0.000000000000
     -0.000000000000
     -0.000000000000
     -0.000000000000
      0.000000000000
      0.000000000000
      0.000000000000
     -0.000000000000
     -0.000000000000
      0.000000000000
     -0.000000000000
     -0.000000000000
     -0.000000000000
     -0.000000000000
      0.000000000000
      0.000000000000
     -0.000000000000
     -0.000000000000
     -0.000000000000
     -0.000000000000
      0.000000000000
      0.000000000000
      0.000000000000
     -0.000000000000
      0.000000000000
     -0.000000000000
     -0.000000000000
      0.000000000000
      0.000000000000
     -0.000000000000
      0.000000000000
     -0.000000000000
     -0.000000000000
     -0.256512919904
     -0.247239504865
     -0.265786334944
     -0.243398331628
     -0.269627508181
     -0.243398331628
     -0.269627508181
     -0.243398331628
     -0.269627508181
     -0.243398331628
     -0.269627508181
     -0.243398331628
     -0.269627508181
     -0.243398331628
     -0.269627508181
     -0.243398331628
     -0.269627508181
     -0.243398331628
     -0.269627508181
     -0.243398331628
     -0.269627508181
     -0.243398331628
     -0.269627508181
     -0.243398331628
     -0.269627508181
     -0.243398331628
     -0.269627508181
     -0.243398331628
     -0.269627508181
     -0.243398331628
     -0.269627508181
     -0.243398331628
     -0.269627508181
     -0.243398331628
     -0.269627508181
     -0.243398331628
     -0.269627508181
     -0.243398331628
     -0.269627508181
     -0.243398331628
     -0.269627508181
     -0.243398331628
     -0.269627508181
     -0.243398331628
     -0.269627508181
     -0.243398331628
     -0.269627508181
     -0.243398331628
     -0.269627508181
     -0.243398331628
     -0.269627508181
     -0.243398331628
     -0.269627508181
     -0.243398331628
     -0.269627508181
     -0.243398331628
     -0.269627508181
     -0.243398331628
     -0.269627508181
     -0.243398331628
     -0.269627508181
     -0.243398331628
     -0.269627508181
     -0.243398331628
     -0.269627508181
     -0.243398331628
     -0.269627508181
     -0.243398331628
     -0.269627508181
     -0.243398331628
     -0.269627508181
     -0.243398331628
     -0.269627508181
     -0.243398331628
     -0.269627508181
     -0.243398331628
     -0.269627508181
     -0.243398331628
     -0.269627508181
     -0.243398331628
     -0.269627508181
     -0.247239504865
     -0.265786334944
     -0.256512919904
     -0.533649064903
     -0.521528210297
     -0.545769919508
     -0.516507588883
     -0.550790540922
     -0.516507588883
     -0.550790540922
     -0.516507588883
     -0.550790540922
     -0.516507588883
     -0.550790540922
     -0.516507588883
     -0.550790540922
     -0.516507588883
     -0.550790540922
     -0.516507588883
     -0.550790540922
     -0.516507588883
     -0.550790540922
     -0.516507588883
     -0.550790540922
     -0.516507588883
     -0.550790540922
     -0.516507588883
     -0.550790540922
     -0.516507588883
     -0.550790540922
     -0.516507588883
     -0.550790540922
     -0.516507588883
     -0.550790540922
     -0.516507588883
     -0.550790540922
     -0.516507588883
     -0.550790540922
     -0.516507588883
     -0.550790540922
     -0.516507588883
     -0.550790540922
     -0.516507588883
     -0.550790540922
     -0.516507588883
     -0.550790540922
     -0.516507588883
     -0.550790540922
     -0.516507588883
     -0.550790540922
     -0.516507588883
     -0.550790540922
     -0.516507588883
     -0.550790540922
     -0.516507588883
     -0.550790540922
     -0.516507588883
     -0.550790540922
     -0.516507588883
     -0.550790540922
     -0.516507588883
     -0.550790540922
     -0.516507588883
     -0.550790540922
     -0.516507588883
     -0.550790540922
     -0.516507588883
     -0.550790540922
     -0.516507588883
     -0.550790540922
     -0.516507588883
     -0.550790540922
     -0.516507588883
     -0.550790540922
     -0.516507588883
     -0.550790540922
     -0.516507588883
     -0.550790540922
     -0.516507588883
     -0.550790540922
     -0.516507588883
     -0.550790540922
     -0.516507588883
     -0.550790540922
     -0.521528210297
     -0.545769919508
     -0.533649064903
     -0.795752139358
     -0.782299103714
     -0.809205175003
     -0.776726673610
     -0.814777605106
     -0.776726673610
     -0.814777605106
     -0.776726673610
     -0.814777605106
     -0.776726673610
     -0.814777605106
     -0.776726673610
     -0.814777605106
     -0.776726673610
     -0.814777605106
     -0.776726673610
     -0.814777605106
     -0.776726673610
     -0.814777605106
     -0.776726673610
     -0.814777605106
     -0.776726673610
     -0.814777605106
     -0.776726673610
     -0.814777605106
     -0.776726673610
     -0.814777605106
     -0.776726673610
     -0.814777605106
     -0.776726673610
     -0.814777605106
     -0.776726673610
     -0.814777605106
     -0.776726673610
     -0.814777605106
     -0.776726673610
     -0.814777605106
     -0.776726673610
     -0.814777605106
     -0.776726673610
     -0.814777605106
     -0.776726673610
     -0.814777605106
     -0.776726673610
     -0.814777605106
     -0.776726673610
     -0.814777605106
     -0.776726673610
     -0.814777605106
     -0.776726673610
     -0.814777605106
     -0.776726673610
     -0.814777605106
     -0.776726673610
     -0.814777605106
     -0.776726673610
     -0.814777605106
     -0.776726673610
     -0.814777605106
     -0.776726673610
     -0.814777605106
     -0.776726673610
     -0.814777605106
     -0.776726673610
     -0.814777605106
     -0.776726673610
     -0.814777605106
     -0.776726673610
     -0.814777605106
     -0.776726673610
     -0.814777605106
     -0.776726673610
     -0.814777605106
     -0.776726673610
     -0.814777605106
     -0.776726673610
     -0.814777605106
     -0.776726673610
     -0.814777605106
     -0.776726673610
     -0.814777605106
     -0.782299103714
     -0.809205175003
     -0.795752139358
     -1.045047232956
     -1.031049620593
     -1.059044845318
     -1.025251619702
     -1.064842846210
     -1.025251619702
     -1.064842846210
     -1.025251619702
     -1.064842846210
     -1.025251619702
     -1.064842846210
     -1.025251619702
     -1.064842846210
     -1.025251619702
     -1.064842846210
     -1.025251619702
     -1.064842846210
     -1.025251619702
     -1.064842846210
     -1.025251619702
     -1.064842846210
     -1.025251619702
     -1.064842846210
     -1.025251619702
     -1.064842846210
     -1.025251619702
     -1.064842846210
     -1.025251619702
     -1.064842846210
     -1.025251619702
     -1.064842846210
     -1.025251619702
     -1.064842846210
     -1.025251619702
     -1.064842846210
     -1.025251619702
     -1.064842846210
     -1.025251619702
     -1.064842846210
     -1.025251619702
     -1.064842846210
     -1.025251619702
     -1.064842846210
     -1.025251619702
     -1.064842846210
     -1.025251619702
     -1.064842846210
     -1.025251619702
     -1.064842846210
     -1.025251619702
     -1.064842846210
     -1.025251619702
     -1.064842846210
     -1.025251619702
     -1.064842846210
     -1.025251619702
     -1.064842846210
     -1.025251619702
     -1.064842846210
     -1.025251619702
     -1.064842846210
     -1.025251619702
     -1.064842846210
     -1.025251619702
     -1.064842846210
     -1.025251619702
     -1.064842846210
     -1.025251619702
     -1.064842846210
     -1.025251619702
     -1.064842846210
     -1.025251619702
     -1.064842846210
     -1.025251619702
     -1.064842846210
     -1.025251619702
     -1.064842846210
     -1.025251619702
     -1.064842846210
     -1.025251619702
     -1.064842846210
     -1.031049620593
     -1.059044845318
     -1.045047232956
     -1.284407977525
     -1.270359249840
     -1.298456705210
     -1.264540075693
     -1.304275879356
     -1.264540075693
     -1.304275879356
     -1.264540075693
     -1.304275879356
     -1.264540075693
     -1.304275879356
     -1.264540075693
     -1.304275879356
     -1.264540075693
     -1.304275879356
     -1.264540075693
     -1.304275879356
     -1.264540075693
     -1.304275879356
     -1.264540075693
     -1.304275879356
     -1.264540075693
     -1.304275879356
     -1.264540075693
     -1.304275879356
     -1.264540075693
     -1.304275879356
     -1.264540075693
     -1.304275879356
     -1.264540075693
     -1.304275879356
     -1.264540075693
     -1.304275879356
     -1.264540075693
     -1.304275879356
     -1.264540075693
     -1.304275879356
     -1.264540075693
     -1.304275879356
     -1.264540075693
     -1.304275879356
     -1.264540075693
     -1.304275879356
     -1.264540075693
     -1.304275879356
     -1.264540075693
     -1.304275879356
     -1.264540075693
     -1.304275879356
     -1.264540075693
     -1.304275879356
     -1.264540075693
     -1.304275879356
     -1.264540075693
     -1.304275879356
     -1.264540075693
     -1.304275879356
     -1.264540075693
     -1.304275879356
     -1.264540075693
     -1.304275879356
     -1.264540075693
     -1.304275879356
     -1.264540075693
     -1.304275879356
     -1.264540075693
     -1.304275879356
     -1.264540075693
     -1.304275879356
     -1.264540075693
     -1.304275879356
     -1.264540075693
     -1.304275879356
     -1.264540075693
     -1.304275879356
     -1.264540075693
     -1.304275879356
     -1.264540075693
     -1.304275879356
     -1.264540075693
     -1.304275879356
     -1.270359249840
     -1.298456705210
     -1.284407977525
     -1.516545498689
     -1.502786900945
     -1.530304096434
     -1.497087904297
     -1.536003093082
     -1.497087904297
     -1.536003093082
     -1.497087904297
     -1.536003093082
     -1.497087904297
     -1.536003093082
     -1.497087904297
     -1.536003093082
     -1.497087904297
     -1.536003093082
     -1.497087904297
     -1.536003093082
     -1.497087904297
     -1.536003093082
     -1.497087904297
     -1.536003093082
     -1.497087904297
     -1.536003093082
     -1.497087904297
     -1.536003093082
     -1.497087904297
     -1.536003093082
     -1.497087904297
     -1.536003093082
     -1.497087904297
     -1.536003093082
     -1.497087904297
     -1.536003093082
     -1.497087904297
     -1.536003093082
     -1.497087904297
     -1.536003093082
     -1.497087904297
     -1.536003093082
     -1.497087904297
     -1.536003093082
     -1.497087904297
     -1.536003093082
     -1.497087904297
     -1.536003093082
     -1.497087904297
     -1.536003093082
     -1.497087904297
     -1.536003093082
     -1.497087904297
     -1.536003093082
     -1.497087904297
     -1.536003093082
     -1.497087904297
     -1.536003093082
     -1.497087904297
     -1.536003093082
     -1.497087904297
     -1.536003093082
     -1.497087904297
     -1.536003093082
     -1.497087904297
     -1.536003093082
     -1.497087904297
     -1.536003093082
     -1.497087904297
     -1.536003093082
     -1.497087904297
     -1.536003093082
     -1.497087904297
     -1.536003093082
     -1.497087904297
     -1.536003093082
     -1.497087904297
     -1.536003093082
     -1.497087904297
     -1.536003093082
     -1.497087904297
     -1.536003093082
     -1.497087904297
     -1.536003093082
     -1.502786900945
     -1.530304096434
     -1.516545498689
     -1.743956461289
     -1.730743209794
     -1.757169712783
     -1.725270101236
     -1.762642821341
     -1.725270101236
     -1.762642821341
     -1.725270101236
     -1.762642821341
     -1.725270101236
     -1.762642821341
     -1.725270101236
     -1.762642821341
     -1.725270101236
     -1.762642821341
     -1.725270101236
     -1.762642821341
     -1.725270101236
     -1.762642821341
     -1.725270101236
     -1.762642821341
     -1.725270101236
     -1.762642821341
     -1.725270101236
     -1.762642821341
     -1.725270101236
     -1.762642821341
     -1.725270101236
     -1.762642821341
     -1.725270101236
     -1.762642821341
     -1.725270101236
     -1.762642821341
     -1.725270101236
     -1.762642821341
     -1.725270101236
     -1.762642821341
     -1.725270101236
     -1.762642821341
     -1.725270101236
     -1.762642821341
     -1.725270101236
     -1.762642821341
     -1.725270101236
     -1.762642821341
     -1.725270101236
     -1.762642821341
     -1.725270101236
     -1.762642821341
     -1.725270101236
     -1.762642821341
     -1.725270101236
     -1.762642821341
     -1.725270101236
     -1.762642821341
     -1.725270101236
     -1.762642821341
     -1.725270101236
     -1.762642821341
     -1.725270101236
     -1.762642821341
     -1.725270101236
     -1.762642821341
     -1.725270101236
     -1.762642821341
     -1.725270101236
     -1.762642821341
     -1.725270101236
     -1.762642821341
     -1.725270101236
     -1.762642821341
     -1.725270101236
     -1.762642821341
     -1.725270101236
     -1.762642821341
     -1.725270101236
     -1.762642821341
     -1.725270101236
     -1.762642821341
     -1.725270101236
     -1.762642821341
     -1.730743209794
     -1.757169712783
     -1.743956461289
     -1.968979175594
     -1.956514446121
     -1.981443905068
     -1.951351384894
     -1.986606966295
     -1.951351384894
     -1.986606966295
     -1.951351384894
     -1.986606966295
     -1.951351384894
     -1.986606966295
     -1.951351384894
     -1.986606966295
     -1.951351384894
     -1.986606966295
     -1.951351384894
     -1.986606966295
     -1.951351384894
     -1.986606966295
     -1.951351384894
     -1.986606966295
     -1.951351384894
     -1.986606966295
     -1.951351384894
     -1.986606966295
     -1.951351384894
     -1.986606966295
     -1.951351384894
     -1.986606966295
     -1.951351384894
     -1.986606966295
     -1.951351384894
     -1.986606966295
     -1.951351384894
     -1.986606966295
     -1.951351384894
     -1.986606966295
     -1.951351384894
     -1.986606966295
     -1.951351384894
     -1.986606966295
     -1.951351384894
     -1.986606966295
     -1.951351384894
     -1.986606966295
     -1.951351384894
     -1.986606966295
     -1.951351384894
     -1.986606966295
     -1.951351384894
     -1.986606966295
     -1.951351384894
     -1.986606966295
     -1.951351384894
     -1.986606966295
     -1.951351384894
     -1.986606966295
     -1.951351384894
     -1.986606966295
     -1.951351384894
     -1.986606966295
     -1.951351384894
     -1.986606966295
     -1.951351384894
     -1.986606966295
     -1.951351384894
     -1.986606966295
     -1.951351384894
     -1.986606966295
     -1.951351384894
     -1.986606966295
     -1.951351384894
     -1.986606966295
     -1.951351384894
     -1.986606966295
     -1.951351384894
     -1.986606966295
     -1.951351384894
     -1.986606966295
     -1.951351384894
     -1.986606966295
     -1.956514446121
     -1.981443905068
     -1.968979175594
     -2.193873071102
     -2.182330356828
     -2.205415785376
     -2.177549207451
     -2.210196934752
     -2.177549207451
     -2.210196934752
     -2.177549207451
     -2.210196934752
     -2.177549207451
     -2.210196934752
     -2.177549207451
     -2.210196934752
     -2.177549207451
     -2.210196934752
     -2.177549207451
     -2.210196934752
     -2.177549207451
     -2.210196934752
     -2.177549207451
     -2.210196934752
     -2.177549207451
     -2.210196934752
     -2.177549207451
     -2.210196934752
     -2.177549207451
     -2.210196934752
     -2.177549207451
     -2.210196934752
     -2.177549207451
     -2.210196934752
     -2.177549207451
     -2.210196934752
     -2.177549207451
     -2.210196934752
     -2.177549207451
     -2.210196934752
     -2.177549207451
     -2.210196934752
     -2.177549207451
     -2.210196934752
     -2.177549207451
     -2.210196934752
     -2.177549207451
     -2.210196934752
     -2.177549207451
     -2.210196934752
     -2.177549207451
     -2.210196934752
     -2.177549207451
     -2.210196934752
     -2.177549207451
     -2.210196934752
     -2.177549207451
     -2.210196934752
     -2.177549207451
     -2.210196934752
     -2.177549207451
     -2.210196934752
     -2.177549207451
     -2.210196934752
     -2.177549207451
     -2.210196934752
     -2.177549207451
     -2.210196934752
     -2.177549207451
     -2.210196934752
     -2.177549207451
     -2.210196934752
     -2.177549207451
     -2.210196934752
     -2.177549207451
     -2.210196934752
     -2.177549207451
     -2.210196934752
     -2.177549207451
     -2.210196934752
     -2.177549207451
     -2.210196934752
     -2.177549207451
     -2.210196934752
     -2.182330356828
     -2.205415785376
     -2.193873071102
     -2.420901373075
     -2.410440112467
     -2.431362633682
     -2.406106916815
     -2.435695829334
     -2.406106916815
     -2.435695829334
     -2.406106916815
     -2.435695829334
     -2.406106916815
     -2.435695829334
     -2.406106916815
     -2.435695829334
     -2.406106916815
     -2.435695829334
     -2.406106916815
     -2.435695829334
     -2.406106916815
     -2.435695829334
     -2.406106916815
     -2.435695829334
     -2.406106916815
     -2.435695829334
     -2.406106916815
     -2.435695829334
     -2.406106916815
     -2.435695829334
     -2.406106916815
     -2.435695829334
     -2.406106916815
     -2.435695829334
     -2.406106916815
     -2.435695829334
     -2.406106916815
     -2.435695829334
     -2.406106916815
     -2.435695829334
     -2.406106916815
     -2.435695829334
     -2.406106916815
     -2.435695829334
     -2.406106916815
     -2.435695829334
     -2.406106916815
     -2.435695829334
     -2.406106916815
     -2.435695829334
     -2.406106916815
     -2.435695829334
     -2.406106916815
     -2.435695829334
     -2.406106916815
     -2.435695829334
     -2.406106916815
     -2.435695829334
     -2.406106916815
     -2.435695829334
     -2.406106916815
     -2.435695829334
     -2.406106916815
     -2.435695829334
     -2.406106916815
     -2.435695829334
     -2.406106916815
     -2.435695829334
     -2.406106916815
     -2.435695829334
     -2.406106916815
     -2.435695829334
     -2.406106916815
     -2.435695829334
     -2.406106916815
     -2.435695829334
     -2.406106916815
     -2.435695829334
     -2.406106916815
     -2.435695829334
     -2.406106916815
     -2.435695829334
     -2.406106916815
     -2.435695829334
     -2.410440112467
     -2.431362633682
     -2.420901373075
     -2.652417218993
     -2.643193151872
     -2.661641286114
     -2.639372417944
     -2.665462020042
     -2.639372417944
     -2.665462020042
     -2.639372417944
     -2.665462020042
     -2.639372417944
     -2.665462020042
     -2.639372417944
     -2.665462020042
     -2.639372417944
     -2.665462020042
     -2.639372417944
     -2.665462020042
     -2.639372417944
     -2.665462020042
     -2.639372417944
     -2.665462020042
     -2.639372417944
     -2.665462020042
     -2.639372417944
     -2.665462020042
     -2.639372417944
     -2.665462020042
     -2.639372417944
     -2.665462020042
     -2.639372417944
     -2.665462020042
     -2.639372417944
     -2.665462020042
     -2.639372417944
     -2.665462020042
     -2.639372417944
     -2.665462020042
     -2.639372417944
     -2.665462020042
     -2.639372417944
     -2.665462020042
     -2.639372417944
     -2.665462020042
     -2.639372417944
     -2.665462020042
     -2.639372417944
     -2.665462020042
     -2.639372417944
     -2.665462020042
     -2.639372417944
     -2.665462020042
     -2.639372417944
     -2.665462020042
     -2.639372417944
     -2.665462020042
     -2.639372417944
     -2.665462020042
     -2.639372417944
     -2.665462020042
     -2.639372417944
     -2.665462020042
     -2.639372417944
     -2.665462020042
     -2.639372417944
     -2.665462020042
     -2.639372417944
     -2.665462020042
     -2.639372417944
     -2.665462020042