# vtk DataFile Version 3.0
MachLine results file. Generated by MachLine, USU AeroLab (c) 2023.
ASCII
DATASET POLYDATA
POINTS                 152 float
  0.400000000000E+01  0.421052634716E+00  0.000000000000E+00
  0.400000000000E+01  0.000000000000E+00  0.000000000000E+00
  0.100000000000E+03  0.421052634716E+00  0.000000000000E+00
  0.100000000000E+03  0.000000000000E+00  0.000000000000E+00
  0.400000000000E+01  0.842105269432E+00  0.000000000000E+00
  0.400000000000E+01  0.421052634716E+00  0.000000000000E+00
  0.100000000000E+03  0.842105269432E+00  0.000000000000E+00
  0.100000000000E+03  0.421052634716E+00  0.000000000000E+00
  0.400000000000E+01  0.126315784454E+01  0.000000000000E+00
  0.400000000000E+01  0.842105269432E+00  0.000000000000E+00
  0.100000000000E+03  0.126315784454E+01  0.000000000000E+00
  0.100000000000E+03  0.842105269432E+00  0.000000000000E+00
  0.400000000000E+01  0.168421053886E+01  0.000000000000E+00
  0.400000000000E+01  0.126315784454E+01  0.000000000000E+00
  0.100000000000E+03  0.168421053886E+01  0.000000000000E+00
  0.100000000000E+03  0.126315784454E+01  0.000000000000E+00
  0.400000000000E+01  0.210526323318E+01  0.000000000000E+00
  0.400000000000E+01  0.168421053886E+01  0.000000000000E+00
  0.100000000000E+03  0.210526323318E+01  0.000000000000E+00
  0.100000000000E+03  0.168421053886E+01  0.000000000000E+00
  0.400000000000E+01  0.252631568909E+01  0.000000000000E+00
  0.400000000000E+01  0.210526323318E+01  0.000000000000E+00
  0.100000000000E+03  0.252631568909E+01  0.000000000000E+00
  0.100000000000E+03  0.210526323318E+01  0.000000000000E+00
  0.400000000000E+01  0.336842107773E+01  0.000000000000E+00
  0.400000000000E+01  0.294736838341E+01  0.000000000000E+00
  0.100000000000E+03  0.336842107773E+01  0.000000000000E+00
  0.100000000000E+03  0.294736838341E+01  0.000000000000E+00
  0.400000000000E+01  0.294736838341E+01  0.000000000000E+00
  0.400000000000E+01  0.252631568909E+01  0.000000000000E+00
  0.100000000000E+03  0.294736838341E+01  0.000000000000E+00
  0.100000000000E+03  0.252631568909E+01  0.000000000000E+00
  0.400000000000E+01  0.378947377205E+01  0.000000000000E+00
  0.400000000000E+01  0.336842107773E+01  0.000000000000E+00
  0.100000000000E+03  0.378947377205E+01  0.000000000000E+00
  0.100000000000E+03  0.336842107773E+01  0.000000000000E+00
  0.400000000000E+01  0.463157892227E+01  0.000000000000E+00
  0.400000000000E+01  0.421052646637E+01  0.000000000000E+00
  0.100000000000E+03  0.463157892227E+01  0.000000000000E+00
  0.100000000000E+03  0.421052646637E+01  0.000000000000E+00
  0.400000000000E+01  0.421052646637E+01  0.000000000000E+00
  0.400000000000E+01  0.378947377205E+01  0.000000000000E+00
  0.100000000000E+03  0.421052646637E+01  0.000000000000E+00
  0.100000000000E+03  0.378947377205E+01  0.000000000000E+00
  0.400000000000E+01  0.505263137817E+01  0.000000000000E+00
  0.400000000000E+01  0.463157892227E+01  0.000000000000E+00
  0.100000000000E+03  0.505263137817E+01  0.000000000000E+00
  0.100000000000E+03  0.463157892227E+01  0.000000000000E+00
  0.400000000000E+01  0.547368431091E+01  0.000000000000E+00
  0.400000000000E+01  0.505263137817E+01  0.000000000000E+00
  0.100000000000E+03  0.547368431091E+01  0.000000000000E+00
  0.100000000000E+03  0.505263137817E+01  0.000000000000E+00
  0.400000000000E+01  0.673684215546E+01  0.000000000000E+00
  0.400000000000E+01  0.631578969955E+01  0.000000000000E+00
  0.100000000000E+03  0.673684215546E+01  0.000000000000E+00
  0.100000000000E+03  0.631578969955E+01  0.000000000000E+00
  0.400000000000E+01  0.589473676682E+01  0.000000000000E+00
  0.400000000000E+01  0.547368431091E+01  0.000000000000E+00
  0.100000000000E+03  0.589473676682E+01  0.000000000000E+00
  0.100000000000E+03  0.547368431091E+01  0.000000000000E+00
  0.400000000000E+01  0.631578969955E+01  0.000000000000E+00
  0.400000000000E+01  0.589473676682E+01  0.000000000000E+00
  0.100000000000E+03  0.631578969955E+01  0.000000000000E+00
  0.100000000000E+03  0.589473676682E+01  0.000000000000E+00
  0.400000000000E+01  0.715789461136E+01  0.000000000000E+00
  0.400000000000E+01  0.673684215546E+01  0.000000000000E+00
  0.100000000000E+03  0.715789461136E+01  0.000000000000E+00
  0.100000000000E+03  0.673684215546E+01  0.000000000000E+00
  0.400000000000E+01  0.757894754410E+01  0.000000000000E+00
  0.400000000000E+01  0.715789461136E+01  0.000000000000E+00
  0.100000000000E+03  0.757894754410E+01  0.000000000000E+00
  0.100000000000E+03  0.715789461136E+01  0.000000000000E+00
  0.400000000000E+01  0.800000000000E+01  0.000000000000E+00
  0.400000000000E+01  0.757894754410E+01  0.000000000000E+00
  0.100000000000E+03  0.800000000000E+01  0.000000000000E+00
  0.100000000000E+03  0.757894754410E+01  0.000000000000E+00
  0.400000000000E+01 -0.421052634716E+00  0.000000000000E+00
  0.400000000000E+01 -0.842105269432E+00  0.000000000000E+00
  0.100000000000E+03 -0.421052634716E+00  0.000000000000E+00
  0.100000000000E+03 -0.842105269432E+00  0.000000000000E+00
  0.400000000000E+01  0.000000000000E+00  0.000000000000E+00
  0.400000000000E+01 -0.421052634716E+00  0.000000000000E+00
  0.100000000000E+03  0.000000000000E+00  0.000000000000E+00
  0.100000000000E+03 -0.421052634716E+00  0.000000000000E+00
  0.400000000000E+01 -0.842105269432E+00  0.000000000000E+00
  0.400000000000E+01 -0.126315784454E+01  0.000000000000E+00
  0.100000000000E+03 -0.842105269432E+00  0.000000000000E+00
  0.100000000000E+03 -0.126315784454E+01  0.000000000000E+00
  0.400000000000E+01 -0.126315784454E+01  0.000000000000E+00
  0.400000000000E+01 -0.168421053886E+01  0.000000000000E+00
  0.100000000000E+03 -0.126315784454E+01  0.000000000000E+00
  0.100000000000E+03 -0.168421053886E+01  0.000000000000E+00
  0.400000000000E+01 -0.168421053886E+01  0.000000000000E+00
  0.400000000000E+01 -0.210526323318E+01  0.000000000000E+00
  0.100000000000E+03 -0.168421053886E+01  0.000000000000E+00
  0.100000000000E+03 -0.210526323318E+01  0.000000000000E+00
  0.400000000000E+01 -0.210526323318E+01  0.000000000000E+00
  0.400000000000E+01 -0.252631568909E+01  0.000000000000E+00
  0.100000000000E+03 -0.210526323318E+01  0.000000000000E+00
  0.100000000000E+03 -0.252631568909E+01  0.000000000000E+00
  0.400000000000E+01 -0.252631568909E+01  0.000000000000E+00
  0.400000000000E+01 -0.294736838341E+01  0.000000000000E+00
  0.100000000000E+03 -0.252631568909E+01  0.000000000000E+00
  0.100000000000E+03 -0.294736838341E+01  0.000000000000E+00
  0.400000000000E+01 -0.294736838341E+01  0.000000000000E+00
  0.400000000000E+01 -0.336842107773E+01  0.000000000000E+00
  0.100000000000E+03 -0.294736838341E+01  0.000000000000E+00
  0.100000000000E+03 -0.336842107773E+01  0.000000000000E+00
  0.400000000000E+01 -0.336842107773E+01  0.000000000000E+00
  0.400000000000E+01 -0.378947377205E+01  0.000000000000E+00
  0.100000000000E+03 -0.336842107773E+01  0.000000000000E+00
  0.100000000000E+03 -0.378947377205E+01  0.000000000000E+00
  0.400000000000E+01 -0.378947377205E+01  0.000000000000E+00
  0.400000000000E+01 -0.421052646637E+01  0.000000000000E+00
  0.100000000000E+03 -0.378947377205E+01  0.000000000000E+00
  0.100000000000E+03 -0.421052646637E+01  0.000000000000E+00
  0.400000000000E+01 -0.421052646637E+01  0.000000000000E+00
  0.400000000000E+01 -0.463157892227E+01  0.000000000000E+00
  0.100000000000E+03 -0.421052646637E+01  0.000000000000E+00
  0.100000000000E+03 -0.463157892227E+01  0.000000000000E+00
  0.400000000000E+01 -0.463157892227E+01  0.000000000000E+00
  0.400000000000E+01 -0.505263137817E+01  0.000000000000E+00
  0.100000000000E+03 -0.463157892227E+01  0.000000000000E+00
  0.100000000000E+03 -0.505263137817E+01  0.000000000000E+00
  0.400000000000E+01 -0.505263137817E+01  0.000000000000E+00
  0.400000000000E+01 -0.547368431091E+01  0.000000000000E+00
  0.100000000000E+03 -0.505263137817E+01  0.000000000000E+00
  0.100000000000E+03 -0.547368431091E+01  0.000000000000E+00
  0.400000000000E+01 -0.547368431091E+01  0.000000000000E+00
  0.400000000000E+01 -0.589473676682E+01  0.000000000000E+00
  0.100000000000E+03 -0.547368431091E+01  0.000000000000E+00
  0.100000000000E+03 -0.589473676682E+01  0.000000000000E+00
  0.400000000000E+01 -0.589473676682E+01  0.000000000000E+00
  0.400000000000E+01 -0.631578969955E+01  0.000000000000E+00
  0.100000000000E+03 -0.589473676682E+01  0.000000000000E+00
  0.100000000000E+03 -0.631578969955E+01  0.000000000000E+00
  0.400000000000E+01 -0.631578969955E+01  0.000000000000E+00
  0.400000000000E+01 -0.673684215546E+01  0.000000000000E+00
  0.100000000000E+03 -0.631578969955E+01  0.000000000000E+00
  0.100000000000E+03 -0.673684215546E+01  0.000000000000E+00
  0.400000000000E+01 -0.673684215546E+01  0.000000000000E+00
  0.400000000000E+01 -0.715789461136E+01  0.000000000000E+00
  0.100000000000E+03 -0.673684215546E+01  0.000000000000E+00
  0.100000000000E+03 -0.715789461136E+01  0.000000000000E+00
  0.400000000000E+01 -0.715789461136E+01  0.000000000000E+00
  0.400000000000E+01 -0.757894754410E+01  0.000000000000E+00
  0.100000000000E+03 -0.715789461136E+01  0.000000000000E+00
  0.100000000000E+03 -0.757894754410E+01  0.000000000000E+00
  0.400000000000E+01 -0.757894754410E+01  0.000000000000E+00
  0.400000000000E+01 -0.800000000000E+01  0.000000000000E+00
  0.100000000000E+03 -0.757894754410E+01  0.000000000000E+00
  0.100000000000E+03 -0.800000000000E+01  0.000000000000E+00
POLYGONS                  76                 304
3                   0                   3                   1
3                   0                   2                   3
3                   4                   7                   5
3                   4                   6                   7
3                   8                  11                   9
3                   8                  10                  11
3                  12                  15                  13
3                  12                  14                  15
3                  16                  19                  17
3                  16                  18                  19
3                  20                  23                  21
3                  20                  22                  23
3                  24                  27                  25
3                  24                  26                  27
3                  28                  31                  29
3                  28                  30                  31
3                  32                  35                  33
3                  32                  34                  35
3                  36                  39                  37
3                  36                  38                  39
3                  40                  43                  41
3                  40                  42                  43
3                  44                  47                  45
3                  44                  46                  47
3                  48                  51                  49
3                  48                  50                  51
3                  52                  55                  53
3                  52                  54                  55
3                  56                  59                  57
3                  56                  58                  59
3                  60                  63                  61
3                  60                  62                  63
3                  64                  67                  65
3                  64                  66                  67
3                  68                  71                  69
3                  68                  70                  71
3                  72                  75                  73
3                  72                  74                  75
3                  76                  79                  77
3                  76                  78                  79
3                  80                  83                  81
3                  80                  82                  83
3                  84                  87                  85
3                  84                  86                  87
3                  88                  91                  89
3                  88                  90                  91
3                  92                  95                  93
3                  92                  94                  95
3                  96                  99                  97
3                  96                  98                  99
3                 100                 103                 101
3                 100                 102                 103
3                 104                 107                 105
3                 104                 106                 107
3                 108                 111                 109
3                 108                 110                 111
3                 112                 115                 113
3                 112                 114                 115
3                 116                 119                 117
3                 116                 118                 119
3                 120                 123                 121
3                 120                 122                 123
3                 124                 127                 125
3                 124                 126                 127
3                 128                 131                 129
3                 128                 130                 131
3                 132                 135                 133
3                 132                 134                 135
3                 136                 139                 137
3                 136                 138                 139
3                 140                 143                 141
3                 140                 142                 143
3                 144                 147                 145
3                 144                 146                 147
3                 148                 151                 149
3                 148                 150                 151
POINT_DATA                 152
SCALARS mu float 1
LOOKUP_TABLE default
 -0.164313007645E-13
 -0.266453525910E-13
 -0.164313007645E-13
 -0.266453525910E-13
 -0.173194791842E-13
 -0.164313007645E-13
 -0.173194791842E-13
 -0.164313007645E-13
 -0.310862446895E-13
 -0.173194791842E-13
 -0.310862446895E-13
 -0.173194791842E-13
 -0.262012633812E-13
 -0.310862446895E-13
 -0.262012633812E-13
 -0.310862446895E-13
 -0.270894418009E-13
 -0.262012633812E-13
 -0.270894418009E-13
 -0.262012633812E-13
 -0.279776202206E-13
 -0.270894418009E-13
 -0.279776202206E-13
 -0.270894418009E-13
 -0.501820807131E-13
 -0.426325641456E-13
 -0.501820807131E-13
 -0.426325641456E-13
 -0.426325641456E-13
 -0.279776202206E-13
 -0.426325641456E-13
 -0.279776202206E-13
 -0.435207425653E-13
 -0.501820807131E-13
 -0.435207425653E-13
 -0.501820807131E-13
 -0.581756864904E-13
 -0.435207425653E-13
 -0.581756864904E-13
 -0.435207425653E-13
 -0.435207425653E-13
 -0.435207425653E-13
 -0.435207425653E-13
 -0.435207425653E-13
 -0.577315972805E-13
 -0.581756864904E-13
 -0.577315972805E-13
 -0.581756864904E-13
 -0.546229728116E-13
 -0.577315972805E-13
 -0.546229728116E-13
 -0.577315972805E-13
 -0.599520433298E-13
 -0.643929354283E-13
 -0.599520433298E-13
 -0.643929354283E-13
 -0.621724893790E-13
 -0.546229728116E-13
 -0.621724893790E-13
 -0.546229728116E-13
 -0.643929354283E-13
 -0.621724893790E-13
 -0.643929354283E-13
 -0.621724893790E-13
 -0.865973959208E-13
 -0.599520433298E-13
 -0.865973959208E-13
 -0.599520433298E-13
 -0.910382880193E-13
 -0.865973959208E-13
 -0.910382880193E-13
 -0.865973959208E-13
  0.000000000000E+00
 -0.910382880193E-13
  0.000000000000E+00
 -0.910382880193E-13
 -0.488498130835E-14
 -0.106581410364E-13
 -0.488498130835E-14
 -0.106581410364E-13
 -0.266453525910E-13
 -0.488498130835E-14
 -0.266453525910E-13
 -0.488498130835E-14
 -0.106581410364E-13
 -0.199840144433E-13
 -0.106581410364E-13
 -0.199840144433E-13
 -0.199840144433E-13
 -0.177635683940E-13
 -0.199840144433E-13
 -0.177635683940E-13
 -0.177635683940E-13
 -0.270894418009E-13
 -0.177635683940E-13
 -0.270894418009E-13
 -0.270894418009E-13
  0.177635683940E-14
 -0.270894418009E-13
  0.177635683940E-14
  0.177635683940E-14
 -0.106581410364E-13
  0.177635683940E-14
 -0.106581410364E-13
 -0.106581410364E-13
 -0.408562073062E-13
 -0.106581410364E-13
 -0.408562073062E-13
 -0.408562073062E-13
 -0.888178419700E-14
 -0.408562073062E-13
 -0.888178419700E-14
 -0.888178419700E-14
 -0.262012633812E-13
 -0.888178419700E-14
 -0.262012633812E-13
 -0.262012633812E-13
 -0.559552404411E-13
 -0.262012633812E-13
 -0.559552404411E-13
 -0.559552404411E-13
 -0.532907051820E-14
 -0.559552404411E-13
 -0.532907051820E-14
 -0.532907051820E-14
 -0.293098878501E-13
 -0.532907051820E-14
 -0.293098878501E-13
 -0.293098878501E-13
 -0.568434188608E-13
 -0.293098878501E-13
 -0.568434188608E-13
 -0.568434188608E-13
 -0.386357612570E-13
 -0.568434188608E-13
 -0.386357612570E-13
 -0.386357612570E-13
 -0.208721928630E-13
 -0.386357612570E-13
 -0.208721928630E-13
 -0.208721928630E-13
 -0.572875080707E-13
 -0.208721928630E-13
 -0.572875080707E-13
 -0.572875080707E-13
 -0.515143483426E-13
 -0.572875080707E-13
 -0.515143483426E-13
 -0.515143483426E-13
  0.000000000000E+00
 -0.515143483426E-13
  0.000000000000E+00
