# vtk DataFile Version 3.0
MFTran results file. Generated by MFTran, USU AeroLab (c) 2021.
ASCII
DATASET POLYDATA
POINTS                  78 float
      4.000000000000      0.421052634716      0.000000000000
     99.543322981395      0.421052634716      9.554332298139
      4.000000000000      0.000000000000      0.000000000000
     99.543322981395      0.000000000000      9.554332298139
      4.000000000000      0.842105269432      0.000000000000
     99.543322981395      0.842105269432      9.554332298139
      4.000000000000      1.263157844540      0.000000000000
     99.543322981395      1.263157844540      9.554332298139
      4.000000000000      1.684210538860      0.000000000000
     99.543322981395      1.684210538860      9.554332298139
      4.000000000000      2.105263233180      0.000000000000
     99.543322981395      2.105263233180      9.554332298139
      4.000000000000      2.526315689090      0.000000000000
     99.543322981395      2.526315689090      9.554332298139
      4.000000000000      2.947368383410      0.000000000000
     99.543322981395      2.947368383410      9.554332298139
      4.000000000000      3.368421077730      0.000000000000
     99.543322981395      3.368421077730      9.554332298139
      4.000000000000      3.789473772050      0.000000000000
     99.543322981395      3.789473772050      9.554332298139
      4.000000000000      4.210526466370      0.000000000000
     99.543322981395      4.210526466370      9.554332298139
      4.000000000000      4.631578922270      0.000000000000
     99.543322981395      4.631578922270      9.554332298139
      4.000000000000      5.052631378170      0.000000000000
     99.543322981395      5.052631378170      9.554332298139
      4.000000000000      5.473684310910      0.000000000000
     99.543322981395      5.473684310910      9.554332298139
      4.000000000000      5.894736766820      0.000000000000
     99.543322981395      5.894736766820      9.554332298139
      4.000000000000      6.315789699550      0.000000000000
     99.543322981395      6.315789699550      9.554332298139
      4.000000000000      6.736842155460      0.000000000000
     99.543322981395      6.736842155460      9.554332298139
      4.000000000000      7.157894611360      0.000000000000
     99.543322981395      7.157894611360      9.554332298139
      4.000000000000      7.578947544100      0.000000000000
     99.543322981395      7.578947544100      9.554332298139
      4.000000000000      8.000000000000      0.000000000000
     99.543322981395      8.000000000000      9.554332298139
      4.000000000000     -0.421052634716      0.000000000000
     99.543322981395     -0.421052634716      9.554332298139
      4.000000000000     -0.842105269432      0.000000000000
     99.543322981395     -0.842105269432      9.554332298139
      4.000000000000     -1.263157844540      0.000000000000
     99.543322981395     -1.263157844540      9.554332298139
      4.000000000000     -1.684210538860      0.000000000000
     99.543322981395     -1.684210538860      9.554332298139
      4.000000000000     -2.105263233180      0.000000000000
     99.543322981395     -2.105263233180      9.554332298139
      4.000000000000     -2.526315689090      0.000000000000
     99.543322981395     -2.526315689090      9.554332298139
      4.000000000000     -2.947368383410      0.000000000000
     99.543322981395     -2.947368383410      9.554332298139
      4.000000000000     -3.368421077730      0.000000000000
     99.543322981395     -3.368421077730      9.554332298139
      4.000000000000     -3.789473772050      0.000000000000
     99.543322981395     -3.789473772050      9.554332298139
      4.000000000000     -4.210526466370      0.000000000000
     99.543322981395     -4.210526466370      9.554332298139
      4.000000000000     -4.631578922270      0.000000000000
     99.543322981395     -4.631578922270      9.554332298139
      4.000000000000     -5.052631378170      0.000000000000
     99.543322981395     -5.052631378170      9.554332298139
      4.000000000000     -5.473684310910      0.000000000000
     99.543322981395     -5.473684310910      9.554332298139
      4.000000000000     -5.894736766820      0.000000000000
     99.543322981395     -5.894736766820      9.554332298139
      4.000000000000     -6.315789699550      0.000000000000
     99.543322981395     -6.315789699550      9.554332298139
      4.000000000000     -6.736842155460      0.000000000000
     99.543322981395     -6.736842155460      9.554332298139
      4.000000000000     -7.157894611360      0.000000000000
     99.543322981395     -7.157894611360      9.554332298139
      4.000000000000     -7.578947544100      0.000000000000
     99.543322981395     -7.578947544100      9.554332298139
      4.000000000000     -8.000000000000      0.000000000000
     99.543322981395     -8.000000000000      9.554332298139
POLYGONS                  76                 304
3                   0                   1                   3
3                   0                   3                   2
3                   4                   5                   1
3                   4                   1                   0
3                   6                   7                   5
3                   6                   5                   4
3                   8                   9                   7
3                   8                   7                   6
3                  10                  11                   9
3                  10                   9                   8
3                  12                  13                  11
3                  12                  11                  10
3                  14                  15                  13
3                  14                  13                  12
3                  16                  17                  15
3                  16                  15                  14
3                  18                  19                  17
3                  18                  17                  16
3                  20                  21                  19
3                  20                  19                  18
3                  22                  23                  21
3                  22                  21                  20
3                  24                  25                  23
3                  24                  23                  22
3                  26                  27                  25
3                  26                  25                  24
3                  28                  29                  27
3                  28                  27                  26
3                  30                  31                  29
3                  30                  29                  28
3                  32                  33                  31
3                  32                  31                  30
3                  34                  35                  33
3                  34                  33                  32
3                  36                  37                  35
3                  36                  35                  34
3                  38                  39                  37
3                  38                  37                  36
3                   2                   3                  41
3                   2                  41                  40
3                  40                  41                  43
3                  40                  43                  42
3                  42                  43                  45
3                  42                  45                  44
3                  44                  45                  47
3                  44                  47                  46
3                  46                  47                  49
3                  46                  49                  48
3                  48                  49                  51
3                  48                  51                  50
3                  50                  51                  53
3                  50                  53                  52
3                  52                  53                  55
3                  52                  55                  54
3                  54                  55                  57
3                  54                  57                  56
3                  56                  57                  59
3                  56                  59                  58
3                  58                  59                  61
3                  58                  61                  60
3                  60                  61                  63
3                  60                  63                  62
3                  62                  63                  65
3                  62                  65                  64
3                  64                  65                  67
3                  64                  67                  66
3                  66                  67                  69
3                  66                  69                  68
3                  68                  69                  71
3                  68                  71                  70
3                  70                  71                  73
3                  70                  73                  72
3                  72                  73                  75
3                  72                  75                  74
3                  74                  75                  77
3                  74                  77                  76
POINT_DATA                  78
SCALARS mu float 1
LOOKUP_TABLE default
     -0.788149820589
     -0.788149820589
     -0.787874858088
     -0.787874858088
     -0.787029828703
     -0.787029828703
     -0.784988157559
     -0.784988157559
     -0.779298823234
     -0.779298823234
     -0.771689939117
     -0.771689939117
     -0.762588997120
     -0.762588997120
     -0.748536261942
     -0.748536261942
     -0.737248148353
     -0.737248148353
     -0.720038709867
     -0.720038709867
     -0.703454472069
     -0.703454472069
     -0.681811008600
     -0.681811008600
     -0.650952760491
     -0.650952760491
     -0.616456391755
     -0.616456391755
     -0.575253569410
     -0.575253569410
     -0.521140481107
     -0.521140481107
     -0.447375840298
     -0.447375840298
     -0.345012645749
     -0.345012645749
     -0.208635831591
     -0.208635831591
      0.000000000000
      0.000000000000
     -0.787658823087
     -0.787658823087
     -0.785200717975
     -0.785200717975
     -0.782564089341
     -0.782564089341
     -0.778230190247
     -0.778230190247
     -0.770007074320
     -0.770007074320
     -0.761563893347
     -0.761563893347
     -0.747650969128
     -0.747650969128
     -0.737172725731
     -0.737172725731
     -0.718287179640
     -0.718287179640
     -0.696413229643
     -0.696413229643
     -0.677457176622
     -0.677457176622
     -0.654817324732
     -0.654817324732
     -0.624691502207
     -0.624691502207
     -0.577726440915
     -0.577726440915
     -0.525390679750
     -0.525390679750
     -0.451395534744
     -0.451395534744
     -0.347289812535
     -0.347289812535
     -0.211132017217
     -0.211132017217
      0.000000000000
      0.000000000000
