# vtk DataFile Version 3.0
MFTran results file. Generated by MFTran, USU AeroLab (c) 2021.
ASCII
DATASET POLYDATA
POINTS                  78 float
      0.000000000000      0.000000000000      0.000000000000
    -95.346258924559     28.603877677368     -9.534625892456
      0.000000000000      0.421052634716      0.000000000000
    -95.231426387819     28.990480551062     -9.523142638782
      0.000000000000      0.842105269432      0.000000000000
    -95.116593851078     29.377083424755     -9.511659385108
      0.000000000000      1.263157844540      0.000000000000
    -95.001761330594     29.763686243718     -9.500176133059
      0.000000000000      1.684210538860      0.000000000000
    -94.886928777597     30.150289172139     -9.488692877760
      0.000000000000      2.105263233180      0.000000000000
    -94.772096224601     30.536892100560     -9.477209622460
      0.000000000000      2.526315689090      0.000000000000
    -94.657263736626     30.923494810078     -9.465726373663
      0.000000000000      2.947368383410      0.000000000000
    -94.542431183629     31.310097738499     -9.454243118363
      0.000000000000      3.368421077730      0.000000000000
    -94.427598630633     31.696700666920     -9.442759863063
      0.000000000000      3.789473772050      0.000000000000
    -94.312766077637     32.083303595341     -9.431276607764
      0.000000000000      4.210526466370      0.000000000000
    -94.197933524640     32.469906523762     -9.419793352464
      0.000000000000      4.631578922270      0.000000000000
    -94.083101036667     32.856509233270     -9.408310103667
      0.000000000000      5.052631378170      0.000000000000
    -93.968268548695     33.243111942778     -9.396826854869
      0.000000000000      5.473684310910      0.000000000000
    -93.853435930675     33.629715090112     -9.385343593067
      0.000000000000      5.894736766820      0.000000000000
    -93.738603442699     34.016317799630     -9.373860344270
      0.000000000000      6.315789699550      0.000000000000
    -93.623770824682     34.402920946955     -9.362377082468
      0.000000000000      6.736842155460      0.000000000000
    -93.508938336707     34.789523656472     -9.350893833671
      0.000000000000      7.157894611360      0.000000000000
    -93.394105848734     35.176126365980     -9.339410584873
      0.000000000000      7.578947544100      0.000000000000
    -93.279273230714     35.562729513314     -9.327927323071
      0.000000000000      8.000000000000      0.000000000000
    -93.164440742741     35.949332222822     -9.316444074274
      0.000000000000     -0.421052634716      0.000000000000
    -95.461091461300     28.217274803674     -9.546109146130
      0.000000000000     -0.842105269432      0.000000000000
    -95.575923998041     27.830671929980     -9.557592399804
      0.000000000000     -1.263157844540      0.000000000000
    -95.690756518525     27.444069111017     -9.569075651852
      0.000000000000     -1.684210538860      0.000000000000
    -95.805589071521     27.057466182596     -9.580558907152
      0.000000000000     -2.105263233180      0.000000000000
    -95.920421624517     26.670863254175     -9.592042162452
      0.000000000000     -2.526315689090      0.000000000000
    -96.035254112493     26.284260544658     -9.603525411249
      0.000000000000     -2.947368383410      0.000000000000
    -96.150086665489     25.897657616237     -9.615008666549
      0.000000000000     -3.368421077730      0.000000000000
    -96.264919218486     25.511054687816     -9.626491921849
      0.000000000000     -3.789473772050      0.000000000000
    -96.379751771482     25.124451759395     -9.637975177148
      0.000000000000     -4.210526466370      0.000000000000
    -96.494584324478     24.737848830973     -9.649458432448
      0.000000000000     -4.631578922270      0.000000000000
    -96.609416812451     24.351246121465     -9.660941681245
      0.000000000000     -5.052631378170      0.000000000000
    -96.724249300424     23.964643411957     -9.672424930042
      0.000000000000     -5.473684310910      0.000000000000
    -96.839081918444     23.578040264623     -9.683908191844
      0.000000000000     -5.894736766820      0.000000000000
    -96.953914406419     23.191437555106     -9.695391440642
      0.000000000000     -6.315789699550      0.000000000000
    -97.068747024437     22.804834407781     -9.706874702444
      0.000000000000     -6.736842155460      0.000000000000
    -97.183579512412     22.418231698264     -9.718357951241
      0.000000000000     -7.157894611360      0.000000000000
    -97.298412000385     22.031628988755     -9.729841200038
      0.000000000000     -7.578947544100      0.000000000000
    -97.413244618405     21.645025841421     -9.741324461840
      0.000000000000     -8.000000000000      0.000000000000
    -97.528077106377     21.258423131913     -9.752807710638
POLYGONS                  76                 304
3                   0                   1                   3
3                   0                   3                   2
3                   2                   3                   5
3                   2                   5                   4
3                   4                   5                   7
3                   4                   7                   6
3                   6                   7                   9
3                   6                   9                   8
3                   8                   9                  11
3                   8                  11                  10
3                  10                  11                  13
3                  10                  13                  12
3                  12                  13                  15
3                  12                  15                  14
3                  14                  15                  17
3                  14                  17                  16
3                  16                  17                  19
3                  16                  19                  18
3                  18                  19                  21
3                  18                  21                  20
3                  20                  21                  23
3                  20                  23                  22
3                  22                  23                  25
3                  22                  25                  24
3                  24                  25                  27
3                  24                  27                  26
3                  26                  27                  29
3                  26                  29                  28
3                  28                  29                  31
3                  28                  31                  30
3                  30                  31                  33
3                  30                  33                  32
3                  32                  33                  35
3                  32                  35                  34
3                  34                  35                  37
3                  34                  37                  36
3                  36                  37                  39
3                  36                  39                  38
3                  40                  41                   1
3                  40                   1                   0
3                  42                  43                  41
3                  42                  41                  40
3                  44                  45                  43
3                  44                  43                  42
3                  46                  47                  45
3                  46                  45                  44
3                  48                  49                  47
3                  48                  47                  46
3                  50                  51                  49
3                  50                  49                  48
3                  52                  53                  51
3                  52                  51                  50
3                  54                  55                  53
3                  54                  53                  52
3                  56                  57                  55
3                  56                  55                  54
3                  58                  59                  57
3                  58                  57                  56
3                  60                  61                  59
3                  60                  59                  58
3                  62                  63                  61
3                  62                  61                  60
3                  64                  65                  63
3                  64                  63                  62
3                  66                  67                  65
3                  66                  65                  64
3                  68                  69                  67
3                  68                  67                  66
3                  70                  71                  69
3                  70                  69                  68
3                  72                  73                  71
3                  72                  71                  70
3                  74                  75                  73
3                  74                  73                  72
3                  76                  77                  75
3                  76                  75                  74
POINT_DATA                  78
SCALARS mu float 1
LOOKUP_TABLE default
      0.825147156726
      0.825147156726
      0.829278109648
      0.829278109648
      0.831913258553
      0.831913258553
      0.832979901133
      0.832979901133
      0.832322258306
      0.832322258306
      0.830009912884
      0.830009912884
      0.825999451859
      0.825999451859
      0.819115278079
      0.819115278079
      0.811007554315
      0.811007554315
      0.800264412080
      0.800264412080
      0.786413758559
      0.786413758559
      0.768921029117
      0.768921029117
      0.746513206831
      0.746513206831
      0.719420179528
      0.719420179528
      0.683973028630
      0.683973028630
      0.638157389386
      0.638157389386
      0.577409856789
      0.577409856789
      0.488370051591
      0.488370051591
      0.338483841926
      0.338483841926
      0.000000000000
      0.000000000000
      0.819842911061
      0.819842911061
      0.812983164591
      0.812983164591
      0.804245406886
      0.804245406886
      0.794476850485
      0.794476850485
      0.781895685660
      0.781895685660
      0.767932461276
      0.767932461276
      0.751874914673
      0.751874914673
      0.733444155871
      0.733444155871
      0.711880809988
      0.711880809988
      0.686762475287
      0.686762475287
      0.658230446408
      0.658230446408
      0.625930848540
      0.625930848540
      0.586864406281
      0.586864406281
      0.541147610555
      0.541147610555
      0.485734480674
      0.485734480674
      0.417870178751
      0.417870178751
      0.329505191161
      0.329505191161
      0.204945455352
      0.204945455352
      0.000000000000
      0.000000000000
