# vtk DataFile Version 3.0
MachLine results file. Generated by MachLine, USU AeroLab (c) 2023.
ASCII
DATASET POLYDATA
POINTS                 152 float
  0.400000000000E+01  0.421052634716E+00  0.000000000000E+00
  0.400000000000E+01  0.000000000000E+00  0.000000000000E+00
  0.277334450057E+02  0.421052634716E+00  0.412012605298E+01
  0.277334450057E+02  0.000000000000E+00  0.412012605298E+01
  0.400000000000E+01  0.842105269432E+00  0.000000000000E+00
  0.400000000000E+01  0.421052634716E+00  0.000000000000E+00
  0.277334450057E+02  0.842105269432E+00  0.412012605298E+01
  0.277334450057E+02  0.421052634716E+00  0.412012605298E+01
  0.400000000000E+01  0.126315784454E+01  0.000000000000E+00
  0.400000000000E+01  0.842105269432E+00  0.000000000000E+00
  0.277334450057E+02  0.126315784454E+01  0.412012605298E+01
  0.277334450057E+02  0.842105269432E+00  0.412012605298E+01
  0.400000000000E+01  0.168421053886E+01  0.000000000000E+00
  0.400000000000E+01  0.126315784454E+01  0.000000000000E+00
  0.277334450057E+02  0.168421053886E+01  0.412012605298E+01
  0.277334450057E+02  0.126315784454E+01  0.412012605298E+01
  0.400000000000E+01  0.210526323318E+01  0.000000000000E+00
  0.400000000000E+01  0.168421053886E+01  0.000000000000E+00
  0.277334450057E+02  0.210526323318E+01  0.412012605298E+01
  0.277334450057E+02  0.168421053886E+01  0.412012605298E+01
  0.400000000000E+01  0.252631568909E+01  0.000000000000E+00
  0.400000000000E+01  0.210526323318E+01  0.000000000000E+00
  0.277334450057E+02  0.252631568909E+01  0.412012605298E+01
  0.277334450057E+02  0.210526323318E+01  0.412012605298E+01
  0.400000000000E+01  0.336842107773E+01  0.000000000000E+00
  0.400000000000E+01  0.294736838341E+01  0.000000000000E+00
  0.277334450057E+02  0.336842107773E+01  0.412012605298E+01
  0.277334450057E+02  0.294736838341E+01  0.412012605298E+01
  0.400000000000E+01  0.294736838341E+01  0.000000000000E+00
  0.400000000000E+01  0.252631568909E+01  0.000000000000E+00
  0.277334450057E+02  0.294736838341E+01  0.412012605298E+01
  0.277334450057E+02  0.252631568909E+01  0.412012605298E+01
  0.400000000000E+01  0.421052646637E+01  0.000000000000E+00
  0.400000000000E+01  0.378947377205E+01  0.000000000000E+00
  0.277334450057E+02  0.421052646637E+01  0.412012605298E+01
  0.277334450057E+02  0.378947377205E+01  0.412012605298E+01
  0.400000000000E+01  0.463157892227E+01  0.000000000000E+00
  0.400000000000E+01  0.421052646637E+01  0.000000000000E+00
  0.277334450057E+02  0.463157892227E+01  0.412012605298E+01
  0.277334450057E+02  0.421052646637E+01  0.412012605298E+01
  0.400000000000E+01  0.378947377205E+01  0.000000000000E+00
  0.400000000000E+01  0.336842107773E+01  0.000000000000E+00
  0.277334450057E+02  0.378947377205E+01  0.412012605298E+01
  0.277334450057E+02  0.336842107773E+01  0.412012605298E+01
  0.400000000000E+01  0.547368431091E+01  0.000000000000E+00
  0.400000000000E+01  0.505263137817E+01  0.000000000000E+00
  0.277334450057E+02  0.547368431091E+01  0.412012605298E+01
  0.277334450057E+02  0.505263137817E+01  0.412012605298E+01
  0.400000000000E+01  0.505263137817E+01  0.000000000000E+00
  0.400000000000E+01  0.463157892227E+01  0.000000000000E+00
  0.277334450057E+02  0.505263137817E+01  0.412012605298E+01
  0.277334450057E+02  0.463157892227E+01  0.412012605298E+01
  0.400000000000E+01  0.589473676682E+01  0.000000000000E+00
  0.400000000000E+01  0.547368431091E+01  0.000000000000E+00
  0.277334450057E+02  0.589473676682E+01  0.412012605298E+01
  0.277334450057E+02  0.547368431091E+01  0.412012605298E+01
  0.400000000000E+01  0.631578969955E+01  0.000000000000E+00
  0.400000000000E+01  0.589473676682E+01  0.000000000000E+00
  0.277334450057E+02  0.631578969955E+01  0.412012605298E+01
  0.277334450057E+02  0.589473676682E+01  0.412012605298E+01
  0.400000000000E+01  0.673684215546E+01  0.000000000000E+00
  0.400000000000E+01  0.631578969955E+01  0.000000000000E+00
  0.277334450057E+02  0.673684215546E+01  0.412012605298E+01
  0.277334450057E+02  0.631578969955E+01  0.412012605298E+01
  0.400000000000E+01  0.715789461136E+01  0.000000000000E+00
  0.400000000000E+01  0.673684215546E+01  0.000000000000E+00
  0.277334450057E+02  0.715789461136E+01  0.412012605298E+01
  0.277334450057E+02  0.673684215546E+01  0.412012605298E+01
  0.400000000000E+01  0.757894754410E+01  0.000000000000E+00
  0.400000000000E+01  0.715789461136E+01  0.000000000000E+00
  0.277334450057E+02  0.757894754410E+01  0.412012605298E+01
  0.277334450057E+02  0.715789461136E+01  0.412012605298E+01
  0.400000000000E+01  0.800000000000E+01  0.000000000000E+00
  0.400000000000E+01  0.757894754410E+01  0.000000000000E+00
  0.277334450057E+02  0.800000000000E+01  0.412012605298E+01
  0.277334450057E+02  0.757894754410E+01  0.412012605298E+01
  0.400000000000E+01  0.000000000000E+00  0.000000000000E+00
  0.400000000000E+01 -0.421052634716E+00  0.000000000000E+00
  0.277334450057E+02  0.000000000000E+00  0.412012605298E+01
  0.277334450057E+02 -0.421052634716E+00  0.412012605298E+01
  0.400000000000E+01 -0.421052634716E+00  0.000000000000E+00
  0.400000000000E+01 -0.842105269432E+00  0.000000000000E+00
  0.277334450057E+02 -0.421052634716E+00  0.412012605298E+01
  0.277334450057E+02 -0.842105269432E+00  0.412012605298E+01
  0.400000000000E+01 -0.842105269432E+00  0.000000000000E+00
  0.400000000000E+01 -0.126315784454E+01  0.000000000000E+00
  0.277334450057E+02 -0.842105269432E+00  0.412012605298E+01
  0.277334450057E+02 -0.126315784454E+01  0.412012605298E+01
  0.400000000000E+01 -0.126315784454E+01  0.000000000000E+00
  0.400000000000E+01 -0.168421053886E+01  0.000000000000E+00
  0.277334450057E+02 -0.126315784454E+01  0.412012605298E+01
  0.277334450057E+02 -0.168421053886E+01  0.412012605298E+01
  0.400000000000E+01 -0.168421053886E+01  0.000000000000E+00
  0.400000000000E+01 -0.210526323318E+01  0.000000000000E+00
  0.277334450057E+02 -0.168421053886E+01  0.412012605298E+01
  0.277334450057E+02 -0.210526323318E+01  0.412012605298E+01
  0.400000000000E+01 -0.210526323318E+01  0.000000000000E+00
  0.400000000000E+01 -0.252631568909E+01  0.000000000000E+00
  0.277334450057E+02 -0.210526323318E+01  0.412012605298E+01
  0.277334450057E+02 -0.252631568909E+01  0.412012605298E+01
  0.400000000000E+01 -0.252631568909E+01  0.000000000000E+00
  0.400000000000E+01 -0.294736838341E+01  0.000000000000E+00
  0.277334450057E+02 -0.252631568909E+01  0.412012605298E+01
  0.277334450057E+02 -0.294736838341E+01  0.412012605298E+01
  0.400000000000E+01 -0.336842107773E+01  0.000000000000E+00
  0.400000000000E+01 -0.378947377205E+01  0.000000000000E+00
  0.277334450057E+02 -0.336842107773E+01  0.412012605298E+01
  0.277334450057E+02 -0.378947377205E+01  0.412012605298E+01
  0.400000000000E+01 -0.294736838341E+01  0.000000000000E+00
  0.400000000000E+01 -0.336842107773E+01  0.000000000000E+00
  0.277334450057E+02 -0.294736838341E+01  0.412012605298E+01
  0.277334450057E+02 -0.336842107773E+01  0.412012605298E+01
  0.400000000000E+01 -0.378947377205E+01  0.000000000000E+00
  0.400000000000E+01 -0.421052646637E+01  0.000000000000E+00
  0.277334450057E+02 -0.378947377205E+01  0.412012605298E+01
  0.277334450057E+02 -0.421052646637E+01  0.412012605298E+01
  0.400000000000E+01 -0.421052646637E+01  0.000000000000E+00
  0.400000000000E+01 -0.463157892227E+01  0.000000000000E+00
  0.277334450057E+02 -0.421052646637E+01  0.412012605298E+01
  0.277334450057E+02 -0.463157892227E+01  0.412012605298E+01
  0.400000000000E+01 -0.463157892227E+01  0.000000000000E+00
  0.400000000000E+01 -0.505263137817E+01  0.000000000000E+00
  0.277334450057E+02 -0.463157892227E+01  0.412012605298E+01
  0.277334450057E+02 -0.505263137817E+01  0.412012605298E+01
  0.400000000000E+01 -0.505263137817E+01  0.000000000000E+00
  0.400000000000E+01 -0.547368431091E+01  0.000000000000E+00
  0.277334450057E+02 -0.505263137817E+01  0.412012605298E+01
  0.277334450057E+02 -0.547368431091E+01  0.412012605298E+01
  0.400000000000E+01 -0.547368431091E+01  0.000000000000E+00
  0.400000000000E+01 -0.589473676682E+01  0.000000000000E+00
  0.277334450057E+02 -0.547368431091E+01  0.412012605298E+01
  0.277334450057E+02 -0.589473676682E+01  0.412012605298E+01
  0.400000000000E+01 -0.589473676682E+01  0.000000000000E+00
  0.400000000000E+01 -0.631578969955E+01  0.000000000000E+00
  0.277334450057E+02 -0.589473676682E+01  0.412012605298E+01
  0.277334450057E+02 -0.631578969955E+01  0.412012605298E+01
  0.400000000000E+01 -0.673684215546E+01  0.000000000000E+00
  0.400000000000E+01 -0.715789461136E+01  0.000000000000E+00
  0.277334450057E+02 -0.673684215546E+01  0.412012605298E+01
  0.277334450057E+02 -0.715789461136E+01  0.412012605298E+01
  0.400000000000E+01 -0.631578969955E+01  0.000000000000E+00
  0.400000000000E+01 -0.673684215546E+01  0.000000000000E+00
  0.277334450057E+02 -0.631578969955E+01  0.412012605298E+01
  0.277334450057E+02 -0.673684215546E+01  0.412012605298E+01
  0.400000000000E+01 -0.715789461136E+01  0.000000000000E+00
  0.400000000000E+01 -0.757894754410E+01  0.000000000000E+00
  0.277334450057E+02 -0.715789461136E+01  0.412012605298E+01
  0.277334450057E+02 -0.757894754410E+01  0.412012605298E+01
  0.400000000000E+01 -0.757894754410E+01  0.000000000000E+00
  0.400000000000E+01 -0.800000000000E+01  0.000000000000E+00
  0.277334450057E+02 -0.757894754410E+01  0.412012605298E+01
  0.277334450057E+02 -0.800000000000E+01  0.412012605298E+01
POLYGONS                  76                 304
3                   0                   3                   1
3                   0                   2                   3
3                   4                   7                   5
3                   4                   6                   7
3                   8                  11                   9
3                   8                  10                  11
3                  12                  15                  13
3                  12                  14                  15
3                  16                  19                  17
3                  16                  18                  19
3                  20                  23                  21
3                  20                  22                  23
3                  24                  27                  25
3                  24                  26                  27
3                  28                  31                  29
3                  28                  30                  31
3                  32                  35                  33
3                  32                  34                  35
3                  36                  39                  37
3                  36                  38                  39
3                  40                  43                  41
3                  40                  42                  43
3                  44                  47                  45
3                  44                  46                  47
3                  48                  51                  49
3                  48                  50                  51
3                  52                  55                  53
3                  52                  54                  55
3                  56                  59                  57
3                  56                  58                  59
3                  60                  63                  61
3                  60                  62                  63
3                  64                  67                  65
3                  64                  66                  67
3                  68                  71                  69
3                  68                  70                  71
3                  72                  75                  73
3                  72                  74                  75
3                  76                  79                  77
3                  76                  78                  79
3                  80                  83                  81
3                  80                  82                  83
3                  84                  87                  85
3                  84                  86                  87
3                  88                  91                  89
3                  88                  90                  91
3                  92                  95                  93
3                  92                  94                  95
3                  96                  99                  97
3                  96                  98                  99
3                 100                 103                 101
3                 100                 102                 103
3                 104                 107                 105
3                 104                 106                 107
3                 108                 111                 109
3                 108                 110                 111
3                 112                 115                 113
3                 112                 114                 115
3                 116                 119                 117
3                 116                 118                 119
3                 120                 123                 121
3                 120                 122                 123
3                 124                 127                 125
3                 124                 126                 127
3                 128                 131                 129
3                 128                 130                 131
3                 132                 135                 133
3                 132                 134                 135
3                 136                 139                 137
3                 136                 138                 139
3                 140                 143                 141
3                 140                 142                 143
3                 144                 147                 145
3                 144                 146                 147
3                 148                 151                 149
3                 148                 150                 151
POINT_DATA                 152
SCALARS mu float 1
LOOKUP_TABLE default
 -0.120962507315E+01
 -0.130026242458E+01
 -0.120962507315E+01
 -0.130026242458E+01
 -0.132732304429E+01
 -0.120962507315E+01
 -0.132732304429E+01
 -0.120962507315E+01
 -0.130830798790E+01
 -0.132732304429E+01
 -0.130830798790E+01
 -0.132732304429E+01
 -0.122742810426E+01
 -0.130830798790E+01
 -0.122742810426E+01
 -0.130830798790E+01
 -0.128484930436E+01
 -0.122742810426E+01
 -0.128484930436E+01
 -0.122742810426E+01
 -0.127772169026E+01
 -0.128484930436E+01
 -0.127772169026E+01
 -0.128484930436E+01
 -0.122833100289E+01
 -0.120897593582E+01
 -0.122833100289E+01
 -0.120897593582E+01
 -0.120897593582E+01
 -0.127772169026E+01
 -0.120897593582E+01
 -0.127772169026E+01
 -0.115032686931E+01
 -0.121560039442E+01
 -0.115032686931E+01
 -0.121560039442E+01
 -0.114116510428E+01
 -0.115032686931E+01
 -0.114116510428E+01
 -0.115032686931E+01
 -0.121560039442E+01
 -0.122833100289E+01
 -0.121560039442E+01
 -0.122833100289E+01
 -0.103071945748E+01
 -0.111028808316E+01
 -0.103071945748E+01
 -0.111028808316E+01
 -0.111028808316E+01
 -0.114116510428E+01
 -0.111028808316E+01
 -0.114116510428E+01
 -0.995223964586E+00
 -0.103071945748E+01
 -0.995223964586E+00
 -0.103071945748E+01
 -0.929695001897E+00
 -0.995223964586E+00
 -0.929695001897E+00
 -0.995223964586E+00
 -0.800131448953E+00
 -0.929695001897E+00
 -0.800131448953E+00
 -0.929695001897E+00
 -0.687815968465E+00
 -0.800131448953E+00
 -0.687815968465E+00
 -0.800131448953E+00
 -0.659609372753E+00
 -0.687815968465E+00
 -0.659609372753E+00
 -0.687815968465E+00
  0.000000000000E+00
 -0.659609372753E+00
  0.000000000000E+00
 -0.659609372753E+00
 -0.130026242458E+01
 -0.120962507315E+01
 -0.130026242458E+01
 -0.120962507315E+01
 -0.120962507315E+01
 -0.132732304429E+01
 -0.120962507315E+01
 -0.132732304429E+01
 -0.132732304429E+01
 -0.130830798790E+01
 -0.132732304429E+01
 -0.130830798790E+01
 -0.130830798790E+01
 -0.122742810426E+01
 -0.130830798790E+01
 -0.122742810426E+01
 -0.122742810426E+01
 -0.128484930436E+01
 -0.122742810426E+01
 -0.128484930436E+01
 -0.128484930436E+01
 -0.127772169026E+01
 -0.128484930436E+01
 -0.127772169026E+01
 -0.127772169026E+01
 -0.120897593582E+01
 -0.127772169026E+01
 -0.120897593582E+01
 -0.122833100289E+01
 -0.121560039442E+01
 -0.122833100289E+01
 -0.121560039442E+01
 -0.120897593582E+01
 -0.122833100289E+01
 -0.120897593582E+01
 -0.122833100289E+01
 -0.121560039442E+01
 -0.115032686931E+01
 -0.121560039442E+01
 -0.115032686931E+01
 -0.115032686931E+01
 -0.114116510428E+01
 -0.115032686931E+01
 -0.114116510428E+01
 -0.114116510428E+01
 -0.111028808316E+01
 -0.114116510428E+01
 -0.111028808316E+01
 -0.111028808316E+01
 -0.103071945748E+01
 -0.111028808316E+01
 -0.103071945748E+01
 -0.103071945748E+01
 -0.995223964586E+00
 -0.103071945748E+01
 -0.995223964586E+00
 -0.995223964586E+00
 -0.929695001897E+00
 -0.995223964586E+00
 -0.929695001897E+00
 -0.800131448953E+00
 -0.687815968465E+00
 -0.800131448953E+00
 -0.687815968465E+00
 -0.929695001897E+00
 -0.800131448953E+00
 -0.929695001897E+00
 -0.800131448953E+00
 -0.687815968465E+00
 -0.659609372753E+00
 -0.687815968465E+00
 -0.659609372753E+00
 -0.659609372753E+00
  0.000000000000E+00
 -0.659609372753E+00
  0.000000000000E+00
