# vtk DataFile Version 3.0
MFTran results file. Generated by MFTran, USU AeroLab (c) 2021.
ASCII
DATASET POLYDATA
POINTS                 146 float
      0.590621888638      0.064742460847     -0.037168629467
     99.513246824794      0.064742460847      9.855093864148
      0.590096533298      0.064962737262     -0.036782648414
     99.513203407310      0.064962737262      9.855528038987
      0.589465618134      0.065084442496     -0.036565158516
     99.513175626972      0.065084442496      9.855805842368
      0.588707864285      0.065229021013     -0.036305382848
     99.513142404096      0.065229021013      9.856138071133
      0.587797582150      0.065400391817     -0.035995401442
     99.513102700173      0.065400391817      9.856535110360
      0.586703777313      0.065603010356     -0.035625934601
     99.513055289547      0.065603010356      9.857009216623
      0.585389256477      0.065841831267     -0.035186186433
     99.512998735066      0.065841831267      9.857574761426
      0.583809018135      0.066122256219     -0.034663669765
     99.512931354819      0.066122256219      9.858248563903
      0.581908702850      0.066450014710     -0.034044098109
     99.512851196087      0.066450014710      9.859050151215
      0.579622566700      0.066830895841     -0.033311292529
     99.512756006068      0.066830895841      9.860002051408
      0.576871156693      0.067270398140     -0.032447241247
     99.512643214753      0.067270398140      9.861129964559
      0.573558211327      0.067773073912     -0.031432308257
     99.512509924899      0.067773073912      9.862462863101
      0.569566905499      0.068341664970     -0.030245777219
     99.512352928699      0.068341664970      9.864032825100
      0.564755439758      0.068975813687     -0.028866784647
     99.512168756506      0.068975813687      9.865874547028
      0.558951854706      0.069670356810     -0.027275966480
     99.511953788519      0.069670356810      9.868024226901
      0.551947116852      0.070413179696     -0.025458065793
     99.511704444512      0.070413179696      9.870517666973
      0.543487668037      0.071182794869     -0.023405944929
     99.511417507309      0.071182794869      9.873387038999
      0.533266901970      0.071946032345     -0.021126573905
     99.511090631306      0.071946032345      9.876655799028
      0.520915508270      0.072657130659     -0.018649727106
     99.510723107923      0.072657130659      9.880331032859
      0.505992650986      0.073260530829     -0.016040332615
     99.510317000971      0.073260530829      9.884392102383
      0.487979978323      0.073702484369     -0.013415489346
     99.509878772205      0.073702484369      9.888774390042
      0.469901978970      0.073931708932     -0.011323519051
     99.509492656340      0.073931708932      9.892635548686
      0.454824864864      0.074032850563     -0.009972292930
     99.509209593218      0.074032850563      9.895466179906
      0.442275553942      0.074099697173     -0.009109274484
     99.508999895244      0.074099697173      9.897563159646
      0.431809127331      0.074163965881     -0.008576682769
     99.508843535405      0.074163965881      9.899126758039
      0.423013597727      0.074211604893     -0.008288889192
     99.508727956540      0.074211604893      9.900282546689
      0.415680885315      0.074218444526     -0.008309369907
     99.508657383221      0.074218444526      9.900988279884
      0.409602582455      0.074182733893     -0.008611374535
     99.508627103452      0.074182733893      9.901291077565
      0.590733826160      0.082187108695     -0.035224504769
     99.513055445492      0.082187108695      9.857007657164
      0.590845763683      0.099631756544     -0.033280383796
     99.512864066560      0.099631756544      9.858921446492
      0.590957701206      0.117076404393     -0.031336262822
     99.512672687627      0.117076404393      9.860835235820
      0.591069698334      0.134521052241     -0.029392141849
     99.512481309284      0.134521052241      9.862749019246
      0.591181635857      0.151965692639     -0.027448019013
     99.512289930167      0.151965692639      9.864662810418
      0.591293573380      0.169410333037     -0.025503898040
     99.512098551234      0.169410333037      9.866576599746
      0.591405510902      0.186854988337     -0.023559777066
     99.511907172302      0.186854988337      9.868490389074
      0.591517448425      0.204299628735     -0.021615654230
     99.511715793184      0.204299628735      9.870404180246
      0.591629385948      0.221744284034     -0.019671533257
     99.511524414252      0.221744284034      9.872317969574
      0.591741621494      0.239195436239     -0.017804516479
     99.511340672348      0.239195436239      9.874155388606
      0.705452978611      0.568443953991      0.012844619341
     99.509431959466      0.568443953991      9.893242517427
      0.711437284946      0.585765898228      0.014539954253
     99.509323355082      0.585765898228      9.894328561266
      0.711227416992      0.585748612881      0.014747440815
     99.509300733958      0.585748612881      9.894554772512
      0.710990905762      0.585743844509      0.014804940671
     99.509292699207      0.585743844509      9.894635120015
      0.710707008839      0.585738182068      0.014873403124
     99.509283109886      0.585738182068      9.894731013229
      0.710366129875      0.585731446743      0.014954784885
     99.509271677247      0.585731446743      9.894845339622
      0.709956765175      0.585723459721      0.015051331371
     99.509258065073      0.585723459721      9.894981461361
      0.709465086460      0.585714042187      0.015165585093
     99.509241884717      0.585714042187      9.895143264919
      0.708874464035      0.585702896118      0.015300387517
     99.509222690196      0.585702896118      9.895335210133
      0.708164930344      0.585689902306      0.015458838083
     99.509199976935      0.585689902306      9.895562342742
      0.707312226295      0.585674643517      0.015644218773
     99.509173179797      0.585674643517      9.895830314123
      0.706287384033      0.585656940937      0.015859831124
     99.509141685086      0.585656940937      9.896145261230
      0.705055356026      0.585636615753      0.016108732670
     99.509104843071      0.585636615753      9.896513681375
      0.703573882580      0.585613310337      0.016393294558
     99.509062000573      0.585613310337      9.896942106357
      0.701792120934      0.585587084293      0.016714500263
     99.509012556824      0.585587084293      9.897436543852
      0.699648797512      0.585557997227      0.017070872709
     99.508956051399      0.585557997227      9.898001598098
      0.697070240974      0.585526287556      0.017456853762
     99.508892305190      0.585526287556      9.898639060184
      0.693968415260      0.585492789745      0.017860364169
     99.508821642519      0.585492789745      9.899345686895
      0.690238118172      0.585458815098      0.018259247765
     99.508745215460      0.585458815098      9.900109957494
      0.685750007629      0.585426568985      0.018621193245
     99.508664942535      0.585426568985      9.900912686736
      0.680329382420      0.585397481918      0.018948348239
     99.508578881395      0.585397481918      9.901773298137
      0.674891591072      0.585382938385      0.019108558074
     99.508509179517      0.585382938385      9.902470316918
      0.675077915192      0.586015701294      0.011226977222
     99.509291378850      0.586015701294      9.894648323588
      0.680429816246      0.586011826992      0.011540347710
     99.509313341188      0.586011826992      9.894428700205
      0.685744583607      0.585974812508      0.012054434046
     99.509315063010      0.585974812508      9.894411481986
      0.690159380436      0.585925638676      0.012641529553
     99.509300645602      0.585925638676      9.894555656069
      0.693838894367      0.585881173611      0.013171623461
     99.509284591888      0.585881173611      9.894716193213
      0.696906089783      0.585845351219      0.013597612269
     99.509272783049      0.585845351219      9.894834281596
      0.699463069439      0.585818529129      0.013916126452
     99.509266563622      0.585818529129      9.894896475871
      0.701594829559      0.585799574852      0.014141447842
     99.509265361109      0.585799574852      9.894908500997
      0.703372001648      0.585786759853      0.014292811044
     99.509267970417      0.585786759853      9.894882407920
      0.704853534698      0.585778653622      0.014388717711
     99.509273143351      0.585778653622      9.894830678576
      0.706088662148      0.585773944855      0.014444784261
     99.509279821192      0.585773944855      9.894763900166
      0.707118213177      0.585771501064      0.014473281801
     99.509287193228      0.585771501064      9.894690179806
      0.711271762848      0.585778117180      0.014394011348
     99.509336166042      0.585778117180      9.894200451668
POLYGONS                 140                 560
3                   0                   1                   3
3                   0                   3                   2
3                   2                   3                   5
3                   2                   5                   4
3                   4                   5                   7
3                   4                   7                   6
3                   6                   7                   9
3                   6                   9                   8
3                   8                   9                  11
3                   8                  11                  10
3                  10                  11                  13
3                  10                  13                  12
3                  12                  13                  15
3                  12                  15                  14
3                  14                  15                  17
3                  14                  17                  16
3                  16                  17                  19
3                  16                  19                  18
3                  18                  19                  21
3                  18                  21                  20
3                  20                  21                  23
3                  20                  23                  22
3                  22                  23                  25
3                  22                  25                  24
3                  24                  25                  27
3                  24                  27                  26
3                  26                  27                  29
3                  26                  29                  28
3                  28                  29                  31
3                  28                  31                  30
3                  30                  31                  33
3                  30                  33                  32
3                  32                  33                  35
3                  32                  35                  34
3                  34                  35                  37
3                  34                  37                  36
3                  36                  37                  39
3                  36                  39                  38
3                  38                  39                  41
3                  38                  41                  40
3                  40                  41                  43
3                  40                  43                  42
3                  42                  43                  45
3                  42                  45                  44
3                  44                  45                  47
3                  44                  47                  46
3                  46                  47                  49
3                  46                  49                  48
3                  48                  49                  51
3                  48                  51                  50
3                  50                  51                  53
3                  50                  53                  52
3                  52                  53                  55
3                  52                  55                  54
3                   0                   1                  57
3                   0                  57                  56
3                  56                  57                  59
3                  56                  59                  58
3                  58                  59                  61
3                  58                  61                  60
3                  60                  61                  63
3                  60                  63                  62
3                  62                  63                  65
3                  62                  65                  64
3                  64                  65                  67
3                  64                  67                  66
3                  66                  67                  69
3                  66                  69                  68
3                  68                  69                  71
3                  68                  71                  70
3                  70                  71                  73
3                  70                  73                  72
3                  72                  73                  75
3                  72                  75                  74
3                  76                  77                  79
3                  76                  79                  78
3                  78                  79                  81
3                  78                  81                  80
3                  80                  81                  83
3                  80                  83                  82
3                  82                  83                  85
3                  82                  85                  84
3                  84                  85                  87
3                  84                  87                  86
3                  86                  87                  89
3                  86                  89                  88
3                  88                  89                  91
3                  88                  91                  90
3                  90                  91                  93
3                  90                  93                  92
3                  92                  93                  95
3                  92                  95                  94
3                  94                  95                  97
3                  94                  97                  96
3                  96                  97                  99
3                  96                  99                  98
3                  98                  99                 101
3                  98                 101                 100
3                 100                 101                 103
3                 100                 103                 102
3                 102                 103                 105
3                 102                 105                 104
3                 104                 105                 107
3                 104                 107                 106
3                 106                 107                 109
3                 106                 109                 108
3                 108                 109                 111
3                 108                 111                 110
3                 110                 111                 113
3                 110                 113                 112
3                 112                 113                 115
3                 112                 115                 114
3                 114                 115                 117
3                 114                 117                 116
3                 116                 117                 119
3                 116                 119                 118
3                 120                 121                 123
3                 120                 123                 122
3                 122                 123                 125
3                 122                 125                 124
3                 124                 125                 127
3                 124                 127                 126
3                 126                 127                 129
3                 126                 129                 128
3                 128                 129                 131
3                 128                 131                 130
3                 130                 131                 133
3                 130                 133                 132
3                 132                 133                 135
3                 132                 135                 134
3                 134                 135                 137
3                 134                 137                 136
3                 136                 137                 139
3                 136                 139                 138
3                 138                 139                 141
3                 138                 141                 140
3                 140                 141                 143
3                 140                 143                 142
3                 144                 145                  79
3                 144                  79                  78
POINT_DATA                 146
SCALARS mu float 1
LOOKUP_TABLE default
     -0.002890592247
     -0.002890592247
      0.495897534727
      0.495897534727
      0.286079026453
      0.286079026453
      0.333334162464
      0.333334162464
      0.298570327125
      0.298570327125
      0.286146642948
      0.286146642948
      0.264540628944
      0.264540628944
      0.240571923760
      0.240571923760
      0.215770786431
      0.215770786431
      0.189689652985
      0.189689652985
      0.157629397624
      0.157629397624
      0.119873341006
      0.119873341006
      0.073838597251
      0.073838597251
      0.041500916005
      0.041500916005
      0.010814712453
      0.010814712453
     -0.030059384165
     -0.030059384165
     -0.019290052580
     -0.019290052580
     -0.012154709432
     -0.012154709432
     -0.005063856720
     -0.005063856720
     -0.002899703269
     -0.002899703269
     -0.002064842747
     -0.002064842747
     -0.001324905047
     -0.001324905047
     -0.000874654201
     -0.000874654201
     -0.000582305769
     -0.000582305769
     -0.000380705132
     -0.000380705132
     -0.000219439229
     -0.000219439229
     -0.000094310074
     -0.000094310074
      0.000000000000
      0.000000000000
      0.042859681034
      0.042859681034
      0.050917387852
      0.050917387852
      0.052851110367
      0.052851110367
      0.052296994547
      0.052296994547
      0.050308271967
      0.050308271967
      0.047116743912
      0.047116743912
      0.042658323825
      0.042658323825
      0.036210200373
      0.036210200373
      0.025515833573
      0.025515833573
      0.000000000000
      0.000000000000
      0.000000000000
      0.000000000000
      0.008345289600
      0.008345289600
      0.005453222457
      0.005453222457
      0.004778260978
      0.004778260978
      0.004481646145
      0.004481646145
      0.004276783831
      0.004276783831
      0.004121686509
      0.004121686509
      0.003973106635
      0.003973106635
      0.003823419240
      0.003823419240
      0.003669706382
      0.003669706382
      0.003506352331
      0.003506352331
      0.003326413276
      0.003326413276
      0.003119707948
      0.003119707948
      0.002889107825
      0.002889107825
      0.002639141734
      0.002639141734
      0.002349567015
      0.002349567015
      0.002014693310
      0.002014693310
      0.001642189259
      0.001642189259
      0.001241042052
      0.001241042052
      0.000822673692
      0.000822673692
      0.000374970408
      0.000374970408
      0.000000000000
      0.000000000000
      0.000000000000
      0.000000000000
      0.000130146975
      0.000130146975
      0.000116587462
      0.000116587462
      0.000072435750
      0.000072435750
      0.000033897911
      0.000033897911
      0.000008083143
      0.000008083143
     -0.000006831205
     -0.000006831205
     -0.000012984843
     -0.000012984843
     -0.000140711922
     -0.000140711922
     -0.000053014701
     -0.000053014701
      0.000026912136
      0.000026912136
      0.000000000000
      0.000000000000
      0.000000000000
      0.000000000000
