# vtk DataFile Version 3.0
MachLine results file. Generated by MachLine, USU AeroLab (c) 2022.
ASCII
DATASET POLYDATA
POINTS                  80 float
  0.400000000000E+01  0.800000000000E+01  0.000000000000E+00
  0.115559633028E+03  0.414678899083E+02  0.000000000000E+00
  0.400000000000E+01  0.757894754410E+01  0.000000000000E+00
  0.115675519025E+03  0.410816032515E+02  0.000000000000E+00
  0.400000000000E+01  0.252631568909E+01  0.000000000000E+00
  0.117066151645E+03  0.364461611827E+02  0.000000000000E+00
  0.400000000000E+01  0.210526323318E+01  0.000000000000E+00
  0.117182037642E+03  0.360598745259E+02  0.000000000000E+00
  0.400000000000E+01  0.421052634716E+00  0.000000000000E+00
  0.117645581844E+03  0.345147271878E+02  0.000000000000E+00
  0.400000000000E+01  0.000000000000E+00  0.000000000000E+00
  0.117761467890E+03  0.341284403670E+02  0.000000000000E+00
  0.400000000000E+01  0.589473676682E+01  0.000000000000E+00
  0.116139063275E+03  0.395364557494E+02  0.000000000000E+00
  0.400000000000E+01  0.547368431091E+01  0.000000000000E+00
  0.116254949272E+03  0.391501690926E+02  0.000000000000E+00
  0.400000000000E+01  0.378947377205E+01  0.000000000000E+00
  0.116718493457E+03  0.376050218092E+02  0.000000000000E+00
  0.400000000000E+01  0.336842107773E+01  0.000000000000E+00
  0.116834379520E+03  0.372187349337E+02  0.000000000000E+00
  0.400000000000E+01  0.505263137817E+01  0.000000000000E+00
  0.116370835401E+03  0.387638819983E+02  0.000000000000E+00
  0.400000000000E+01  0.463157892227E+01  0.000000000000E+00
  0.116486721398E+03  0.383775953415E+02  0.000000000000E+00
  0.400000000000E+01  0.168421053886E+01  0.000000000000E+00
  0.117297923705E+03  0.356735876503E+02  0.000000000000E+00
  0.400000000000E+01  0.126315784454E+01  0.000000000000E+00
  0.117413809768E+03  0.352873007748E+02  0.000000000000E+00
  0.400000000000E+01  0.294736838341E+01  0.000000000000E+00
  0.116950265583E+03  0.368324480582E+02  0.000000000000E+00
  0.400000000000E+01  0.631578969955E+01  0.000000000000E+00
  0.116023177147E+03  0.399227428436E+02  0.000000000000E+00
  0.400000000000E+01  0.842105269432E+00  0.000000000000E+00
  0.117529695797E+03  0.349010140087E+02  0.000000000000E+00
  0.400000000000E+01  0.715789461136E+01  0.000000000000E+00
  0.115791405153E+03  0.406953161572E+02  0.000000000000E+00
  0.400000000000E+01  0.673684215546E+01  0.000000000000E+00
  0.115907291150E+03  0.403090295004E+02  0.000000000000E+00
  0.400000000000E+01  0.421052646637E+01  0.000000000000E+00
  0.116602607395E+03  0.379913086847E+02  0.000000000000E+00
  0.400000000000E+01 -0.800000000000E+01  0.000000000000E+00
  0.119963302752E+03  0.267889908257E+02  0.000000000000E+00
  0.400000000000E+01 -0.757894754410E+01  0.000000000000E+00
  0.119847416755E+03  0.271752774825E+02  0.000000000000E+00
  0.400000000000E+01 -0.252631568909E+01  0.000000000000E+00
  0.118456784135E+03  0.318107195513E+02  0.000000000000E+00
  0.400000000000E+01 -0.210526323318E+01  0.000000000000E+00
  0.118340898138E+03  0.321970062081E+02  0.000000000000E+00
  0.400000000000E+01 -0.421052634716E+00  0.000000000000E+00
  0.117877353936E+03  0.337421535461E+02  0.000000000000E+00
  0.400000000000E+01  0.000000000000E+00  0.000000000000E+00
  0.117761467890E+03  0.341284403670E+02  0.000000000000E+00
  0.400000000000E+01 -0.589473676682E+01  0.000000000000E+00
  0.119383872505E+03  0.287204249846E+02  0.000000000000E+00
  0.400000000000E+01 -0.547368431091E+01  0.000000000000E+00
  0.119267986508E+03  0.291067116414E+02  0.000000000000E+00
  0.400000000000E+01 -0.378947377205E+01  0.000000000000E+00
  0.118804442323E+03  0.306518589247E+02  0.000000000000E+00
  0.400000000000E+01 -0.336842107773E+01  0.000000000000E+00
  0.118688556260E+03  0.310381458002E+02  0.000000000000E+00
  0.400000000000E+01 -0.505263137817E+01  0.000000000000E+00
  0.119152100379E+03  0.294929987356E+02  0.000000000000E+00
  0.400000000000E+01 -0.463157892227E+01  0.000000000000E+00
  0.119036214382E+03  0.298792853924E+02  0.000000000000E+00
  0.400000000000E+01 -0.168421053886E+01  0.000000000000E+00
  0.118225012075E+03  0.325832930836E+02  0.000000000000E+00
  0.400000000000E+01 -0.126315784454E+01  0.000000000000E+00
  0.118109126012E+03  0.329695799591E+02  0.000000000000E+00
  0.400000000000E+01 -0.294736838341E+01  0.000000000000E+00
  0.118572670197E+03  0.314244326758E+02  0.000000000000E+00
  0.400000000000E+01 -0.631578969955E+01  0.000000000000E+00
  0.119499758633E+03  0.283341378903E+02  0.000000000000E+00
  0.400000000000E+01 -0.842105269432E+00  0.000000000000E+00
  0.117993239982E+03  0.333558667253E+02  0.000000000000E+00
  0.400000000000E+01 -0.715789461136E+01  0.000000000000E+00
  0.119731530627E+03  0.275615645767E+02  0.000000000000E+00
  0.400000000000E+01 -0.673684215546E+01  0.000000000000E+00
  0.119615644630E+03  0.279478512335E+02  0.000000000000E+00
  0.400000000000E+01 -0.421052646637E+01  0.000000000000E+00
  0.118920328385E+03  0.302655720492E+02  0.000000000000E+00
POLYGONS                  76                 304
3                   8                   9                  11
3                   8                  11                  10
3                  32                  33                   9
3                  32                   9                   8
3                  26                  27                  33
3                  26                  33                  32
3                  24                  25                  27
3                  24                  27                  26
3                   6                   7                  25
3                   6                  25                  24
3                   4                   5                   7
3                   4                   7                   6
3                  28                  29                   5
3                  28                   5                   4
3                  18                  19                  29
3                  18                  29                  28
3                  16                  17                  19
3                  16                  19                  18
3                  38                  39                  17
3                  38                  17                  16
3                  22                  23                  39
3                  22                  39                  38
3                  20                  21                  23
3                  20                  23                  22
3                  14                  15                  21
3                  14                  21                  20
3                  12                  13                  15
3                  12                  15                  14
3                  30                  31                  13
3                  30                  13                  12
3                  36                  37                  31
3                  36                  31                  30
3                  34                  35                  37
3                  34                  37                  36
3                   2                   3                  35
3                   2                  35                  34
3                   0                   1                   3
3                   0                   3                   2
3                  51                  49                  48
3                  50                  51                  48
3                  49                  73                  72
3                  48                  49                  72
3                  73                  67                  66
3                  72                  73                  66
3                  67                  65                  64
3                  66                  67                  64
3                  65                  47                  46
3                  64                  65                  46
3                  47                  45                  44
3                  46                  47                  44
3                  45                  69                  68
3                  44                  45                  68
3                  69                  59                  58
3                  68                  69                  58
3                  59                  57                  56
3                  58                  59                  56
3                  57                  79                  78
3                  56                  57                  78
3                  79                  63                  62
3                  78                  79                  62
3                  63                  61                  60
3                  62                  63                  60
3                  61                  55                  54
3                  60                  61                  54
3                  55                  53                  52
3                  54                  55                  52
3                  53                  71                  70
3                  52                  53                  70
3                  71                  77                  76
3                  70                  71                  76
3                  77                  75                  74
3                  76                  77                  74
3                  75                  43                  42
3                  74                  75                  42
3                  43                  41                  40
3                  42                  43                  40
CELL_DATA                  76
NORMALS normals float
  0.000000000000E+00 -0.000000000000E+00 -0.100000000000E+01
  0.000000000000E+00 -0.000000000000E+00 -0.100000000000E+01
  0.000000000000E+00 -0.000000000000E+00 -0.100000000000E+01
  0.000000000000E+00 -0.000000000000E+00 -0.100000000000E+01
  0.000000000000E+00 -0.000000000000E+00 -0.100000000000E+01
  0.000000000000E+00 -0.000000000000E+00 -0.100000000000E+01
  0.000000000000E+00 -0.000000000000E+00 -0.100000000000E+01
  0.000000000000E+00 -0.000000000000E+00 -0.100000000000E+01
  0.000000000000E+00 -0.000000000000E+00 -0.100000000000E+01
  0.000000000000E+00 -0.000000000000E+00 -0.100000000000E+01
  0.000000000000E+00 -0.000000000000E+00 -0.100000000000E+01
  0.000000000000E+00 -0.000000000000E+00 -0.100000000000E+01
  0.000000000000E+00 -0.000000000000E+00 -0.100000000000E+01
  0.000000000000E+00 -0.000000000000E+00 -0.100000000000E+01
  0.000000000000E+00 -0.000000000000E+00 -0.100000000000E+01
  0.000000000000E+00 -0.000000000000E+00 -0.100000000000E+01
  0.000000000000E+00 -0.000000000000E+00 -0.100000000000E+01
  0.000000000000E+00 -0.000000000000E+00 -0.100000000000E+01
  0.000000000000E+00 -0.000000000000E+00 -0.100000000000E+01
  0.000000000000E+00 -0.000000000000E+00 -0.100000000000E+01
  0.000000000000E+00 -0.000000000000E+00 -0.100000000000E+01
  0.000000000000E+00 -0.000000000000E+00 -0.100000000000E+01
  0.000000000000E+00 -0.000000000000E+00 -0.100000000000E+01
  0.000000000000E+00 -0.000000000000E+00 -0.100000000000E+01
  0.000000000000E+00 -0.000000000000E+00 -0.100000000000E+01
  0.000000000000E+00 -0.000000000000E+00 -0.100000000000E+01
  0.000000000000E+00 -0.000000000000E+00 -0.100000000000E+01
  0.000000000000E+00 -0.000000000000E+00 -0.100000000000E+01
  0.000000000000E+00 -0.000000000000E+00 -0.100000000000E+01
  0.000000000000E+00 -0.000000000000E+00 -0.100000000000E+01
  0.000000000000E+00 -0.000000000000E+00 -0.100000000000E+01
  0.000000000000E+00 -0.000000000000E+00 -0.100000000000E+01
  0.000000000000E+00 -0.000000000000E+00 -0.100000000000E+01
  0.000000000000E+00 -0.000000000000E+00 -0.100000000000E+01
  0.000000000000E+00 -0.000000000000E+00 -0.100000000000E+01
  0.000000000000E+00 -0.000000000000E+00 -0.100000000000E+01
  0.000000000000E+00 -0.000000000000E+00 -0.100000000000E+01
  0.000000000000E+00 -0.000000000000E+00 -0.100000000000E+01
 -0.000000000000E+00  0.000000000000E+00 -0.100000000000E+01
  0.000000000000E+00 -0.000000000000E+00 -0.100000000000E+01
 -0.000000000000E+00  0.000000000000E+00 -0.100000000000E+01
  0.000000000000E+00 -0.000000000000E+00 -0.100000000000E+01
 -0.000000000000E+00  0.000000000000E+00 -0.100000000000E+01
  0.000000000000E+00 -0.000000000000E+00 -0.100000000000E+01
 -0.000000000000E+00  0.000000000000E+00 -0.100000000000E+01
  0.000000000000E+00 -0.000000000000E+00 -0.100000000000E+01
 -0.000000000000E+00  0.000000000000E+00 -0.100000000000E+01
  0.000000000000E+00 -0.000000000000E+00 -0.100000000000E+01
 -0.000000000000E+00  0.000000000000E+00 -0.100000000000E+01
  0.000000000000E+00 -0.000000000000E+00 -0.100000000000E+01
 -0.000000000000E+00  0.000000000000E+00 -0.100000000000E+01
  0.000000000000E+00 -0.000000000000E+00 -0.100000000000E+01
 -0.000000000000E+00  0.000000000000E+00 -0.100000000000E+01
  0.000000000000E+00 -0.000000000000E+00 -0.100000000000E+01
 -0.000000000000E+00  0.000000000000E+00 -0.100000000000E+01
  0.000000000000E+00 -0.000000000000E+00 -0.100000000000E+01
 -0.000000000000E+00  0.000000000000E+00 -0.100000000000E+01
  0.000000000000E+00 -0.000000000000E+00 -0.100000000000E+01
 -0.000000000000E+00  0.000000000000E+00 -0.100000000000E+01
  0.000000000000E+00 -0.000000000000E+00 -0.100000000000E+01
 -0.000000000000E+00  0.000000000000E+00 -0.100000000000E+01
  0.000000000000E+00 -0.000000000000E+00 -0.100000000000E+01
 -0.000000000000E+00  0.000000000000E+00 -0.100000000000E+01
  0.000000000000E+00 -0.000000000000E+00 -0.100000000000E+01
 -0.000000000000E+00  0.000000000000E+00 -0.100000000000E+01
  0.000000000000E+00 -0.000000000000E+00 -0.100000000000E+01
 -0.000000000000E+00  0.000000000000E+00 -0.100000000000E+01
  0.000000000000E+00 -0.000000000000E+00 -0.100000000000E+01
 -0.000000000000E+00  0.000000000000E+00 -0.100000000000E+01
  0.000000000000E+00 -0.000000000000E+00 -0.100000000000E+01
 -0.000000000000E+00  0.000000000000E+00 -0.100000000000E+01
  0.000000000000E+00 -0.000000000000E+00 -0.100000000000E+01
 -0.000000000000E+00  0.000000000000E+00 -0.100000000000E+01
  0.000000000000E+00 -0.000000000000E+00 -0.100000000000E+01
 -0.000000000000E+00  0.000000000000E+00 -0.100000000000E+01
  0.000000000000E+00 -0.000000000000E+00 -0.100000000000E+01
POINT_DATA                  80
SCALARS mu float 1
LOOKUP_TABLE default
  0.000000000000E+00
  0.000000000000E+00
 -0.437495966371E-06
 -0.437495966371E-06
 -0.409321706682E-06
 -0.409321706682E-06
 -0.497937970495E-06
 -0.497937970495E-06
  0.866817872203E-07
  0.866817872203E-07
  0.325081358943E-06
  0.325081358943E-06
 -0.960704857042E-06
 -0.960704857042E-06
 -0.100861052922E-05
 -0.100861052922E-05
 -0.693317338415E-06
 -0.693317338415E-06
 -0.597743785608E-06
 -0.597743785608E-06
 -0.932588037753E-06
 -0.932588037753E-06
 -0.104451844499E-05
 -0.104451844499E-05
 -0.353352905269E-06
 -0.353352905269E-06
 -0.250083737344E-06
 -0.250083737344E-06
 -0.551140196231E-06
 -0.551140196231E-06
 -0.885602543452E-06
 -0.885602543452E-06
  0.980859324734E-07
  0.980859324734E-07
 -0.563675924034E-06
 -0.563675924034E-06
 -0.705480059551E-06
 -0.705480059551E-06
 -0.952692336326E-06
 -0.952692336326E-06
  0.000000000000E+00
  0.000000000000E+00
 -0.255867705468E-06
 -0.255867705468E-06
 -0.504044347482E-06
 -0.504044347482E-06
 -0.602310326878E-06
 -0.602310326878E-06
  0.932529273245E-08
  0.932529273245E-08
  0.325081357680E-06
  0.325081357680E-06
 -0.777184270426E-06
 -0.777184270426E-06
 -0.871088181809E-06
 -0.871088181809E-06
 -0.767462130208E-06
 -0.767462130208E-06
 -0.678713447388E-06
 -0.678713447388E-06
 -0.842043658425E-06
 -0.842043658425E-06
 -0.995203248172E-06
 -0.995203248172E-06
 -0.489649803773E-06
 -0.489649803773E-06
 -0.405111899873E-06
 -0.405111899873E-06
 -0.642383631302E-06
 -0.642383631302E-06
 -0.665380280845E-06
 -0.665380280845E-06
 -0.336098464893E-07
 -0.336098464893E-07
 -0.356674712279E-06
 -0.356674712279E-06
 -0.482423553577E-06
 -0.482423553577E-06
 -0.979030948964E-06
 -0.979030948964E-06
