# vtk DataFile Version 3.0
MachLine results file. Generated by MachLine, USU AeroLab (c) 2022.
ASCII
DATASET POLYDATA
POINTS                 704 float
  0.476456375309E-05 -0.000000000000E+00  0.000000000000E+00
  0.447911218842E-05 -0.421052634716E+00  0.000000000000E+00
  0.447911189904E-05 -0.842105269432E+00  0.182066632791E-21
  0.447911236849E-05 -0.126315784454E+01  0.000000000000E+00
  0.447911258705E-05 -0.168421053886E+01  0.000000000000E+00
  0.447911142965E-05 -0.210526323318E+01  0.000000000000E+00
  0.447911214996E-05 -0.252631568909E+01  0.000000000000E+00
  0.447911258705E-05 -0.294736838341E+01  0.000000000000E+00
  0.447911258705E-05 -0.336842107773E+01  0.000000000000E+00
  0.447911258705E-05 -0.378947377205E+01  0.000000000000E+00
  0.447911142961E-05 -0.421052646637E+01  0.000000000000E+00
  0.447911099250E-05 -0.463157892227E+01  0.000000000000E+00
  0.447911330738E-05 -0.505263137817E+01  0.000000000000E+00
  0.447911186676E-05 -0.547368431091E+01  0.000000000000E+00
  0.447911330735E-05 -0.589473676682E+01  0.000000000000E+00
  0.447911186674E-05 -0.631578969955E+01  0.000000000000E+00
  0.447911099252E-05 -0.673684215546E+01  0.000000000000E+00
  0.447911330738E-05 -0.715789461136E+01  0.000000000000E+00
  0.447911186671E-05 -0.757894754410E+01  0.000000000000E+00
  0.254366756317E-05 -0.799999770501E+01  0.808768670280E-21
  0.257793408580E+00 -0.000000000000E+00 -0.131795675270E+00
  0.257793408580E+00 -0.000000000000E+00  0.131795675270E+00
  0.257793646802E+00 -0.421052634716E+00 -0.131795735340E+00
  0.257793646802E+00 -0.421052634716E+00  0.131795735340E+00
  0.257793646802E+00 -0.842105269432E+00 -0.131795735340E+00
  0.257793646802E+00 -0.842105269432E+00  0.131795735340E+00
  0.257793646802E+00 -0.126315784454E+01 -0.131795735340E+00
  0.257793646802E+00 -0.126315784454E+01  0.131795735340E+00
  0.257793646802E+00 -0.168421053886E+01 -0.131795735340E+00
  0.257793646802E+00 -0.168421053886E+01  0.131795735340E+00
  0.257793646802E+00 -0.210526323318E+01 -0.131795735341E+00
  0.257793646802E+00 -0.210526323318E+01  0.131795735341E+00
  0.257793646802E+00 -0.252631568909E+01 -0.131795735341E+00
  0.257793646802E+00 -0.252631568909E+01  0.131795735341E+00
  0.257793646802E+00 -0.294736838341E+01 -0.131795735340E+00
  0.257793646802E+00 -0.294736838341E+01  0.131795735340E+00
  0.257793646802E+00 -0.336842107773E+01 -0.131795735340E+00
  0.257793646802E+00 -0.336842107773E+01  0.131795735340E+00
  0.257793646802E+00 -0.378947377205E+01 -0.131795735340E+00
  0.257793646802E+00 -0.378947377205E+01  0.131795735340E+00
  0.257793646802E+00 -0.421052646637E+01 -0.131795735341E+00
  0.257793646802E+00 -0.421052646637E+01  0.131795735341E+00
  0.257793646801E+00 -0.463157892227E+01 -0.131795735341E+00
  0.257793646801E+00 -0.463157892227E+01  0.131795735341E+00
  0.257793646802E+00 -0.505263137817E+01 -0.131795735340E+00
  0.257793646802E+00 -0.505263137817E+01  0.131795735340E+00
  0.257793646802E+00 -0.547368431091E+01 -0.131795735340E+00
  0.257793646802E+00 -0.547368431091E+01  0.131795735340E+00
  0.257793646802E+00 -0.589473676682E+01 -0.131795735340E+00
  0.257793646802E+00 -0.589473676682E+01  0.131795735340E+00
  0.257793646802E+00 -0.631578969955E+01 -0.131795735340E+00
  0.257793646802E+00 -0.631578969955E+01  0.131795735340E+00
  0.257793646801E+00 -0.673684215546E+01 -0.131795735341E+00
  0.257793646801E+00 -0.673684215546E+01  0.131795735341E+00
  0.257793646802E+00 -0.715789461136E+01 -0.131795735340E+00
  0.257793646802E+00 -0.715789461136E+01  0.131795735340E+00
  0.257793646802E+00 -0.757894754410E+01 -0.131795735340E+00
  0.257793646802E+00 -0.757894754410E+01  0.131795735340E+00
  0.257793344885E+00 -0.799999933573E+01 -0.131796711276E+00
  0.257793344885E+00 -0.799999933573E+01  0.131796711276E+00
  0.257792938451E+00 -0.809319512484E+01 -0.931951994684E-01
  0.257792938451E+00 -0.809319512484E+01  0.931951994684E-01
  0.257792941477E+00 -0.813179767392E+01 -0.140524563986E-15
  0.536311090991E+00 -0.000000000000E+00 -0.172265355624E+00
  0.536311090991E+00 -0.000000000000E+00  0.172265355624E+00
  0.536311145390E+00 -0.421052634716E+00 -0.172265343805E+00
  0.536311145390E+00 -0.421052634716E+00  0.172265343805E+00
  0.536311145389E+00 -0.842105269432E+00 -0.172265343805E+00
  0.536311145389E+00 -0.842105269432E+00  0.172265343805E+00
  0.536311145390E+00 -0.126315784454E+01 -0.172265343805E+00
  0.536311145390E+00 -0.126315784454E+01  0.172265343805E+00
  0.536311145390E+00 -0.168421053886E+01 -0.172265343804E+00
  0.536311145390E+00 -0.168421053886E+01  0.172265343804E+00
  0.536311145389E+00 -0.210526323318E+01 -0.172265343805E+00
  0.536311145389E+00 -0.210526323318E+01  0.172265343805E+00
  0.536311145389E+00 -0.252631568909E+01 -0.172265343805E+00
  0.536311145389E+00 -0.252631568909E+01  0.172265343805E+00
  0.536311145390E+00 -0.294736838341E+01 -0.172265343804E+00
  0.536311145390E+00 -0.294736838341E+01  0.172265343804E+00
  0.536311145390E+00 -0.336842107773E+01 -0.172265343804E+00
  0.536311145390E+00 -0.336842107773E+01  0.172265343804E+00
  0.536311145390E+00 -0.378947377205E+01 -0.172265343804E+00
  0.536311145390E+00 -0.378947377205E+01  0.172265343804E+00
  0.536311145389E+00 -0.421052646637E+01 -0.172265343805E+00
  0.536311145389E+00 -0.421052646637E+01  0.172265343805E+00
  0.536311145389E+00 -0.463157892227E+01 -0.172265343806E+00
  0.536311145389E+00 -0.463157892227E+01  0.172265343806E+00
  0.536311145390E+00 -0.505263137817E+01 -0.172265343804E+00
  0.536311145390E+00 -0.505263137817E+01  0.172265343804E+00
  0.536311145390E+00 -0.547368431091E+01 -0.172265343804E+00
  0.536311145390E+00 -0.547368431091E+01  0.172265343804E+00
  0.536311145390E+00 -0.589473676682E+01 -0.172265343804E+00
  0.536311145390E+00 -0.589473676682E+01  0.172265343804E+00
  0.536311145390E+00 -0.631578969955E+01 -0.172265343804E+00
  0.536311145390E+00 -0.631578969955E+01  0.172265343804E+00
  0.536311145389E+00 -0.673684215546E+01 -0.172265343806E+00
  0.536311145389E+00 -0.673684215546E+01  0.172265343806E+00
  0.536311145390E+00 -0.715789461136E+01 -0.172265343804E+00
  0.536311145390E+00 -0.715789461136E+01  0.172265343804E+00
  0.536311145390E+00 -0.757894754410E+01 -0.172265343804E+00
  0.536311145390E+00 -0.757894754410E+01  0.172265343804E+00
  0.536311043437E+00 -0.799999932197E+01 -0.172266299248E+00
  0.536311043437E+00 -0.799999932197E+01  0.172266299248E+00
  0.536310951866E+00 -0.812181100008E+01 -0.121811262543E+00
  0.536310951866E+00 -0.812181100008E+01  0.121811262543E+00
  0.536310984225E+00 -0.817226724107E+01  0.124536798326E-17
  0.799721193196E+00 -0.000000000000E+00 -0.191199284362E+00
  0.799721193196E+00 -0.000000000000E+00  0.191199284362E+00
  0.799721223010E+00 -0.421052634716E+00 -0.191199272934E+00
  0.799721223010E+00 -0.421052634716E+00  0.191199272934E+00
  0.799721223010E+00 -0.842105269432E+00 -0.191199272934E+00
  0.799721223010E+00 -0.842105269432E+00  0.191199272934E+00
  0.799721223010E+00 -0.126315784454E+01 -0.191199272934E+00
  0.799721223010E+00 -0.126315784454E+01  0.191199272934E+00
  0.799721223010E+00 -0.168421053886E+01 -0.191199272934E+00
  0.799721223010E+00 -0.168421053886E+01  0.191199272934E+00
  0.799721223010E+00 -0.210526323318E+01 -0.191199272935E+00
  0.799721223010E+00 -0.210526323318E+01  0.191199272935E+00
  0.799721223010E+00 -0.252631568909E+01 -0.191199272935E+00
  0.799721223010E+00 -0.252631568909E+01  0.191199272935E+00
  0.799721223010E+00 -0.294736838341E+01 -0.191199272934E+00
  0.799721223010E+00 -0.294736838341E+01  0.191199272934E+00
  0.799721223010E+00 -0.336842107773E+01 -0.191199272934E+00
  0.799721223010E+00 -0.336842107773E+01  0.191199272934E+00
  0.799721223010E+00 -0.378947377205E+01 -0.191199272934E+00
  0.799721223010E+00 -0.378947377205E+01  0.191199272934E+00
  0.799721223010E+00 -0.421052646637E+01 -0.191199272935E+00
  0.799721223010E+00 -0.421052646637E+01  0.191199272935E+00
  0.799721223010E+00 -0.463157892227E+01 -0.191199272935E+00
  0.799721223010E+00 -0.463157892227E+01  0.191199272935E+00
  0.799721223010E+00 -0.505263137817E+01 -0.191199272934E+00
  0.799721223010E+00 -0.505263137817E+01  0.191199272934E+00
  0.799721223010E+00 -0.547368431091E+01 -0.191199272934E+00
  0.799721223010E+00 -0.547368431091E+01  0.191199272934E+00
  0.799721223010E+00 -0.589473676682E+01 -0.191199272934E+00
  0.799721223010E+00 -0.589473676682E+01  0.191199272934E+00
  0.799721223010E+00 -0.631578969955E+01 -0.191199272934E+00
  0.799721223010E+00 -0.631578969955E+01  0.191199272934E+00
  0.799721223010E+00 -0.673684215546E+01 -0.191199272935E+00
  0.799721223010E+00 -0.673684215546E+01  0.191199272935E+00
  0.799721223010E+00 -0.715789461136E+01 -0.191199272934E+00
  0.799721223010E+00 -0.715789461136E+01  0.191199272934E+00
  0.799721223010E+00 -0.757894754410E+01 -0.191199272934E+00
  0.799721223010E+00 -0.757894754410E+01  0.191199272934E+00
  0.799721176061E+00 -0.799999933141E+01 -0.191200204690E+00
  0.799721176061E+00 -0.799999933141E+01  0.191200204690E+00
  0.799721134022E+00 -0.813519964457E+01 -0.135199525819E+00
  0.799721134022E+00 -0.813519964457E+01  0.135199525819E+00
  0.799721152158E+00 -0.819120054732E+01 -0.320712640167E-17
  0.105025952291E+01 -0.000000000000E+00 -0.198939228890E+00
  0.105025952291E+01 -0.000000000000E+00  0.198939228890E+00
  0.105025954267E+01 -0.421052634716E+00 -0.198939219847E+00
  0.105025954267E+01 -0.421052634716E+00  0.198939219847E+00
  0.105025954267E+01 -0.842105269432E+00 -0.198939219847E+00
  0.105025954267E+01 -0.842105269432E+00  0.198939219847E+00
  0.105025954267E+01 -0.126315784454E+01 -0.198939219847E+00
  0.105025954267E+01 -0.126315784454E+01  0.198939219847E+00
  0.105025954267E+01 -0.168421053886E+01 -0.198939219846E+00
  0.105025954267E+01 -0.168421053886E+01  0.198939219846E+00
  0.105025954267E+01 -0.210526323318E+01 -0.198939219847E+00
  0.105025954267E+01 -0.210526323318E+01  0.198939219847E+00
[...]
POINT_DATA                 704
SCALARS phi float 1
LOOKUP_TABLE default
  0.000000000000E+00
 -0.457966997658E-14
  0.424660306919E-14
 -0.860422844084E-14
  0.194289029309E-15
 -0.360822483003E-15
 -0.247024622979E-14
 -0.235922392733E-14
  0.666133814775E-15
 -0.588418203051E-14
  0.244249065418E-14
 -0.860422844084E-15
  0.527355936697E-14
 -0.168198788231E-13
 -0.341393580072E-14
 -0.341393580072E-14
 -0.913158437754E-14
 -0.102695629778E-14
 -0.552335954751E-14
 -0.360822483003E-15
  0.000000000000E+00
  0.000000000000E+00
  0.249800180541E-15
 -0.610622663544E-15
 -0.194289029309E-15
  0.360822483003E-15
 -0.194289029309E-15
 -0.360822483003E-15
 -0.333066907388E-15
 -0.138777878078E-15
  0.388578058619E-15
  0.222044604925E-15
  0.222044604925E-15
  0.000000000000E+00
  0.527355936697E-15
 -0.499600361081E-15
  0.555111512313E-16
  0.166533453694E-15
 -0.138777878078E-15
 -0.388578058619E-15
  0.166533453694E-15
 -0.499600361081E-15
  0.777156117238E-15
 -0.138777878078E-15
  0.000000000000E+00
  0.277555756156E-15
 -0.138777878078E-15
 -0.222044604925E-15
  0.194289029309E-15
  0.582867087928E-15
 -0.749400541622E-15
  0.305311331772E-15
 -0.471844785466E-15
  0.249800180541E-15
 -0.555111512313E-16
  0.138777878078E-15
  0.000000000000E+00
 -0.138777878078E-15
  0.111022302463E-15
 -0.222044604925E-15
 -0.943689570931E-15
 -0.499600361081E-15
  0.416333634234E-14
  0.000000000000E+00
  0.000000000000E+00
  0.180411241502E-15
 -0.832667268469E-16
  0.513478148889E-15
 -0.971445146547E-16
  0.971445146547E-16
 -0.416333634234E-15
 -0.971445146547E-16
  0.138777878078E-16
  0.000000000000E+00
  0.000000000000E+00
 -0.124900090270E-15
 -0.416333634234E-16
  0.000000000000E+00
 -0.416333634234E-15
  0.555111512313E-16
 -0.319189119580E-15
  0.222044604925E-15
 -0.693889390391E-16
  0.249800180541E-15
 -0.194289029309E-15
 -0.693889390391E-16
 -0.555111512313E-16
 -0.832667268469E-16
 -0.152655665886E-15
  0.263677968348E-15
 -0.138777878078E-15
  0.291433543964E-15
 -0.971445146547E-16
  0.971445146547E-16
  0.194289029309E-15
  0.832667268469E-16
 -0.208166817117E-15
 -0.360822483003E-15
 -0.138777878078E-15
  0.000000000000E+00
 -0.971445146547E-16
 -0.111022302463E-15
 -0.291433543964E-15
  0.111022302463E-15
 -0.319189119580E-15
  0.222044604925E-14
  0.000000000000E+00
  0.000000000000E+00
  0.346944695195E-15
 -0.180411241502E-15
  0.263677968348E-15
 -0.235922392733E-15
 -0.416333634234E-16
 -0.471844785466E-15
  0.693889390391E-16
 -0.388578058619E-15
  0.416333634234E-16
 -0.555111512313E-16
  0.138777878078E-16
 -0.208166817117E-15
  0.277555756156E-16
 -0.263677968348E-15
  0.832667268469E-16
 -0.152655665886E-15
  0.971445146547E-16
 -0.277555756156E-16
  0.416333634234E-16
 -0.277555756156E-15
 -0.138777878078E-15
  0.166533453694E-15
  0.124900090270E-15
 -0.346944695195E-15
  0.194289029309E-15
 -0.208166817117E-15
 -0.832667268469E-16
 -0.194289029309E-15
  0.416333634234E-15
  0.166533453694E-15
 -0.457966997658E-15
  0.138777878078E-15
  0.138777878078E-16
 -0.277555756156E-15
  0.305311331772E-15
 -0.319189119580E-15
  0.333066907388E-15
 -0.693889390391E-16
  0.138777878078E-15
 -0.693889390391E-16
 -0.879851747015E-14
  0.000000000000E+00
  0.000000000000E+00
  0.596744875736E-15
 -0.749400541622E-15
 -0.832667268469E-16
 -0.346944695195E-15
  0.853483950181E-15
 -0.111022302463E-15
  0.874300631892E-15
 -0.277555756156E-16
 -0.208166817117E-16
 -0.166533453694E-15
  0.485722573274E-15
 -0.326128013484E-15
  0.263677968348E-15
  0.194289029309E-15
 -0.513478148889E-15
 -0.228983498829E-15
  0.520417042793E-15
 -0.506539254985E-15
  0.187350135405E-15
  0.222044604925E-15
 -0.166533453694E-15
 -0.242861286637E-15
  0.478783679370E-15
 -0.416333634234E-15
  0.353883589099E-15
 -0.145716771982E-15
  0.513478148889E-15
 -0.201227923213E-15
  0.117961196366E-15
 -0.832667268469E-16
 -0.693889390391E-17
 -0.395516952523E-15
  0.277555756156E-15
  0.693889390391E-16
  0.187350135405E-15
 -0.208166817117E-15
 -0.194289029309E-15
  0.138777878078E-15
 -0.277555756156E-15
 -0.416333634234E-15
  0.804911692853E-14
  0.000000000000E+00
  0.000000000000E+00
 -0.381639164715E-16
  0.152655665886E-15
  0.263677968348E-15
  0.100613961607E-15
 -0.239391839685E-15
  0.308780778724E-15
  0.451028103754E-15
  0.374700270811E-15
  0.149186218934E-15
  0.256739074445E-15
  0.582867087928E-15
  0.114491749414E-15
 -0.187350135405E-15
  0.589805981832E-16
 -0.121430643318E-15
  0.190819582357E-15
 -0.104083408559E-16
  0.142247325030E-15
  0.138777878078E-15
  0.520417042793E-16
 -0.346944695195E-16
  0.305311331772E-15
  0.145716771982E-15
  0.274086309204E-15
  0.242861286637E-16
  0.149186218934E-15
 -0.624500451352E-16
  0.100613961607E-15
  0.336536354340E-15
 -0.693889390391E-16
  0.832667268469E-16
  0.284494650060E-15
  0.000000000000E+00
  0.693889390391E-17
  0.971445146547E-16
 -0.346944695195E-16
 -0.208166817117E-16
  0.159594559790E-15
 -0.416333634234E-16
 -0.277555756156E-16
 -0.953404022397E-14
  0.000000000000E+00
  0.000000000000E+00
 -0.283193607453E-15
  0.741594285980E-16
  0.786046575052E-16
  0.277772596591E-15
  0.567037736210E-16
  0.862482828212E-16
 -0.833480420098E-16
  0.188515652741E-15
 -0.254787510534E-17
  0.192879566485E-15
 -0.139319979164E-15
  0.127068494615E-15
  0.406467394465E-15
  0.110154940725E-15
  0.200143721041E-15
  0.111889664201E-15
  0.863024929298E-16
  0.175207071074E-15
 -0.296204033523E-15
 -0.529090660173E-16
 -0.136609473733E-15
  0.910729824888E-16
  0.234187669257E-15
  0.118828558104E-15
 -0.555111512313E-16
  0.108420217249E-15
  0.150920942410E-15
  0.572458747072E-16
  0.173472347598E-17
  0.468375338514E-16
  0.173472347598E-16
  0.919403442268E-16
 -0.364291929955E-16
 -0.520417042793E-17
  0.902056207508E-16
 -0.381639164715E-16
  0.693889390391E-17
 -0.208166817117E-16
  0.298372437868E-15
 -0.555111512313E-16
 -0.760502771868E-14
  0.000000000000E+00
  0.000000000000E+00
  0.454497550706E-15
 -0.104083408559E-15
  0.537764277553E-15
  0.100613961607E-15
  0.423272528138E-15
  0.902056207508E-16
  0.274086309204E-15
  0.138777878078E-16
  0.253269627493E-15
  0.100613961607E-15
  0.451028103754E-16
 -0.246330733589E-15
 -0.971445146547E-16
 -0.624500451352E-16
  0.249800180541E-15
  0.114491749414E-15
  0.100613961607E-15
  0.555111512313E-16
  0.416333634234E-16
  0.346944695195E-16
 -0.274086309204E-15
 -0.555111512313E-16
  0.305311331772E-15
  0.416333634234E-16
  0.173472347598E-16
  0.117961196366E-15
 -0.242861286637E-16
  0.520417042793E-17
  0.745931094670E-16
  0.102348685083E-15
  0.936750677027E-16
  0.208166817117E-16
  0.172604985860E-15
 -0.954097911787E-17
  0.217707796235E-15
  0.867361737988E-17
 -0.104083408559E-15
  0.173472347598E-16
  0.201227923213E-15
 -0.208166817117E-16
  0.359434704222E-14
  0.000000000000E+00
  0.000000000000E+00
  0.263677968348E-15
  0.000000000000E+00
  0.201227923213E-15
 -0.194289029309E-15
  0.152655665886E-15
  0.000000000000E+00
  0.555111512313E-16
  0.166533453694E-15
  0.284494650060E-15
  0.346944695195E-16
  0.763278329430E-16
  0.138777878078E-15
 -0.416333634234E-16
  0.763278329430E-16
  0.235922392733E-15
  0.624500451352E-16
  0.416333634234E-16
  0.159594559790E-15
  0.152655665886E-15
 -0.208166817117E-16
  0.346944695195E-15
 -0.555111512313E-16
  0.693889390391E-16
  0.166533453694E-15
  0.201227923213E-15
  0.312250225676E-15
  0.902056207508E-16
 -0.693889390391E-17
  0.936750677027E-16
  0.728583859910E-16
  0.971445146547E-16
  0.659194920871E-16
  0.124900090270E-15
  0.659194920871E-16
 -0.520417042793E-17
  0.312250225676E-16
  0.156125112838E-16
 -0.988792381307E-16
 -0.381639164715E-16
 -0.867361737988E-16
 -0.418415302406E-14
  0.000000000000E+00
  0.000000000000E+00
  0.346944695195E-15
  0.138777878078E-16
  0.145716771982E-15
  0.208166817117E-16
  0.353883589099E-15
 -0.971445146547E-16
  0.340005801291E-15
 -0.971445146547E-16
  0.693889390391E-17
 -0.117961196366E-15
  0.124900090270E-15
 -0.367761376907E-15
  0.485722573274E-15
 -0.291433543964E-15
  0.194289029309E-15
 -0.416333634234E-16
  0.638378239159E-15
 -0.284494650060E-15
  0.312250225676E-15
 -0.194289029309E-15
  0.610622663544E-15
 -0.388578058619E-15
  0.166533453694E-15
 -0.291433543964E-15
  0.457966997658E-15
 -0.138777878078E-16
  0.131838984174E-15
 -0.693889390391E-16
  0.263677968348E-15
 -0.249800180541E-15
  0.319189119580E-15
 -0.138777878078E-16
  0.201227923213E-15
 -0.124900090270E-15
  0.204697370165E-15
  0.381639164715E-16
  0.941087485717E-16
 -0.102348685083E-15
  0.763278329430E-16
 -0.693889390391E-17
  0.106858966120E-13
  0.000000000000E+00
  0.000000000000E+00
  0.471844785466E-15
 -0.152655665886E-15
  0.457966997658E-15
 -0.416333634234E-15
  0.610622663544E-15
 -0.138777878078E-15
  0.707767178199E-15
 -0.430211422042E-15
  0.568989300120E-15
 -0.444089209850E-15
  0.555111512313E-15
 -0.249800180541E-15
  0.818789480661E-15
 -0.402455846427E-15
  0.333066907388E-15
 -0.138777878078E-15
  0.291433543964E-15
 -0.152655665886E-15
  0.249800180541E-15
 -0.235922392733E-15
  0.249800180541E-15
 -0.208166817117E-15
  0.166533453694E-15
 -0.194289029309E-15
  0.333066907388E-15
 -0.208166817117E-15
  0.402455846427E-15
  0.138777878078E-16
  0.409394740331E-15
 -0.492661467177E-15
  0.277555756156E-15
 -0.159594559790E-15
  0.166533453694E-15
 -0.208166817117E-16
  0.173472347598E-15
 -0.215105711021E-15
  0.137910516340E-15
 -0.954097911787E-16
  0.118828558104E-15
 -0.919403442268E-16
  0.617735029795E-14
  0.000000000000E+00
  0.000000000000E+00
  0.416333634234E-15
  0.000000000000E+00
  0.249800180541E-15
 -0.430211422042E-15
  0.208166817117E-15
  0.277555756156E-16
  0.763278329430E-15
  0.971445146547E-16
  0.457966997658E-15
  0.124900090270E-15
  0.749400541622E-15
  0.111022302463E-15
  0.485722573274E-15
 -0.222044604925E-15
  0.388578058619E-15
 -0.832667268469E-16
  0.693889390391E-16
 -0.305311331772E-15
  0.402455846427E-15
 -0.416333634234E-16
  0.235922392733E-15
 -0.111022302463E-15
  0.471844785466E-15
 -0.111022302463E-15
  0.652256026967E-15
 -0.346944695195E-15
  0.638378239159E-15
  0.277555756156E-16
  0.319189119580E-15
  0.277555756156E-15
  0.333066907388E-15
 -0.124900090270E-15
  0.256739074445E-15
 -0.159594559790E-15
  0.416333634234E-16
 -0.138777878078E-15
  0.149186218934E-15
 -0.111022302463E-15
  0.841340885849E-16
 -0.442354486374E-16
 -0.649588889623E-14
  0.000000000000E+00
  0.000000000000E+00
 -0.693889390391E-16
  0.471844785466E-15
  0.138777878078E-15
  0.305311331772E-15
  0.471844785466E-15
 -0.138777878078E-16
  0.444089209850E-15
 -0.180411241502E-15
  0.457966997658E-15
  0.000000000000E+00
  0.360822483003E-15
  0.166533453694E-15
  0.305311331772E-15
 -0.208166817117E-15
  0.804911692853E-15
 -0.180411241502E-15
  0.402455846427E-15
 -0.277555756156E-15
  0.513478148889E-15
  0.138777878078E-16
  0.180411241502E-15
 -0.194289029309E-15
  0.971445146547E-16
 -0.166533453694E-15
  0.166533453694E-15
 -0.166533453694E-15
  0.208166817117E-15
 -0.430211422042E-15
 -0.138777878078E-16
 -0.832667268469E-16
  0.374700270811E-15
  0.000000000000E+00
  0.333066907388E-15
  0.319189119580E-15
  0.111022302463E-15
 -0.353883589099E-15
  0.194289029309E-15
 -0.589805981832E-16
  0.728583859910E-16
 -0.346944695195E-17
 -0.378863607153E-14
  0.000000000000E+00
  0.000000000000E+00
  0.416333634234E-16
  0.000000000000E+00
  0.971445146547E-16
 -0.124900090270E-15
  0.208166817117E-15
  0.693889390391E-16
  0.430211422042E-15
 -0.208166817117E-15
  0.402455846427E-15
 -0.277555756156E-15
  0.124900090270E-15
  0.277555756156E-15
 -0.138777878078E-16
 -0.374700270811E-15
  0.277555756156E-15
 -0.555111512313E-16
  0.152655665886E-15
  0.138777878078E-16
  0.194289029309E-15
  0.180411241502E-15
  0.180411241502E-15
  0.832667268469E-16
  0.610622663544E-15
  0.416333634234E-16
  0.471844785466E-15
  0.249800180541E-15
  0.416333634234E-15
 -0.305311331772E-15
 -0.138777878078E-16
 -0.124900090270E-15
  0.555111512313E-15
 -0.111022302463E-15
  0.832667268469E-16
  0.180411241502E-15
  0.319189119580E-15
 -0.416333634234E-16
  0.138777878078E-16
 -0.208166817117E-16
  0.624500451352E-16
 -0.693889390391E-17
 -0.168615121865E-14
  0.000000000000E+00
  0.000000000000E+00
  0.000000000000E+00
 -0.180411241502E-15
  0.124900090270E-15
  0.152655665886E-15
  0.707767178199E-15
  0.263677968348E-15
  0.319189119580E-15
  0.277555756156E-16
  0.568989300120E-15
  0.277555756156E-16
  0.249800180541E-15
 -0.693889390391E-16
  0.333066907388E-15
  0.138777878078E-16
  0.277555756156E-15
  0.693889390391E-16
 -0.194289029309E-15
 -0.124900090270E-15
  0.832667268469E-16
 -0.208166817117E-15
 -0.693889390391E-16
 -0.555111512313E-16
 -0.971445146547E-16
 -0.832667268469E-16
  0.360822483003E-15
 -0.277555756156E-16
  0.305311331772E-15
 -0.666133814775E-15
  0.555111512313E-16
  0.416333634234E-16
  0.291433543964E-15
 -0.555111512313E-16
  0.138777878078E-16
  0.138777878078E-16
 -0.111022302463E-15
 -0.277555756156E-16
  0.131838984174E-15
  0.166533453694E-15
  0.131838984174E-15
  0.624500451352E-16
  0.118065279775E-13
  0.000000000000E+00
  0.000000000000E+00
  0.124900090270E-15
  0.652256026967E-15
  0.263677968348E-15
  0.832667268469E-16
  0.138777878078E-16
  0.416333634234E-16
 -0.152655665886E-15
  0.263677968348E-15
  0.249800180541E-15
  0.416333634234E-15
  0.208166817117E-15
 -0.416333634234E-15
  0.693889390391E-16
  0.111022302463E-15
  0.152655665886E-15
  0.305311331772E-15
 -0.124900090270E-15
  0.000000000000E+00
  0.555111512313E-16
  0.277555756156E-15
 -0.402455846427E-15
 -0.208166817117E-15
 -0.416333634234E-16
  0.138777878078E-16
  0.138777878078E-15
  0.693889390391E-16
  0.333066907388E-15
  0.138777878078E-16
 -0.138777878078E-16
  0.555111512313E-16
 -0.263677968348E-15
 -0.249800180541E-15
  0.374700270811E-15
 -0.388578058619E-15
  0.208166817117E-15
  0.832667268469E-16
  0.555111512313E-16
  0.693889390391E-16
 -0.485722573274E-16
 -0.416333634234E-16
 -0.853483950181E-15
  0.527355936697E-15
  0.277555756156E-16
 -0.138777878078E-15
  0.000000000000E+00
  0.124900090270E-15
  0.180411241502E-15
  0.291433543964E-15
  0.194289029309E-15
  0.111022302463E-15
 -0.555111512313E-16
 -0.222044604925E-15
  0.971445146547E-16
 -0.111022302463E-15
 -0.111022302463E-15
 -0.138777878078E-16
 -0.693889390391E-16
  0.277555756156E-16
  0.693889390391E-16
  0.277555756156E-16
  0.404537514598E-14
 -0.485722573274E-16
 -0.263677968348E-15
 -0.138777878078E-15
  0.166533453694E-15
 -0.735522753814E-15
  0.208166817117E-15
 -0.235922392733E-15
  0.555111512313E-16
  0.124900090270E-15
  0.138777878078E-16
  0.832667268469E-16
  0.374700270811E-15
 -0.693889390391E-16
 -0.277555756156E-16
  0.693889390391E-16
  0.277555756156E-16
  0.208166817117E-15
  0.235922392733E-15
  0.832667268469E-16
SCALARS phi_mu float 1
LOOKUP_TABLE default
  0.000000000000E+00
  0.165250857125E+00
  0.165501953904E+00
  0.165730504985E+00
  0.165937575611E+00
  0.166122983826E+00
  0.166285043091E+00
  0.166420098672E+00
  0.166521751329E+00
  0.166579585163E+00
  0.166577070024E+00
  0.166488039337E+00
  0.166270599839E+00
  0.165856168648E+00
  0.165128635239E+00
  0.163881599858E+00
  0.161720295207E+00
  0.157793309387E+00
  0.149784463200E+00
  0.122395928425E+00
  0.000000000000E+00
  0.000000000000E+00
  0.155902259353E+00
  0.155902259353E+00
  0.156163885021E+00
  0.156163885021E+00
  0.156407365735E+00
  0.156407365735E+00
  0.156634406537E+00
  0.156634406537E+00
  0.156845715160E+00
  0.156845715160E+00
  0.157040822070E+00
  0.157040822070E+00
  0.157217729399E+00
  0.157217729399E+00
  0.157372299032E+00
  0.157372299032E+00
  0.157497224383E+00
  0.157497224383E+00
  0.157580301207E+00
  0.157580301207E+00
  0.157601477137E+00
  0.157601477137E+00
  0.157527683575E+00
  0.157527683575E+00
  0.157303445802E+00
  0.157303445802E+00
  0.156832967581E+00
  0.156832967581E+00
  0.155943568068E+00
  0.155943568068E+00
  0.154303667910E+00
  0.154303667910E+00
  0.151211588902E+00
  0.151211588902E+00
  0.144936247439E+00
  0.144936247439E+00
  0.130620609083E+00
  0.130620609083E+00
  0.128660212381E+00
  0.128660212381E+00
  0.129627445536E+00
  0.000000000000E+00
  0.000000000000E+00
  0.114221632287E+00
  0.114221632287E+00
  0.114494352915E+00
  0.114494352915E+00
  0.114754007793E+00
  0.114754007793E+00
  0.115003040462E+00
  0.115003040462E+00
  0.115243210507E+00
  0.115243210507E+00
  0.115475515636E+00
  0.115475515636E+00
  0.115699993986E+00
  0.115699993986E+00
  0.115915344297E+00
  0.115915344297E+00
  0.116118255922E+00
  0.116118255922E+00
  0.116302246605E+00
  0.116302246605E+00
  0.116455641845E+00
  0.116455641845E+00
  0.116558007357E+00
  0.116558007357E+00
  0.116573702051E+00
  0.116573702051E+00
  0.116439896000E+00
  0.116439896000E+00
  0.116043623906E+00
  0.116043623906E+00
  0.115177108953E+00
  0.115177108953E+00
  0.113457581974E+00
  0.113457581974E+00
  0.110305786621E+00
  0.110305786621E+00
  0.107572743251E+00
  0.107572743251E+00
  0.110775275165E+00
  0.110775275165E+00
  0.113787830096E+00
  0.000000000000E+00
  0.000000000000E+00
  0.797728629430E-01
  0.797728629430E-01
  0.800556728127E-01
  0.800556728127E-01
  0.803304688466E-01
  0.803304688466E-01
  0.806004215466E-01
  0.806004215466E-01
  0.808683473469E-01
  0.808683473469E-01
  0.811367411631E-01
  0.811367411631E-01
  0.814077483183E-01
  0.814077483183E-01
  0.816830468138E-01
  0.816830468138E-01
  0.819635905053E-01
  0.819635905053E-01
  0.822491154534E-01
  0.822491154534E-01
  0.825372405602E-01
  0.825372405602E-01
  0.828218699577E-01
  0.828218699577E-01
  0.830904217047E-01
  0.830904217047E-01
  0.833192722113E-01
  0.833192722113E-01
  0.834674729999E-01
  0.834674729999E-01
  0.834747031008E-01
  0.834747031008E-01
  0.833075347113E-01
  0.833075347113E-01
  0.833441970682E-01
  0.833441970682E-01
  0.880279103558E-01
  0.880279103558E-01
  0.944967857185E-01
  0.944967857185E-01
  0.987516047867E-01
  0.000000000000E+00
  0.000000000000E+00
  0.496187904864E-01
  0.496187904864E-01
  0.499107104487E-01
  0.499107104487E-01
  0.501995818582E-01
  0.501995818582E-01
  0.504892752961E-01
  0.504892752961E-01
  0.507836422820E-01
  0.507836422820E-01
  0.510866611428E-01
  0.510866611428E-01
  0.514025852583E-01
  0.514025852583E-01
  0.517361008522E-01
  0.517361008522E-01
  0.520925088924E-01
  0.520925088924E-01
  0.524779475542E-01
  0.524779475542E-01
  0.528997008972E-01
  0.528997008972E-01
  0.533667242671E-01
  0.533667242671E-01
  0.538907955843E-01
  0.538907955843E-01
  0.544896691720E-01
  0.544896691720E-01
  0.551971158159E-01
  0.551971158159E-01
  0.560982447797E-01
  0.560982447797E-01
  0.574655515231E-01
  0.574655515231E-01
  0.603326679354E-01
  0.603326679354E-01
  0.703884880399E-01
  0.703884880399E-01
  0.791777168461E-01
  0.791777168461E-01
  0.842619693521E-01
  0.000000000000E+00
  0.000000000000E+00
  0.228548609696E-01
  0.228548609696E-01
  0.231549760487E-01
  0.231549760487E-01
  0.234568960872E-01
  0.234568960872E-01
  0.237651555311E-01
  0.237651555311E-01
  0.240846018000E-01
  0.240846018000E-01
  0.244206530366E-01
  0.244206530366E-01
  0.247796218514E-01
  0.247796218514E-01
  0.251691488575E-01
  0.251691488575E-01
  0.255988251607E-01
  0.255988251607E-01
  0.260811347451E-01
  0.260811347451E-01
  0.266329741307E-01
  0.266329741307E-01
  0.272782856352E-01
  0.272782856352E-01
  0.280530222097E-01
  0.280530222097E-01
  0.290155013919E-01
  0.290155013919E-01
  0.302706377339E-01
  0.302706377339E-01
  0.320339910421E-01
  0.320339910421E-01
  0.348238237509E-01
  0.348238237509E-01
  0.401174319552E-01
  0.401174319552E-01
  0.543550451088E-01
  0.543550451088E-01
  0.647863892961E-01
  0.647863892961E-01
  0.704132103751E-01
  0.000000000000E+00
  0.000000000000E+00
 -0.108177253140E-02
 -0.108177253140E-02
 -0.774318457932E-03
 -0.774318457932E-03
 -0.460329539311E-03