# vtk DataFile Version 3.0
TriPan results file. Generated by TriPan, USU AeroLab (c) 2021.
ASCII
DATASET POLYDATA
POINTS                 180 float
      0.000071893707      0.000000000000      0.000001542619
      1.060310680671      0.000000000000      0.656301098346
      1.196560521945      0.000000000000     -0.693807915474
      3.988399684215      0.000000000000      1.110980917502
      4.454390491386      0.000000000000     -1.144711264177
      5.444490243260      5.444399028781      0.000000865813
      6.520006693118      5.444422580100      0.654427483008
      6.641117868517      5.444423289528     -0.687766775106
      8.887203882801      0.000000000000      1.103277395136
      9.485665599818      5.444438392960      1.095891470485
      9.890512033346      0.000000000000     -1.032220226155
      9.899879548889      5.444439539367     -1.125874076294
     10.888934926961     10.888843657531      0.000000738494
     11.979699800785     10.888867561646      0.652546309348
     12.085672448333     10.888868171656     -0.681718194002
     13.770370255210      0.000000000000      0.667980198632
     14.443514149314      5.444447960349      1.079095308920
     14.982929208114     10.888883351123      1.080798368745
     15.305911342184      0.000000000000     -0.504744389000
     15.335342532560      5.444449088340     -1.015933491527
     15.345366428352     10.888884338636     -1.107033154109
     16.333379610663     16.333288286423      0.000000615699
     16.720357352836      0.000000000000      0.352372716227
     17.439394342476     16.333312539767      0.650665143018
     17.530227503717     16.333313055140     -0.675669673371
     17.999993805894      0.000000000000      0.213942633661
     18.499993825770      0.000000000000      0.160442301795
     18.579610319003      0.000000000000     -0.151715903289
     18.999993021580      0.000000000000      0.106934781881
     19.386060270446      5.444450766728      0.647780005453
     19.499993640117      0.000000000000      0.053440562216
     19.999824790871     10.888892627397      1.054921512210
     19.999983130078     -0.000000449025      0.000058085512
     20.480191867122     16.333328304909      1.065705150471
     20.750985346366      5.444451085314     -0.502681896721
     20.780173549941     10.888893621771     -0.999654979322
     20.790854261262     16.333329138220     -1.088192232256
     21.777824294293     21.777732915374      0.000000497419
     22.371735829733      5.444451077635      0.330966134738
     22.899087933853     21.777757514392      0.648783924194
     22.974780650435     21.777757939886     -0.669621094035
     23.666659780549      5.444450910242      0.190164337261
     24.024405802148      5.444451012542     -0.152604674097
     24.111104569353      5.444450774316      0.142609490600
     24.555549133430      5.444450866539      0.095053077758
     24.999993697450      5.444450958920      0.047496656021
     25.001750573327     10.888895348801      0.627580618549
     25.444403505492      5.444485818287      0.000004333415
     25.556133525078     16.333337294570      1.030747714140
     25.977456437837     21.777773254355      1.050612053938
     26.196061447050     10.888895629732     -0.500619857394
     26.225005521009     16.333338155184     -0.983376467345
     26.236340186538     21.777773938037     -1.069351310727
     27.222267070516     27.222175636941      0.000000383632
     28.023114465093     10.888895729933      0.309560924909
     28.358779621520     27.222200578114      0.646902771836
     28.419335703266     27.222200918528     -0.663572515586
     29.333325798522     10.888895580118      0.166386578696
     29.469201417745     10.888895661771     -0.153494735115
     29.722215263357     10.888895423842      0.124776224472
     30.111104499310     10.888895500690      0.083164393550
     30.499993734994     10.888895577705      0.041552561191
     30.617440874500     16.333339932699      0.607381171057
     30.888848285871     10.888930350466      0.000004293841
     31.112444166432     21.777781961801      1.006573914727
     31.474719105361     27.222216292158      1.035518959798
     31.641135640425     16.333340174128     -0.498557758701
     31.669837492260     21.777782688514     -0.967097895995
     31.681828018991     27.222216830677     -1.050510389536
     32.666713661374     32.666622173249      0.000000274260
     33.674493100236     16.333340382525      0.288155684957
     33.818475127258     32.666647453050      0.645021566530
     33.863888847549     32.666647713114     -0.657523938096
     34.913995125952     16.333340311063     -0.154384811021
     34.999993724104     16.333340249741      0.142608819625
     35.333325957376     16.333340073524      0.106942950102
     35.666661772315     16.333340134984      0.071275708626
     35.999993772458     16.333340196642      0.035608465708
     36.233133081424     21.777784518291      0.587181782178
     36.333291158833     16.333374882950      0.000004254460
     36.668754807831     27.222224721688      0.982400054368
     36.971981777001     32.666663140510      1.020425748722
     37.086209833892     21.777784718437     -0.496495690037
     37.114669463495     27.222225314361     -0.950819384476
     37.127315851128     32.666663538239     -1.031669468685
     38.111156437662     38.111064894951      0.000000169344
     39.278168729140     38.111090509937      0.643140427254
     39.308445805136     38.111090694401     -0.651475361552
     39.325871735169     21.777785035333      0.266750474505
     40.358792648967     21.777784960348     -0.155274886914
     40.666661649980     21.777784919055      0.118831067522
     40.944436651223     21.777784723278      0.089109682417
     41.222215230627     21.777784769375      0.059387026699
     41.499993809878     21.777784815622      0.029664371412
     41.777737846162     21.777819415659      0.000004215233
     41.848821472052     27.222227198120      0.566982332647
     42.225063541876     32.666671296333      0.958226252242
     42.469246359956     38.111106170216      1.005332659008
     42.531285934843     27.222227355257     -0.494433591799
     42.559501434808     32.666671754829     -0.934540813575
     42.572799868465     38.111106431395     -1.012828548194
     43.555603028506     43.555511431262      0.000000068791
     44.737862334482     43.555537377948      0.641259294212
     44.752998946881     43.555537491530     -0.645426785990
     44.977250369887     27.222227780958      0.245345248817
     45.803586357290     27.222227702221     -0.156164962804
     46.333325761604     27.222227680606      0.095053314894
     46.555551159802     27.222227465699      0.071276406483
     46.777772503544     27.222227496456      0.047498344055
     46.999993847200     27.222227527300      0.023720276438
     47.222180718555     27.222262041201      0.000004176208
     47.464513675737     32.666673694239      0.546782941657
     47.781376090467     38.111114056436      0.934052448787
     47.966510946929     43.555553010574      0.990239511753
     47.976362035780     32.666673806693     -0.492371523603
     48.004333406298     38.111114380620     -0.918262302536
     48.018287700303     43.555553139355     -0.993987687642
     49.000012418523     48.999974735488     -0.000000002354
     50.197548138224     48.999977650145     -0.639405279722
     50.197548156328     48.999977625870      0.639405274681
     50.517268956653     49.319393566482     -0.451906723100
     50.517398655701     49.319263870374      0.452151510595
     50.628629004403     32.666674341494      0.223940037702
     50.649779306783     49.451586123678      0.000173073771
     51.248383880323     32.666674258786     -0.157055038680
     51.999993688085     32.666674256588      0.071275554346
     52.166661853427     32.666674022973      0.053443133564
     52.333325961711     32.666674038290      0.035609656964
     52.499993884486     32.666674053713      0.017776178905
     52.666627405408     32.666708481680      0.000004137328
     53.080205878029     38.111116377287      0.526583549589
     53.337684824300     43.555560631196      0.909878643985
     53.421434322201     38.111116443444     -0.490309425845
     53.449161563062     43.555560820938     -0.901983732100
     53.463774411663     48.999981470882     -0.975173759246
     53.463774427368     48.999981414809      0.975173680051
     53.951268502297     49.485745923564     -0.688643921479
     53.951939884652     49.485066920661      0.688985196502
     54.153539074159     49.686345989488      0.000241268627
     56.280011453423     38.111117087628      0.202534811366
     56.693177588565     38.111117000741     -0.157945099652
     57.666661614793     38.111117017729      0.047497800798
     57.777772547145     38.111116765654      0.035609859874
     57.888883234400     38.111116765599      0.023720972867
     57.999993921669     38.111116765632      0.011832082546
     58.111070277432     38.111151107793      0.000004098672
     58.695894264177     43.555562876418      0.506384096810
     58.866510423401     43.555562894720     -0.488247358111
     58.893994135973     48.999990885284     -0.885718627434
     58.893994161324     48.999990756595      0.885718406801
     59.337423562886     49.440202687323     -0.625808662717
     59.338728187599     49.438882774017      0.625188024194
     59.521879583435     49.621463906068     -0.000438842758
     61.931390087545     43.555563648561      0.181129584707
     62.137971296918     43.555563557287     -0.158835175509
     63.333325727253     43.555563593103      0.023720043032
     63.388883845963     43.555562717736      0.017782242655
     63.444438190304     43.555561809696      0.011846285126
     63.499994551882     43.555562699115      0.005893526607
     63.555516963793     43.555597548769      0.000004060101
     64.311587777203     48.999990503120     -0.486200152904
     64.311587747441     48.999990334994      0.486199815208
     64.555722696368     49.241434922875     -0.343962511259
     64.556813705201     49.240332453879      0.343168096554
     64.657575640841     49.340625079090     -0.000561707573
     67.582767034052     48.999993041827     -0.159744487738
     67.582766980277     48.999992861201      0.159744000493
     67.663092032368     49.079251864569     -0.113061572143
     67.663519283862     49.078813172852      0.112740976705
     67.696654257923     49.111761834863     -0.000226692838
     68.999988931917     48.999976870228     -0.000043292386
     19.999983130816     -0.000000450120      0.000049692726
     25.444403508582      5.444485814949     -0.000004394085
     30.888848291732     10.888930344358     -0.000004406743
     36.333291167444     16.333374874092     -0.000004419256
     41.777737857511     21.777819404064     -0.000004431666
     47.222180732622     27.222262026889     -0.000004443925
     52.666627422180     32.666708464663     -0.000004456092
     58.111070296890     38.111151088093     -0.000004468086
     63.555516985928     43.555597526391     -0.000004480052
VERTICES                 180                 360
1                   0
1                   1
1                   2
1                   3
1                   4
1                   5
1                   6
1                   7
1                   8
1                   9
1                  10
1                  11
1                  12
1                  13
1                  14
1                  15
1                  16
1                  17
1                  18
1                  19
1                  20
1                  21
1                  22
1                  23
1                  24
1                  25
1                  26
1                  27
1                  28
1                  29
1                  30
1                  31
1                  32
1                  33
1                  34
1                  35
1                  36
1                  37
1                  38
1                  39
1                  40
1                  41
1                  42
1                  43
1                  44
1                  45
1                  46
1                  47
1                  48
1                  49
1                  50
1                  51
1                  52
1                  53
1                  54
1                  55
1                  56
1                  57
1                  58
1                  59
1                  60
1                  61
1                  62
1                  63
1                  64
1                  65
1                  66
1                  67
1                  68
1                  69
1                  70
1                  71
1                  72
1                  73
1                  74
1                  75
1                  76
1                  77
1                  78
1                  79
1                  80
1                  81
1                  82
1                  83
1                  84
1                  85
1                  86
1                  87
1                  88
1                  89
1                  90
1                  91
1                  92
1                  93
1                  94
1                  95
1                  96
1                  97
1                  98
1                  99
1                 100
1                 101
1                 102
1                 103
1                 104
1                 105
1                 106
1                 107
1                 108
1                 109
1                 110
1                 111
1                 112
1                 113
1                 114
1                 115
1                 116
1                 117
1                 118
1                 119
1                 120
1                 121
1                 122
1                 123
1                 124
1                 125
1                 126
1                 127
1                 128
1                 129
1                 130
1                 131
1                 132
1                 133
1                 134
1                 135
1                 136
1                 137
1                 138
1                 139
1                 140
1                 141
1                 142
1                 143
1                 144
1                 145
1                 146
1                 147
1                 148
1                 149
1                 150
1                 151
1                 152
1                 153
1                 154
1                 155
1                 156
1                 157
1                 158
1                 159
1                 160
1                 161
1                 162
1                 163
1                 164
1                 165
1                 166
1                 167
1                 168
1                 169
1                 170
1                 171
1                 172
1                 173
1                 174
1                 175
1                 176
1                 177
1                 178
1                 179
POINT_DATA                 180
SCALARS phi float 1
LOOKUP_TABLE default
     -0.000071893707
     -1.060310680671
     -1.196560521945
     -3.988399684215
     -4.454390491386
     -5.444490243260
     -6.520006693118
     -6.641117868517
     -8.887203882801
     -9.485665599818
     -9.890512033346
     -9.899879548889
    -10.888934926961
    -11.979699800785
    -12.085672448333
    -13.770370255210
    -14.443514149314
    -14.982929208114
    -15.305911342184
    -15.335342532560
    -15.345366428352
    -16.333379610663
    -16.720357352836
    -17.439394342476
    -17.530227503717
    -17.999993805894
    -18.499993825769
    -18.579610319003
    -18.999993021580
    -19.386060270446
    -19.499993640117
    -19.999824790871
    -19.999983130078
    -20.480191867122
    -20.750985346366
    -20.780173549941
    -20.790854261262
    -21.777824294293
    -22.371735829733
    -22.899087933853
    -22.974780650435
    -23.666659780549
    -24.024405802148
    -24.111104569353
    -24.555549133430
    -24.999993697450
    -25.001750573327
    -25.444403505492
    -25.556133525078
    -25.977456437837
    -26.196061447050
    -26.225005521009
    -26.236340186538
    -27.222267070516
    -28.023114465093
    -28.358779621520
    -28.419335703266
    -29.333325798522
    -29.469201417745
    -29.722215263357
    -30.111104499310
    -30.499993734994
    -30.617440874500
    -30.888848285871
    -31.112444166432
    -31.474719105361
    -31.641135640425
    -31.669837492260
    -31.681828018991
    -32.666713661374
    -33.674493100236
    -33.818475127258
    -33.863888847549
    -34.913995125952
    -34.999993724104
    -35.333325957376
    -35.666661772315
    -35.999993772458
    -36.233133081424
    -36.333291158833
    -36.668754807831
    -36.971981777001
    -37.086209833892
    -37.114669463494
    -37.127315851128
    -38.111156437662
    -39.278168729140
    -39.308445805136
    -39.325871735169
    -40.358792648967
    -40.666661649980
    -40.944436651223
    -41.222215230627
    -41.499993809878
    -41.777737846162
    -41.848821472053
    -42.225063541876
    -42.469246359956
    -42.531285934843
    -42.559501434808
    -42.572799868465
    -43.555603028506
    -44.737862334482
    -44.752998946881
    -44.977250369887
    -45.803586357290
    -46.333325761604
    -46.555551159802
    -46.777772503544
    -46.999993847200
    -47.222180718555
    -47.464513675737
    -47.781376090467
    -47.966510946929
    -47.976362035780
    -48.004333406298
    -48.018287700303
    -49.000012418523
    -50.197548138224
    -50.197548156328
    -50.517268956653
    -50.517398655701
    -50.628629004403
    -50.649779306783
    -51.248383880323
    -51.999993688085
    -52.166661853426
    -52.333325961711
    -52.499993884486
    -52.666627405408
    -53.080205878029
    -53.337684824300
    -53.421434322201
    -53.449161563062
    -53.463774411663
    -53.463774427368
    -53.951268502297
    -53.951939884652
    -54.153539074159
    -56.280011453423
    -56.693177588565
    -57.666661614793
    -57.777772547145
    -57.888883234400
    -57.999993921669
    -58.111070277432
    -58.695894264177
    -58.866510423401
    -58.893994135973
    -58.893994161324
    -59.337423562886
    -59.338728187599
    -59.521879583435
    -61.931390087545
    -62.137971296918
    -63.333325727253
    -63.388883845962
    -63.444438190304
    -63.499994551882
    -63.555516963793
    -64.311587777203
    -64.311587747441
    -64.555722696368
    -64.556813705201
    -64.657575640841
    -67.582767034052
    -67.582766980278
    -67.663092032368
    -67.663519283862
    -67.696654257923
    -68.999988931917
    -19.999983130816
    -25.444403508582
    -30.888848291732
    -36.333291167444
    -41.777737857511
    -47.222180732622
    -52.666627422180
    -58.111070296890
    -63.555516985928
SCALARS phi_mu float 1
LOOKUP_TABLE default
     -0.000071893707
     -1.060310680671
     -1.196560521945
     -3.988399684215
     -4.454390491386
     -5.444490243260
     -6.520006693118
     -6.641117868517
     -8.887203882801
     -9.485665599818
     -9.890512033346
     -9.899879548889
    -10.888934926961
    -11.979699800785
    -12.085672448333
    -13.770370255210
    -14.443514149314
    -14.982929208114
    -15.305911342184
    -15.335342532560
    -15.345366428352
    -16.333379610663
    -16.720357352836
    -17.439394342476
    -17.530227503717
    -17.999993805894
    -18.499993825769
    -18.579610319003
    -18.999993021580
    -19.386060270446
    -19.499993640117
    -19.999824790871
    -19.999983130078
    -20.480191867122
    -20.750985346366
    -20.780173549941
    -20.790854261262
    -21.777824294293
    -22.371735829733
    -22.899087933853
    -22.974780650435
    -23.666659780549
    -24.024405802148
    -24.111104569353
    -24.555549133430
    -24.999993697450
    -25.001750573327
    -25.444403505492
    -25.556133525078
    -25.977456437837
    -26.196061447050
    -26.225005521009
    -26.236340186538
    -27.222267070516
    -28.023114465093
    -28.358779621520
    -28.419335703266
    -29.333325798522
    -29.469201417745
    -29.722215263357
    -30.111104499310
    -30.499993734994
    -30.617440874500
    -30.888848285871
    -31.112444166432
    -31.474719105361
    -31.641135640425
    -31.669837492260
    -31.681828018991
    -32.666713661374
    -33.674493100236
    -33.818475127258
    -33.863888847549
    -34.913995125952
    -34.999993724104
    -35.333325957376
    -35.666661772315
    -35.999993772458
    -36.233133081424
    -36.333291158833
    -36.668754807831
    -36.971981777001
    -37.086209833892
    -37.114669463494
    -37.127315851128
    -38.111156437662
    -39.278168729140
    -39.308445805136
    -39.325871735169
    -40.358792648967
    -40.666661649980
    -40.944436651223
    -41.222215230627
    -41.499993809878
    -41.777737846162
    -41.848821472053
    -42.225063541876
    -42.469246359956
    -42.531285934843
    -42.559501434808
    -42.572799868465
    -43.555603028506
    -44.737862334482
    -44.752998946881
    -44.977250369887
    -45.803586357290
    -46.333325761604
    -46.555551159802
    -46.777772503544
    -46.999993847200
    -47.222180718555
    -47.464513675737
    -47.781376090467
    -47.966510946929
    -47.976362035780
    -48.004333406298
    -48.018287700303
    -49.000012418523
    -50.197548138224
    -50.197548156328
    -50.517268956653
    -50.517398655701
    -50.628629004403
    -50.649779306783
    -51.248383880323
    -51.999993688085
    -52.166661853426
    -52.333325961711
    -52.499993884486
    -52.666627405408
    -53.080205878029
    -53.337684824300
    -53.421434322201
    -53.449161563062
    -53.463774411663
    -53.463774427368
    -53.951268502297
    -53.951939884652
    -54.153539074159
    -56.280011453423
    -56.693177588565
    -57.666661614793
    -57.777772547145
    -57.888883234400
    -57.999993921669
    -58.111070277432
    -58.695894264177
    -58.866510423401
    -58.893994135973
    -58.893994161324
    -59.337423562886
    -59.338728187599
    -59.521879583435
    -61.931390087545
    -62.137971296918
    -63.333325727253
    -63.388883845962
    -63.444438190304
    -63.499994551882
    -63.555516963793
    -64.311587777203
    -64.311587747441
    -64.555722696368
    -64.556813705201
    -64.657575640841
    -67.582767034052
    -67.582766980278
    -67.663092032368
    -67.663519283862
    -67.696654257923
    -68.999988931917
    -19.999983130816
    -25.444403508582
    -30.888848291732
    -36.333291167444
    -41.777737857511
    -47.222180732622
    -52.666627422180
    -58.111070296890
    -63.555516985928
SCALARS phi_sigma float 1
LOOKUP_TABLE default
      0.000000000000
      0.000000000000
      0.000000000000
      0.000000000000
      0.000000000000
      0.000000000000
      0.000000000000
      0.000000000000
      0.000000000000
      0.000000000000
      0.000000000000
      0.000000000000
      0.000000000000
      0.000000000000
      0.000000000000
      0.000000000000
      0.000000000000
      0.000000000000
      0.000000000000
      0.000000000000
      0.000000000000
      0.000000000000
      0.000000000000
      0.000000000000
      0.000000000000
      0.000000000000
      0.000000000000
      0.000000000000
      0.000000000000
      0.000000000000
      0.000000000000
      0.000000000000
      0.000000000000
      0.000000000000
      0.000000000000
      0.000000000000
      0.000000000000
      0.000000000000
      0.000000000000
      0.000000000000
      0.000000000000
      0.000000000000
      0.000000000000
      0.000000000000
      0.000000000000
      0.000000000000
      0.000000000000
      0.000000000000
      0.000000000000
      0.000000000000
      0.000000000000
      0.000000000000
      0.000000000000
      0.000000000000
      0.000000000000
      0.000000000000
      0.000000000000
      0.000000000000
      0.000000000000
      0.000000000000
      0.000000000000
      0.000000000000
      0.000000000000
      0.000000000000
      0.000000000000
      0.000000000000
      0.000000000000
      0.000000000000
      0.000000000000
      0.000000000000
      0.000000000000
      0.000000000000
      0.000000000000
      0.000000000000
      0.000000000000
      0.000000000000
      0.000000000000
      0.000000000000
      0.000000000000
      0.000000000000
      0.000000000000
      0.000000000000
      0.000000000000
      0.000000000000
      0.000000000000
      0.000000000000
      0.000000000000
      0.000000000000
      0.000000000000
      0.000000000000
      0.000000000000
      0.000000000000
      0.000000000000
      0.000000000000
      0.000000000000
      0.000000000000
      0.000000000000
      0.000000000000
      0.000000000000
      0.000000000000
      0.000000000000
      0.000000000000
      0.000000000000
      0.000000000000
      0.000000000000
      0.000000000000
      0.000000000000
      0.000000000000
      0.000000000000
      0.000000000000
      0.000000000000
      0.000000000000
      0.000000000000
      0.000000000000
      0.000000000000
      0.000000000000
      0.000000000000
      0.000000000000
      0.000000000000
      0.000000000000
      0.000000000000
      0.000000000000
      0.000000000000
      0.000000000000
      0.000000000000
      0.000000000000
      0.000000000000
      0.000000000000
      0.000000000000
      0.000000000000
      0.000000000000
      0.000000000000
      0.000000000000
      0.000000000000
      0.000000000000
      0.000000000000
      0.000000000000
      0.000000000000
      0.000000000000
      0.000000000000
      0.000000000000
      0.000000000000
      0.000000000000
      0.000000000000
      0.000000000000
      0.000000000000
      0.000000000000
      0.000000000000
      0.000000000000
      0.000000000000
      0.000000000000
      0.000000000000
      0.000000000000
      0.000000000000
      0.000000000000
      0.000000000000
      0.000000000000
      0.000000000000
      0.000000000000
      0.000000000000
      0.000000000000
      0.000000000000
      0.000000000000
      0.000000000000
      0.000000000000
      0.000000000000
      0.000000000000
      0.000000000000
      0.000000000000
      0.000000000000
      0.000000000000
      0.000000000000
      0.000000000000
      0.000000000000
      0.000000000000
      0.000000000000
      0.000000000000
      0.000000000000
      0.000000000000
      0.000000000000
