# vtk DataFile Version 3.0
MFTran results file. Generated by MFTran, USU AeroLab (c) 2021.
ASCII
DATASET POLYDATA
POINTS                 704 float
      0.000004331422      0.000000000000      0.000000000000
      0.000004071920      0.421052634716      0.000000000000
      0.000004071920      0.842105269432      0.000000000000
      0.000004071920      1.263157844540      0.000000000000
      0.000004071921      1.684210538860      0.000000000000
      0.000004071919      2.105263233180      0.000000000000
      0.000004071920      2.526315689090      0.000000000000
      0.000004071921      2.947368383410      0.000000000000
      0.000004071921      3.368421077730      0.000000000000
      0.000004071921      3.789473772050      0.000000000000
      0.000004071919      4.210526466370      0.000000000000
      0.000004071919      4.631578922270      0.000000000000
      0.000004071921      5.052631378170      0.000000000000
      0.000004071920      5.473684310910      0.000000000000
      0.000004071921      5.894736766820      0.000000000000
      0.000004071920      6.315789699550      0.000000000000
      0.000004071919      6.736842155460      0.000000000000
      0.000004071921      7.157894611360      0.000000000000
      0.000004071920      7.578947544100      0.000000000000
      0.000002312425      7.999997913647      0.000000000000
      0.257793307257      0.000000000000     -0.131796066699
      0.257793307257      0.000000000000      0.131796066699
      0.257793523822      0.421052634716     -0.131796121309
      0.257793523822      0.421052634716      0.131796121309
      0.257793523822      0.842105269432     -0.131796121309
      0.257793523822      0.842105269432      0.131796121309
      0.257793523822      1.263157844540     -0.131796121309
      0.257793523822      1.263157844540      0.131796121309
      0.257793523822      1.684210538860     -0.131796121309
      0.257793523822      1.684210538860      0.131796121309
      0.257793523822      2.105263233180     -0.131796121309
      0.257793523822      2.105263233180      0.131796121309
      0.257793523822      2.526315689090     -0.131796121309
      0.257793523822      2.526315689090      0.131796121309
      0.257793523822      2.947368383410     -0.131796121309
      0.257793523822      2.947368383410      0.131796121309
      0.257793523822      3.368421077730     -0.131796121309
      0.257793523822      3.368421077730      0.131796121309
      0.257793523822      3.789473772050     -0.131796121309
      0.257793523822      3.789473772050      0.131796121309
      0.257793523822      4.210526466370     -0.131796121309
      0.257793523822      4.210526466370      0.131796121309
      0.257793523822      4.631578922270     -0.131796121310
      0.257793523822      4.631578922270      0.131796121310
      0.257793523822      5.052631378170     -0.131796121309
      0.257793523822      5.052631378170      0.131796121309
      0.257793523822      5.473684310910     -0.131796121309
      0.257793523822      5.473684310910      0.131796121309
      0.257793523822      5.894736766820     -0.131796121309
      0.257793523822      5.894736766820      0.131796121309
      0.257793523822      6.315789699550     -0.131796121309
      0.257793523822      6.315789699550      0.131796121309
      0.257793523822      6.736842155460     -0.131796121310
      0.257793523822      6.736842155460      0.131796121310
      0.257793523822      7.157894611360     -0.131796121309
      0.257793523822      7.157894611360      0.131796121309
      0.257793523822      7.578947544100     -0.131796121309
      0.257793523822      7.578947544100      0.131796121309
      0.257793249352      7.999999396118     -0.131797008523
      0.257793249352      7.999999396118      0.131797008523
      0.257792879867      8.093195283395     -0.093195332947
      0.257792879867      8.093195283395      0.093195332947
      0.257792882617      8.131797857920     -0.000000000000
      0.536311052970      0.000000000000     -0.172265750745
      0.536311052970      0.000000000000      0.172265750745
      0.536311102423      0.421052634716     -0.172265740001
      0.536311102423      0.421052634716      0.172265740001
      0.536311102423      0.842105269432     -0.172265740001
      0.536311102423      0.842105269432      0.172265740001
      0.536311102423      1.263157844540     -0.172265740001
      0.536311102423      1.263157844540      0.172265740001
      0.536311102423      1.684210538860     -0.172265740000
      0.536311102423      1.684210538860      0.172265740000
      0.536311102423      2.105263233180     -0.172265740001
      0.536311102423      2.105263233180      0.172265740001
      0.536311102423      2.526315689090     -0.172265740001
      0.536311102423      2.526315689090      0.172265740001
      0.536311102423      2.947368383410     -0.172265740000
      0.536311102423      2.947368383410      0.172265740000
      0.536311102423      3.368421077730     -0.172265740000
      0.536311102423      3.368421077730      0.172265740000
      0.536311102423      3.789473772050     -0.172265740000
      0.536311102423      3.789473772050      0.172265740000
      0.536311102423      4.210526466370     -0.172265740001
      0.536311102423      4.210526466370      0.172265740001
      0.536311102423      4.631578922270     -0.172265740002
      0.536311102423      4.631578922270      0.172265740002
      0.536311102423      5.052631378170     -0.172265740000
      0.536311102423      5.052631378170      0.172265740000
      0.536311102423      5.473684310910     -0.172265740000
      0.536311102423      5.473684310910      0.172265740000
      0.536311102423      5.894736766820     -0.172265740000
      0.536311102423      5.894736766820      0.172265740000
      0.536311102423      6.315789699550     -0.172265740000
      0.536311102423      6.315789699550      0.172265740000
      0.536311102423      6.736842155460     -0.172265740002
      0.536311102423      6.736842155460      0.172265740002
      0.536311102423      7.157894611360     -0.172265740000
      0.536311102423      7.157894611360      0.172265740000
      0.536311102423      7.578947544100     -0.172265740000
      0.536311102423      7.578947544100      0.172265740000
      0.536311009739      7.999999383609     -0.172266608585
      0.536311009739      7.999999383609      0.172266608585
      0.536310926493      8.121811165564     -0.121811427876
      0.536310926493      8.121811165564      0.121811427876
      0.536310955910      8.172267475626      0.000000000000
      0.799721175867      0.000000000000     -0.191199673456
      0.799721175867      0.000000000000      0.191199673456
      0.799721202971      0.421052634716     -0.191199663068
      0.799721202971      0.421052634716      0.191199663068
      0.799721202971      0.842105269432     -0.191199663068
      0.799721202971      0.842105269432      0.191199663068
      0.799721202971      1.263157844540     -0.191199663068
      0.799721202971      1.263157844540      0.191199663068
      0.799721202971      1.684210538860     -0.191199663067
      0.799721202971      1.684210538860      0.191199663067
      0.799721202971      2.105263233180     -0.191199663068
      0.799721202971      2.105263233180      0.191199663068
      0.799721202971      2.526315689090     -0.191199663068
      0.799721202971      2.526315689090      0.191199663068
      0.799721202971      2.947368383410     -0.191199663067
      0.799721202971      2.947368383410      0.191199663067
      0.799721202971      3.368421077730     -0.191199663067
      0.799721202971      3.368421077730      0.191199663067
      0.799721202971      3.789473772050     -0.191199663067
      0.799721202971      3.789473772050      0.191199663067
      0.799721202971      4.210526466370     -0.191199663068
      0.799721202971      4.210526466370      0.191199663068
      0.799721202971      4.631578922270     -0.191199663069
      0.799721202971      4.631578922270      0.191199663069
      0.799721202971      5.052631378170     -0.191199663067
      0.799721202971      5.052631378170      0.191199663067
      0.799721202971      5.473684310910     -0.191199663067
      0.799721202971      5.473684310910      0.191199663067
      0.799721202971      5.894736766820     -0.191199663067
      0.799721202971      5.894736766820      0.191199663067
      0.799721202971      6.315789699550     -0.191199663067
      0.799721202971      6.315789699550      0.191199663067
      0.799721202971      6.736842155460     -0.191199663069
      0.799721202971      6.736842155460      0.191199663069
      0.799721202971      7.157894611360     -0.191199663067
      0.799721202971      7.157894611360      0.191199663067
      0.799721202971      7.578947544100     -0.191199663067
      0.799721202971      7.578947544100      0.191199663067
      0.799721160290      7.999999392190     -0.191200510118
      0.799721160290      7.999999392190      0.191200510118
      0.799721122073      8.135199809079     -0.135199690285
      0.799721122073      8.135199809079      0.135199690285
      0.799721138560      8.191200780965     -0.000000000000
      1.050259518183      0.000000000000     -0.198939612723
      1.050259518183      0.000000000000      0.198939612723
      1.050259536151      0.421052634716     -0.198939604501
      1.050259536151      0.421052634716      0.198939604501
      1.050259536151      0.842105269432     -0.198939604501
      1.050259536151      0.842105269432      0.198939604501
      1.050259536151      1.263157844540     -0.198939604501
      1.050259536151      1.263157844540      0.198939604501
      1.050259536151      1.684210538860     -0.198939604501
      1.050259536151      1.684210538860      0.198939604501
      1.050259536151      2.105263233180     -0.198939604502
      1.050259536151      2.105263233180      0.198939604502
[...]
POINT_DATA                 704
SCALARS phi float 1
LOOKUP_TABLE default
      0.000000000000
      0.000000000000
     -0.000000000000
      0.000000000000
      0.000000000000
      0.000000000000
      0.000000000000
     -0.000000000000
      0.000000000000
      0.000000000000
     -0.000000000000
     -0.000000000000
      0.000000000000
      0.000000000000
      0.000000000000
     -0.000000000000
      0.000000000000
      0.000000000000
      0.000000000000
     -0.000000000000
      0.000000000000
      0.000000000000
      0.000000000000
     -0.000000000000
      0.000000000000
     -0.000000000000
     -0.000000000000
     -0.000000000000
      0.000000000000
      0.000000000000
      0.000000000000
     -0.000000000000
     -0.000000000000
     -0.000000000000
     -0.000000000000
      0.000000000000
      0.000000000000
     -0.000000000000
      0.000000000000
     -0.000000000000
      0.000000000000
      0.000000000000
      0.000000000000
      0.000000000000
     -0.000000000000
     -0.000000000000
      0.000000000000
      0.000000000000
     -0.000000000000
     -0.000000000000
      0.000000000000
     -0.000000000000
     -0.000000000000
      0.000000000000
     -0.000000000000
     -0.000000000000
      0.000000000000
      0.000000000000
     -0.000000000000
     -0.000000000000
     -0.000000000000
     -0.000000000000
     -0.000000000000
     -0.000000000000
      0.000000000000
      0.000000000000
      0.000000000000
     -0.000000000000
      0.000000000000
      0.000000000000
     -0.000000000000
      0.000000000000
     -0.000000000000
      0.000000000000
      0.000000000000
     -0.000000000000
     -0.000000000000
      0.000000000000
      0.000000000000
     -0.000000000000
     -0.000000000000
      0.000000000000
      0.000000000000
      0.000000000000
     -0.000000000000
     -0.000000000000
     -0.000000000000
      0.000000000000
      0.000000000000
     -0.000000000000
      0.000000000000
      0.000000000000
      0.000000000000
      0.000000000000
      0.000000000000
     -0.000000000000
     -0.000000000000
     -0.000000000000
      0.000000000000
      0.000000000000
      0.000000000000
      0.000000000000
      0.000000000000
     -0.000000000000
      0.000000000000
     -0.000000000000
      0.000000000000
     -0.000000000000
      0.000000000000
     -0.000000000000
     -0.000000000000
     -0.000000000000
      0.000000000000
      0.000000000000
     -0.000000000000
     -0.000000000000
      0.000000000000
      0.000000000000
     -0.000000000000
     -0.000000000000
     -0.000000000000
      0.000000000000
     -0.000000000000
     -0.000000000000
     -0.000000000000
     -0.000000000000
      0.000000000000
     -0.000000000000
      0.000000000000
      0.000000000000
      0.000000000000
      0.000000000000
      0.000000000000
     -0.000000000000
      0.000000000000
      0.000000000000
      0.000000000000
      0.000000000000
      0.000000000000
      0.000000000000
      0.000000000000
      0.000000000000
      0.000000000000
      0.000000000000
     -0.000000000000
      0.000000000000
      0.000000000000
      0.000000000000
      0.000000000000
      0.000000000000
      0.000000000000
      0.000000000000
      0.000000000000
     -0.000000000000
      0.000000000000
      0.000000000000
      0.000000000000
     -0.000000000000
     -0.000000000000
     -0.000000000000
     -0.000000000000
     -0.000000000000
      0.000000000000
      0.000000000000
      0.000000000000
     -0.000000000000
     -0.000000000000
      0.000000000000
     -0.000000000000
      0.000000000000
      0.000000000000
      0.000000000000
     -0.000000000000
     -0.000000000000
     -0.000000000000
      0.000000000000
     -0.000000000000
     -0.000000000000
     -0.000000000000
      0.000000000000
     -0.000000000000
      0.000000000000
      0.000000000000
      0.000000000000
     -0.000000000000
      0.000000000000
      0.000000000000
     -0.000000000000
      0.000000000000
     -0.000000000000
     -0.000000000000
     -0.000000000000
      0.000000000000
     -0.000000000000
     -0.000000000000
     -0.000000000000
     -0.000000000000
      0.000000000000
      0.000000000000
     -0.000000000000
     -0.000000000000
     -0.000000000000
     -0.000000000000
     -0.000000000000
      0.000000000000
      0.000000000000
      0.000000000000
     -0.000000000000
      0.000000000000
      0.000000000000
      0.000000000000
      0.000000000000
     -0.000000000000
     -0.000000000000
     -0.000000000000
     -0.000000000000
      0.000000000000
     -0.000000000000
      0.000000000000
      0.000000000000
     -0.000000000000
      0.000000000000
      0.000000000000
     -0.000000000000
      0.000000000000
     -0.000000000000
      0.000000000000
      0.000000000000
     -0.000000000000
      0.000000000000
      0.000000000000
      0.000000000000
      0.000000000000
      0.000000000000
      0.000000000000
      0.000000000000
     -0.000000000000
     -0.000000000000
     -0.000000000000
     -0.000000000000
     -0.000000000000
     -0.000000000000
      0.000000000000
      0.000000000000
      0.000000000000
     -0.000000000000
      0.000000000000
     -0.000000000000
     -0.000000000000
      0.000000000000
      0.000000000000
      0.000000000000
      0.000000000000
     -0.000000000000
     -0.000000000000
      0.000000000000
     -0.000000000000
     -0.000000000000
      0.000000000000
     -0.000000000000
      0.000000000000
      0.000000000000
     -0.000000000000
     -0.000000000000
      0.000000000000
      0.000000000000
      0.000000000000
      0.000000000000
      0.000000000000
     -0.000000000000
      0.000000000000
     -0.000000000000
     -0.000000000000
     -0.000000000000
      0.000000000000
     -0.000000000000
     -0.000000000000
      0.000000000000
      0.000000000000
      0.000000000000
      0.000000000000
     -0.000000000000
     -0.000000000000
     -0.000000000000
      0.000000000000
     -0.000000000000
      0.000000000000
     -0.000000000000
     -0.000000000000
      0.000000000000
      0.000000000000
     -0.000000000000
     -0.000000000000
      0.000000000000
      0.000000000000
      0.000000000000
      0.000000000000
      0.000000000000
      0.000000000000
     -0.000000000000
     -0.000000000000
     -0.000000000000
      0.000000000000
     -0.000000000000
     -0.000000000000
     -0.000000000000
      0.000000000000
     -0.000000000000
     -0.000000000000
     -0.000000000000
     -0.000000000000
      0.000000000000
     -0.000000000000
     -0.000000000000
      0.000000000000
      0.000000000000
      0.000000000000
      0.000000000000
     -0.000000000000
      0.000000000000
      0.000000000000
      0.000000000000
      0.000000000000
     -0.000000000000
     -0.000000000000
      0.000000000000
     -0.000000000000
     -0.000000000000
     -0.000000000000
      0.000000000000
      0.000000000000
     -0.000000000000
      0.000000000000
     -0.000000000000
     -0.000000000000
     -0.000000000000
     -0.000000000000
      0.000000000000
      0.000000000000
      0.000000000000
      0.000000000000
     -0.000000000000
     -0.000000000000
      0.000000000000
     -0.000000000000
     -0.000000000000
     -0.000000000000
      0.000000000000
     -0.000000000000
      0.000000000000
      0.000000000000
     -0.000000000000
     -0.000000000000
     -0.000000000000
      0.000000000000
      0.000000000000
     -0.000000000000
     -0.000000000000
      0.000000000000
     -0.000000000000
      0.000000000000
     -0.000000000000
      0.000000000000
     -0.000000000000
     -0.000000000000
      0.000000000000
     -0.000000000000
     -0.000000000000
     -0.000000000000
     -0.000000000000
     -0.000000000000
      0.000000000000
      0.000000000000
     -0.000000000000
      0.000000000000
     -0.000000000000
     -0.000000000000
     -0.000000000000
     -0.000000000000
     -0.000000000000
     -0.000000000000
      0.000000000000
      0.000000000000
     -0.000000000000
     -0.000000000000
     -0.000000000000
     -0.000000000000
     -0.000000000000
     -0.000000000000
     -0.000000000000
      0.000000000000
     -0.000000000000
     -0.000000000000
     -0.000000000000
     -0.000000000000
     -0.000000000000
     -0.000000000000
     -0.000000000000
      0.000000000000
     -0.000000000000
      0.000000000000
      0.000000000000
      0.000000000000
      0.000000000000
     -0.000000000000
     -0.000000000000
      0.000000000000
     -0.000000000000
     -0.000000000000
     -0.000000000000
     -0.000000000000
      0.000000000000
     -0.000000000000
      0.000000000000
      0.000000000000
     -0.000000000000
     -0.000000000000
      0.000000000000
     -0.000000000000
      0.000000000000
      0.000000000000
      0.000000000000
     -0.000000000000
      0.000000000000
      0.000000000000
     -0.000000000000
      0.000000000000
      0.000000000000
     -0.000000000000
     -0.000000000000
     -0.000000000000
     -0.000000000000
     -0.000000000000
      0.000000000000
      0.000000000000
     -0.000000000000
      0.000000000000
     -0.000000000000
      0.000000000000
     -0.000000000000
     -0.000000000000
     -0.000000000000
      0.000000000000
     -0.000000000000
      0.000000000000
     -0.000000000000
      0.000000000000
     -0.000000000000
     -0.000000000000
     -0.000000000000
     -0.000000000000
     -0.000000000000
      0.000000000000
     -0.000000000000
     -0.000000000000
      0.000000000000
      0.000000000000
     -0.000000000000
     -0.000000000000
     -0.000000000000
      0.000000000000
     -0.000000000000
      0.000000000000
      0.000000000000
      0.000000000000
     -0.000000000000
      0.000000000000
     -0.000000000000
     -0.000000000000
     -0.000000000000
      0.000000000000
     -0.000000000000
      0.000000000000
      0.000000000000
     -0.000000000000
      0.000000000000
      0.000000000000
     -0.000000000000
      0.000000000000
     -0.000000000000
      0.000000000000
     -0.000000000000
     -0.000000000000
      0.000000000000
      0.000000000000
     -0.000000000000
     -0.000000000000
     -0.000000000000
     -0.000000000000
      0.000000000000
      0.000000000000
      0.000000000000
     -0.000000000000
     -0.000000000000
      0.000000000000
     -0.000000000000
     -0.000000000000
     -0.000000000000
     -0.000000000000
      0.000000000000
     -0.000000000000
     -0.000000000000
     -0.000000000000
     -0.000000000000
     -0.000000000000
      0.000000000000
     -0.000000000000
      0.000000000000
      0.000000000000
      0.000000000000
      0.000000000000
      0.000000000000
     -0.000000000000
      0.000000000000
      0.000000000000
      0.000000000000
     -0.000000000000
      0.000000000000
      0.000000000000
      0.000000000000
      0.000000000000
     -0.000000000000
      0.000000000000
     -0.000000000000
      0.000000000000
      0.000000000000
     -0.000000000000
      0.000000000000
      0.000000000000
     -0.000000000000
     -0.000000000000
      0.000000000000
      0.000000000000
     -0.000000000000
     -0.000000000000
     -0.000000000000
      0.000000000000
      0.000000000000
      0.000000000000
      0.000000000000
     -0.000000000000
      0.000000000000
      0.000000000000
     -0.000000000000
      0.000000000000
     -0.000000000000
      0.000000000000
      0.000000000000
      0.000000000000
      0.000000000000
     -0.000000000000
      0.000000000000
      0.000000000000
      0.000000000000
     -0.000000000000
      0.000000000000
     -0.000000000000
      0.000000000000
      0.000000000000
      0.000000000000
     -0.000000000000
      0.000000000000
     -0.000000000000
     -0.000000000000
     -0.000000000000
      0.000000000000
      0.000000000000
     -0.000000000000
      0.000000000000
      0.000000000000
     -0.000000000000
      0.000000000000
      0.000000000000
     -0.000000000000
      0.000000000000
      0.000000000000
     -0.000000000000
      0.000000000000
      0.000000000000
     -0.000000000000
      0.000000000000
     -0.000000000000
      0.000000000000
      0.000000000000
     -0.000000000000
      0.000000000000
     -0.000000000000
      0.000000000000
      0.000000000000
     -0.000000000000
     -0.000000000000
     -0.000000000000
      0.000000000000
     -0.000000000000
      0.000000000000
     -0.000000000000
     -0.000000000000
     -0.000000000000
      0.000000000000
      0.000000000000
      0.000000000000
     -0.000000000000
      0.000000000000
      0.000000000000
      0.000000000000
     -0.000000000000
      0.000000000000
     -0.000000000000
     -0.000000000000
     -0.000000000000
      0.000000000000
      0.000000000000
     -0.000000000000
     -0.000000000000
     -0.000000000000
     -0.000000000000
      0.000000000000
      0.000000000000
      0.000000000000
     -0.000000000000
      0.000000000000
      0.000000000000
     -0.000000000000
     -0.000000000000
      0.000000000000
     -0.000000000000
     -0.000000000000
     -0.000000000000
      0.000000000000
     -0.000000000000
      0.000000000000
      0.000000000000
      0.000000000000
      0.000000000000
     -0.000000000000
      0.000000000000
     -0.000000000000
     -0.000000000000
      0.000000000000
     -0.000000000000
     -0.000000000000
     -0.000000000000
      0.000000000000
      0.000000000000
      0.000000000000
      0.000000000000
     -0.000000000000
      0.000000000000
      0.000000000000
     -0.000000000000
     -0.000000000000
     -0.000000000000
      0.000000000000
      0.000000000000
      0.000000000000
      0.000000000000
      0.000000000000
      0.000000000000
     -0.000000000000
     -0.000000000000
      0.000000000000
     -0.000000000000
     -0.000000000000
      0.000000000000
     -0.000000000000
      0.000000000000
     -0.000000000000
     -0.000000000000
      0.000000000000
      0.000000000000
      0.000000000000
      0.000000000000
     -0.000000000000
     -0.000000000000
     -0.000000000000
     -0.000000000000
      0.000000000000
     -0.000000000000
     -0.000000000000
     -0.000000000000
      0.000000000000
      0.000000000000
     -0.000000000000
     -0.000000000000
      0.000000000000
      0.000000000000
     -0.000000000000
      0.000000000000
     -0.000000000000
     -0.000000000000
      0.000000000000
     -0.000000000000
     -0.000000000000
     -0.000000000000
     -0.000000000000
      0.000000000000
     -0.000000000000
     -0.000000000000
     -0.000000000000
     -0.000000000000
     -0.000000000000
      0.000000000000
     -0.000000000000
     -0.000000000000
SCALARS phi_mu float 1
LOOKUP_TABLE default
      0.164223235096
      0.163920367109
      0.163585273401
      0.163211586397
      0.162791425433
      0.162314547377
      0.161767566062
      0.161132808009
      0.160386621292
      0.159496821185
      0.158418748453
      0.157089004313
      0.155415125123
      0.153257788070
      0.150398294075
      0.146474140731
      0.140836047534
      0.132169123005
      0.117120479494
      0.075556115099
      0.144819610169
      0.165002324937
      0.144514153924
      0.164696646276
      0.144180051800
      0.164361818884
      0.143811105557
      0.163991623693
      0.143399554130
      0.163578234999
      0.142935399290
      0.163111554521
      0.142405627105
      0.162578421186
      0.141793064894
      0.161961449366
      0.141074682631
      0.161237300260
      0.140219006806
      0.160374046592
      0.139182089023
      0.159327058298
      0.137901021764
      0.158032372655
      0.136283106717
      0.156395593460
      0.134186905490
      0.154272411087
      0.131387041521
      0.151432267076
      0.127503257485
      0.147484682834
      0.121840329509
      0.141711499357
      0.112959616352
      0.132610850271
      0.097176609597
      0.116241946188
      0.059354081008
      0.074583311115
      0.046828118262
      0.056308443416
      0.045462052919
      0.099458033965
      0.127369285731
      0.099150545152
      0.127061477255
      0.098818525798
      0.126728486624
      0.098455963799
      0.126364250700
      0.098055323057
      0.125961144487
      0.097607010993
      0.125509437383
      0.097098623833
      0.124996521779
      0.096513839994
      0.124405779520
      0.095830771167
      0.123714889381
      0.095019439074
      0.122893231680
      0.094037816228
      0.121897805812
      0.092825411268
      0.120666596030
      0.091292476896
      0.119107366784
      0.089301021365
      0.117077845291
      0.086629464706
      0.114348562923
      0.082901829899
      0.110527589451
      0.077431687280
      0.104891645925
      0.068831414894
      0.095948607468
      0.053882685248
      0.080060177124
      0.023006310211
      0.044216450973
      0.011157903785
      0.024365816020
      0.010732086695
      0.063354092202
      0.094878600418
      0.063045460333
      0.094569607165
      0.062716581666
      0.094239630485
      0.062361575714
      0.093882731034
      0.061973226619
      0.093491590432
      0.061542483493
      0.093056998245
      0.061057752138
      0.092567123920
      0.060503861689
      0.092006451323
      0.059860526607
      0.091354188408
      0.059099990740
      0.090581824057
      0.058183323731
      0.089649274230
      0.057054410176
      0.088498600836
      0.055629833755
      0.087043382631
      0.053781131828
      0.085149927553
      0.051302079962
      0.082602251411
      0.047844571520
      0.079032248518
      0.042783577052
      0.073768189140
      0.034908410566
      0.065466971015
      0.021674363253
      0.051072802543
     -0.003705414762
      0.020218104712
     -0.014156385558
      0.000730385445
     -0.013751478329
      0.032491602870
      0.065698571304
      0.032182714464
      0.065389302300
      0.031857873553
      0.065063303740
      0.031511384207
      0.064714817170
      0.031136428127
      0.064336914655
      0.030724604597
      0.063921024574
      0.030265286932
      0.063456266503
      0.029744692109
      0.062928485693
      0.029144503038
      0.062318817836
      0.028439763983
      0.061601488121
      0.027595579399
      0.060740343150
      0.026561770396
      0.059683205372
      0.025263922265
      0.058352343703
      0.023587810344
      0.056627721507
      0.021351123152
      0.054316104144
      0.018249523343
      0.051090643178
      0.013748160692
      0.046363843537
      0.006850541817
      0.038991286442
     -0.004420390158
      0.026442842546
     -0.025377495805
     -0.000216323711
     -0.034312053643
     -0.018654917062
     -0.033231075379
      0.005604672705
      0.039294050550
      0.005296313770
      0.038985306677
      0.004976283322
      0.038664104204
      0.004639117011
      0.038324915278
      0.004278456147
      0.037961269177
      0.003886635176
      0.037565325520
      0.003454116993
      0.037127287268
      0.002968688286
      0.036634559613
      0.002414279517
      0.036070510169
      0.001769174783
      0.035412578337
      0.001003221416
      0.034629310289
      0.000073342810
      0.033675554828
     -0.001083918227
      0.032484399629
     -0.002565224836
      0.030953103977
     -0.004523348906
      0.028917438047
     -0.007209824005
      0.026102222140
     -0.011058090885
      0.022018843505
     -0.016856264453
      0.015725514172
     -0.026147443476
      0.005114039125
     -0.043365871849
     -0.017879193878
     -0.050813208088
     -0.034947862495
     -0.049189390576
     -0.018046502594
      0.015284139935
     -0.018353621824
      0.014976642282
     -0.018668156245
      0.014660954686
     -0.018995298568