# vtk DataFile Version 3.0
TriPan results file. Generated by TriPan, USU AeroLab (c) 2021.
ASCII
DATASET POLYDATA
POINTS                 704 float
  0.476456375309E-05  0.000000000000E+00  0.000000000000E+00
  0.447911218842E-05  0.421052634716E+00  0.000000000000E+00
  0.447911189904E-05  0.842105269432E+00  0.182066632791E-21
  0.447911236849E-05  0.126315784454E+01  0.000000000000E+00
  0.447911258705E-05  0.168421053886E+01  0.000000000000E+00
  0.447911142965E-05  0.210526323318E+01  0.000000000000E+00
  0.447911214996E-05  0.252631568909E+01  0.000000000000E+00
  0.447911258705E-05  0.294736838341E+01  0.000000000000E+00
  0.447911258705E-05  0.336842107773E+01  0.000000000000E+00
  0.447911258705E-05  0.378947377205E+01  0.000000000000E+00
  0.447911142961E-05  0.421052646637E+01  0.000000000000E+00
  0.447911099250E-05  0.463157892227E+01  0.000000000000E+00
  0.447911330738E-05  0.505263137817E+01  0.000000000000E+00
  0.447911186676E-05  0.547368431091E+01  0.000000000000E+00
  0.447911330735E-05  0.589473676682E+01  0.000000000000E+00
  0.447911186674E-05  0.631578969955E+01  0.000000000000E+00
  0.447911099252E-05  0.673684215546E+01  0.000000000000E+00
  0.447911330738E-05  0.715789461136E+01  0.000000000000E+00
  0.447911186671E-05  0.757894754410E+01  0.000000000000E+00
  0.254366756317E-05  0.799999770501E+01  0.808768670280E-21
  0.257793408580E+00  0.000000000000E+00 -0.131795675270E+00
  0.257793408580E+00  0.000000000000E+00  0.131795675270E+00
  0.257793646802E+00  0.421052634716E+00 -0.131795735340E+00
  0.257793646802E+00  0.421052634716E+00  0.131795735340E+00
  0.257793646802E+00  0.842105269432E+00 -0.131795735340E+00
  0.257793646802E+00  0.842105269432E+00  0.131795735340E+00
  0.257793646802E+00  0.126315784454E+01 -0.131795735340E+00
  0.257793646802E+00  0.126315784454E+01  0.131795735340E+00
  0.257793646802E+00  0.168421053886E+01 -0.131795735340E+00
  0.257793646802E+00  0.168421053886E+01  0.131795735340E+00
  0.257793646802E+00  0.210526323318E+01 -0.131795735341E+00
  0.257793646802E+00  0.210526323318E+01  0.131795735341E+00
  0.257793646802E+00  0.252631568909E+01 -0.131795735341E+00
  0.257793646802E+00  0.252631568909E+01  0.131795735341E+00
  0.257793646802E+00  0.294736838341E+01 -0.131795735340E+00
  0.257793646802E+00  0.294736838341E+01  0.131795735340E+00
  0.257793646802E+00  0.336842107773E+01 -0.131795735340E+00
  0.257793646802E+00  0.336842107773E+01  0.131795735340E+00
  0.257793646802E+00  0.378947377205E+01 -0.131795735340E+00
  0.257793646802E+00  0.378947377205E+01  0.131795735340E+00
  0.257793646802E+00  0.421052646637E+01 -0.131795735341E+00
  0.257793646802E+00  0.421052646637E+01  0.131795735341E+00
  0.257793646801E+00  0.463157892227E+01 -0.131795735341E+00
  0.257793646801E+00  0.463157892227E+01  0.131795735341E+00
  0.257793646802E+00  0.505263137817E+01 -0.131795735340E+00
  0.257793646802E+00  0.505263137817E+01  0.131795735340E+00
  0.257793646802E+00  0.547368431091E+01 -0.131795735340E+00
  0.257793646802E+00  0.547368431091E+01  0.131795735340E+00
  0.257793646802E+00  0.589473676682E+01 -0.131795735340E+00
  0.257793646802E+00  0.589473676682E+01  0.131795735340E+00
  0.257793646802E+00  0.631578969955E+01 -0.131795735340E+00
  0.257793646802E+00  0.631578969955E+01  0.131795735340E+00
  0.257793646801E+00  0.673684215546E+01 -0.131795735341E+00
  0.257793646801E+00  0.673684215546E+01  0.131795735341E+00
  0.257793646802E+00  0.715789461136E+01 -0.131795735340E+00
  0.257793646802E+00  0.715789461136E+01  0.131795735340E+00
  0.257793646802E+00  0.757894754410E+01 -0.131795735340E+00
  0.257793646802E+00  0.757894754410E+01  0.131795735340E+00
  0.257793344885E+00  0.799999933573E+01 -0.131796711276E+00
  0.257793344885E+00  0.799999933573E+01  0.131796711276E+00
  0.257792938451E+00  0.809319512484E+01 -0.931951994684E-01
  0.257792938451E+00  0.809319512484E+01  0.931951994684E-01
  0.257792941477E+00  0.813179767392E+01 -0.140524563986E-15
  0.536311090991E+00  0.000000000000E+00 -0.172265355624E+00
  0.536311090991E+00  0.000000000000E+00  0.172265355624E+00
  0.536311145390E+00  0.421052634716E+00 -0.172265343805E+00
  0.536311145390E+00  0.421052634716E+00  0.172265343805E+00
  0.536311145389E+00  0.842105269432E+00 -0.172265343805E+00
  0.536311145389E+00  0.842105269432E+00  0.172265343805E+00
  0.536311145390E+00  0.126315784454E+01 -0.172265343805E+00
  0.536311145390E+00  0.126315784454E+01  0.172265343805E+00
  0.536311145390E+00  0.168421053886E+01 -0.172265343804E+00
  0.536311145390E+00  0.168421053886E+01  0.172265343804E+00
  0.536311145389E+00  0.210526323318E+01 -0.172265343805E+00
  0.536311145389E+00  0.210526323318E+01  0.172265343805E+00
  0.536311145389E+00  0.252631568909E+01 -0.172265343805E+00
  0.536311145389E+00  0.252631568909E+01  0.172265343805E+00
  0.536311145390E+00  0.294736838341E+01 -0.172265343804E+00
  0.536311145390E+00  0.294736838341E+01  0.172265343804E+00
  0.536311145390E+00  0.336842107773E+01 -0.172265343804E+00
  0.536311145390E+00  0.336842107773E+01  0.172265343804E+00
  0.536311145390E+00  0.378947377205E+01 -0.172265343804E+00
  0.536311145390E+00  0.378947377205E+01  0.172265343804E+00
  0.536311145389E+00  0.421052646637E+01 -0.172265343805E+00
  0.536311145389E+00  0.421052646637E+01  0.172265343805E+00
  0.536311145389E+00  0.463157892227E+01 -0.172265343806E+00
  0.536311145389E+00  0.463157892227E+01  0.172265343806E+00
  0.536311145390E+00  0.505263137817E+01 -0.172265343804E+00
  0.536311145390E+00  0.505263137817E+01  0.172265343804E+00
  0.536311145390E+00  0.547368431091E+01 -0.172265343804E+00
  0.536311145390E+00  0.547368431091E+01  0.172265343804E+00
  0.536311145390E+00  0.589473676682E+01 -0.172265343804E+00
  0.536311145390E+00  0.589473676682E+01  0.172265343804E+00
  0.536311145390E+00  0.631578969955E+01 -0.172265343804E+00
  0.536311145390E+00  0.631578969955E+01  0.172265343804E+00
  0.536311145389E+00  0.673684215546E+01 -0.172265343806E+00
  0.536311145389E+00  0.673684215546E+01  0.172265343806E+00
  0.536311145390E+00  0.715789461136E+01 -0.172265343804E+00
  0.536311145390E+00  0.715789461136E+01  0.172265343804E+00
  0.536311145390E+00  0.757894754410E+01 -0.172265343804E+00
  0.536311145390E+00  0.757894754410E+01  0.172265343804E+00
  0.536311043437E+00  0.799999932197E+01 -0.172266299248E+00
  0.536311043437E+00  0.799999932197E+01  0.172266299248E+00
  0.536310951866E+00  0.812181100008E+01 -0.121811262543E+00
  0.536310951866E+00  0.812181100008E+01  0.121811262543E+00
  0.536310984225E+00  0.817226724107E+01  0.124536798326E-17
  0.799721193196E+00  0.000000000000E+00 -0.191199284362E+00
  0.799721193196E+00  0.000000000000E+00  0.191199284362E+00
  0.799721223010E+00  0.421052634716E+00 -0.191199272934E+00
  0.799721223010E+00  0.421052634716E+00  0.191199272934E+00
  0.799721223010E+00  0.842105269432E+00 -0.191199272934E+00
  0.799721223010E+00  0.842105269432E+00  0.191199272934E+00
  0.799721223010E+00  0.126315784454E+01 -0.191199272934E+00
  0.799721223010E+00  0.126315784454E+01  0.191199272934E+00
  0.799721223010E+00  0.168421053886E+01 -0.191199272934E+00
  0.799721223010E+00  0.168421053886E+01  0.191199272934E+00
  0.799721223010E+00  0.210526323318E+01 -0.191199272935E+00
  0.799721223010E+00  0.210526323318E+01  0.191199272935E+00
  0.799721223010E+00  0.252631568909E+01 -0.191199272935E+00
  0.799721223010E+00  0.252631568909E+01  0.191199272935E+00
  0.799721223010E+00  0.294736838341E+01 -0.191199272934E+00
  0.799721223010E+00  0.294736838341E+01  0.191199272934E+00
  0.799721223010E+00  0.336842107773E+01 -0.191199272934E+00
  0.799721223010E+00  0.336842107773E+01  0.191199272934E+00
  0.799721223010E+00  0.378947377205E+01 -0.191199272934E+00
  0.799721223010E+00  0.378947377205E+01  0.191199272934E+00
  0.799721223010E+00  0.421052646637E+01 -0.191199272935E+00
  0.799721223010E+00  0.421052646637E+01  0.191199272935E+00
  0.799721223010E+00  0.463157892227E+01 -0.191199272935E+00
  0.799721223010E+00  0.463157892227E+01  0.191199272935E+00
  0.799721223010E+00  0.505263137817E+01 -0.191199272934E+00
  0.799721223010E+00  0.505263137817E+01  0.191199272934E+00
  0.799721223010E+00  0.547368431091E+01 -0.191199272934E+00
  0.799721223010E+00  0.547368431091E+01  0.191199272934E+00
  0.799721223010E+00  0.589473676682E+01 -0.191199272934E+00
  0.799721223010E+00  0.589473676682E+01  0.191199272934E+00
  0.799721223010E+00  0.631578969955E+01 -0.191199272934E+00
  0.799721223010E+00  0.631578969955E+01  0.191199272934E+00
  0.799721223010E+00  0.673684215546E+01 -0.191199272935E+00
  0.799721223010E+00  0.673684215546E+01  0.191199272935E+00
  0.799721223010E+00  0.715789461136E+01 -0.191199272934E+00
  0.799721223010E+00  0.715789461136E+01  0.191199272934E+00
  0.799721223010E+00  0.757894754410E+01 -0.191199272934E+00
  0.799721223010E+00  0.757894754410E+01  0.191199272934E+00
  0.799721176061E+00  0.799999933141E+01 -0.191200204690E+00
  0.799721176061E+00  0.799999933141E+01  0.191200204690E+00
  0.799721134022E+00  0.813519964457E+01 -0.135199525819E+00
  0.799721134022E+00  0.813519964457E+01  0.135199525819E+00
  0.799721152158E+00  0.819120054732E+01 -0.320712640167E-17
  0.105025952291E+01  0.000000000000E+00 -0.198939228890E+00
  0.105025952291E+01  0.000000000000E+00  0.198939228890E+00
  0.105025954267E+01  0.421052634716E+00 -0.198939219847E+00
  0.105025954267E+01  0.421052634716E+00  0.198939219847E+00
  0.105025954267E+01  0.842105269432E+00 -0.198939219847E+00
  0.105025954267E+01  0.842105269432E+00  0.198939219847E+00
  0.105025954267E+01  0.126315784454E+01 -0.198939219847E+00
  0.105025954267E+01  0.126315784454E+01  0.198939219847E+00
  0.105025954267E+01  0.168421053886E+01 -0.198939219846E+00
  0.105025954267E+01  0.168421053886E+01  0.198939219846E+00
  0.105025954267E+01  0.210526323318E+01 -0.198939219847E+00
  0.105025954267E+01  0.210526323318E+01  0.198939219847E+00
[...]
POINT_DATA                 704
SCALARS phi float 1
LOOKUP_TABLE default
 -0.360822483003E-15
  0.000000000000E+00
 -0.555111512313E-16
 -0.194289029309E-15
 -0.222044604925E-15
 -0.305311331772E-15
 -0.444089209850E-15
 -0.666133814775E-15
  0.305311331772E-15
  0.416333634234E-15
 -0.693889390391E-15
  0.416333634234E-15
  0.222044604925E-15
 -0.305311331772E-15
  0.444089209850E-15
  0.138777878078E-15
  0.832667268469E-16
  0.555111512313E-16
 -0.721644966006E-15
 -0.152655665886E-15
  0.111022302463E-15
  0.333066907388E-15
 -0.249800180541E-15
  0.333066907388E-15
 -0.138777878078E-15
 -0.555111512313E-15
 -0.527355936697E-15
  0.277555756156E-16
 -0.471844785466E-15
 -0.277555756156E-15
  0.360822483003E-15
  0.277555756156E-16
  0.333066907388E-15
 -0.499600361081E-15
 -0.915933995316E-15
  0.111022302463E-15
  0.194289029309E-15
 -0.277555756156E-15
  0.832667268469E-16
 -0.638378239159E-15
 -0.832667268469E-16
  0.305311331772E-15
  0.277555756156E-16
 -0.471844785466E-15
  0.860422844084E-15
  0.471844785466E-15
  0.749400541622E-15
  0.194289029309E-15
  0.555111512313E-16
 -0.249800180541E-15
 -0.305311331772E-15
 -0.277555756156E-15
  0.305311331772E-15
  0.138777878078E-15
  0.000000000000E+00
 -0.832667268469E-16
  0.333066907388E-15
  0.360822483003E-15
  0.277555756156E-15
 -0.138777878078E-16
 -0.527355936697E-15
  0.457966997658E-15
  0.416333634234E-15
  0.105471187339E-14
 -0.138777878078E-15
 -0.194289029309E-15
  0.111022302463E-15
  0.249800180541E-15
 -0.555111512313E-16
  0.277555756156E-16
  0.416333634234E-16
 -0.499600361081E-15
  0.277555756156E-16
  0.138777878078E-15
 -0.166533453694E-15
  0.194289029309E-15
  0.138777878078E-15
  0.305311331772E-15
  0.138777878078E-16
 -0.194289029309E-15
  0.416333634234E-16
 -0.277555756156E-15
  0.180411241502E-15
 -0.832667268469E-16
  0.138777878078E-15
 -0.277555756156E-16
  0.693889390391E-16
  0.277555756156E-16
  0.180411241502E-15
 -0.277555756156E-15
  0.555111512313E-16
  0.832667268469E-16
  0.138777878078E-16
  0.277555756156E-16
  0.111022302463E-15
  0.555111512313E-16
  0.166533453694E-15
  0.249800180541E-15
 -0.111022302463E-15
 -0.693889390391E-16
  0.138777878078E-16
 -0.527355936697E-15
 -0.208166817117E-15
 -0.138777878078E-16
 -0.693889390391E-16
 -0.152655665886E-15
 -0.971445146547E-16
 -0.138777878078E-16
  0.277555756156E-16
  0.291433543964E-15
  0.111022302463E-15
 -0.166533453694E-15
 -0.693889390391E-16
  0.971445146547E-16
  0.249800180541E-15
  0.277555756156E-16
  0.374700270811E-15
 -0.152655665886E-15
 -0.111022302463E-15
 -0.138777878078E-15
  0.832667268469E-16
  0.000000000000E+00
  0.208166817117E-15
  0.832667268469E-16
  0.249800180541E-15
 -0.166533453694E-15
  0.180411241502E-15
  0.000000000000E+00
  0.194289029309E-15
  0.277555756156E-16
  0.305311331772E-15
 -0.555111512313E-16
 -0.194289029309E-15
  0.138777878078E-16
 -0.971445146547E-16
  0.111022302463E-15
  0.277555756156E-16
  0.138777878078E-16
 -0.138777878078E-16
  0.832667268469E-16
  0.416333634234E-16
  0.693889390391E-16
  0.333066907388E-15
  0.152655665886E-15
  0.277555756156E-16
 -0.971445146547E-16
  0.555111512313E-16
 -0.555111512313E-16
  0.277555756156E-16
  0.000000000000E+00
  0.131838984174E-15
  0.277555756156E-16
 -0.145716771982E-15
  0.138777878078E-15
 -0.902056207508E-16
 -0.152655665886E-15
 -0.222044604925E-15
 -0.693889390391E-16
 -0.111022302463E-15
 -0.138777878078E-16
  0.832667268469E-16
  0.277555756156E-16
  0.832667268469E-16
  0.416333634234E-16
 -0.124900090270E-15
  0.235922392733E-15
  0.138777878078E-15
 -0.333066907388E-15
  0.832667268469E-16
  0.263677968348E-15
  0.693889390391E-17
  0.555111512313E-16
  0.131838984174E-15
 -0.124900090270E-15
  0.277555756156E-16
 -0.208166817117E-15
  0.000000000000E+00
 -0.346944695195E-15
 -0.555111512313E-16
 -0.444089209850E-15
 -0.117961196366E-15
  0.235922392733E-15
 -0.215105711021E-15
 -0.138777878078E-16
 -0.693889390391E-16
  0.555111512313E-16
  0.277555756156E-16
 -0.360822483003E-15
  0.624500451352E-16
 -0.111022302463E-15
  0.555111512313E-16
 -0.416333634234E-16
 -0.166533453694E-15
 -0.425007251614E-16
 -0.152655665886E-15
 -0.199493199737E-16
  0.124900090270E-15
 -0.209034178855E-15
 -0.173472347598E-15
 -0.329597460436E-16
  0.277555756156E-16
  0.589805981832E-16
 -0.763278329430E-16
 -0.168268177170E-15
 -0.485722573274E-15
 -0.425007251614E-16
 -0.485722573274E-16
 -0.282759926584E-15
 -0.187350135405E-15
  0.346944695195E-16
 -0.763278329430E-16
  0.555111512313E-16
 -0.763278329430E-16
 -0.315719672628E-15
 -0.555111512313E-16
  0.187350135405E-15
 -0.235922392733E-15
 -0.815320033709E-16
  0.145716771982E-15
 -0.104083408559E-16
 -0.416333634234E-16
  0.485722573274E-16
  0.263677968348E-15
 -0.260208521397E-16
  0.235922392733E-15
 -0.346944695195E-16
 -0.145716771982E-15
 -0.416333634234E-16
 -0.555111512313E-16
  0.242861286637E-16
 -0.555111512313E-16
 -0.763278329430E-16
  0.263677968348E-15
  0.416333634234E-16
 -0.152655665886E-15
 -0.124900090270E-15
  0.312250225676E-16
 -0.607153216592E-16
 -0.194289029309E-15
  0.589805981832E-16
 -0.797972798949E-16
 -0.218575157973E-15
 -0.145716771982E-15
 -0.971445146547E-16
  0.235922392733E-15
  0.180411241502E-15
  0.176941794550E-15
 -0.117961196366E-15
 -0.104083408559E-16
 -0.173472347598E-15
 -0.107552855511E-15
 -0.763278329430E-16
 -0.884708972748E-16
 -0.308780778724E-15
 -0.171737624122E-15
  0.128369537222E-15
  0.208166817117E-16
  0.277555756156E-16
 -0.208166817117E-16
  0.329597460436E-15
 -0.175207071074E-15
 -0.166533453694E-15
  0.520417042793E-17
 -0.346944695195E-17
  0.102348685083E-15
 -0.433680868994E-15
 -0.202962646689E-15
  0.381639164715E-16
 -0.181278603240E-15
 -0.156125112838E-15
 -0.715573433840E-17
 -0.124900090270E-15
 -0.112757025938E-15
  0.693889390391E-17
  0.208166817117E-16
  0.173472347598E-15
 -0.117961196366E-15
 -0.124900090270E-15
  0.546437894933E-16
  0.145716771982E-15
  0.893382590128E-16
  0.312250225676E-15
  0.563785129692E-16
 -0.208166817117E-16
 -0.143114686768E-15
 -0.416333634234E-16
  0.187350135405E-15
 -0.194289029309E-15
  0.189952220619E-15
  0.180411241502E-15
 -0.117093834628E-15
 -0.138777878078E-16
  0.372965547335E-16
  0.131838984174E-15
 -0.193421667571E-15
 -0.555111512313E-16
 -0.222478285794E-15
 -0.111022302463E-15
  0.311382863938E-15
  0.395516952523E-15
  0.403323208165E-16
 -0.208166817117E-16
  0.542101086243E-16
 -0.298372437868E-15
 -0.184314369323E-16
 -0.381639164715E-15
 -0.165666091956E-15
  0.267147415300E-15
 -0.433680868994E-16
 -0.208166817117E-16
 -0.312250225676E-16
 -0.235922392733E-15
  0.364291929955E-16
  0.166533453694E-15
 -0.173472347598E-16
 -0.180411241502E-15
  0.138777878078E-16
  0.294902990916E-16
  0.693889390391E-17
  0.346944695195E-17
  0.346944695195E-16
 -0.520417042793E-16
 -0.485722573274E-16
 -0.114491749414E-15
 -0.124900090270E-15
  0.381639164715E-16
 -0.832667268469E-16
  0.104083408559E-16
 -0.138777878078E-16
  0.624500451352E-16
  0.902056207508E-16
 -0.693889390391E-17
  0.416333634234E-16
 -0.128369537222E-15
 -0.235922392733E-15
 -0.121430643318E-15
 -0.444089209850E-15
  0.104083408559E-16
 -0.555111512313E-16
  0.242861286637E-16
 -0.360822483003E-15
 -0.100613961607E-15
  0.333066907388E-15
 -0.381639164715E-16
 -0.971445146547E-16
 -0.138777878078E-16
  0.138777878078E-16
  0.173472347598E-16
 -0.111022302463E-15
 -0.142247325030E-15
 -0.319189119580E-15
  0.398986399475E-16
  0.173472347598E-15
 -0.123165366794E-15
 -0.166533453694E-15
 -0.728583859910E-16
 -0.763278329430E-16
  0.433680868994E-16
 -0.797972798949E-16
 -0.346944695195E-16
 -0.425007251614E-16
  0.693889390391E-16
 -0.104083408559E-16
  0.117961196366E-15
  0.111022302463E-15
 -0.166533453694E-15
 -0.832667268469E-16
 -0.111022302463E-15
  0.249800180541E-15
  0.666133814775E-15
 -0.187350135405E-15
 -0.291433543964E-15
 -0.971445146547E-16
  0.346944695195E-15
  0.763278329430E-16
 -0.180411241502E-15
  0.485722573274E-16
  0.693889390391E-16
 -0.173472347598E-15
 -0.166533453694E-15
 -0.693889390391E-16
 -0.832667268469E-16
  0.208166817117E-16
 -0.111022302463E-15
  0.971445146547E-16
 -0.235922392733E-15
  0.242861286637E-15
 -0.319189119580E-15
  0.485722573274E-16
  0.832667268469E-16
 -0.763278329430E-16
  0.305311331772E-15
  0.693889390391E-16
  0.346944695195E-15
 -0.277555756156E-16
  0.277555756156E-16
 -0.104083408559E-16
 -0.277555756156E-16
 -0.693889390391E-17
 -0.159594559790E-15
 -0.119695919842E-15
 -0.624500451352E-16
  0.763278329430E-16
 -0.329597460436E-16
  0.346944695195E-17
  0.346944695195E-17
 -0.451028103754E-16
 -0.104083408559E-15
 -0.277555756156E-15
 -0.159594559790E-15
  0.971445146547E-16
  0.555111512313E-16
  0.693889390391E-16
 -0.138777878078E-16
 -0.374700270811E-15
  0.201227923213E-15
 -0.444089209850E-15
 -0.832667268469E-16
  0.166533453694E-15
  0.249800180541E-15
 -0.249800180541E-15
  0.131838984174E-15
  0.693889390391E-16
 -0.624500451352E-16
 -0.291433543964E-15
 -0.693889390391E-17
  0.499600361081E-15
  0.104083408559E-15
 -0.971445146547E-16
  0.971445146547E-16
  0.555111512313E-15
  0.277555756156E-16
  0.388578058619E-15
 -0.138777878078E-16
  0.000000000000E+00
  0.173472347598E-15
 -0.971445146547E-16
  0.555111512313E-16
 -0.971445146547E-16
  0.693889390391E-16
 -0.249800180541E-15
 -0.124900090270E-15
 -0.117961196366E-15
 -0.346944695195E-16
 -0.152655665886E-15
 -0.594142790522E-16
  0.242861286637E-16
  0.173472347598E-16
  0.455364912444E-17
  0.000000000000E+00
  0.971445146547E-16
 -0.693889390391E-16
 -0.277555756156E-16
  0.000000000000E+00
  0.277555756156E-16
 -0.291433543964E-15
  0.235922392733E-15
  0.222044604925E-15
  0.277555756156E-15
  0.138777878078E-16
 -0.416333634234E-16
  0.333066907388E-15
 -0.971445146547E-16
 -0.277555756156E-15
 -0.194289029309E-15
  0.555111512313E-16
  0.971445146547E-16
  0.416333634234E-16
 -0.124900090270E-15
  0.277555756156E-15
  0.277555756156E-16
 -0.596744875736E-15
  0.138777878078E-16
 -0.277555756156E-16
 -0.832667268469E-16
  0.319189119580E-15
  0.194289029309E-15
  0.152655665886E-15
 -0.138777878078E-16
  0.693889390391E-16
 -0.693889390391E-16
 -0.138777878078E-15
 -0.131838984174E-15
 -0.416333634234E-15
  0.416333634234E-16
  0.693889390391E-16
 -0.902056207508E-16
 -0.138777878078E-15
 -0.121430643318E-16
  0.111022302463E-15
 -0.155583011752E-16
 -0.104083408559E-16
 -0.189735380185E-16
 -0.832667268469E-16
  0.374700270811E-15
  0.555111512313E-16
  0.277555756156E-15
  0.971445146547E-16
 -0.222044604925E-15
  0.971445146547E-16
 -0.222044604925E-15
 -0.111022302463E-15
 -0.277555756156E-16
  0.138777878078E-16
  0.111022302463E-15
 -0.416333634234E-16
  0.138777878078E-16
 -0.180411241502E-15
  0.124900090270E-15
  0.249800180541E-15
  0.111022302463E-15
  0.124900090270E-15
 -0.138777878078E-15
  0.555111512313E-16
 -0.277555756156E-15
  0.152655665886E-15
  0.319189119580E-15
 -0.249800180541E-15
 -0.291433543964E-15
  0.124900090270E-15
  0.249800180541E-15
  0.319189119580E-15
  0.444089209850E-15
  0.152655665886E-15
  0.138777878078E-16
  0.693889390391E-16
  0.416333634234E-16
  0.832667268469E-16
  0.277555756156E-15
  0.693889390391E-16
 -0.499600361081E-15
 -0.589805981832E-16
  0.187350135405E-15
  0.000000000000E+00
 -0.346944695195E-17
 -0.867361737988E-17
  0.416333634234E-16
  0.374700270811E-15
 -0.832667268469E-16
 -0.152655665886E-15
  0.152655665886E-15
 -0.430211422042E-15
  0.124900090270E-15
  0.277555756156E-16
 -0.832667268469E-16
 -0.124900090270E-15
 -0.416333634234E-16
  0.277555756156E-16
 -0.138777878078E-16
  0.374700270811E-15
  0.000000000000E+00
 -0.138777878078E-15
  0.000000000000E+00
  0.277555756156E-16
 -0.208166817117E-15
 -0.471844785466E-15
  0.138777878078E-15
  0.555111512313E-16
  0.832667268469E-16
 -0.402455846427E-15
 -0.124900090270E-15
  0.180411241502E-15
  0.000000000000E+00
 -0.485722573274E-15
  0.180411241502E-15
  0.555111512313E-16
 -0.111022302463E-15
 -0.693889390391E-16
 -0.291433543964E-15
 -0.693889390391E-16
 -0.693889390391E-16
  0.346944695195E-15
 -0.208166817117E-16
 -0.263677968348E-15
 -0.451028103754E-16
  0.201227923213E-15
 -0.624500451352E-16
  0.138777878078E-16
 -0.693889390391E-17
 -0.124900090270E-15
 -0.666133814775E-15
 -0.263677968348E-15
 -0.138777878078E-16
 -0.222044604925E-15
  0.111022302463E-15
 -0.124900090270E-15
  0.416333634234E-15
  0.291433543964E-15
  0.263677968348E-15
 -0.152655665886E-15
  0.249800180541E-15
 -0.138777878078E-16
  0.124900090270E-15
 -0.249800180541E-15
 -0.138777878078E-15
 -0.971445146547E-16
 -0.416333634234E-16
 -0.971445146547E-16
  0.693889390391E-16
 -0.124900090270E-15
  0.541233724505E-15
  0.277555756156E-15
 -0.333066907388E-15
  0.555111512313E-16
  0.333066907388E-15
 -0.152655665886E-15
  0.374700270811E-15
 -0.693889390391E-16
  0.693889390391E-16
  0.693889390391E-16
  0.111022302463E-15
  0.277555756156E-16
 -0.346944695195E-15
 -0.416333634234E-16
 -0.208166817117E-15
 -0.263677968348E-15
  0.194289029309E-15
 -0.485722573274E-16
  0.971445146547E-16
  0.624500451352E-16
  0.416333634234E-16
 -0.971445146547E-16
 -0.319189119580E-15
  0.000000000000E+00
 -0.166533453694E-15
 -0.832667268469E-16
  0.832667268469E-16
 -0.111022302463E-15
  0.222044604925E-15
  0.263677968348E-15
 -0.111022302463E-15
  0.124900090270E-15
  0.166533453694E-15
  0.416333634234E-16
  0.277555756156E-16
  0.138777878078E-15
  0.124900090270E-15
 -0.208166817117E-15
  0.180411241502E-15
  0.527355936697E-15
 -0.693889390391E-16
 -0.124900090270E-15
 -0.555111512313E-16
  0.291433543964E-15
  0.555111512313E-16
  0.000000000000E+00
 -0.166533453694E-15
  0.346944695195E-15
  0.235922392733E-15
 -0.305311331772E-15
 -0.832667268469E-16
 -0.444089209850E-15
  0.277555756156E-15
  0.832667268469E-16
  0.194289029309E-15
 -0.152655665886E-15
  0.971445146547E-16
 -0.416333634234E-16
 -0.416333634234E-16
  0.111022302463E-15
 -0.145716771982E-15
  0.000000000000E+00
  0.131838984174E-15
 -0.832667268469E-16
 -0.124900090270E-15
 -0.832667268469E-16
  0.263677968348E-15
  0.971445146547E-16
 -0.152655665886E-15
 -0.111022302463E-15
  0.416333634234E-15
 -0.416333634234E-16
  0.138777878078E-16
 -0.555111512313E-16
  0.416333634234E-16
 -0.832667268469E-16
  0.138777878078E-15
 -0.138777878078E-16
  0.138777878078E-16
 -0.277555756156E-16
  0.693889390391E-16
  0.416333634234E-16
 -0.416333634234E-16
  0.277555756156E-16
  0.138777878078E-16
 -0.138777878078E-15
  0.138777878078E-16
 -0.124900090270E-15
 -0.138777878078E-16
 -0.124900090270E-15
  0.235922392733E-15
  0.138777878078E-16
  0.416333634234E-16
  0.111022302463E-15
 -0.222044604925E-15
  0.222044604925E-15
 -0.263677968348E-15
  0.277555756156E-16
  0.971445146547E-16
 -0.693889390391E-16
 -0.555111512313E-16
  0.263677968348E-15
  0.194289029309E-15
 -0.104083408559E-15
SCALARS phi_mu float 1
LOOKUP_TABLE default
  0.164223759403E+00
  0.164498001924E+00
  0.164747954748E+00
  0.164975464589E+00
  0.165181591836E+00
  0.165366155363E+00
  0.165527476312E+00
  0.165661916603E+00
  0.165763106147E+00
  0.165820676500E+00
  0.165818172820E+00
  0.165729547742E+00
  0.165513098862E+00
  0.165100555750E+00
  0.164376336861E+00
  0.163134982764E+00
  0.160983524654E+00
  0.157074429524E+00
  0.149102070297E+00
  0.121838313095E+00
  0.165002355074E+00
  0.144819666776E+00
  0.165283228468E+00
  0.145100761126E+00
  0.165543299581E+00
  0.145361557503E+00
  0.165785046565E+00
  0.145604553432E+00
  0.166010134376E+00
  0.145831478505E+00
  0.166219217498E+00
  0.146043087257E+00
  0.166411754963E+00
  0.146238985863E+00
  0.166585651533E+00
  0.146417292029E+00
  0.166736633560E+00
  0.146574040883E+00
  0.166857200862E+00
  0.146702186004E+00
  0.166934863960E+00
  0.146789919585E+00
  0.166949134245E+00
  0.146817808214E+00
  0.166866244827E+00
  0.146753782890E+00
  0.166629538110E+00
  0.146544057241E+00
  0.166141063344E+00
  0.146095862402E+00
  0.165223815774E+00
  0.145242414857E+00
  0.163536259131E+00
  0.143665113406E+00
  0.160348299454E+00
  0.140697089053E+00
  0.153808599489E+00
  0.134743284900E+00
  0.137640148422E+00
  0.122410898551E+00
  0.132814234677E+00
  0.123333881370E+00
  0.129036884627E+00
  0.127369260092E+00
  0.994580646804E-01
  0.127656695490E+00
  0.997458198696E-01
  0.127927688011E+00
  0.100017783665E+00
  0.128185322984E+00
  0.100277092560E+00
  0.128431988370E+00
  0.100526223411E+00
  0.128669366724E+00
  0.100766996797E+00
  0.128898349293E+00
  0.101000507799E+00
  0.129118825754E+00
  0.101226942667E+00
  0.129329284318E+00
  0.101445222525E+00
  0.129526108720E+00
  0.101652372511E+00
  0.129702359677E+00
  0.101842426459E+00
  0.129845653684E+00
  0.102004525245E+00
  0.129934405429E+00
  0.102119571804E+00
  0.129930995683E+00
  0.102154227933E+00
  0.129768936440E+00
  0.102049894270E+00
  0.129327800468E+00
  0.101702096753E+00
  0.128382332942E+00
  0.100922429766E+00
  0.126499257174E+00
  0.993821193304E-01
  0.122891971468E+00
  0.967145324309E-01
  0.117687730475E+00
  0.964775892584E-01
  0.116874567533E+00
  0.103666635633E+00
  0.113269431819E+00
  0.948785722616E-01
  0.633541239164E-01
  0.951714745568E-01
  0.636473877500E-01
  0.954524469872E-01
  0.639294581903E-01
  0.957250443483E-01
  0.642039490476E-01
  0.959923714384E-01
  0.644740676390E-01
  0.962571520871E-01
  0.647426973410E-01
  0.965217516667E-01
  0.650124398792E-01
  0.967881330916E-01
  0.652856034385E-01
  0.970577134658E-01
  0.655641116277E-01
  0.973310648171E-01
  0.658492914393E-01
  0.976073475687E-01
  0.661414569763E-01
  0.978832801280E-01
  0.664391493313E-01
  0.981512919408E-01
  0.667378028658E-01
  0.983962436808E-01
  0.670275076663E-01
  0.985897395135E-01
  0.672896276377E-01
  0.986810180098E-01
  0.674934003627E-01
  0.985866829159E-01
  0.676021297801E-01
  0.982072507044E-01
  0.676487483950E-01
  0.976636864789E-01
  0.682653032793E-01
  0.995886286651E-01
  0.756651112431E-01
  0.101509669022E+00
  0.866228793885E-01
  0.983017090310E-01
  0.656985431108E-01
  0.324916358683E-01
  0.659959988538E-01
  0.327894723373E-01
  0.662860100545E-01
  0.330806411844E-01
  0.665725668042E-01
  0.333691951543E-01
  0.668594672326E-01
  0.336590420122E-01
  0.671504598607E-01
  0.339541011826E-01
  0.674493780204E-01
  0.342584597383E-01
  0.677602698520E-01
  0.345765375431E-01
  0.680875266210E-01
  0.349132730797E-01
  0.684360156076E-01
  0.352743527028E-01
  0.688112180983E-01
  0.356665155478E-01
  0.692193856388E-01
  0.360980118182E-01
  0.696677745908E-01
  0.365794142459E-01
  0.701652032359E-01
  0.371253530729E-01
  0.707238834417E-01
  0.377589633073E-01
  0.713661766153E-01
  0.385251174048E-01
  0.721504819009E-01
  0.395348592618E-01
  0.732740907422E-01
  0.411334054669E-01
  0.754893901582E-01
  0.446262146719E-01
  0.826483943372E-01
  0.574872254409E-01
  0.866455736755E-01
  0.709884192092E-01
  0.838780859463E-01
  0.392940225882E-01
  0.560470671623E-02
  0.395952034736E-01
  0.590627263568E-02
  0.398933652674E-01
  0.620560645211E-02
  0.401928985033E-01
  0.650716229915E-02
  0.404982609529E-01
  0.681550998057E-02
  0.408141905395E-01
  0.713556224449E-02
  0.411459507533E-01
  0.747284251761E-02
  0.414996346994E-01
  0.783382539770E-02
  0.418825667574E-01
  0.822639811248E-02
  0.423038719907E-01
  0.866053041921E-02
  0.427753269292E-01
  0.914930000627E-02
  0.433127138221E-01
  0.971056370911E-02
  0.439381383465E-01
  0.103698823316E-01
  0.446843508766E-01
  0.111660838106E-01
  0.456036743073E-01
  0.121629489568E-01
  0.467887221743E-01
  0.134767373922E-01
  0.484264862782E-01
  0.153496128207E-01
  0.509560315343E-01
  0.183743129620E-01
  0.555653760234E-01
  0.243039512984E-01
  0.668507496366E-01
  0.413640756352E-01
  0.724239147486E-01
  0.565585519872E-01
  0.700924195934E-01
  0.152841121013E-01
 -0.180464678085E-01
  0.155882565542E-01
 -0.177419448684E-01
  0.158937333316E-01
 -0.174353149173E-01
  0.162052965743E-01