# vtk DataFile Version 3.0
MachLine results file. Generated by MachLine, USU AeroLab (c) 2022.
ASCII
DATASET POLYDATA
POINTS                  80 float
  0.400000000000E+01  0.252631568909E+01  0.000000000000E+00
  0.116038277539E+03  0.361377989509E+02  0.112038277539E+02
  0.400000000000E+01  0.210526323318E+01  0.000000000000E+00
  0.116153110027E+03  0.357511962414E+02  0.112153110027E+02
  0.400000000000E+01  0.800000000000E+01  0.000000000000E+00
  0.114545454545E+03  0.411636363636E+02  0.110545454545E+02
  0.400000000000E+01  0.757894754410E+01  0.000000000000E+00
  0.114660287033E+03  0.407770336541E+02  0.110660287033E+02
  0.400000000000E+01  0.421052634716E+00  0.000000000000E+00
  0.116612440191E+03  0.342047846919E+02  0.112612440191E+02
  0.400000000000E+01  0.000000000000E+00  0.000000000000E+00
  0.116727272727E+03  0.338181818182E+02  0.112727272727E+02
  0.400000000000E+01  0.589473676682E+01  0.000000000000E+00
  0.115119617245E+03  0.392306219404E+02  0.111119617245E+02
  0.400000000000E+01  0.547368431091E+01  0.000000000000E+00
  0.115234449733E+03  0.388440192309E+02  0.111234449733E+02
  0.400000000000E+01  0.378947377205E+01  0.000000000000E+00
  0.115693779880E+03  0.372976077362E+02  0.111693779880E+02
  0.400000000000E+01  0.336842107773E+01  0.000000000000E+00
  0.115808612433E+03  0.369110048077E+02  0.111808612433E+02
  0.400000000000E+01  0.715789461136E+01  0.000000000000E+00
  0.114775119651E+03  0.403904305068E+02  0.110775119651E+02
  0.400000000000E+01  0.673684215546E+01  0.000000000000E+00
  0.114889952139E+03  0.400038277973E+02  0.110889952139E+02
  0.400000000000E+01  0.168421053886E+01  0.000000000000E+00
  0.116267942580E+03  0.353645933130E+02  0.112267942580E+02
  0.400000000000E+01  0.126315784454E+01  0.000000000000E+00
  0.116382775133E+03  0.349779903845E+02  0.112382775133E+02
  0.400000000000E+01  0.631578969955E+01  0.000000000000E+00
  0.115004784627E+03  0.396172250878E+02  0.111004784627E+02
  0.400000000000E+01  0.294736838341E+01  0.000000000000E+00
  0.115923444986E+03  0.365244018793E+02  0.111923444986E+02
  0.400000000000E+01  0.842105269432E+00  0.000000000000E+00
  0.116497607654E+03  0.345913875656E+02  0.112497607654E+02
  0.400000000000E+01  0.421052646637E+01  0.000000000000E+00
  0.115578947327E+03  0.376842106646E+02  0.111578947327E+02
  0.400000000000E+01  0.463157892227E+01  0.000000000000E+00
  0.115464114839E+03  0.380708133741E+02  0.111464114839E+02
  0.400000000000E+01  0.505263137817E+01  0.000000000000E+00
  0.115349282351E+03  0.384574160836E+02  0.111349282351E+02
  0.400000000000E+01 -0.252631568909E+01  0.000000000000E+00
  0.117416267915E+03  0.314985646855E+02  0.113416267915E+02
  0.400000000000E+01 -0.210526323318E+01  0.000000000000E+00
  0.117301435427E+03  0.318851673950E+02  0.113301435427E+02
  0.400000000000E+01 -0.800000000000E+01  0.000000000000E+00
  0.118909090909E+03  0.264727272727E+02  0.114909090909E+02
  0.400000000000E+01 -0.757894754410E+01  0.000000000000E+00
  0.118794258421E+03  0.268593299822E+02  0.114794258421E+02
  0.400000000000E+01 -0.421052634716E+00  0.000000000000E+00
  0.116842105264E+03  0.334315789445E+02  0.112842105264E+02
  0.400000000000E+01  0.000000000000E+00  0.000000000000E+00
  0.116727272727E+03  0.338181818182E+02  0.112727272727E+02
  0.400000000000E+01 -0.589473676682E+01  0.000000000000E+00
  0.118334928209E+03  0.284057416959E+02  0.114334928209E+02
  0.400000000000E+01 -0.547368431091E+01  0.000000000000E+00
  0.118220095721E+03  0.287923444054E+02  0.114220095721E+02
  0.400000000000E+01 -0.378947377205E+01  0.000000000000E+00
  0.117760765574E+03  0.303387559002E+02  0.113760765574E+02
  0.400000000000E+01 -0.336842107773E+01  0.000000000000E+00
  0.117645933021E+03  0.307253588286E+02  0.113645933021E+02
  0.400000000000E+01 -0.715789461136E+01  0.000000000000E+00
  0.118679425803E+03  0.272459331296E+02  0.114679425803E+02
  0.400000000000E+01 -0.673684215546E+01  0.000000000000E+00
  0.118564593315E+03  0.276325358391E+02  0.114564593315E+02
  0.400000000000E+01 -0.168421053886E+01  0.000000000000E+00
  0.117186602874E+03  0.322717703234E+02  0.113186602874E+02
  0.400000000000E+01 -0.126315784454E+01  0.000000000000E+00
  0.117071770321E+03  0.326583732518E+02  0.113071770321E+02
  0.400000000000E+01 -0.631578969955E+01  0.000000000000E+00
  0.118449760827E+03  0.280191385486E+02  0.114449760827E+02
  0.400000000000E+01 -0.294736838341E+01  0.000000000000E+00
  0.117531100468E+03  0.311119617571E+02  0.113531100468E+02
  0.400000000000E+01 -0.842105269432E+00  0.000000000000E+00
  0.116956937801E+03  0.330449760708E+02  0.112956937801E+02
  0.400000000000E+01 -0.421052646637E+01  0.000000000000E+00
  0.117875598127E+03  0.299521529718E+02  0.113875598127E+02
  0.400000000000E+01 -0.463157892227E+01  0.000000000000E+00
  0.117990430615E+03  0.295655502623E+02  0.113990430615E+02
  0.400000000000E+01 -0.505263137817E+01  0.000000000000E+00
  0.118105263103E+03  0.291789475528E+02  0.114105263103E+02
POLYGONS                  76                 304
3                   8                   9                  11
3                   8                  11                  10
3                  32                  33                   9
3                  32                   9                   8
3                  26                  27                  33
3                  26                  33                  32
3                  24                  25                  27
3                  24                  27                  26
3                   2                   3                  25
3                   2                  25                  24
3                   0                   1                   3
3                   0                   3                   2
3                  30                  31                   1
3                  30                   1                   0
3                  18                  19                  31
3                  18                  31                  30
3                  16                  17                  19
3                  16                  19                  18
3                  34                  35                  17
3                  34                  17                  16
3                  36                  37                  35
3                  36                  35                  34
3                  38                  39                  37
3                  38                  37                  36
3                  14                  15                  39
3                  14                  39                  38
3                  12                  13                  15
3                  12                  15                  14
3                  28                  29                  13
3                  28                  13                  12
3                  22                  23                  29
3                  22                  29                  28
3                  20                  21                  23
3                  20                  23                  22
3                   6                   7                  21
3                   6                  21                  20
3                   4                   5                   7
3                   4                   7                   6
3                  51                  49                  48
3                  50                  51                  48
3                  49                  73                  72
3                  48                  49                  72
3                  73                  67                  66
3                  72                  73                  66
3                  67                  65                  64
3                  66                  67                  64
3                  65                  43                  42
3                  64                  65                  42
3                  43                  41                  40
3                  42                  43                  40
3                  41                  71                  70
3                  40                  41                  70
3                  71                  59                  58
3                  70                  71                  58
3                  59                  57                  56
3                  58                  59                  56
3                  57                  75                  74
3                  56                  57                  74
3                  75                  77                  76
3                  74                  75                  76
3                  77                  79                  78
3                  76                  77                  78
3                  79                  55                  54
3                  78                  79                  54
3                  55                  53                  52
3                  54                  55                  52
3                  53                  69                  68
3                  52                  53                  68
3                  69                  63                  62
3                  68                  69                  62
3                  63                  61                  60
3                  62                  63                  60
3                  61                  47                  46
3                  60                  61                  46
3                  47                  45                  44
3                  46                  47                  44
CELL_DATA                  76
NORMALS normals float
  0.995037190210E-01 -0.477151986980E-14 -0.995037190210E+00
  0.995037190210E-01  0.000000000000E+00 -0.995037190210E+00
  0.995037190210E-01  0.000000000000E+00 -0.995037190210E+00
  0.995037190210E-01  0.000000000000E+00 -0.995037190210E+00
  0.995037190210E-01  0.000000000000E+00 -0.995037190210E+00
  0.995037190210E-01  0.000000000000E+00 -0.995037190210E+00
  0.995037190210E-01  0.000000000000E+00 -0.995037190210E+00
  0.995037190210E-01  0.000000000000E+00 -0.995037190210E+00
  0.995037190210E-01 -0.479106125332E-14 -0.995037190210E+00
  0.995037190210E-01  0.000000000000E+00 -0.995037190210E+00
  0.995037190210E-01  0.479597451820E-14 -0.995037190210E+00
  0.995037190210E-01  0.000000000000E+00 -0.995037190210E+00
  0.995037190210E-01  0.000000000000E+00 -0.995037190210E+00
  0.995037190210E-01  0.000000000000E+00 -0.995037190210E+00
  0.995037190210E-01  0.000000000000E+00 -0.995037190210E+00
  0.995037190210E-01  0.000000000000E+00 -0.995037190210E+00
  0.995037190210E-01  0.000000000000E+00 -0.995037190210E+00
  0.995037190210E-01  0.000000000000E+00 -0.995037190210E+00
  0.995037190210E-01 -0.481571508570E-14 -0.995037190210E+00
  0.995037190210E-01  0.000000000000E+00 -0.995037190210E+00
  0.995037190210E-01  0.482067905827E-14 -0.995037190210E+00
  0.995037190210E-01  0.000000000000E+00 -0.995037190210E+00
  0.995037190210E-01  0.482565053683E-14 -0.995037190210E+00
  0.995037190210E-01  0.000000000000E+00 -0.995037190210E+00
  0.995037190210E-01  0.000000000000E+00 -0.995037190210E+00
  0.995037190210E-01  0.000000000000E+00 -0.995037190210E+00
  0.995037190210E-01  0.000000000000E+00 -0.995037190210E+00
  0.995037190210E-01  0.000000000000E+00 -0.995037190210E+00
  0.995037190210E-01  0.484062121687E-14 -0.995037190210E+00
  0.995037190210E-01  0.000000000000E+00 -0.995037190210E+00
  0.995037190210E-01  0.000000000000E+00 -0.995037190210E+00
  0.995037190210E-01  0.000000000000E+00 -0.995037190210E+00
  0.995037190210E-01  0.000000000000E+00 -0.995037190210E+00
  0.995037190210E-01  0.000000000000E+00 -0.995037190210E+00
  0.995037190210E-01  0.000000000000E+00 -0.995037190210E+00
  0.995037190210E-01  0.000000000000E+00 -0.995037190210E+00
  0.995037190210E-01  0.000000000000E+00 -0.995037190210E+00
  0.995037190210E-01  0.000000000000E+00 -0.995037190210E+00
  0.995037190210E-01  0.000000000000E+00 -0.995037190210E+00
  0.995037190210E-01  0.000000000000E+00 -0.995037190210E+00
  0.995037190210E-01  0.335403381259E-14 -0.995037190210E+00
  0.995037190210E-01  0.000000000000E+00 -0.995037190210E+00
  0.995037190210E-01 -0.464075903630E-17 -0.995037190210E+00
  0.995037190210E-01  0.000000000000E+00 -0.995037190210E+00
  0.995037190210E-01  0.834488906244E-15 -0.995037190210E+00
  0.995037190210E-01  0.000000000000E+00 -0.995037190210E+00
  0.995037190210E-01 -0.336236066602E-14 -0.995037190210E+00
  0.995037190210E-01  0.000000000000E+00 -0.995037190210E+00
  0.995037190210E-01 -0.462666421727E-17 -0.995037190210E+00
  0.995037190210E-01  0.000000000000E+00 -0.995037190210E+00
  0.995037190210E-01  0.845822687457E-15 -0.995037190210E+00
  0.995037190210E-01  0.000000000000E+00 -0.995037190210E+00
  0.995037190210E-01  0.826498786588E-15 -0.995037190210E+00
  0.995037190210E-01  0.000000000000E+00 -0.995037190210E+00
  0.995037190210E-01  0.839502453544E-15 -0.995037190210E+00
  0.995037190210E-01  0.000000000000E+00 -0.995037190210E+00
  0.995037190210E-01 -0.336383958415E-14 -0.995037190210E+00
  0.995037190210E-01  0.000000000000E+00 -0.995037190210E+00
  0.995037190210E-01  0.168022639922E-14 -0.995037190210E+00
  0.995037190210E-01  0.000000000000E+00 -0.995037190210E+00
  0.995037190210E-01  0.252010256005E-14 -0.995037190210E+00
  0.995037190210E-01  0.000000000000E+00 -0.995037190210E+00
  0.995037190210E-01 -0.854502359669E-15 -0.995037190210E+00
  0.995037190210E-01  0.000000000000E+00 -0.995037190210E+00
  0.995037190210E-01 -0.335491705416E-14 -0.995037190210E+00
  0.995037190210E-01  0.000000000000E+00 -0.995037190210E+00
  0.995037190210E-01  0.418599523865E-14 -0.995037190210E+00
  0.995037190210E-01  0.000000000000E+00 -0.995037190210E+00
  0.995037190210E-01 -0.336193239425E-14 -0.995037190210E+00
  0.995037190210E-01  0.000000000000E+00 -0.995037190210E+00
  0.995037190210E-01  0.167470728443E-14 -0.995037190210E+00
  0.995037190210E-01  0.000000000000E+00 -0.995037190210E+00
  0.995037190210E-01 -0.457112055416E-17 -0.995037190210E+00
  0.995037190210E-01  0.000000000000E+00 -0.995037190210E+00
  0.995037190210E-01  0.167592665847E-14 -0.995037190210E+00
  0.995037190210E-01  0.000000000000E+00 -0.995037190210E+00
POINT_DATA                  80
SCALARS mu float 1
LOOKUP_TABLE default
  0.267440128000E+09
  0.267440128000E+09
 -0.323259648000E+09
 -0.323259648000E+09
  0.000000000000E+00
  0.000000000000E+00
 -0.317017944000E+09
 -0.317017944000E+09
 -0.961612800000E+07
 -0.961612800000E+07
 -0.727360667931E+05
 -0.727360667931E+05
 -0.262022912000E+09
 -0.262022912000E+09
  0.692641024000E+09
  0.692641024000E+09
 -0.844959232000E+09
 -0.844959232000E+09
  0.912983040000E+08
  0.912983040000E+08
  0.934742960000E+09
  0.934742960000E+09
 -0.364955520000E+09
 -0.364955520000E+09
  0.392426496000E+09
  0.392426496000E+09
 -0.303750016000E+09
 -0.303750016000E+09
 -0.728861504000E+09
 -0.728861504000E+09
  0.130972160000E+09
  0.130972160000E+09
  0.953548800000E+08
  0.953548800000E+08
  0.252518400000E+08
  0.252518400000E+08
  0.224469504000E+09
  0.224469504000E+09
  0.298010240000E+09
  0.298010240000E+09
  0.512000000000E+04
  0.512000000000E+04
  0.768000000000E+04
  0.768000000000E+04
  0.000000000000E+00
  0.000000000000E+00
  0.285600000000E+04
  0.285600000000E+04
  0.134400000000E+05
  0.134400000000E+05
 -0.727360667931E+05
 -0.727360667931E+05
  0.512000000000E+03
  0.512000000000E+03
 -0.153600000000E+04
 -0.153600000000E+04
  0.153600000000E+04
  0.153600000000E+04
  0.102400000000E+04
  0.102400000000E+04
  0.784000000000E+03
  0.784000000000E+03
  0.768000000000E+03
  0.768000000000E+03
 -0.204800000000E+04
 -0.204800000000E+04
  0.125440000000E+05
  0.125440000000E+05
 -0.131200000000E+04
 -0.131200000000E+04
 -0.102400000000E+04
 -0.102400000000E+04
  0.153600000000E+04
  0.153600000000E+04
 -0.294400000000E+04
 -0.294400000000E+04
 -0.768000000000E+04
 -0.768000000000E+04
 -0.345600000000E+04
 -0.345600000000E+04
