# vtk DataFile Version 3.0
MachLine results file. Generated by MachLine, USU AeroLab (c) 2022.
ASCII
DATASET POLYDATA
POINTS                 704 float
  0.476456375309E-05  0.000000000000E+00  0.000000000000E+00
  0.447911218842E-05  0.421052634716E+00  0.000000000000E+00
  0.447911189904E-05  0.842105269432E+00  0.182066632791E-21
  0.447911236849E-05  0.126315784454E+01  0.000000000000E+00
  0.447911258705E-05  0.168421053886E+01  0.000000000000E+00
  0.447911142965E-05  0.210526323318E+01  0.000000000000E+00
  0.447911214996E-05  0.252631568909E+01  0.000000000000E+00
  0.447911258705E-05  0.294736838341E+01  0.000000000000E+00
  0.447911258705E-05  0.336842107773E+01  0.000000000000E+00
  0.447911258705E-05  0.378947377205E+01  0.000000000000E+00
  0.447911142961E-05  0.421052646637E+01  0.000000000000E+00
  0.447911099250E-05  0.463157892227E+01  0.000000000000E+00
  0.447911330738E-05  0.505263137817E+01  0.000000000000E+00
  0.447911186676E-05  0.547368431091E+01  0.000000000000E+00
  0.447911330735E-05  0.589473676682E+01  0.000000000000E+00
  0.447911186674E-05  0.631578969955E+01  0.000000000000E+00
  0.447911099252E-05  0.673684215546E+01  0.000000000000E+00
  0.447911330738E-05  0.715789461136E+01  0.000000000000E+00
  0.447911186671E-05  0.757894754410E+01  0.000000000000E+00
  0.254366756317E-05  0.799999770501E+01  0.808768670280E-21
  0.257793408580E+00  0.000000000000E+00 -0.131795675270E+00
  0.257793408580E+00  0.000000000000E+00  0.131795675270E+00
  0.257793646802E+00  0.421052634716E+00 -0.131795735340E+00
  0.257793646802E+00  0.421052634716E+00  0.131795735340E+00
  0.257793646802E+00  0.842105269432E+00 -0.131795735340E+00
  0.257793646802E+00  0.842105269432E+00  0.131795735340E+00
  0.257793646802E+00  0.126315784454E+01 -0.131795735340E+00
  0.257793646802E+00  0.126315784454E+01  0.131795735340E+00
  0.257793646802E+00  0.168421053886E+01 -0.131795735340E+00
  0.257793646802E+00  0.168421053886E+01  0.131795735340E+00
  0.257793646802E+00  0.210526323318E+01 -0.131795735341E+00
  0.257793646802E+00  0.210526323318E+01  0.131795735341E+00
  0.257793646802E+00  0.252631568909E+01 -0.131795735341E+00
  0.257793646802E+00  0.252631568909E+01  0.131795735341E+00
  0.257793646802E+00  0.294736838341E+01 -0.131795735340E+00
  0.257793646802E+00  0.294736838341E+01  0.131795735340E+00
  0.257793646802E+00  0.336842107773E+01 -0.131795735340E+00
  0.257793646802E+00  0.336842107773E+01  0.131795735340E+00
  0.257793646802E+00  0.378947377205E+01 -0.131795735340E+00
  0.257793646802E+00  0.378947377205E+01  0.131795735340E+00
  0.257793646802E+00  0.421052646637E+01 -0.131795735341E+00
  0.257793646802E+00  0.421052646637E+01  0.131795735341E+00
  0.257793646801E+00  0.463157892227E+01 -0.131795735341E+00
  0.257793646801E+00  0.463157892227E+01  0.131795735341E+00
  0.257793646802E+00  0.505263137817E+01 -0.131795735340E+00
  0.257793646802E+00  0.505263137817E+01  0.131795735340E+00
  0.257793646802E+00  0.547368431091E+01 -0.131795735340E+00
  0.257793646802E+00  0.547368431091E+01  0.131795735340E+00
  0.257793646802E+00  0.589473676682E+01 -0.131795735340E+00
  0.257793646802E+00  0.589473676682E+01  0.131795735340E+00
  0.257793646802E+00  0.631578969955E+01 -0.131795735340E+00
  0.257793646802E+00  0.631578969955E+01  0.131795735340E+00
  0.257793646801E+00  0.673684215546E+01 -0.131795735341E+00
  0.257793646801E+00  0.673684215546E+01  0.131795735341E+00
  0.257793646802E+00  0.715789461136E+01 -0.131795735340E+00
  0.257793646802E+00  0.715789461136E+01  0.131795735340E+00
  0.257793646802E+00  0.757894754410E+01 -0.131795735340E+00
  0.257793646802E+00  0.757894754410E+01  0.131795735340E+00
  0.257793344885E+00  0.799999933573E+01 -0.131796711276E+00
  0.257793344885E+00  0.799999933573E+01  0.131796711276E+00
  0.257792938451E+00  0.809319512484E+01 -0.931951994684E-01
  0.257792938451E+00  0.809319512484E+01  0.931951994684E-01
  0.257792941477E+00  0.813179767392E+01 -0.140524563986E-15
  0.536311090991E+00  0.000000000000E+00 -0.172265355624E+00
  0.536311090991E+00  0.000000000000E+00  0.172265355624E+00
  0.536311145390E+00  0.421052634716E+00 -0.172265343805E+00
  0.536311145390E+00  0.421052634716E+00  0.172265343805E+00
  0.536311145389E+00  0.842105269432E+00 -0.172265343805E+00
  0.536311145389E+00  0.842105269432E+00  0.172265343805E+00
  0.536311145390E+00  0.126315784454E+01 -0.172265343805E+00
  0.536311145390E+00  0.126315784454E+01  0.172265343805E+00
  0.536311145390E+00  0.168421053886E+01 -0.172265343804E+00
  0.536311145390E+00  0.168421053886E+01  0.172265343804E+00
  0.536311145389E+00  0.210526323318E+01 -0.172265343805E+00
  0.536311145389E+00  0.210526323318E+01  0.172265343805E+00
  0.536311145389E+00  0.252631568909E+01 -0.172265343805E+00
  0.536311145389E+00  0.252631568909E+01  0.172265343805E+00
  0.536311145390E+00  0.294736838341E+01 -0.172265343804E+00
  0.536311145390E+00  0.294736838341E+01  0.172265343804E+00
  0.536311145390E+00  0.336842107773E+01 -0.172265343804E+00
  0.536311145390E+00  0.336842107773E+01  0.172265343804E+00
  0.536311145390E+00  0.378947377205E+01 -0.172265343804E+00
  0.536311145390E+00  0.378947377205E+01  0.172265343804E+00
  0.536311145389E+00  0.421052646637E+01 -0.172265343805E+00
  0.536311145389E+00  0.421052646637E+01  0.172265343805E+00
  0.536311145389E+00  0.463157892227E+01 -0.172265343806E+00
  0.536311145389E+00  0.463157892227E+01  0.172265343806E+00
  0.536311145390E+00  0.505263137817E+01 -0.172265343804E+00
  0.536311145390E+00  0.505263137817E+01  0.172265343804E+00
  0.536311145390E+00  0.547368431091E+01 -0.172265343804E+00
  0.536311145390E+00  0.547368431091E+01  0.172265343804E+00
  0.536311145390E+00  0.589473676682E+01 -0.172265343804E+00
  0.536311145390E+00  0.589473676682E+01  0.172265343804E+00
  0.536311145390E+00  0.631578969955E+01 -0.172265343804E+00
  0.536311145390E+00  0.631578969955E+01  0.172265343804E+00
  0.536311145389E+00  0.673684215546E+01 -0.172265343806E+00
  0.536311145389E+00  0.673684215546E+01  0.172265343806E+00
  0.536311145390E+00  0.715789461136E+01 -0.172265343804E+00
  0.536311145390E+00  0.715789461136E+01  0.172265343804E+00
  0.536311145390E+00  0.757894754410E+01 -0.172265343804E+00
  0.536311145390E+00  0.757894754410E+01  0.172265343804E+00
  0.536311043437E+00  0.799999932197E+01 -0.172266299248E+00
  0.536311043437E+00  0.799999932197E+01  0.172266299248E+00
  0.536310951866E+00  0.812181100008E+01 -0.121811262543E+00
  0.536310951866E+00  0.812181100008E+01  0.121811262543E+00
  0.536310984225E+00  0.817226724107E+01  0.124536798326E-17
  0.799721193196E+00  0.000000000000E+00 -0.191199284362E+00
  0.799721193196E+00  0.000000000000E+00  0.191199284362E+00
  0.799721223010E+00  0.421052634716E+00 -0.191199272934E+00
  0.799721223010E+00  0.421052634716E+00  0.191199272934E+00
  0.799721223010E+00  0.842105269432E+00 -0.191199272934E+00
  0.799721223010E+00  0.842105269432E+00  0.191199272934E+00
  0.799721223010E+00  0.126315784454E+01 -0.191199272934E+00
  0.799721223010E+00  0.126315784454E+01  0.191199272934E+00
  0.799721223010E+00  0.168421053886E+01 -0.191199272934E+00
  0.799721223010E+00  0.168421053886E+01  0.191199272934E+00
  0.799721223010E+00  0.210526323318E+01 -0.191199272935E+00
  0.799721223010E+00  0.210526323318E+01  0.191199272935E+00
  0.799721223010E+00  0.252631568909E+01 -0.191199272935E+00
  0.799721223010E+00  0.252631568909E+01  0.191199272935E+00
  0.799721223010E+00  0.294736838341E+01 -0.191199272934E+00
  0.799721223010E+00  0.294736838341E+01  0.191199272934E+00
  0.799721223010E+00  0.336842107773E+01 -0.191199272934E+00
  0.799721223010E+00  0.336842107773E+01  0.191199272934E+00
  0.799721223010E+00  0.378947377205E+01 -0.191199272934E+00
  0.799721223010E+00  0.378947377205E+01  0.191199272934E+00
  0.799721223010E+00  0.421052646637E+01 -0.191199272935E+00
  0.799721223010E+00  0.421052646637E+01  0.191199272935E+00
  0.799721223010E+00  0.463157892227E+01 -0.191199272935E+00
  0.799721223010E+00  0.463157892227E+01  0.191199272935E+00
  0.799721223010E+00  0.505263137817E+01 -0.191199272934E+00
  0.799721223010E+00  0.505263137817E+01  0.191199272934E+00
  0.799721223010E+00  0.547368431091E+01 -0.191199272934E+00
  0.799721223010E+00  0.547368431091E+01  0.191199272934E+00
  0.799721223010E+00  0.589473676682E+01 -0.191199272934E+00
  0.799721223010E+00  0.589473676682E+01  0.191199272934E+00
  0.799721223010E+00  0.631578969955E+01 -0.191199272934E+00
  0.799721223010E+00  0.631578969955E+01  0.191199272934E+00
  0.799721223010E+00  0.673684215546E+01 -0.191199272935E+00
  0.799721223010E+00  0.673684215546E+01  0.191199272935E+00
  0.799721223010E+00  0.715789461136E+01 -0.191199272934E+00
  0.799721223010E+00  0.715789461136E+01  0.191199272934E+00
  0.799721223010E+00  0.757894754410E+01 -0.191199272934E+00
  0.799721223010E+00  0.757894754410E+01  0.191199272934E+00
  0.799721176061E+00  0.799999933141E+01 -0.191200204690E+00
  0.799721176061E+00  0.799999933141E+01  0.191200204690E+00
  0.799721134022E+00  0.813519964457E+01 -0.135199525819E+00
  0.799721134022E+00  0.813519964457E+01  0.135199525819E+00
  0.799721152158E+00  0.819120054732E+01 -0.320712640167E-17
  0.105025952291E+01  0.000000000000E+00 -0.198939228890E+00
  0.105025952291E+01  0.000000000000E+00  0.198939228890E+00
  0.105025954267E+01  0.421052634716E+00 -0.198939219847E+00
  0.105025954267E+01  0.421052634716E+00  0.198939219847E+00
  0.105025954267E+01  0.842105269432E+00 -0.198939219847E+00
  0.105025954267E+01  0.842105269432E+00  0.198939219847E+00
  0.105025954267E+01  0.126315784454E+01 -0.198939219847E+00
  0.105025954267E+01  0.126315784454E+01  0.198939219847E+00
  0.105025954267E+01  0.168421053886E+01 -0.198939219846E+00
  0.105025954267E+01  0.168421053886E+01  0.198939219846E+00
  0.105025954267E+01  0.210526323318E+01 -0.198939219847E+00
  0.105025954267E+01  0.210526323318E+01  0.198939219847E+00
[...]
POINT_DATA                 704
SCALARS phi float 1
LOOKUP_TABLE default
 -0.127675647832E-14
  0.391353616180E-14
  0.360822483003E-14
  0.471844785466E-15
  0.255351295664E-14
  0.111022302463E-14
 -0.360822483003E-15
 -0.435762537165E-14
 -0.316413562018E-14
  0.155431223448E-14
  0.255351295664E-14
 -0.138777878078E-14
 -0.183186799063E-14
  0.199840144433E-14
  0.249800180541E-15
 -0.832667268469E-16
 -0.335842464949E-14
 -0.396904731303E-14
  0.399680288865E-14
 -0.202615701994E-14
 -0.138777878078E-15
  0.832667268469E-16
 -0.166533453694E-15
  0.249800180541E-15
  0.194289029309E-15
 -0.277555756156E-15
  0.249800180541E-15
  0.360822483003E-15
  0.582867087928E-15
  0.194289029309E-15
  0.194289029309E-15
  0.194289029309E-15
  0.610622663544E-15
  0.277555756156E-15
  0.832667268469E-16
 -0.249800180541E-15
  0.305311331772E-15
 -0.388578058619E-15
  0.111022302463E-15
  0.499600361081E-15
 -0.166533453694E-15
 -0.111022302463E-15
 -0.527355936697E-15
 -0.416333634234E-15
  0.249800180541E-15
 -0.138777878078E-15
 -0.360822483003E-15
 -0.333066907388E-15
 -0.277555756156E-15
 -0.305311331772E-15
  0.222044604925E-15
 -0.527355936697E-15
  0.222044604925E-15
 -0.693889390391E-15
 -0.610622663544E-15
 -0.333066907388E-15
  0.000000000000E+00
  0.555111512313E-16
 -0.388578058619E-15
  0.277555756156E-16
 -0.305311331772E-15
 -0.555111512313E-16
 -0.335842464949E-14
 -0.138777878078E-15
  0.333066907388E-15
 -0.166533453694E-15
 -0.277555756156E-16
 -0.277555756156E-16
 -0.277555756156E-16
  0.138777878078E-15
  0.138777878078E-15
  0.222044604925E-15
  0.138777878078E-15
  0.555111512313E-16
  0.166533453694E-15
 -0.111022302463E-15
  0.000000000000E+00
  0.222044604925E-15
 -0.832667268469E-16
 -0.804911692853E-15
 -0.360822483003E-15
  0.360822483003E-15
 -0.111022302463E-15
 -0.277555756156E-16
  0.416333634234E-15
 -0.555111512313E-16
  0.000000000000E+00
 -0.582867087928E-15
 -0.111022302463E-15
  0.555111512313E-16
 -0.693889390391E-15
  0.249800180541E-15
  0.000000000000E+00
  0.111022302463E-15
  0.194289029309E-15
  0.000000000000E+00
  0.388578058619E-15
  0.249800180541E-15
 -0.582867087928E-15
 -0.333066907388E-15
 -0.277555756156E-15
  0.000000000000E+00
  0.138777878078E-16
 -0.832667268469E-16
  0.000000000000E+00
  0.324740234703E-14
  0.152655665886E-15
  0.277555756156E-16
  0.124900090270E-15
  0.138777878078E-16
 -0.138777878078E-15
 -0.138777878078E-15
  0.111022302463E-15
  0.693889390391E-16
  0.263677968348E-15
  0.000000000000E+00
  0.277555756156E-16
 -0.138777878078E-16
  0.000000000000E+00
 -0.111022302463E-15
  0.138777878078E-15
  0.111022302463E-15
  0.000000000000E+00
 -0.555111512313E-16
  0.832667268469E-16
  0.111022302463E-15
  0.277555756156E-15
  0.693889390391E-16
  0.152655665886E-15
 -0.832667268469E-16
 -0.555111512313E-16
 -0.832667268469E-16
 -0.971445146547E-16
 -0.152655665886E-15
 -0.277555756156E-16
 -0.277555756156E-16
 -0.124900090270E-15
 -0.971445146547E-16
 -0.124900090270E-15
 -0.832667268469E-16
  0.416333634234E-16
 -0.166533453694E-15
 -0.138777878078E-16
  0.180411241502E-15
  0.832667268469E-16
 -0.124900090270E-15
 -0.208166817117E-15
  0.138777878078E-16
  0.102695629778E-14
  0.124900090270E-15
  0.263677968348E-15
 -0.235922392733E-15
 -0.277555756156E-16
 -0.555111512313E-16
 -0.416333634234E-16
 -0.416333634234E-16
  0.971445146547E-16
  0.416333634234E-16
  0.693889390391E-16
  0.693889390391E-16
  0.124900090270E-15
 -0.166533453694E-15
  0.194289029309E-15
  0.000000000000E+00
 -0.138777878078E-16
  0.152655665886E-15
  0.124900090270E-15
  0.111022302463E-15
  0.124900090270E-15
  0.124900090270E-15
 -0.138777878078E-15
  0.971445146547E-16
 -0.832667268469E-16
 -0.832667268469E-16
 -0.832667268469E-16
  0.000000000000E+00
 -0.277555756156E-16
 -0.166533453694E-15
  0.152655665886E-15
 -0.555111512313E-16
 -0.138777878078E-16
  0.124900090270E-15
  0.208166817117E-16
  0.763278329430E-16
  0.971445146547E-16
  0.138777878078E-16
  0.832667268469E-16
  0.555111512313E-16
  0.173472347598E-15
  0.346944695195E-16
  0.971445146547E-16
  0.673072708679E-15
  0.555111512313E-16
 -0.117961196366E-15
 -0.693889390391E-17
  0.104083408559E-15
  0.693889390391E-17
  0.138777878078E-16
  0.555111512313E-16
  0.971445146547E-16
 -0.138777878078E-16
  0.346944695195E-16
  0.138777878078E-16
  0.416333634234E-16
  0.485722573274E-16
  0.000000000000E+00
  0.416333634234E-16
  0.104083408559E-15
  0.138777878078E-16
  0.971445146547E-16
 -0.624500451352E-16
  0.208166817117E-16
  0.346944695195E-16
 -0.346944695195E-17
  0.555111512313E-16
  0.312250225676E-16
 -0.242861286637E-16
 -0.242861286637E-16
  0.936750677027E-16
 -0.659194920871E-16
 -0.381639164715E-16
  0.346944695195E-17
 -0.173472347598E-16
 -0.312250225676E-16
 -0.138777878078E-16
 -0.242861286637E-16
 -0.346944695195E-17
 -0.242861286637E-16
 -0.208166817117E-16
  0.936750677027E-16
  0.277555756156E-16
  0.277555756156E-16
  0.520417042793E-16
  0.277555756156E-16
 -0.550080814232E-14
  0.104083408559E-16
  0.130104260698E-16
 -0.247198095327E-16
  0.433680868994E-18
  0.108420217249E-16
 -0.112757025938E-16
  0.398986399475E-16
  0.286229373536E-16
  0.143114686768E-16
  0.277555756156E-16
  0.329597460436E-16
 -0.203830008427E-16
 -0.624500451352E-16
  0.485722573274E-16
 -0.351281503885E-16
  0.281892564846E-16
 -0.260208521397E-17
  0.529090660173E-16
 -0.234187669257E-16
  0.186482773668E-16
  0.823993651089E-17
 -0.520417042793E-17
  0.390312782095E-16
 -0.130104260698E-16
  0.780625564190E-17
  0.234187669257E-16
 -0.867361737988E-17
 -0.164798730218E-16
  0.173472347598E-16
  0.164798730218E-16
  0.338271077815E-16
  0.121430643318E-16
  0.355618312575E-16
 -0.294902990916E-16
 -0.520417042793E-17
  0.164798730218E-16
 -0.173472347598E-16
 -0.277555756156E-16
  0.320923843056E-16
 -0.381639164715E-16
 -0.112757025938E-16
  0.693889390391E-17
  0.349286571888E-14
  0.208166817117E-16
  0.208166817117E-16
 -0.693889390391E-16
  0.000000000000E+00
  0.000000000000E+00
  0.624500451352E-16
 -0.693889390391E-16
  0.832667268469E-16
  0.138777878078E-16
 -0.346944695195E-16
  0.000000000000E+00
  0.138777878078E-16
  0.111022302463E-15
 -0.971445146547E-16
 -0.416333634234E-16
  0.693889390391E-16
 -0.485722573274E-16
  0.416333634234E-16
 -0.485722573274E-16
  0.832667268469E-16
 -0.624500451352E-16
 -0.277555756156E-16
  0.104083408559E-15
 -0.117961196366E-15
  0.277555756156E-16
  0.485722573274E-16
  0.555111512313E-16
  0.346944695195E-16
  0.693889390391E-16
  0.693889390391E-17
 -0.346944695195E-16
 -0.902056207508E-16
  0.138777878078E-16
 -0.138777878078E-16
 -0.346944695195E-16
  0.138777878078E-16
  0.381639164715E-16
 -0.312250225676E-16
  0.346944695195E-16
  0.138777878078E-16
  0.208166817117E-16
  0.242861286637E-16
  0.445130043936E-14
 -0.693889390391E-16
  0.693889390391E-16
  0.111022302463E-15
 -0.138777878078E-16
 -0.693889390391E-16
 -0.277555756156E-16
  0.124900090270E-15
  0.208166817117E-15
  0.277555756156E-16
 -0.138777878078E-15
 -0.138777878078E-16
  0.111022302463E-15
 -0.138777878078E-16
  0.832667268469E-16
 -0.832667268469E-16
 -0.416333634234E-16
 -0.971445146547E-16
 -0.277555756156E-16
  0.000000000000E+00
  0.555111512313E-16
  0.832667268469E-16
  0.971445146547E-16
  0.000000000000E+00
 -0.416333634234E-16
  0.902056207508E-16
 -0.104083408559E-15
  0.277555756156E-16
 -0.111022302463E-15
  0.117961196366E-15
 -0.763278329430E-16
 -0.346944695195E-16
 -0.485722573274E-16
  0.971445146547E-16
 -0.131838984174E-15
  0.346944695195E-16
  0.624500451352E-16
  0.693889390391E-16
 -0.138777878078E-16
  0.763278329430E-16
  0.346944695195E-16
  0.208166817117E-16
  0.346944695195E-16
 -0.657113252700E-14
  0.416333634234E-16
  0.152655665886E-15
 -0.124900090270E-15
  0.166533453694E-15
 -0.277555756156E-16
  0.693889390391E-16
  0.832667268469E-16
  0.166533453694E-15
  0.693889390391E-16
  0.208166817117E-15
  0.138777878078E-16
  0.152655665886E-15
 -0.971445146547E-16
 -0.180411241502E-15
  0.693889390391E-16
 -0.208166817117E-15
 -0.971445146547E-16
 -0.832667268469E-16
  0.208166817117E-15
  0.416333634234E-16
 -0.166533453694E-15
 -0.111022302463E-15
  0.166533453694E-15
  0.971445146547E-16
  0.111022302463E-15
 -0.832667268469E-16
 -0.416333634234E-16
  0.416333634234E-16
 -0.277555756156E-16
  0.152655665886E-15
 -0.194289029309E-15
  0.555111512313E-16
  0.263677968348E-15
 -0.971445146547E-16
  0.263677968348E-15
  0.152655665886E-15
 -0.138777878078E-15
  0.138777878078E-15
 -0.485722573274E-16
 -0.152655665886E-15
  0.624500451352E-16
 -0.117961196366E-15
  0.228289609439E-14
 -0.166533453694E-15
 -0.485722573274E-15
 -0.138777878078E-16
  0.000000000000E+00
 -0.111022302463E-15
 -0.305311331772E-15
 -0.971445146547E-16
 -0.138777878078E-16
  0.416333634234E-16
 -0.180411241502E-15
  0.693889390391E-16
 -0.152655665886E-15
  0.555111512313E-16
 -0.138777878078E-16
  0.555111512313E-16
  0.111022302463E-15
 -0.277555756156E-16
 -0.305311331772E-15
 -0.124900090270E-15
  0.277555756156E-16
  0.971445146547E-16
 -0.693889390391E-16
  0.138777878078E-16
  0.291433543964E-15
  0.693889390391E-16
  0.971445146547E-16
  0.138777878078E-15
 -0.194289029309E-15
  0.111022302463E-15
  0.208166817117E-15
  0.124900090270E-15
  0.180411241502E-15
  0.000000000000E+00
 -0.138777878078E-16
 -0.138777878078E-16
  0.693889390391E-16
 -0.374700270811E-15
  0.277555756156E-15
  0.832667268469E-16
  0.138777878078E-16
  0.111022302463E-15
  0.277555756156E-16
 -0.275474087985E-14
  0.194289029309E-15
  0.138777878078E-15
 -0.166533453694E-15
 -0.832667268469E-16
  0.277555756156E-16
  0.111022302463E-15
  0.194289029309E-15
 -0.138777878078E-15
  0.471844785466E-15
  0.305311331772E-15
  0.499600361081E-15
 -0.555111512313E-16
  0.166533453694E-15
  0.333066907388E-15
  0.277555756156E-16
  0.138777878078E-15
  0.111022302463E-15
  0.000000000000E+00
  0.388578058619E-15
  0.277555756156E-16
  0.416333634234E-15
 -0.111022302463E-15
 -0.832667268469E-16
  0.388578058619E-15
  0.832667268469E-16
 -0.111022302463E-15
  0.499600361081E-15
  0.693889390391E-16
 -0.416333634234E-16
  0.555111512313E-16
  0.235922392733E-15
  0.000000000000E+00
  0.138777878078E-16
 -0.555111512313E-16
 -0.555111512313E-16
 -0.138777878078E-16
  0.555111512313E-16
 -0.693889390391E-16
  0.555111512313E-16
  0.555111512313E-16
 -0.291433543964E-15
 -0.277555756156E-16
  0.162370117351E-14
  0.194289029309E-15
  0.138777878078E-15
 -0.222044604925E-15
 -0.416333634234E-15
  0.305311331772E-15
  0.000000000000E+00
 -0.277555756156E-15
 -0.111022302463E-15
 -0.388578058619E-15
  0.111022302463E-15
 -0.222044604925E-15
  0.222044604925E-15
 -0.166533453694E-15
 -0.111022302463E-15
  0.000000000000E+00
 -0.555111512313E-15
 -0.388578058619E-15
  0.111022302463E-15
 -0.249800180541E-15
  0.277555756156E-16
  0.305311331772E-15
  0.000000000000E+00
 -0.222044604925E-15
  0.138777878078E-15
  0.194289029309E-15
 -0.194289029309E-15
  0.693889390391E-15
  0.194289029309E-15
  0.138777878078E-15
  0.333066907388E-15
 -0.111022302463E-15
  0.555111512313E-16
 -0.277555756156E-15
 -0.416333634234E-15
 -0.693889390391E-16
  0.194289029309E-15
  0.138777878078E-16
  0.124900090270E-15
  0.124900090270E-15
  0.249800180541E-15
  0.832667268469E-16
 -0.416333634234E-16
  0.389965837400E-14
  0.388578058619E-15
  0.832667268469E-16
  0.138777878078E-15
  0.222044604925E-15
  0.582867087928E-15
  0.277555756156E-15
 -0.111022302463E-15
 -0.277555756156E-16
  0.138777878078E-15
 -0.277555756156E-15
 -0.610622663544E-15
 -0.138777878078E-15
  0.555111512313E-16
  0.444089209850E-15
 -0.832667268469E-16
  0.194289029309E-15
  0.277555756156E-16
 -0.166533453694E-15
 -0.249800180541E-15
  0.333066907388E-15
 -0.222044604925E-15
 -0.194289029309E-15
  0.471844785466E-15
  0.277555756156E-16
  0.000000000000E+00
  0.555111512313E-16
 -0.555111512313E-16
  0.277555756156E-16
 -0.138777878078E-15
  0.111022302463E-15
 -0.333066907388E-15
 -0.222044604925E-15
  0.360822483003E-15
  0.111022302463E-15
  0.222044604925E-15
 -0.111022302463E-15
  0.111022302463E-15
  0.693889390391E-16
  0.832667268469E-16
  0.152655665886E-15
 -0.971445146547E-16
 -0.277555756156E-16
 -0.389965837400E-14
  0.360822483003E-15
 -0.610622663544E-15
 -0.555111512313E-15
  0.277555756156E-16
  0.249800180541E-15
 -0.333066907388E-15
  0.666133814775E-15
  0.555111512313E-16
  0.111022302463E-15
  0.277555756156E-15
 -0.360822483003E-15
 -0.555111512313E-15
  0.138777878078E-15
  0.194289029309E-15
  0.000000000000E+00
  0.194289029309E-15
  0.166533453694E-15
  0.832667268469E-16
 -0.360822483003E-15
 -0.388578058619E-15
 -0.166533453694E-15
  0.277555756156E-16
  0.499600361081E-15
 -0.249800180541E-15
  0.111022302463E-15
  0.305311331772E-15
  0.360822483003E-15
  0.194289029309E-15
 -0.111022302463E-15
  0.555111512313E-16
  0.166533453694E-15
  0.111022302463E-15
 -0.638378239159E-15
 -0.249800180541E-15
  0.277555756156E-16
  0.277555756156E-16
 -0.693889390391E-16
  0.555111512313E-16
 -0.277555756156E-16
 -0.693889390391E-16
  0.416333634234E-16
  0.832667268469E-16
  0.137390099297E-14
 -0.666133814775E-15
  0.111022302463E-15
 -0.444089209850E-15
  0.305311331772E-15
 -0.582867087928E-15
 -0.277555756156E-15
 -0.555111512313E-16
  0.138777878078E-15
 -0.360822483003E-15
 -0.166533453694E-15
 -0.166533453694E-15
 -0.138777878078E-15
 -0.166533453694E-15
 -0.277555756156E-16
 -0.277555756156E-16
  0.138777878078E-15
  0.166533453694E-15
 -0.111022302463E-15
  0.138777878078E-15
 -0.277555756156E-16
 -0.277555756156E-15
 -0.222044604925E-15
 -0.277555756156E-16
 -0.555111512313E-16
 -0.305311331772E-15
  0.000000000000E+00
  0.416333634234E-15
 -0.416333634234E-15
 -0.138777878078E-15
  0.555111512313E-16
 -0.305311331772E-15
 -0.194289029309E-15
  0.249800180541E-15
  0.638378239159E-15
 -0.277555756156E-16
 -0.138777878078E-15
 -0.111022302463E-15
 -0.319189119580E-15
 -0.138777878078E-16
 -0.416333634234E-16
 -0.152655665886E-15
  0.111022302463E-15
 -0.263677968348E-14
 -0.471844785466E-15
  0.832667268469E-16
 -0.527355936697E-15
 -0.444089209850E-15
  0.638378239159E-15
  0.305311331772E-15
  0.194289029309E-15
 -0.277555756156E-16
 -0.555111512313E-16
  0.249800180541E-15
  0.277555756156E-16
 -0.832667268469E-16
 -0.277555756156E-16
  0.249800180541E-15
  0.416333634234E-16
 -0.152655665886E-15
  0.138777878078E-15
 -0.124900090270E-15
  0.291433543964E-15
  0.599520433298E-14
 -0.138777878078E-16
  0.000000000000E+00
 -0.249800180541E-15
  0.832667268469E-16
 -0.111022302463E-15
  0.180411241502E-15
  0.111022302463E-15
  0.971445146547E-16
 -0.111022302463E-15
  0.249800180541E-15
 -0.194289029309E-15
 -0.360822483003E-15
  0.277555756156E-16
  0.555111512313E-15
  0.277555756156E-16
  0.555111512313E-16
 -0.333066907388E-15
  0.111022302463E-15
  0.388578058619E-15
SCALARS phi_mu float 1
LOOKUP_TABLE default
  0.242579764162E+00
  0.242544717643E+00
  0.242439988187E+00
  0.242260893972E+00
  0.242000251595E+00
  0.241647225295E+00
  0.241186426092E+00
  0.240596549952E+00
  0.239848347742E+00
  0.238901572893E+00
  0.237700319403E+00
  0.236165709630E+00
  0.234184004705E+00
  0.231586354467E+00
  0.228112113238E+00
  0.223336495437E+00
  0.216510164971E+00
  0.206133240646E+00
  0.188406583047E+00
  0.140693586518E+00
  0.235711890109E+00
  0.235711890109E+00
  0.235681159467E+00
  0.235681159467E+00
  0.235588431796E+00
  0.235588431796E+00
  0.235429696592E+00
  0.235429696592E+00
  0.235198317260E+00
  0.235198317260E+00
  0.234884248580E+00
  0.234884248580E+00
  0.234473159373E+00
  0.234473159373E+00
  0.233945097692E+00
  0.233945097692E+00
  0.233272485325E+00
  0.233272485325E+00
  0.232417076626E+00
  0.232417076626E+00
  0.231325269931E+00
  0.231325269931E+00
  0.229920681652E+00
  0.229920681652E+00
  0.228091952416E+00
  0.228091952416E+00
  0.225671777728E+00
  0.225671777728E+00
  0.222398588982E+00
  0.222398588982E+00
  0.217840527160E+00
  0.217840527160E+00
  0.211226984832E+00
  0.211226984832E+00
  0.201010984630E+00
  0.201010984630E+00
  0.183443397006E+00
  0.183443397006E+00
  0.145822106790E+00
  0.145822106790E+00
  0.134398688105E+00
  0.134398688105E+00
  0.130852401513E+00
  0.170962282284E+00
  0.170962282284E+00
  0.170936734663E+00
  0.170936734663E+00
  0.170859087795E+00
  0.170859087795E+00
  0.170726048555E+00
  0.170726048555E+00
  0.170531858788E+00
  0.170531858788E+00
  0.170267779912E+00
  0.170267779912E+00
  0.169921302317E+00
  0.169921302317E+00
  0.169474938768E+00
  0.169474938768E+00
  0.168904405949E+00
  0.168904405949E+00
  0.168175861101E+00
  0.168175861101E+00
  0.167241639769E+00
  0.167241639769E+00
  0.166033522409E+00
  0.166033522409E+00
  0.164451760491E+00
  0.164451760491E+00
  0.162346494983E+00
  0.162346494983E+00
  0.159484763521E+00
  0.159484763521E+00
  0.155488360290E+00
  0.155488360290E+00
  0.149708858382E+00
  0.149708858382E+00
  0.140960275284E+00
  0.140960275284E+00
  0.126959572177E+00
  0.126959572177E+00
  0.103228931212E+00
  0.103228931212E+00
  0.952413922816E-01
  0.952413922816E-01
  0.925889603870E-01
  0.118451655120E+00
  0.118451655120E+00
  0.118431399591E+00
  0.118431399591E+00
  0.118369796227E+00
  0.118369796227E+00
  0.118264181688E+00
  0.118264181688E+00
  0.118109881110E+00
  0.118109881110E+00
  0.117899790077E+00
  0.117899790077E+00
  0.117623721204E+00
  0.117623721204E+00
  0.117267407640E+00
  0.117267407640E+00
  0.116811004331E+00
  0.116811004331E+00
  0.116226820797E+00
  0.116226820797E+00
  0.115475852838E+00
  0.115475852838E+00
  0.114502380172E+00
  0.114502380172E+00
  0.113225362613E+00
  0.113225362613E+00
  0.111524401234E+00
  0.111524401234E+00
  0.109216247108E+00
  0.109216247108E+00
  0.106014616900E+00
  0.106014616900E+00
  0.101461504110E+00
  0.101461504110E+00
  0.948175330960E-01
  0.948175330960E-01
  0.849380100957E-01
  0.849380100957E-01
  0.701060962207E-01
  0.701060962207E-01
  0.648630781352E-01
  0.648630781352E-01
  0.630733087740E-01
  0.728230480733E-01
  0.728230480733E-01
  0.728082459671E-01
  0.728082459671E-01
  0.727632172168E-01
  0.727632172168E-01
  0.726859957602E-01
  0.726859957602E-01
  0.725731276236E-01
  0.725731276236E-01
  0.724193632530E-01
  0.724193632530E-01
  0.722171756860E-01
  0.722171756860E-01
  0.719560290896E-01
  0.719560290896E-01
  0.716212865614E-01
  0.716212865614E-01
  0.711925761836E-01
  0.711925761836E-01
  0.706413335911E-01
  0.706413335911E-01
  0.699270714241E-01
  0.699270714241E-01
  0.689916655645E-01
  0.689916655645E-01
  0.677505743612E-01
  0.677505743612E-01
  0.660794638118E-01
  0.660794638118E-01
  0.637945768094E-01
  0.637945768094E-01
  0.606272487135E-01
  0.606272487135E-01
  0.562026851915E-01
  0.562026851915E-01
  0.500618359560E-01
  0.500618359560E-01
  0.417228837138E-01
  0.417228837138E-01
  0.387971202895E-01
  0.387971202895E-01
  0.377624424873E-01
  0.325516839352E-01
  0.325516839352E-01
  0.325424074841E-01
  0.325424074841E-01
  0.325141898876E-01
  0.325141898876E-01
  0.324658048829E-01
  0.324658048829E-01
  0.323951006877E-01
  0.323951006877E-01
  0.322988129294E-01
  0.322988129294E-01
  0.321722741130E-01
  0.321722741130E-01
  0.320089775681E-01
  0.320089775681E-01
  0.317999371051E-01
  0.317999371051E-01
  0.315327515967E-01
  0.315327515967E-01
  0.311902461279E-01
  0.311902461279E-01
  0.307485125665E-01
  0.307485125665E-01
  0.301741358048E-01
  0.301741358048E-01
  0.294204437422E-01
  0.294204437422E-01
  0.284229803245E-01
  0.284229803245E-01
  0.270956765199E-01
  0.270956765199E-01
  0.253329870358E-01
  0.253329870358E-01
  0.230322378762E-01
  0.230322378762E-01
  0.201664537337E-01
  0.201664537337E-01
  0.169818298692E-01
  0.169818298692E-01
  0.159982926680E-01
  0.159982926680E-01
  0.156105344501E-01
 -0.327055844151E-02
 -0.327055844151E-02
 -0.327430592239E-02
 -0.327430592239E-02
 -0.328569418511E-02
 -0.328569418511E-02
 -0.330519163177E-02