# vtk DataFile Version 3.0
TriPan results file. Generated by TriPan, USU AeroLab (c) 2021.
ASCII
DATASET POLYDATA
POINTS                  40 float
  0.400000000000E+01  0.421052634716E+00  0.000000000000E+00
  0.792475247525E+02  0.421052634716E+00  0.752475247525E+01
  0.400000000000E+01  0.000000000000E+00  0.000000000000E+00
  0.792475247525E+02  0.000000000000E+00  0.752475247525E+01
  0.400000000000E+01  0.842105269432E+00  0.000000000000E+00
  0.792475247525E+02  0.842105269432E+00  0.752475247525E+01
  0.400000000000E+01  0.126315784454E+01  0.000000000000E+00
  0.792475247525E+02  0.126315784454E+01  0.752475247525E+01
  0.400000000000E+01  0.168421053886E+01  0.000000000000E+00
  0.792475247525E+02  0.168421053886E+01  0.752475247525E+01
  0.400000000000E+01  0.210526323318E+01  0.000000000000E+00
  0.792475247525E+02  0.210526323318E+01  0.752475247525E+01
  0.400000000000E+01  0.252631568909E+01  0.000000000000E+00
  0.792475247525E+02  0.252631568909E+01  0.752475247525E+01
  0.400000000000E+01  0.294736838341E+01  0.000000000000E+00
  0.792475247525E+02  0.294736838341E+01  0.752475247525E+01
  0.400000000000E+01  0.336842107773E+01  0.000000000000E+00
  0.792475247525E+02  0.336842107773E+01  0.752475247525E+01
  0.400000000000E+01  0.378947377205E+01  0.000000000000E+00
  0.792475247525E+02  0.378947377205E+01  0.752475247525E+01
  0.400000000000E+01  0.421052646637E+01  0.000000000000E+00
  0.792475247525E+02  0.421052646637E+01  0.752475247525E+01
  0.400000000000E+01  0.463157892227E+01  0.000000000000E+00
  0.792475247525E+02  0.463157892227E+01  0.752475247525E+01
  0.400000000000E+01  0.505263137817E+01  0.000000000000E+00
  0.792475247525E+02  0.505263137817E+01  0.752475247525E+01
  0.400000000000E+01  0.547368431091E+01  0.000000000000E+00
  0.792475247525E+02  0.547368431091E+01  0.752475247525E+01
  0.400000000000E+01  0.589473676682E+01  0.000000000000E+00
  0.792475247525E+02  0.589473676682E+01  0.752475247525E+01
  0.400000000000E+01  0.631578969955E+01  0.000000000000E+00
  0.792475247525E+02  0.631578969955E+01  0.752475247525E+01
  0.400000000000E+01  0.673684215546E+01  0.000000000000E+00
  0.792475247525E+02  0.673684215546E+01  0.752475247525E+01
  0.400000000000E+01  0.715789461136E+01  0.000000000000E+00
  0.792475247525E+02  0.715789461136E+01  0.752475247525E+01
  0.400000000000E+01  0.757894754410E+01  0.000000000000E+00
  0.792475247525E+02  0.757894754410E+01  0.752475247525E+01
  0.400000000000E+01  0.800000000000E+01  0.000000000000E+00
  0.792475247525E+02  0.800000000000E+01  0.752475247525E+01
POLYGONS                  38                 152
3                   0                   1                   3
3                   0                   3                   2
3                   4                   5                   1
3                   4                   1                   0
3                   6                   7                   5
3                   6                   5                   4
3                   8                   9                   7
3                   8                   7                   6
3                  10                  11                   9
3                  10                   9                   8
3                  12                  13                  11
3                  12                  11                  10
3                  14                  15                  13
3                  14                  13                  12
3                  16                  17                  15
3                  16                  15                  14
3                  18                  19                  17
3                  18                  17                  16
3                  20                  21                  19
3                  20                  19                  18
3                  22                  23                  21
3                  22                  21                  20
3                  24                  25                  23
3                  24                  23                  22
3                  26                  27                  25
3                  26                  25                  24
3                  28                  29                  27
3                  28                  27                  26
3                  30                  31                  29
3                  30                  29                  28
3                  32                  33                  31
3                  32                  31                  30
3                  34                  35                  33
3                  34                  33                  32
3                  36                  37                  35
3                  36                  35                  34
3                  38                  39                  37
3                  38                  37                  36
CELL_DATA                  38
NORMALS normals float
  0.995037190210E-01  0.000000000000E+00 -0.995037190210E+00
  0.995037190210E-01  0.000000000000E+00 -0.995037190210E+00
  0.995037190210E-01  0.000000000000E+00 -0.995037190210E+00
  0.995037190210E-01  0.000000000000E+00 -0.995037190210E+00
  0.995037190210E-01  0.000000000000E+00 -0.995037190210E+00
  0.995037190210E-01  0.000000000000E+00 -0.995037190210E+00
  0.995037190210E-01  0.000000000000E+00 -0.995037190210E+00
  0.995037190210E-01  0.000000000000E+00 -0.995037190210E+00
  0.995037190210E-01  0.000000000000E+00 -0.995037190210E+00
  0.995037190210E-01  0.000000000000E+00 -0.995037190210E+00
  0.995037190210E-01  0.000000000000E+00 -0.995037190210E+00
  0.995037190210E-01  0.000000000000E+00 -0.995037190210E+00
  0.995037190210E-01  0.000000000000E+00 -0.995037190210E+00
  0.995037190210E-01  0.000000000000E+00 -0.995037190210E+00
  0.995037190210E-01  0.000000000000E+00 -0.995037190210E+00
  0.995037190210E-01  0.000000000000E+00 -0.995037190210E+00
  0.995037190210E-01  0.000000000000E+00 -0.995037190210E+00
  0.995037190210E-01  0.000000000000E+00 -0.995037190210E+00
  0.995037190210E-01  0.000000000000E+00 -0.995037190210E+00
  0.995037190210E-01  0.000000000000E+00 -0.995037190210E+00
  0.995037190210E-01  0.000000000000E+00 -0.995037190210E+00
  0.995037190210E-01  0.000000000000E+00 -0.995037190210E+00
  0.995037190210E-01  0.000000000000E+00 -0.995037190210E+00
  0.995037190210E-01  0.000000000000E+00 -0.995037190210E+00
  0.995037190210E-01  0.000000000000E+00 -0.995037190210E+00
  0.995037190210E-01  0.000000000000E+00 -0.995037190210E+00
  0.995037190210E-01  0.000000000000E+00 -0.995037190210E+00
  0.995037190210E-01  0.000000000000E+00 -0.995037190210E+00
  0.995037190210E-01  0.000000000000E+00 -0.995037190210E+00
  0.995037190210E-01  0.000000000000E+00 -0.995037190210E+00
  0.995037190210E-01  0.000000000000E+00 -0.995037190210E+00
  0.995037190210E-01  0.000000000000E+00 -0.995037190210E+00
  0.995037190210E-01  0.000000000000E+00 -0.995037190210E+00
  0.995037190210E-01  0.000000000000E+00 -0.995037190210E+00
  0.995037190210E-01  0.000000000000E+00 -0.995037190210E+00
  0.995037190210E-01  0.000000000000E+00 -0.995037190210E+00
  0.995037190210E-01  0.000000000000E+00 -0.995037190210E+00
  0.995037190210E-01  0.000000000000E+00 -0.995037190210E+00
POINT_DATA                  40
SCALARS mu float 1
LOOKUP_TABLE default
 -0.868017180841E+00
 -0.868017180841E+00
 -0.868863459329E+00
 -0.868863459329E+00
 -0.865528196849E+00
 -0.865528196849E+00
 -0.861290602933E+00
 -0.861290602933E+00
 -0.855219730084E+00
 -0.855219730084E+00
 -0.847194360176E+00
 -0.847194360176E+00
 -0.837006978659E+00
 -0.837006978659E+00
 -0.824444054010E+00
 -0.824444054010E+00
 -0.809193724929E+00
 -0.809193724929E+00
 -0.790882323188E+00
 -0.790882323188E+00
 -0.768943146306E+00
 -0.768943146306E+00
 -0.742713693002E+00
 -0.742713693002E+00
 -0.711252640666E+00
 -0.711252640666E+00
 -0.673199578625E+00
 -0.673199578625E+00
 -0.626615745621E+00
 -0.626615745621E+00
 -0.568397981963E+00
 -0.568397981963E+00
 -0.493338160151E+00
 -0.493338160151E+00
 -0.391600529537E+00
 -0.391600529537E+00
 -0.242120228061E+00
 -0.242120228061E+00
  0.000000000000E+00
  0.000000000000E+00
