# vtk DataFile Version 3.0
MFTran results file. Generated by MFTran, USU AeroLab (c) 2021.
ASCII
DATASET POLYDATA
POINTS                 545 float
     -0.750000000000      0.000000000000      0.000000000000
     -0.750000000000      0.048943482339      0.000000000000
     -0.750000000000      0.190983012319      0.000000000000
     -0.750000000000      0.412214756012      0.000000000000
     -0.750000000000      0.690982997417      0.000000000000
     -0.750000000000      1.000000000000      0.000000000000
     -0.750000000000      1.309016942980      0.000000000000
     -0.750000000000      1.587785243990      0.000000000000
     -0.750000000000      1.809016942980      0.000000000000
     -0.750000000000      1.951056480410      0.000000000000
     -0.750000000000      2.000000000000      0.000000000000
     -0.743844151497      0.000000000000     -0.000371327653
     -0.743844151497      0.000000000000      0.000371327653
     -0.743844151497      0.048943482339     -0.000371327653
     -0.743844151497      0.048943482339      0.000371327653
     -0.743844151497      0.190983012319     -0.000371327653
     -0.743844151497      0.190983012319      0.000371327653
     -0.743844151497      0.412214756012     -0.000371327653
     -0.743844151497      0.412214756012      0.000371327653
     -0.743844151497      0.690982997417     -0.000371327653
     -0.743844151497      0.690982997417      0.000371327653
     -0.743844151497      1.000000000000     -0.000371327653
     -0.743844151497      1.000000000000      0.000371327653
     -0.743844151497      1.309016942980     -0.000371327653
     -0.743844151497      1.309016942980      0.000371327653
     -0.743844151497      1.587785243990     -0.000371327653
     -0.743844151497      1.587785243990      0.000371327653
     -0.743844151497      1.809016942980     -0.000371327653
     -0.743844151497      1.809016942980      0.000371327653
     -0.743844151497      1.951056480410     -0.000371327653
     -0.743844151497      1.951056480410      0.000371327653
     -0.743844151497      2.000000000000     -0.000371327653
     -0.743844151497      2.000000000000      0.000371327653
     -0.743844151497      2.000185728070     -0.000321579166
     -0.743844151497      2.000185728070      0.000321579166
     -0.743844151497      2.000321626660     -0.000185663826
     -0.743844151497      2.000321626660      0.000185663826
     -0.743844151497      2.000371217730      0.000000000000
     -0.725528240204      0.000000000000     -0.001458900981
     -0.725528240204      0.000000000000      0.001458900981
     -0.725528240204      0.048943482339     -0.001458900981
     -0.725528240204      0.048943482339      0.001458900981
     -0.725528240204      0.190983012319     -0.001458900981
     -0.725528240204      0.190983012319      0.001458900981
     -0.725528240204      0.412214756012     -0.001458900981
     -0.725528240204      0.412214756012      0.001458900981
     -0.725528240204      0.690982997417     -0.001458900981
     -0.725528240204      0.690982997417      0.001458900981
     -0.725528240204      1.000000000000     -0.001458900981
     -0.725528240204      1.000000000000      0.001458900981
     -0.725528240204      1.309016942980     -0.001458900981
     -0.725528240204      1.309016942980      0.001458900981
     -0.725528240204      1.587785243990     -0.001458900981
     -0.725528240204      1.587785243990      0.001458900981
     -0.725528240204      1.809016942980     -0.001458900981
     -0.725528240204      1.809016942980      0.001458900981
     -0.725528240204      1.951056480410     -0.001458900981
     -0.725528240204      1.951056480410      0.001458900981
     -0.725528240204      2.000000000000     -0.001458900981
     -0.725528240204      2.000000000000      0.001458900981
     -0.725528240204      2.000729560850     -0.001263445243
     -0.725528240204      2.000729560850      0.001263445243
     -0.725528240204      2.001263380050     -0.000729450490
     -0.725528240204      2.001263380050      0.000729450490
     -0.725528240204      2.001458883290      0.000000000000
     -0.695503234863      0.000000000000     -0.003187842434
     -0.695503234863      0.000000000000      0.003187842434
     -0.695503234863      0.048943482339     -0.003187842434
     -0.695503234863      0.048943482339      0.003187842434
     -0.695503234863      0.190983012319     -0.003187842434
     -0.695503234863      0.190983012319      0.003187842434
     -0.695503234863      0.412214756012     -0.003187842434
     -0.695503234863      0.412214756012      0.003187842434
     -0.695503234863      0.690982997417     -0.003187842434
     -0.695503234863      0.690982997417      0.003187842434
     -0.695503234863      1.000000000000     -0.003187842434
     -0.695503234863      1.000000000000      0.003187842434
     -0.695503234863      1.309016942980     -0.003187842434
     -0.695503234863      1.309016942980      0.003187842434
     -0.695503234863      1.587785243990     -0.003187842434
     -0.695503234863      1.587785243990      0.003187842434
     -0.695503234863      1.809016942980     -0.003187842434
     -0.695503234863      1.809016942980      0.003187842434
     -0.695503234863      1.951056480410     -0.003187842434
     -0.695503234863      1.951056480410      0.003187842434
     -0.695503234863      2.000000000000     -0.003187842434
     -0.695503234863      2.000000000000      0.003187842434
     -0.695503234863      2.001593828200     -0.002760752570
     -0.695503234863      2.001593828200      0.002760752570
     -0.695503234863      2.002760648730     -0.001593921217
     -0.695503234863      2.002760648730      0.001593921217
     -0.695503234863      2.003187894820      0.000000000000
     -0.654508471489      0.000000000000     -0.005446227267
     -0.654508471489      0.000000000000      0.005446227267
     -0.654508471489      0.048943482339     -0.005446227267
     -0.654508471489      0.048943482339      0.005446227267
     -0.654508471489      0.190983012319     -0.005446227267
     -0.654508471489      0.190983012319      0.005446227267
     -0.654508471489      0.412214756012     -0.005446227267
     -0.654508471489      0.412214756012      0.005446227267
     -0.654508471489      0.690982997417     -0.005446227267
     -0.654508471489      0.690982997417      0.005446227267
     -0.654508471489      1.000000000000     -0.005446227267
     -0.654508471489      1.000000000000      0.005446227267
     -0.654508471489      1.309016942980     -0.005446227267
     -0.654508471489      1.309016942980      0.005446227267
     -0.654508471489      1.587785243990     -0.005446227267
     -0.654508471489      1.587785243990      0.005446227267
     -0.654508471489      1.809016942980     -0.005446227267
     -0.654508471489      1.809016942980      0.005446227267
     -0.654508471489      1.951056480410     -0.005446227267
     -0.654508471489      1.951056480410      0.005446227267
     -0.654508471489      2.000000000000     -0.005446227267
     -0.654508471489      2.000000000000      0.005446227267
     -0.654508471489      2.002723217010     -0.004716571420
     -0.654508471489      2.002723217010      0.004716571420
     -0.654508471489      2.004716634750     -0.002723113634
     -0.654508471489      2.004716634750      0.002723113634
     -0.654508471489      2.005446195600      0.000000000000
     -0.603553414345      0.000000000000     -0.008099365048
     -0.603553414345      0.000000000000      0.008099365048
     -0.603553414345      0.048943482339     -0.008099365048
     -0.603553414345      0.048943482339      0.008099365048
     -0.603553414345      0.190983012319     -0.008099365048
     -0.603553414345      0.190983012319      0.008099365048
     -0.603553414345      0.412214756012     -0.008099365048
     -0.603553414345      0.412214756012      0.008099365048
     -0.603553414345      0.690982997417     -0.008099365048
     -0.603553414345      0.690982997417      0.008099365048
     -0.603553414345      1.000000000000     -0.008099365048
     -0.603553414345      1.000000000000      0.008099365048
     -0.603553414345      1.309016942980     -0.008099365048
     -0.603553414345      1.309016942980      0.008099365048
     -0.603553414345      1.587785243990     -0.008099365048
     -0.603553414345      1.587785243990      0.008099365048
     -0.603553414345      1.809016942980     -0.008099365048
     -0.603553414345      1.809016942980      0.008099365048
     -0.603553414345      1.951056480410     -0.008099365048
     -0.603553414345      1.951056480410      0.008099365048
     -0.603553414345      2.000000000000     -0.008099365048
     -0.603553414345      2.000000000000      0.008099365048
     -0.603553414345      2.004049777980     -0.007014255971
     -0.603553414345      2.004049777980      0.007014255971
     -0.603553414345      2.007014274600     -0.004049682524
     -0.603553414345      2.007014274600      0.004049682524
     -0.603553414345      2.008099317550      0.000000000000
     -0.543892621994      0.000000000000     -0.011001937091
     -0.543892621994      0.000000000000      0.011001937091
     -0.543892621994      0.048943482339     -0.011001937091
     -0.543892621994      0.048943482339      0.011001937091
     -0.543892621994      0.190983012319     -0.011001937091
     -0.543892621994      0.190983012319      0.011001937091
     -0.543892621994      0.412214756012     -0.011001937091
     -0.543892621994      0.412214756012      0.011001937091
     -0.543892621994      0.690982997417     -0.011001937091
     -0.543892621994      0.690982997417      0.011001937091
     -0.543892621994      1.000000000000     -0.011001937091
     -0.543892621994      1.000000000000      0.011001937091
     -0.543892621994      1.309016942980     -0.011001937091
     -0.543892621994      1.309016942980      0.011001937091
     -0.543892621994      1.587785243990     -0.011001937091
[...]
CELL_DATA                1028
SCALARS sigma float 1
LOOKUP_TABLE default
     -0.152582841827
     -0.152582841827
     -0.151694352706
     -0.151694352706
     -0.150001377707
     -0.150001377707
     -0.147648248600
     -0.147648248600
     -0.144795189585
     -0.144795189585
     -0.141565964099
     -0.141565964099
     -0.137999532069
     -0.137999532069
     -0.134015327246
     -0.134015327246
     -0.129402616948
     -0.129402616948
     -0.123832254513
     -0.123832254513
     -0.116886067396
     -0.116886067396
     -0.108086999261
     -0.108086999261
     -0.096904631382
     -0.096904631382
     -0.082694116053
     -0.082694116053
     -0.064487063750
     -0.064487063750
     -0.040439612221
     -0.040439612221
     -0.006334031141
     -0.006334031141
      0.049277991648
      0.049277991648
      0.166891759542
      0.166891759542
      0.572877407327
      0.572877407327
      0.713634331889
      0.713634331889
      0.350433000917
      0.350433000917
      0.237797259537
      0.237797259537
      0.183533396849
      0.183533396849
      0.149938266773
      0.149938266773
      0.126105873126
      0.126105873126
      0.107981634314
      0.107981634314
      0.093787631719
      0.093787631719
      0.082588470094
      0.082588470094
      0.073757673072
      0.073757673072
      0.066774883149
      0.066774883149
      0.061167780634
      0.061167780634
      0.056519657930
      0.056519657930
      0.052501220556
      0.052501220556
      0.048901274334
      0.048901274334
      0.045639359743
      0.045639359743
      0.042755563362
      0.042755563362
      0.040375770676
      0.040375770676
      0.038662877839
      0.038662877839
      0.037763689495
      0.037763689495
     -0.152582841827
     -0.152582841827
     -0.151694352706
     -0.151694352706
     -0.150001377707
     -0.150001377707
     -0.147648248600
     -0.147648248600
     -0.144795189585
     -0.144795189585
     -0.141565964099
     -0.141565964099
     -0.137999532069
     -0.137999532069
     -0.134015327246
     -0.134015327246
     -0.129402616948
     -0.129402616948
     -0.123832254513
     -0.123832254513
     -0.116886067396
     -0.116886067396
     -0.108086999261
     -0.108086999261
     -0.096904631382
     -0.096904631382
     -0.082694116053
     -0.082694116053
     -0.064487063750
     -0.064487063750
     -0.040439612221
     -0.040439612221
     -0.006334031141
     -0.006334031141
      0.049277991648
      0.049277991648
      0.166891759542
      0.166891759542
      0.572877407327
      0.572877407327
      0.713634331889
      0.713634331889
      0.350433000917
      0.350433000917
      0.237797259537
      0.237797259537
      0.183533396849
      0.183533396849
      0.149938266773
      0.149938266773
      0.126105873126
      0.126105873126
      0.107981634314
      0.107981634314
      0.093787631719
      0.093787631719
      0.082588470094
      0.082588470094
      0.073757673072
      0.073757673072
      0.066774883149
      0.066774883149
      0.061167780634
      0.061167780634
      0.056519657930
      0.056519657930
      0.052501220556
      0.052501220556
      0.048901274334
      0.048901274334
      0.045639359743
      0.045639359743
      0.042755563362
      0.042755563362
      0.040375770676
      0.040375770676
      0.038662877839
      0.038662877839
      0.037763689495
      0.037763689495
     -0.152582841827
     -0.152582841827
     -0.151694352706
     -0.151694352706
     -0.150001377707
     -0.150001377707
     -0.147648248600
     -0.147648248600
     -0.144795189585
     -0.144795189585
     -0.141565964099
     -0.141565964099
     -0.137999532069
     -0.137999532069
     -0.134015327246
     -0.134015327246
     -0.129402616948
     -0.129402616948
     -0.123832254513
     -0.123832254513
     -0.116886067396
     -0.116886067396
     -0.108086999261
     -0.108086999261
     -0.096904631382
     -0.096904631382
     -0.082694116053
     -0.082694116053
     -0.064487063750
     -0.064487063750
     -0.040439612221
     -0.040439612221
     -0.006334031141
     -0.006334031141
      0.049277991648
      0.049277991648
      0.166891759542
      0.166891759542
      0.572877407327
      0.572877407327
      0.713634331889
      0.713634331889
      0.350433000917
      0.350433000917
      0.237797259537
      0.237797259537
      0.183533396849
      0.183533396849
      0.149938266773
      0.149938266773
      0.126105873126
      0.126105873126
      0.107981634314
      0.107981634314
      0.093787631719
      0.093787631719
      0.082588470094
      0.082588470094
      0.073757673072
      0.073757673072
      0.066774883149
      0.066774883149
      0.061167780634
      0.061167780634
      0.056519657930
      0.056519657930
      0.052501220556
      0.052501220556
      0.048901274334
      0.048901274334
      0.045639359743
      0.045639359743
      0.042755563362
      0.042755563362
      0.040375770676
      0.040375770676
      0.038662877839
      0.038662877839
      0.037763689495
      0.037763689495
     -0.152582841827
     -0.152582841827
     -0.151694352706
     -0.151694352706
     -0.150001377707
     -0.150001377707
     -0.147648248600
     -0.147648248600
     -0.144795189585
     -0.144795189585
     -0.141565964099
     -0.141565964099
     -0.137999532069
     -0.137999532069
     -0.134015327246
     -0.134015327246
     -0.129402616948
     -0.129402616948
     -0.123832254513
     -0.123832254513
     -0.116886067396
     -0.116886067396
     -0.108086999261
     -0.108086999261
     -0.096904631382
     -0.096904631382
     -0.082694116053
     -0.082694116053
     -0.064487063750
     -0.064487063750
     -0.040439612221
     -0.040439612221
     -0.006334031141
     -0.006334031141
      0.049277991648
      0.049277991648
      0.166891759542
      0.166891759542
      0.572877407327
      0.572877407327
      0.713634331889
      0.713634331889
      0.350433000917
      0.350433000917
      0.237797259537
      0.237797259537
      0.183533396849
      0.183533396849
      0.149938266773
      0.149938266773
      0.126105873126
      0.126105873126
      0.107981634314
      0.107981634314
      0.093787631719
      0.093787631719
      0.082588470094
      0.082588470094
      0.073757673072
      0.073757673072
      0.066774883149
      0.066774883149
      0.061167780634
      0.061167780634
      0.056519657930
      0.056519657930
      0.052501220556
      0.052501220556
      0.048901274334
      0.048901274334
      0.045639359743
      0.045639359743
      0.042755563362
      0.042755563362
      0.040375770676
      0.040375770676
      0.038662877839
      0.038662877839
      0.037763689495
      0.037763689495
     -0.152582841827
     -0.152582841827
     -0.151694352706
     -0.151694352706
     -0.150001377707
     -0.150001377707
     -0.147648248600
     -0.147648248600
     -0.144795189585
     -0.144795189585
     -0.141565964099
     -0.141565964099
     -0.137999532069
     -0.137999532069
     -0.134015327246
     -0.134015327246
     -0.129402616948
     -0.129402616948
     -0.123832254513
     -0.123832254513
     -0.116886067396
     -0.116886067396
     -0.108086999261
     -0.108086999261
     -0.096904631382
     -0.096904631382
     -0.082694116053
     -0.082694116053
     -0.064487063750
     -0.064487063750
     -0.040439612221
     -0.040439612221
     -0.006334031141
     -0.006334031141
      0.049277991648
      0.049277991648
      0.166891759542
      0.166891759542
      0.572877407327
      0.572877407327
      0.713634331889
      0.713634331889
      0.350433000917
      0.350433000917
      0.237797259537
      0.237797259537
      0.183533396849
      0.183533396849
      0.149938266773
      0.149938266773
      0.126105873126
      0.126105873126
      0.107981634314
      0.107981634314
      0.093787631719
      0.093787631719
      0.082588470094
      0.082588470094
      0.073757673072
      0.073757673072
      0.066774883149
      0.066774883149
      0.061167780634
      0.061167780634
      0.056519657930
      0.056519657930
      0.052501220556
      0.052501220556
      0.048901274334
      0.048901274334
      0.045639359743
      0.045639359743
      0.042755563362
      0.042755563362
      0.040375770676
      0.040375770676
      0.038662877839
      0.038662877839
      0.037763689495
      0.037763689495
     -0.152582841827
     -0.152582841827
     -0.151694352706
     -0.151694352706
     -0.150001377707
     -0.150001377707
     -0.147648248600
     -0.147648248600
     -0.144795189585
     -0.144795189585
     -0.141565964099
     -0.141565964099
     -0.137999532069
     -0.137999532069
     -0.134015327246
     -0.134015327246
     -0.129402616948
     -0.129402616948
     -0.123832254513
     -0.123832254513
     -0.116886067396
     -0.116886067396
     -0.108086999261
     -0.108086999261
     -0.096904631382
     -0.096904631382
     -0.082694116053
     -0.082694116053
     -0.064487063750
     -0.064487063750
     -0.040439612221
     -0.040439612221
     -0.006334031141
     -0.006334031141
      0.049277991648
      0.049277991648
      0.166891759542
      0.166891759542
      0.572877407327
      0.572877407327
      0.713634331889
      0.713634331889
      0.350433000917
      0.350433000917
      0.237797259537
      0.237797259537
      0.183533396849
      0.183533396849
      0.149938266773
      0.149938266773
      0.126105873126
      0.126105873126
      0.107981634314
      0.107981634314
      0.093787631719
      0.093787631719
      0.082588470094
      0.082588470094
      0.073757673072
      0.073757673072
      0.066774883149
      0.066774883149
      0.061167780634
      0.061167780634
      0.056519657930
      0.056519657930
      0.052501220556
      0.052501220556
      0.048901274334
      0.048901274334
      0.045639359743
      0.045639359743
      0.042755563362
      0.042755563362
      0.040375770676
      0.040375770676
      0.038662877839
      0.038662877839
      0.037763689495
      0.037763689495
     -0.152582841827
     -0.152582841827
     -0.151694352706
     -0.151694352706
     -0.150001377707
     -0.150001377707
     -0.147648248600
     -0.147648248600
     -0.144795189585
     -0.144795189585
     -0.141565964099
     -0.141565964099
     -0.137999532069
     -0.137999532069
     -0.134015327246
     -0.134015327246
     -0.129402616948
     -0.129402616948
     -0.123832254513
     -0.123832254513
     -0.116886067396
     -0.116886067396
     -0.108086999261
     -0.108086999261
     -0.096904631382
     -0.096904631382
     -0.082694116053
     -0.082694116053
     -0.064487063750
     -0.064487063750
     -0.040439612221
     -0.040439612221
     -0.006334031141
     -0.006334031141
      0.049277991648
      0.049277991648
      0.166891759542
      0.166891759542
      0.572877407327
      0.572877407327
      0.713634331889
      0.713634331889
      0.350433000917
      0.350433000917
      0.237797259537
      0.237797259537
      0.183533396849
      0.183533396849
      0.149938266773
      0.149938266773
      0.126105873126
      0.126105873126
      0.107981634314
      0.107981634314
      0.093787631719
      0.093787631719
      0.082588470094
      0.082588470094
      0.073757673072
      0.073757673072
      0.066774883149
      0.066774883149
      0.061167780634
      0.061167780634
      0.056519657930
      0.056519657930
      0.052501220556
      0.052501220556
      0.048901274334
      0.048901274334
      0.045639359743
      0.045639359743
      0.042755563362
      0.042755563362
      0.040375770676
      0.040375770676
      0.038662877839
      0.038662877839
      0.037763689495
      0.037763689495
     -0.152582841827
     -0.152582841827
     -0.151694352706
     -0.151694352706
     -0.150001377707
     -0.150001377707
     -0.147648248600
     -0.147648248600
     -0.144795189585
     -0.144795189585
     -0.141565964099
     -0.141565964099
     -0.137999532069
     -0.137999532069
     -0.134015327246
     -0.134015327246
     -0.129402616948
     -0.129402616948
     -0.123832254513
     -0.123832254513
     -0.116886067396
     -0.116886067396
     -0.108086999261
     -0.108086999261
     -0.096904631382
     -0.096904631382
     -0.082694116053
     -0.082694116053
     -0.064487063750
     -0.064487063750
     -0.040439612221
     -0.040439612221
     -0.006334031141
     -0.006334031141
      0.049277991648
      0.049277991648
      0.166891759542
      0.166891759542
      0.572877407327
      0.572877407327
      0.713634331889
      0.713634331889
      0.350433000917
      0.350433000917
      0.237797259537
      0.237797259537
      0.183533396849
      0.183533396849
      0.149938266773
      0.149938266773
      0.126105873126
      0.126105873126
      0.107981634314
      0.107981634314
      0.093787631719
      0.093787631719
      0.082588470094
      0.082588470094
      0.073757673072
      0.073757673072
      0.066774883149
      0.066774883149
      0.061167780634
      0.061167780634
      0.056519657930
      0.056519657930
      0.052501220556
      0.052501220556
      0.048901274334
      0.048901274334
      0.045639359743
      0.045639359743
      0.042755563362
      0.042755563362
      0.040375770676
      0.040375770676
      0.038662877839
      0.038662877839
      0.037763689495
      0.037763689495
     -0.152582841827
     -0.152582841827
     -0.151694352706
     -0.151694352706
     -0.150001377707
     -0.150001377707
     -0.147648248600
     -0.147648248600
     -0.144795189585
     -0.144795189585
     -0.141565964099
     -0.141565964099
     -0.137999532069
     -0.137999532069
     -0.134015327246
     -0.134015327246
     -0.129402616948
     -0.129402616948
     -0.123832254513
     -0.123832254513
     -0.116886067396
     -0.116886067396
     -0.108086999261
     -0.108086999261
     -0.096904631382
     -0.096904631382
     -0.082694116053
     -0.082694116053
     -0.064487063750
     -0.064487063750
     -0.040439612221
     -0.040439612221
     -0.006334031141
     -0.006334031141
      0.049277991648
      0.049277991648
      0.166891759542
      0.166891759542
      0.572877407327
      0.572877407327
      0.713634331889
      0.713634331889
      0.350433000917
      0.350433000917
      0.237797259537
      0.237797259537
      0.183533396849
      0.183533396849
      0.149938266773
      0.149938266773
      0.126105873126
      0.126105873126
      0.107981634314
      0.107981634314
      0.093787631719
      0.093787631719
      0.082588470094
      0.082588470094
      0.073757673072
      0.073757673072
      0.066774883149
      0.066774883149
      0.061167780634
      0.061167780634
      0.056519657930
      0.056519657930
      0.052501220556
      0.052501220556
      0.048901274334
      0.048901274334
      0.045639359743
      0.045639359743
      0.042755563362
      0.042755563362
      0.040375770676
      0.040375770676
      0.038662877839
      0.038662877839
      0.037763689495
      0.037763689495
     -0.152582841827
     -0.152582841827
     -0.151694352706
     -0.151694352706
     -0.150001377707
     -0.150001377707
     -0.147648248600
     -0.147648248600
     -0.144795189585
     -0.144795189585
     -0.141565964099
     -0.141565964099
     -0.137999532069
     -0.137999532069
     -0.134015327246
     -0.134015327246
     -0.129402616948
     -0.129402616948
     -0.123832254513
     -0.123832254513
     -0.116886067396
     -0.116886067396
     -0.108086999261
     -0.108086999261
     -0.096904631382
     -0.096904631382
     -0.082694116053
     -0.082694116053
     -0.064487063750
     -0.064487063750
     -0.040439612221
     -0.040439612221
     -0.006334031141
     -0.006334031141
      0.049277991648
      0.049277991648
      0.166891759542
      0.166891759542
      0.572877407327
      0.572877407327
      0.713634331889
      0.713634331889
      0.350433000917
      0.350433000917
      0.237797259537
      0.237797259537
      0.183533396849
      0.183533396849
      0.149938266773
      0.149938266773
      0.126105873126
      0.126105873126
      0.107981634314
      0.107981634314
      0.093787631719
      0.093787631719
      0.082588470094
      0.082588470094
      0.073757673072
      0.073757673072
      0.066774883149
      0.066774883149
      0.061167780634
      0.061167780634
      0.056519657930
      0.056519657930
      0.052501220556
      0.052501220556
      0.048901274334
      0.048901274334
      0.045639359743
      0.045639359743
      0.042755563362
      0.042755563362
      0.040375770676
      0.040375770676
      0.038662877839
      0.038662877839
      0.037763689495
      0.037763689495
     -0.221288106055
     -0.220444618303
     -0.220431208413
     -0.218815325249
     -0.218826495159
     -0.216562868045
     -0.216558039517
     -0.213810623934
     -0.213811307429
     -0.210702293525
     -0.210702817479
     -0.207269598859
     -0.207267901651
     -0.203431742105
     -0.203431571133
     -0.198986480641
     -0.198987201831
     -0.193617457842
     -0.193617648365
     -0.186919723798
     -0.186920086378
     -0.178430659914
     -0.178430922260
     -0.167634881853
     -0.167635888583
     -0.153903058800
     -0.153903197870
     -0.136288554777
     -0.136288661953
     -0.112984730866
     -0.112984675043
     -0.079854249311
     -0.079852869506
     -0.025608882082
     -0.025610946264
      0.090171921699
      0.090171584814
      0.506489744036
     -0.324697747482
     -0.323855327092
     -0.323839013575
     -0.322230084883
     -0.322214557622
     -0.319967091001
     -0.319967543430
     -0.317233916772
     -0.317233336832
     -0.314141041659
     -0.314141001767
     -0.310722498129
     -0.310721733489
     -0.306901273391
     -0.306901411884
     -0.302477115481
     -0.302474210390
     -0.297125543559
     -0.297125509805
     -0.290446095943
     -0.290446153782
     -0.281970737813
     -0.281970944830
     -0.271185991963
     -0.271182419929
     -0.257443672323
     -0.257443698816
     -0.239787425123
     -0.239788376854
     -0.216375164344
     -0.216374490028
     -0.182984630012
     -0.182985641489
     -0.128061671291
     -0.128055488667
     -0.009739573599
     -0.009741470677
      0.428862726696
     -0.355901271589
     -0.355068712024
     -0.355073762698
     -0.353457914085
     -0.353458505413
     -0.351215422067
     -0.351206872723
     -0.348480871155
     -0.348482302711
     -0.345393764050
     -0.345393983193
     -0.341982586695
     -0.341982390852
     -0.338166935577
     -0.338167832416
     -0.333744927566
     -0.333748066066
     -0.328401899067
     -0.328400083379
     -0.321729267149
     -0.321728494508
     -0.313259893210
     -0.313258997247
     -0.302473378915
     -0.302474789990
     -0.288730736384
     -0.288732730609
     -0.271063394836
     -0.271063079401
     -0.247614953934
     -0.247614650003
     -0.214150288249
     -0.214150077194
     -0.159012480923
     -0.159015306416
     -0.039931835758
     -0.039934098463
      0.405408469215
     -0.306775462690
     -0.305945438640
     -0.305783633776
     -0.304168632435
     -0.304162414134
     -0.301905506398
     -0.301932418532
     -0.299192556480
     -0.299194319338
     -0.296095918161
     -0.296096120213
     -0.292676246503
     -0.292676709022
     -0.288853740380
     -0.288850917185
     -0.284419220649
     -0.284420355108
     -0.279062359002
     -0.279067158016
     -0.272384914046
     -0.272386822296
     -0.263908963932
     -0.263910620054
     -0.253120183473
     -0.253120159623
     -0.239380269503
     -0.239380118202
     -0.221730617650
     -0.221731265331
     -0.198334473098
     -0.198335078929
     -0.164993700879
     -0.164993742194
     -0.110182815874