# vtk DataFile Version 3.0
MachLine results file. Generated by MachLine, USU AeroLab (c) 2022.
ASCII
DATASET POLYDATA
POINTS                 704 float
  0.476456375309E-05  0.000000000000E+00  0.000000000000E+00
  0.447911218842E-05  0.421052634716E+00  0.000000000000E+00
  0.447911189904E-05  0.842105269432E+00  0.182066632791E-21
  0.447911236849E-05  0.126315784454E+01  0.000000000000E+00
  0.447911258705E-05  0.168421053886E+01  0.000000000000E+00
  0.447911142965E-05  0.210526323318E+01  0.000000000000E+00
  0.447911214996E-05  0.252631568909E+01  0.000000000000E+00
  0.447911258705E-05  0.294736838341E+01  0.000000000000E+00
  0.447911258705E-05  0.336842107773E+01  0.000000000000E+00
  0.447911258705E-05  0.378947377205E+01  0.000000000000E+00
  0.447911142961E-05  0.421052646637E+01  0.000000000000E+00
  0.447911099250E-05  0.463157892227E+01  0.000000000000E+00
  0.447911330738E-05  0.505263137817E+01  0.000000000000E+00
  0.447911186676E-05  0.547368431091E+01  0.000000000000E+00
  0.447911330735E-05  0.589473676682E+01  0.000000000000E+00
  0.447911186674E-05  0.631578969955E+01  0.000000000000E+00
  0.447911099252E-05  0.673684215546E+01  0.000000000000E+00
  0.447911330738E-05  0.715789461136E+01  0.000000000000E+00
  0.447911186671E-05  0.757894754410E+01  0.000000000000E+00
  0.254366756317E-05  0.799999770501E+01  0.808768670280E-21
  0.257793408580E+00  0.000000000000E+00 -0.131795675270E+00
  0.257793408580E+00  0.000000000000E+00  0.131795675270E+00
  0.257793646802E+00  0.421052634716E+00 -0.131795735340E+00
  0.257793646802E+00  0.421052634716E+00  0.131795735340E+00
  0.257793646802E+00  0.842105269432E+00 -0.131795735340E+00
  0.257793646802E+00  0.842105269432E+00  0.131795735340E+00
  0.257793646802E+00  0.126315784454E+01 -0.131795735340E+00
  0.257793646802E+00  0.126315784454E+01  0.131795735340E+00
  0.257793646802E+00  0.168421053886E+01 -0.131795735340E+00
  0.257793646802E+00  0.168421053886E+01  0.131795735340E+00
  0.257793646802E+00  0.210526323318E+01 -0.131795735341E+00
  0.257793646802E+00  0.210526323318E+01  0.131795735341E+00
  0.257793646802E+00  0.252631568909E+01 -0.131795735341E+00
  0.257793646802E+00  0.252631568909E+01  0.131795735341E+00
  0.257793646802E+00  0.294736838341E+01 -0.131795735340E+00
  0.257793646802E+00  0.294736838341E+01  0.131795735340E+00
  0.257793646802E+00  0.336842107773E+01 -0.131795735340E+00
  0.257793646802E+00  0.336842107773E+01  0.131795735340E+00
  0.257793646802E+00  0.378947377205E+01 -0.131795735340E+00
  0.257793646802E+00  0.378947377205E+01  0.131795735340E+00
  0.257793646802E+00  0.421052646637E+01 -0.131795735341E+00
  0.257793646802E+00  0.421052646637E+01  0.131795735341E+00
  0.257793646801E+00  0.463157892227E+01 -0.131795735341E+00
  0.257793646801E+00  0.463157892227E+01  0.131795735341E+00
  0.257793646802E+00  0.505263137817E+01 -0.131795735340E+00
  0.257793646802E+00  0.505263137817E+01  0.131795735340E+00
  0.257793646802E+00  0.547368431091E+01 -0.131795735340E+00
  0.257793646802E+00  0.547368431091E+01  0.131795735340E+00
  0.257793646802E+00  0.589473676682E+01 -0.131795735340E+00
  0.257793646802E+00  0.589473676682E+01  0.131795735340E+00
  0.257793646802E+00  0.631578969955E+01 -0.131795735340E+00
  0.257793646802E+00  0.631578969955E+01  0.131795735340E+00
  0.257793646801E+00  0.673684215546E+01 -0.131795735341E+00
  0.257793646801E+00  0.673684215546E+01  0.131795735341E+00
  0.257793646802E+00  0.715789461136E+01 -0.131795735340E+00
  0.257793646802E+00  0.715789461136E+01  0.131795735340E+00
  0.257793646802E+00  0.757894754410E+01 -0.131795735340E+00
  0.257793646802E+00  0.757894754410E+01  0.131795735340E+00
  0.257793344885E+00  0.799999933573E+01 -0.131796711276E+00
  0.257793344885E+00  0.799999933573E+01  0.131796711276E+00
  0.257792938451E+00  0.809319512484E+01 -0.931951994684E-01
  0.257792938451E+00  0.809319512484E+01  0.931951994684E-01
  0.257792941477E+00  0.813179767392E+01 -0.140524563986E-15
  0.536311090991E+00  0.000000000000E+00 -0.172265355624E+00
  0.536311090991E+00  0.000000000000E+00  0.172265355624E+00
  0.536311145390E+00  0.421052634716E+00 -0.172265343805E+00
  0.536311145390E+00  0.421052634716E+00  0.172265343805E+00
  0.536311145389E+00  0.842105269432E+00 -0.172265343805E+00
  0.536311145389E+00  0.842105269432E+00  0.172265343805E+00
  0.536311145390E+00  0.126315784454E+01 -0.172265343805E+00
  0.536311145390E+00  0.126315784454E+01  0.172265343805E+00
  0.536311145390E+00  0.168421053886E+01 -0.172265343804E+00
  0.536311145390E+00  0.168421053886E+01  0.172265343804E+00
  0.536311145389E+00  0.210526323318E+01 -0.172265343805E+00
  0.536311145389E+00  0.210526323318E+01  0.172265343805E+00
  0.536311145389E+00  0.252631568909E+01 -0.172265343805E+00
  0.536311145389E+00  0.252631568909E+01  0.172265343805E+00
  0.536311145390E+00  0.294736838341E+01 -0.172265343804E+00
  0.536311145390E+00  0.294736838341E+01  0.172265343804E+00
  0.536311145390E+00  0.336842107773E+01 -0.172265343804E+00
  0.536311145390E+00  0.336842107773E+01  0.172265343804E+00
  0.536311145390E+00  0.378947377205E+01 -0.172265343804E+00
  0.536311145390E+00  0.378947377205E+01  0.172265343804E+00
  0.536311145389E+00  0.421052646637E+01 -0.172265343805E+00
  0.536311145389E+00  0.421052646637E+01  0.172265343805E+00
  0.536311145389E+00  0.463157892227E+01 -0.172265343806E+00
  0.536311145389E+00  0.463157892227E+01  0.172265343806E+00
  0.536311145390E+00  0.505263137817E+01 -0.172265343804E+00
  0.536311145390E+00  0.505263137817E+01  0.172265343804E+00
  0.536311145390E+00  0.547368431091E+01 -0.172265343804E+00
  0.536311145390E+00  0.547368431091E+01  0.172265343804E+00
  0.536311145390E+00  0.589473676682E+01 -0.172265343804E+00
  0.536311145390E+00  0.589473676682E+01  0.172265343804E+00
  0.536311145390E+00  0.631578969955E+01 -0.172265343804E+00
  0.536311145390E+00  0.631578969955E+01  0.172265343804E+00
  0.536311145389E+00  0.673684215546E+01 -0.172265343806E+00
  0.536311145389E+00  0.673684215546E+01  0.172265343806E+00
  0.536311145390E+00  0.715789461136E+01 -0.172265343804E+00
  0.536311145390E+00  0.715789461136E+01  0.172265343804E+00
  0.536311145390E+00  0.757894754410E+01 -0.172265343804E+00
  0.536311145390E+00  0.757894754410E+01  0.172265343804E+00
  0.536311043437E+00  0.799999932197E+01 -0.172266299248E+00
  0.536311043437E+00  0.799999932197E+01  0.172266299248E+00
  0.536310951866E+00  0.812181100008E+01 -0.121811262543E+00
  0.536310951866E+00  0.812181100008E+01  0.121811262543E+00
  0.536310984225E+00  0.817226724107E+01  0.124536798326E-17
  0.799721193196E+00  0.000000000000E+00 -0.191199284362E+00
  0.799721193196E+00  0.000000000000E+00  0.191199284362E+00
  0.799721223010E+00  0.421052634716E+00 -0.191199272934E+00
  0.799721223010E+00  0.421052634716E+00  0.191199272934E+00
  0.799721223010E+00  0.842105269432E+00 -0.191199272934E+00
  0.799721223010E+00  0.842105269432E+00  0.191199272934E+00
  0.799721223010E+00  0.126315784454E+01 -0.191199272934E+00
  0.799721223010E+00  0.126315784454E+01  0.191199272934E+00
  0.799721223010E+00  0.168421053886E+01 -0.191199272934E+00
  0.799721223010E+00  0.168421053886E+01  0.191199272934E+00
  0.799721223010E+00  0.210526323318E+01 -0.191199272935E+00
  0.799721223010E+00  0.210526323318E+01  0.191199272935E+00
  0.799721223010E+00  0.252631568909E+01 -0.191199272935E+00
  0.799721223010E+00  0.252631568909E+01  0.191199272935E+00
  0.799721223010E+00  0.294736838341E+01 -0.191199272934E+00
  0.799721223010E+00  0.294736838341E+01  0.191199272934E+00
  0.799721223010E+00  0.336842107773E+01 -0.191199272934E+00
  0.799721223010E+00  0.336842107773E+01  0.191199272934E+00
  0.799721223010E+00  0.378947377205E+01 -0.191199272934E+00
  0.799721223010E+00  0.378947377205E+01  0.191199272934E+00
  0.799721223010E+00  0.421052646637E+01 -0.191199272935E+00
  0.799721223010E+00  0.421052646637E+01  0.191199272935E+00
  0.799721223010E+00  0.463157892227E+01 -0.191199272935E+00
  0.799721223010E+00  0.463157892227E+01  0.191199272935E+00
  0.799721223010E+00  0.505263137817E+01 -0.191199272934E+00
  0.799721223010E+00  0.505263137817E+01  0.191199272934E+00
  0.799721223010E+00  0.547368431091E+01 -0.191199272934E+00
  0.799721223010E+00  0.547368431091E+01  0.191199272934E+00
  0.799721223010E+00  0.589473676682E+01 -0.191199272934E+00
  0.799721223010E+00  0.589473676682E+01  0.191199272934E+00
  0.799721223010E+00  0.631578969955E+01 -0.191199272934E+00
  0.799721223010E+00  0.631578969955E+01  0.191199272934E+00
  0.799721223010E+00  0.673684215546E+01 -0.191199272935E+00
  0.799721223010E+00  0.673684215546E+01  0.191199272935E+00
  0.799721223010E+00  0.715789461136E+01 -0.191199272934E+00
  0.799721223010E+00  0.715789461136E+01  0.191199272934E+00
  0.799721223010E+00  0.757894754410E+01 -0.191199272934E+00
  0.799721223010E+00  0.757894754410E+01  0.191199272934E+00
  0.799721176061E+00  0.799999933141E+01 -0.191200204690E+00
  0.799721176061E+00  0.799999933141E+01  0.191200204690E+00
  0.799721134022E+00  0.813519964457E+01 -0.135199525819E+00
  0.799721134022E+00  0.813519964457E+01  0.135199525819E+00
  0.799721152158E+00  0.819120054732E+01 -0.320712640167E-17
  0.105025952291E+01  0.000000000000E+00 -0.198939228890E+00
  0.105025952291E+01  0.000000000000E+00  0.198939228890E+00
  0.105025954267E+01  0.421052634716E+00 -0.198939219847E+00
  0.105025954267E+01  0.421052634716E+00  0.198939219847E+00
  0.105025954267E+01  0.842105269432E+00 -0.198939219847E+00
  0.105025954267E+01  0.842105269432E+00  0.198939219847E+00
  0.105025954267E+01  0.126315784454E+01 -0.198939219847E+00
  0.105025954267E+01  0.126315784454E+01  0.198939219847E+00
  0.105025954267E+01  0.168421053886E+01 -0.198939219846E+00
  0.105025954267E+01  0.168421053886E+01  0.198939219846E+00
  0.105025954267E+01  0.210526323318E+01 -0.198939219847E+00
  0.105025954267E+01  0.210526323318E+01  0.198939219847E+00
[...]
POINT_DATA                 704
SCALARS phi float 1
LOOKUP_TABLE default
 -0.446331007125E-05
 -0.120441488563E+00
 -0.240878863526E+00
 -0.361316223469E+00
 -0.481753618988E+00
 -0.602191015788E+00
 -0.722628345532E+00
 -0.843065744475E+00
 -0.963503144304E+00
 -0.108394054493E+01
 -0.120437794626E+01
 -0.132481528006E+01
 -0.144525261446E+01
 -0.156569008581E+01
 -0.168612742127E+01
 -0.180656489363E+01
 -0.192700223035E+01
 -0.204743956900E+01
 -0.216787704378E+01
 -0.228831187343E+01
 -0.233230223274E+00
 -0.258362358998E+00
 -0.353667958383E+00
 -0.378799680665E+00
 -0.474105319128E+00
 -0.499237064902E+00
 -0.594542677706E+00
 -0.619674425160E+00
 -0.714980071513E+00
 -0.740111822202E+00
 -0.835417464404E+00
 -0.860549223065E+00
 -0.955854788004E+00
 -0.980986559266E+00
 -0.107629217887E+01
 -0.110142396666E+01
 -0.119672956899E+01
 -0.122186137661E+01
 -0.131716695842E+01
 -0.134229878881E+01
 -0.143760434714E+01
 -0.146273620316E+01
 -0.155804166687E+01
 -0.158317355142E+01
 -0.167847898570E+01
 -0.170361090181E+01
 -0.179891643993E+01
 -0.182404839074E+01
 -0.191935375674E+01
 -0.194448574540E+01
 -0.203979120907E+01
 -0.206492323854E+01
 -0.216022852537E+01
 -0.218536059738E+01
 -0.228066585094E+01
 -0.230579795830E+01
 -0.240110331862E+01
 -0.242623545550E+01
 -0.252154004310E+01
 -0.254667242806E+01
 -0.255187772942E+01
 -0.256964918253E+01
 -0.257180528498E+01
 -0.494927952660E+00
 -0.527777019013E+00
 -0.615365716485E+00
 -0.648213973229E+00
 -0.735803080885E+00
 -0.768651352202E+00
 -0.856240441438E+00
 -0.889088710078E+00
 -0.976677833687E+00
 -0.100952610880E+01
 -0.109711522170E+01
 -0.112996351486E+01
 -0.121755253781E+01
 -0.125040085891E+01
 -0.133798991923E+01
 -0.137083827606E+01
 -0.145842729836E+01
 -0.149127569719E+01
 -0.157886467545E+01
 -0.161171312183E+01
 -0.169930205047E+01
 -0.173215054988E+01
 -0.181973935500E+01
 -0.185258791328E+01
 -0.194017665698E+01
 -0.197302528043E+01
 -0.206061409258E+01
 -0.209346278788E+01
 -0.218105138888E+01
 -0.221390016299E+01
 -0.230148881875E+01
 -0.233433767869E+01
 -0.242192611084E+01
 -0.245477506248E+01
 -0.254236341285E+01
 -0.257521245123E+01
 -0.266280086288E+01
 -0.269565002516E+01
 -0.278323763545E+01
 -0.281608721403E+01
 -0.282289105660E+01
 -0.284611934606E+01
 -0.284893767421E+01
 -0.744274298012E+00
 -0.780734013668E+00
 -0.864712072607E+00
 -0.901170900336E+00
 -0.985149404670E+00
 -0.102160830834E+01
 -0.110558678101E+01
 -0.114204565286E+01
 -0.122602421249E+01
 -0.126248301849E+01
 -0.134646162344E+01
 -0.138292040579E+01
 -0.146689894691E+01
 -0.150335774471E+01
 -0.158733633002E+01
 -0.162379516166E+01
 -0.170777370904E+01
 -0.174423258409E+01
 -0.182821108540E+01
 -0.186467001048E+01
 -0.194864845939E+01
 -0.198510744051E+01
 -0.206908576262E+01
 -0.210554480612E+01
 -0.218952306298E+01
 -0.222598217577E+01
 -0.230996049656E+01
 -0.234641968608E+01
 -0.243039779025E+01
 -0.246685706437E+01
 -0.255083521637E+01
 -0.258729458353E+01
 -0.267127250087E+01
 -0.270773197095E+01
 -0.279170977603E+01
 -0.282816936342E+01
 -0.291214717541E+01
 -0.294860689863E+01
 -0.303258411735E+01
 -0.306904415171E+01
 -0.307659599233E+01
 -0.310237726231E+01
 -0.310550507491E+01
 -0.982415339886E+00
 -0.102035081462E+01
 -0.110285321791E+01
 -0.114078757171E+01
 -0.122329055312E+01
 -0.126122497626E+01
 -0.134372795708E+01
 -0.138166229640E+01
 -0.146416544511E+01
 -0.150209961335E+01
 -0.158460287345E+01
 -0.162253698692E+01
 -0.170504019218E+01
 -0.174297433177E+01
 -0.182547756599E+01
 -0.186341175873E+01
 -0.194591493452E+01
 -0.198384919218E+01
 -0.206635229972E+01
 -0.210428663015E+01
 -0.218678966169E+01
 -0.222472407251E+01
 -0.230722695172E+01
 -0.234516145162E+01
 -0.242766423733E+01
 -0.246559883632E+01
 -0.254810165441E+01
 -0.258603636347E+01
 -0.266853892972E+01
 -0.270647376058E+01
 -0.278897633543E+01
 -0.282691130066E+01
 -0.290941359758E+01
 -0.294734871142E+01
 -0.302985084991E+01
 -0.306778613033E+01
 -0.315028822584E+01
 -0.318822369660E+01
 -0.327072516641E+01
 -0.330866101579E+01
 -0.331651872337E+01
 -0.334334356632E+01
 -0.334659800675E+01
 -0.121170593827E+01
 -0.124977960332E+01
 -0.133214399305E+01
 -0.137021617378E+01
 -0.145258134690E+01
 -0.149065356144E+01
 -0.157301876483E+01
 -0.161109086981E+01
 -0.169345575907E+01
 -0.173152862743E+01
 -0.181389309909E+01
 -0.185196607964E+01
 -0.193433039742E+01
 -0.197240344395E+01
 -0.205476777006E+01
 -0.209284087346E+01
 -0.217520514623E+01
 -0.221327830153E+01
 -0.229564252956E+01
 -0.233371572476E+01
 -0.241607993284E+01
 -0.245415313208E+01
 -0.253651728068E+01
 -0.257459046190E+01
 -0.265695460031E+01
 -0.269502781832E+01
 -0.277739203159E+01
 -0.281546533480E+01
 -0.289782931398E+01
 -0.293590272776E+01
 -0.301826672457E+01
 -0.305634026602E+01
 -0.313870399148E+01
 -0.317677767575E+01
 -0.325914125040E+01
 -0.329721509357E+01
 -0.337957863533E+01
 -0.341765265690E+01
 -0.350001560607E+01
 -0.353808999515E+01
 -0.354597624016E+01
 -0.357289904214E+01
 -0.357616560867E+01
 -0.143453737319E+01
 -0.147182473432E+01
 -0.155497545634E+01
 -0.159226125335E+01
 -0.167541276173E+01
 -0.171269868385E+01
 -0.179585007143E+01
 -0.183313608783E+01
 -0.191628738794E+01
 -0.195357355740E+01
 -0.203672472530E+01
 -0.207401101444E+01
 -0.215716201559E+01
 -0.219444838836E+01
 -0.227759938048E+01
 -0.231488582693E+01
 -0.239803675025E+01
 -0.243532326249E+01
 -0.251847413086E+01
 -0.255576068966E+01
 -0.263891155427E+01
 -0.267619808060E+01
 -0.275934895318E+01
 -0.279663536700E+01
 -0.287978628241E+01
 -0.291707271693E+01
 -0.300022370045E+01
 -0.303751024744E+01
 -0.312066096414E+01
 -0.315794765964E+01
 -0.324109835316E+01
 -0.327838522005E+01
 -0.336153559575E+01
 -0.339882265477E+01
 -0.348197282705E+01
 -0.351926010100E+01
 -0.360241017942E+01
 -0.363969769802E+01
 -0.372284713069E+01
 -0.376013509406E+01
 -0.376785869678E+01
 -0.379422543045E+01
 -0.379742441204E+01
 -0.165318579527E+01
 -0.168899477609E+01
 -0.177362405716E+01
 -0.180943110727E+01
 -0.189406137998E+01
 -0.192986852205E+01
 -0.201449869771E+01
 -0.205030592082E+01
 -0.213493603025E+01
 -0.217074337964E+01
 -0.225537336421E+01
 -0.229118084335E+01
 -0.237581063904E+01
 -0.241161823430E+01
 -0.249624798796E+01
 -0.253205568979E+01
 -0.261668534314E+01
 -0.265249314043E+01
 -0.273712271079E+01
 -0.277293058077E+01
 -0.285756013164E+01
 -0.289336797551E+01
 -0.297799703852E+01
 -0.301380570257E+01
 -0.309843428987E+01
 -0.313424312220E+01
 -0.321887170288E+01
 -0.325468065848E+01
 -0.333930898076E+01
 -0.337511805968E+01
 -0.345974639209E+01
 -0.349555560208E+01
 -0.358018366426E+01
 -0.361599301248E+01
 -0.370062093734E+01
 -0.373643042379E+01
 -0.382105834386E+01
 -0.385686797494E+01
 -0.394149534898E+01
 -0.397730535629E+01
 -0.398472279075E+01
 -0.401004443915E+01
 -0.401311673220E+01
 -0.186982081349E+01
 -0.190360135911E+01
 -0.199025907972E+01
 -0.202403758549E+01
 -0.211069636833E+01
 -0.214447503128E+01
 -0.223113368542E+01
 -0.226491243355E+01
 -0.235157103496E+01
 -0.238534988176E+01
 -0.247200838093E+01
 -0.250578733927E+01
 -0.259244565903E+01
 -0.262622473099E+01
 -0.271288300829E+01
 -0.274666218885E+01
 -0.283332036026E+01
 -0.286709964400E+01
 -0.295375771004E+01
 -0.298753710105E+01
 -0.307419504049E+01
 -0.310797457609E+01
 -0.319463226841E+01
 -0.322841201523E+01
 -0.331506951951E+01
 -0.334884943687E+01
 -0.343550692503E+01
 -0.346928698207E+01
 -0.355594419328E+01
 -0.358972439450E+01
 -0.367638159364E+01
 -0.371016194967E+01
 -0.379681885452E+01
 -0.383059937358E+01
 -0.391725612420E+01
 -0.395103679224E+01
 -0.403769354230E+01
 -0.407147433919E+01
 -0.415813059564E+01
 -0.419191174920E+01
 -0.419890921737E+01
 -0.422279628078E+01
 -0.422569455200E+01
 -0.208656786779E+01
 -0.211784895438E+01
 -0.220700632479E+01
 -0.223828502524E+01
 -0.232744362855E+01
 -0.235872245843E+01
 -0.244788093122E+01
 -0.247915987818E+01
 -0.256831825466E+01
 -0.259959735588E+01
 -0.268875557262E+01
 -0.272003484443E+01
 -0.280919282584E+01
 -0.284047226334E+01
 -0.292963015543E+01
 -0.296090974230E+01
 -0.305006749320E+01
 -0.308134721229E+01
 -0.317050483387E+01
 -0.320178467867E+01
 -0.329094216562E+01
 -0.332222215360E+01
 -0.341137941163E+01
 -0.344265957830E+01
 -0.353181665723E+01
 -0.356309700709E+01
 -0.365225403999E+01
 -0.368353457539E+01
 -0.377269128012E+01
 -0.380397201621E+01
 -0.389312864859E+01
 -0.392440960363E+01
 -0.401356587403E+01
 -0.404484706363E+01
 -0.413400311392E+01
 -0.416528451465E+01
 -0.425444026712E+01
 -0.428572229396E+01
 -0.437487726332E+01
 -0.440615973766E+01
 -0.441263954382E+01
 -0.443475974920E+01
 -0.443744360110E+01
 -0.230557561311E+01
 -0.233392631751E+01
 -0.242601388605E+01
 -0.245436253602E+01
 -0.254645116264E+01
 -0.257480003993E+01
 -0.266688857885E+01
 -0.269523742711E+01
 -0.278732598130E+01
 -0.281567479151E+01
 -0.290776332591E+01
 -0.293611220607E+01
 -0.302820059495E+01
 -0.305654960005E+01
 -0.314863793904E+01
 -0.317698706443E+01
 -0.326907529250E+01
 -0.329742451989E+01
 -0.338951265239E+01
 -0.341786196829E+01
 -0.350995001203E+01
 -0.353829941774E+01
 -0.363038729598E+01
 -0.365873680911E+01
 -0.375082456902E+01
 -0.377917421486E+01
 -0.387126196818E+01
 -0.389961177056E+01
 -0.399169922215E+01
 -0.402004920134E+01
 -0.411213660360E+01
 -0.414048677961E+01
 -0.423257383663E+01
 -0.426092423512E+01
 -0.435301104597E+01
 -0.438136171357E+01
 -0.447344836734E+01
 -0.450179934956E+01
 -0.459388536618E+01
 -0.462223681543E+01
 -0.462810945939E+01
 -0.464815712239E+01
 -0.465058968942E+01
 -0.252909487314E+01
 -0.255409228388E+01
 -0.264953322775E+01
 -0.267452838994E+01
 -0.276997055941E+01
 -0.279496590692E+01
 -0.289040821745E+01
 -0.291540326985E+01
 -0.301084566847E+01
 -0.303584044303E+01
 -0.313128296982E+01
 -0.315627782265E+01
 -0.325172020032E+01
 -0.327671525377E+01
 -0.337215751780E+01
 -0.339715274631E+01
 -0.349259485648E+01
 -0.351759021675E+01
 -0.361303221036E+01
 -0.363802767017E+01
 -0.373346956570E+01
 -0.375846512271E+01
 -0.385390683864E+01
 -0.387890252462E+01
 -0.397434409149E+01
 -0.399933995098E+01
 -0.409478146438E+01
 -0.411977753381E+01
 -0.421521868893E+01
 -0.424021499499E+01
 -0.433565603865E+01
 -0.436065260607E+01
 -0.445609323597E+01
 -0.448109009885E+01
 -0.457653040951E+01
 -0.460152761632E+01
 -0.469696769401E+01
 -0.472196529461E+01
 -0.481740462318E+01
 -0.484240285170E+01
 -0.484758131858E+01
 -0.486525791424E+01
 -0.486740268902E+01
 -0.275957157702E+01
 -0.278077109124E+01
 -0.288001036544E+01
 -0.290120674673E+01
 -0.300044778947E+01
 -0.302164428708E+01
 -0.312088578503E+01
 -0.314208231335E+01
 -0.324132100062E+01
 -0.326252022220E+01
 -0.336175831769E+01
 -0.338295783591E+01
 -0.348219559376E+01
 -0.350339526748E+01
 -0.360263295746E+01
 -0.362383273359E+01
 -0.372307034483E+01
 -0.374427017308E+01
 -0.384350777590E+01
 -0.386470758739E+01
 -0.396394526161E+01
 -0.398514497065E+01
 -0.408438262223E+01
 -0.410558225393E+01
 -0.420481991649E+01
 -0.422601959939E+01
 -0.432525732351E+01
 -0.434645714244E+01
 -0.444569458364E+01
 -0.446689457108E+01
 -0.456613197330E+01
 -0.458733214777E+01
 -0.468656921513E+01
 -0.470776960381E+01
 -0.480700644117E+01
 -0.482820707918E+01
 -0.492744378715E+01
 -0.494864470772E+01
 -0.504788079093E+01
 -0.506908222010E+01
 -0.507347403954E+01
 -0.508846587759E+01
 -0.509028493294E+01
 -0.299975326256E+01
 -0.301666492677E+01
 -0.312019169389E+01
 -0.313710080670E+01
 -0.324062872837E+01
 -0.325753846083E+01
 -0.336106573429E+01
 -0.337797611263E+01
 -0.348150297080E+01
 -0.349841386819E+01
 -0.360194028049E+01
 -0.361885145285E+01
 -0.372237755312E+01
 -0.373928889504E+01
 -0.384281491907E+01
 -0.385972636373E+01
 -0.396325231888E+01
 -0.398016379422E+01
 -0.408368982560E+01
 -0.410060118325E+01
 -0.420412766758E+01
 -0.422103848816E+01
 -0.432456513717E+01
 -0.434147546598E+01
 -0.444500240372E+01
 -0.446191273925E+01
 -0.456543977394E+01
 -0.458235031810E+01
 -0.468587699631E+01
 -0.470278778648E+01
 -0.480631435512E+01
 -0.482322539534E+01
 -0.492675155788E+01
 -0.494366289300E+01
 -0.504718872805E+01
 -0.506410042867E+01
 -0.516762600652E+01
 -0.518453812983E+01
 -0.528806292736E+01
 -0.530497574533E+01
 -0.530847966221E+01
 -0.532043900742E+01
 -0.532188988768E+01
 -0.325283423293E+01
 -0.326487966286E+01
 -0.337327310746E+01
 -0.338531503131E+01
 -0.349370999622E+01
 -0.350575293824E+01
 -0.361414695716E+01
 -0.362619078242E+01
 -0.373458406953E+01
 -0.374662857038E+01
 -0.385502127106E+01
 -0.386706624823E+01
 -0.397545846882E+01
 -0.398750376873E+01
 -0.409589578989E+01
 -0.410794128292E+01
 -0.421633317722E+01
 -0.422837872153E+01
 -0.433677085822E+01
 -0.434881606882E+01
 -0.445720975193E+01
 -0.446925388928E+01
 -0.457764467426E+01
 -0.458969189537E+01
 -0.469808194595E+01
 -0.471012935768E+01
 -0.481851941870E+01
 -0.483056684162E+01
 -0.493895673048E+01
 -0.495100419572E+01
 -0.505939415166E+01
 -0.507144170986E+01
 -0.517983139788E+01
 -0.519187911200E+01
 -0.530026864706E+01
 -0.531231651796E+01
 -0.542070604828E+01
 -0.543275405619E+01
 -0.554114312649E+01
 -0.555319149555E+01
 -0.555568744446E+01
 -0.556420707582E+01
 -0.556524078615E+01
 -0.352263218899E+01
 -0.352910935985E+01
 -0.364307018503E+01
 -0.364954581175E+01
 -0.376350738965E+01
 -0.376998350839E+01
 -0.388394467425E+01
 -0.389042100319E+01
 -0.400438201509E+01
 -0.401085848018E+01
 -0.412481937002E+01
 -0.413129593080E+01
 -0.424525666853E+01
 -0.425173329505E+01
 -0.436569404610E+01
 -0.437217071150E+01
 -0.448613143475E+01
 -0.449260810813E+01
 -0.460656881474E+01
 -0.461304546280E+01
 -0.472700663635E+01
 -0.473348283438E+01
 -0.484744355201E+01
 -0.485392036149E+01
 -0.496788067461E+01
 -0.497435773405E+01
 -0.508831852678E+01
 -0.509479514884E+01
 -0.520875585833E+01
 -0.521523246885E+01
 -0.532919335549E+01
 -0.533566995961E+01
 -0.544963033939E+01
 -0.545610737040E+01
 -0.557006751472E+01
 -0.557654475833E+01
 -0.569050496264E+01
 -0.569698225240E+01
 -0.581094210225E+01
 -0.581741964843E+01
 -0.581876175249E+01
 -0.582334226454E+01
 -0.582389797125E+01
 -0.381384569069E+01
 -0.393428339536E+01
 -0.405472077576E+01
 -0.417515813914E+01
 -0.429559553663E+01
 -0.441603293413E+01
 -0.453647026343E+01
 -0.465690766092E+01
 -0.477734505834E+01
 -0.489778245554E+01
 -0.501822749018E+01
 -0.513865718238E+01
 -0.525909451192E+01
 -0.537953695177E+01
 -0.549997242186E+01
 -0.562041134712E+01
 -0.574084410203E+01
 -0.586128143124E+01
 -0.598171889674E+01
 -0.610215877669E+01
 -0.598171894506E+01
 -0.393428344367E+01
 -0.381384562274E+01
 -0.453647031175E+01
 -0.441603298245E+01
 -0.586128147956E+01
 -0.574084415032E+01
 -0.489778250384E+01
 -0.477734510666E+01
 -0.525909456022E+01
 -0.513865723066E+01
 -0.429559558495E+01
 -0.417515818746E+01
 -0.465690770924E+01
 -0.405472082408E+01
 -0.537952953591E+01
 -0.501821607947E+01
 -0.549996779500E+01
 -0.562040453105E+01
SCALARS phi_mu float 1
LOOKUP_TABLE default
 -0.446331007125E-05
 -0.120441488563E+00
 -0.240878863526E+00
 -0.361316223469E+00
 -0.481753618988E+00
 -0.602191015788E+00
 -0.722628345532E+00
 -0.843065744475E+00
 -0.963503144304E+00
 -0.108394054493E+01
 -0.120437794626E+01
 -0.132481528006E+01
 -0.144525261446E+01
 -0.156569008581E+01
 -0.168612742127E+01
 -0.180656489363E+01
 -0.192700223035E+01
 -0.204743956900E+01
 -0.216787704378E+01
 -0.228831187343E+01
 -0.233230223274E+00
 -0.258362358998E+00
 -0.353667958383E+00
 -0.378799680665E+00
 -0.474105319128E+00
 -0.499237064902E+00
 -0.594542677706E+00
 -0.619674425160E+00
 -0.714980071513E+00
 -0.740111822202E+00
 -0.835417464404E+00
 -0.860549223065E+00
 -0.955854788004E+00
 -0.980986559266E+00
 -0.107629217887E+01
 -0.110142396666E+01
 -0.119672956899E+01
 -0.122186137661E+01
 -0.131716695842E+01
 -0.134229878881E+01
 -0.143760434714E+01
 -0.146273620316E+01
 -0.155804166687E+01
 -0.158317355142E+01
 -0.167847898570E+01
 -0.170361090181E+01
 -0.179891643993E+01
 -0.182404839074E+01
 -0.191935375674E+01
 -0.194448574540E+01
 -0.203979120907E+01
 -0.206492323854E+01
 -0.216022852537E+01
 -0.218536059738E+01
 -0.228066585094E+01
 -0.230579795830E+01
 -0.240110331862E+01
 -0.242623545550E+01
 -0.252154004310E+01
 -0.254667242806E+01
 -0.255187772942E+01
 -0.256964918253E+01
 -0.257180528498E+01
 -0.494927952660E+00
 -0.527777019013E+00
 -0.615365716485E+00
 -0.648213973229E+00
 -0.735803080885E+00
 -0.768651352202E+00
 -0.856240441438E+00
 -0.889088710078E+00
 -0.976677833687E+00
 -0.100952610880E+01
 -0.109711522170E+01
 -0.112996351486E+01
 -0.121755253781E+01
 -0.125040085891E+01
 -0.133798991923E+01
 -0.137083827606E+01
 -0.145842729836E+01
 -0.149127569719E+01
 -0.157886467545E+01
 -0.161171312183E+01
 -0.169930205047E+01
 -0.173215054988E+01
 -0.181973935500E+01
 -0.185258791328E+01
 -0.194017665698E+01
 -0.197302528043E+01
 -0.206061409258E+01
 -0.209346278788E+01
 -0.218105138888E+01
 -0.221390016299E+01
 -0.230148881875E+01
 -0.233433767869E+01
 -0.242192611084E+01
 -0.245477506248E+01
 -0.254236341285E+01
 -0.257521245123E+01
 -0.266280086288E+01
 -0.269565002516E+01
 -0.278323763545E+01
 -0.281608721403E+01
 -0.282289105660E+01
 -0.284611934606E+01
 -0.284893767421E+01
 -0.744274298012E+00
 -0.780734013668E+00
 -0.864712072607E+00
 -0.901170900336E+00
 -0.985149404670E+00
 -0.102160830834E+01
 -0.110558678101E+01
 -0.114204565286E+01
 -0.122602421249E+01
 -0.126248301849E+01
 -0.134646162344E+01
 -0.138292040579E+01
 -0.146689894691E+01
 -0.150335774471E+01
 -0.158733633002E+01
 -0.162379516166E+01
 -0.170777370904E+01
 -0.174423258409E+01
 -0.182821108540E+01
 -0.186467001048E+01
 -0.194864845939E+01
 -0.198510744051E+01
 -0.206908576262E+01
 -0.210554480612E+01
 -0.218952306298E+01
 -0.222598217577E+01
 -0.230996049656E+01
 -0.234641968608E+01
 -0.243039779025E+01
 -0.246685706437E+01
 -0.255083521637E+01
 -0.258729458353E+01
 -0.267127250087E+01
 -0.270773197095E+01
 -0.279170977603E+01
 -0.282816936342E+01
 -0.291214717541E+01
 -0.294860689863E+01
 -0.303258411735E+01
 -0.306904415171E+01
 -0.307659599233E+01
 -0.310237726231E+01
 -0.310550507491E+01
 -0.982415339886E+00
 -0.102035081462E+01
 -0.110285321791E+01
 -0.114078757171E+01
 -0.122329055312E+01
 -0.126122497626E+01
 -0.134372795708E+01
 -0.138166229640E+01
 -0.146416544511E+01
 -0.150209961335E+01
 -0.158460287345E+01
 -0.162253698692E+01
 -0.170504019218E+01
 -0.174297433177E+01
 -0.182547756599E+01
 -0.186341175873E+01
 -0.194591493452E+01
 -0.198384919218E+01
 -0.206635229972E+01
 -0.210428663015E+01
 -0.218678966169E+01
 -0.222472407251E+01
 -0.230722695172E+01
 -0.234516145162E+01
 -0.242766423733E+01
 -0.246559883632E+01
 -0.254810165441E+01
 -0.258603636347E+01
 -0.266853892972E+01
 -0.270647376058E+01
 -0.278897633543E+01
 -0.282691130066E+01
 -0.290941359758E+01
 -0.294734871142E+01
 -0.302985084991E+01
 -0.306778613033E+01
 -0.315028822584E+01
 -0.318822369660E+01
 -0.327072516641E+01
 -0.330866101579E+01
 -0.331651872337E+01
 -0.334334356632E+01
 -0.334659800675E+01
 -0.121170593827E+01
 -0.124977960332E+01
 -0.133214399305E+01
 -0.137021617378E+01
 -0.145258134690E+01
 -0.149065356144E+01
 -0.157301876483E+01
 -0.161109086981E+01
 -0.169345575907E+01
 -0.173152862743E+01
 -0.181389309909E+01
 -0.185196607964E+01
 -0.193433039742E+01
 -0.197240344395E+01
 -0.205476777006E+01
 -0.209284087346E+01
 -0.217520514623E+01
 -0.221327830153E+01
 -0.229564252956E+01
 -0.233371572476E+01
 -0.241607993284E+01
 -0.245415313208E+01
 -0.253651728068E+01
 -0.257459046190E+01
 -0.265695460031E+01
 -0.269502781832E+01
 -0.277739203159E+01
 -0.281546533480E+01
 -0.289782931398E+01
 -0.293590272776E+01
 -0.301826672457E+01
 -0.305634026602E+01
 -0.313870399148E+01
 -0.317677767575E+01
 -0.325914125040E+01
 -0.329721509357E+01
 -0.337957863533E+01
 -0.341765265690E+01
 -0.350001560607E+01
 -0.353808999515E+01
 -0.354597624016E+01
 -0.357289904214E+01
 -0.357616560867E+01
 -0.143453737319E+01
 -0.147182473432E+01
 -0.155497545634E+01
 -0.159226125335E+01
 -0.167541276173E+01
 -0.171269868385E+01
 -0.179585007143E+01