# vtk DataFile Version 3.0
MachLine results file. Generated by MachLine, USU AeroLab (c) 2023.
ASCII
DATASET POLYDATA
POINTS                 704 float
  0.110000000000E-04  0.000000000000E+00  0.000000000000E+00
  0.110000000000E-04  0.421052634716E+00  0.000000000000E+00
  0.110000000000E-04  0.842105269432E+00  0.000000000000E+00
  0.110000000000E-04  0.126315784454E+01  0.000000000000E+00
  0.110000000000E-04  0.168421053886E+01  0.000000000000E+00
  0.110000000000E-04  0.210526323318E+01  0.000000000000E+00
  0.110000000000E-04  0.252631568909E+01  0.000000000000E+00
  0.110000000000E-04  0.294736838341E+01  0.000000000000E+00
  0.110000000000E-04  0.336842107773E+01  0.000000000000E+00
  0.110000000000E-04  0.378947377205E+01  0.000000000000E+00
  0.110000000000E-04  0.421052646637E+01  0.000000000000E+00
  0.110000000000E-04  0.463157892227E+01  0.000000000000E+00
  0.110000000000E-04  0.505263137817E+01  0.000000000000E+00
  0.110000000000E-04  0.547368431091E+01  0.000000000000E+00
  0.110000000000E-04  0.589473676682E+01  0.000000000000E+00
  0.110000000000E-04  0.631578969955E+01  0.000000000000E+00
  0.110000000000E-04  0.673684215546E+01  0.000000000000E+00
  0.110000000000E-04  0.715789461136E+01  0.000000000000E+00
  0.110000000000E-04  0.757894754410E+01  0.000000000000E+00
  0.101851459807E-04  0.799999584515E+01  0.166628880695E-20
  0.257795633492E+00  0.000000000000E+00 -0.131789500160E+00
  0.257795633492E+00  0.000000000000E+00  0.131789500160E+00
  0.257795633492E+00  0.421052634716E+00 -0.131789500160E+00
  0.257795633492E+00  0.421052634716E+00  0.131789500160E+00
  0.257795633492E+00  0.842105269432E+00 -0.131789500160E+00
  0.257795633492E+00  0.842105269432E+00  0.131789500160E+00
  0.257795633492E+00  0.126315784454E+01 -0.131789500160E+00
  0.257795633492E+00  0.126315784454E+01  0.131789500160E+00
  0.257795633492E+00  0.168421053886E+01 -0.131789500160E+00
  0.257795633492E+00  0.168421053886E+01  0.131789500160E+00
  0.257795633492E+00  0.210526323318E+01 -0.131789500160E+00
  0.257795633492E+00  0.210526323318E+01  0.131789500160E+00
  0.257795633492E+00  0.252631568909E+01 -0.131789500160E+00
  0.257795633492E+00  0.252631568909E+01  0.131789500160E+00
  0.257795633492E+00  0.294736838341E+01 -0.131789500160E+00
  0.257795633492E+00  0.294736838341E+01  0.131789500160E+00
  0.257795633492E+00  0.336842107773E+01 -0.131789500160E+00
  0.257795633492E+00  0.336842107773E+01  0.131789500160E+00
  0.257795633492E+00  0.378947377205E+01 -0.131789500160E+00
  0.257795633492E+00  0.378947377205E+01  0.131789500160E+00
  0.257795633492E+00  0.421052646637E+01 -0.131789500160E+00
  0.257795633492E+00  0.421052646637E+01  0.131789500160E+00
  0.257795633492E+00  0.463157892227E+01 -0.131789500160E+00
  0.257795633492E+00  0.463157892227E+01  0.131789500160E+00
  0.257795633492E+00  0.505263137817E+01 -0.131789500160E+00
  0.257795633492E+00  0.505263137817E+01  0.131789500160E+00
  0.257795633492E+00  0.547368431091E+01 -0.131789500160E+00
  0.257795633492E+00  0.547368431091E+01  0.131789500160E+00
  0.257795633492E+00  0.589473676682E+01 -0.131789500160E+00
  0.257795633492E+00  0.589473676682E+01  0.131789500160E+00
  0.257795633492E+00  0.631578969955E+01 -0.131789500160E+00
  0.257795633492E+00  0.631578969955E+01  0.131789500160E+00
  0.257795633492E+00  0.673684215546E+01 -0.131789500160E+00
  0.257795633492E+00  0.673684215546E+01  0.131789500160E+00
  0.257795633492E+00  0.715789461136E+01 -0.131789500160E+00
  0.257795633492E+00  0.715789461136E+01  0.131789500160E+00
  0.257795633492E+00  0.757894754410E+01 -0.131789500160E+00
  0.257795633492E+00  0.757894754410E+01  0.131789500160E+00
  0.257795520606E+00  0.799999797647E+01 -0.131789661381E+00
  0.257795520606E+00  0.799999797647E+01  0.131789661381E+00
  0.257795513032E+00  0.809318943122E+01 -0.931892300672E-01
  0.257795513032E+00  0.809318943122E+01  0.931892300672E-01
  0.257795513035E+00  0.813178917942E+01 -0.140518580135E-15
  0.536311858726E+00  0.000000000000E+00 -0.172258766077E+00
  0.536311858726E+00  0.000000000000E+00  0.172258766077E+00
  0.536311858726E+00  0.421052634716E+00 -0.172258766077E+00
  0.536311858726E+00  0.421052634716E+00  0.172258766077E+00
  0.536311858726E+00  0.842105269432E+00 -0.172258766077E+00
  0.536311858726E+00  0.842105269432E+00  0.172258766077E+00
  0.536311858726E+00  0.126315784454E+01 -0.172258766077E+00
  0.536311858726E+00  0.126315784454E+01  0.172258766077E+00
  0.536311858726E+00  0.168421053886E+01 -0.172258766077E+00
  0.536311858726E+00  0.168421053886E+01  0.172258766077E+00
  0.536311858726E+00  0.210526323318E+01 -0.172258766077E+00
  0.536311858726E+00  0.210526323318E+01  0.172258766077E+00
  0.536311858726E+00  0.252631568909E+01 -0.172258766077E+00
  0.536311858726E+00  0.252631568909E+01  0.172258766077E+00
  0.536311858726E+00  0.294736838341E+01 -0.172258766077E+00
  0.536311858726E+00  0.294736838341E+01  0.172258766077E+00
  0.536311858726E+00  0.336842107773E+01 -0.172258766077E+00
  0.536311858726E+00  0.336842107773E+01  0.172258766077E+00
  0.536311858726E+00  0.378947377205E+01 -0.172258766077E+00
  0.536311858726E+00  0.378947377205E+01  0.172258766077E+00
  0.536311858726E+00  0.421052646637E+01 -0.172258766077E+00
  0.536311858726E+00  0.421052646637E+01  0.172258766077E+00
  0.536311858726E+00  0.463157892227E+01 -0.172258766077E+00
  0.536311858726E+00  0.463157892227E+01  0.172258766077E+00
  0.536311858726E+00  0.505263137817E+01 -0.172258766077E+00
  0.536311858726E+00  0.505263137817E+01  0.172258766077E+00
  0.536311858726E+00  0.547368431091E+01 -0.172258766077E+00
  0.536311858726E+00  0.547368431091E+01  0.172258766077E+00
  0.536311858726E+00  0.589473676682E+01 -0.172258766077E+00
  0.536311858726E+00  0.589473676682E+01  0.172258766077E+00
  0.536311858726E+00  0.631578969955E+01 -0.172258766077E+00
  0.536311858726E+00  0.631578969955E+01  0.172258766077E+00
  0.536311858726E+00  0.673684215546E+01 -0.172258766077E+00
  0.536311858726E+00  0.673684215546E+01  0.172258766077E+00
  0.536311858726E+00  0.715789461136E+01 -0.172258766077E+00
  0.536311858726E+00  0.715789461136E+01  0.172258766077E+00
  0.536311858726E+00  0.757894754410E+01 -0.172258766077E+00
  0.536311858726E+00  0.757894754410E+01  0.172258766077E+00
  0.536311831544E+00  0.799999787426E+01 -0.172258971699E+00
  0.536311831544E+00  0.799999787426E+01  0.172258971699E+00
  0.536311848433E+00  0.812180508681E+01 -0.121805347578E+00
  0.536311848433E+00  0.812180508681E+01  0.121805347578E+00
  0.536311848423E+00  0.817225888418E+01  0.124461443347E-17
  0.799721566848E+00  0.000000000000E+00 -0.191192578887E+00
  0.799721566848E+00  0.000000000000E+00  0.191192578887E+00
  0.799721566848E+00  0.421052634716E+00 -0.191192578887E+00
  0.799721566848E+00  0.421052634716E+00  0.191192578887E+00
  0.799721566848E+00  0.842105269432E+00 -0.191192578887E+00
  0.799721566848E+00  0.842105269432E+00  0.191192578887E+00
  0.799721566848E+00  0.126315784454E+01 -0.191192578887E+00
  0.799721566848E+00  0.126315784454E+01  0.191192578887E+00
  0.799721566848E+00  0.168421053886E+01 -0.191192578887E+00
  0.799721566848E+00  0.168421053886E+01  0.191192578887E+00
  0.799721566848E+00  0.210526323318E+01 -0.191192578887E+00
  0.799721566848E+00  0.210526323318E+01  0.191192578887E+00
  0.799721566848E+00  0.252631568909E+01 -0.191192578887E+00
  0.799721566848E+00  0.252631568909E+01  0.191192578887E+00
  0.799721566848E+00  0.294736838341E+01 -0.191192578887E+00
  0.799721566848E+00  0.294736838341E+01  0.191192578887E+00
  0.799721566848E+00  0.336842107773E+01 -0.191192578887E+00
  0.799721566848E+00  0.336842107773E+01  0.191192578887E+00
  0.799721566848E+00  0.378947377205E+01 -0.191192578887E+00
  0.799721566848E+00  0.378947377205E+01  0.191192578887E+00
  0.799721566848E+00  0.421052646637E+01 -0.191192578887E+00
  0.799721566848E+00  0.421052646637E+01  0.191192578887E+00
  0.799721566848E+00  0.463157892227E+01 -0.191192578887E+00
  0.799721566848E+00  0.463157892227E+01  0.191192578887E+00
  0.799721566848E+00  0.505263137817E+01 -0.191192578887E+00
  0.799721566848E+00  0.505263137817E+01  0.191192578887E+00
  0.799721566848E+00  0.547368431091E+01 -0.191192578887E+00
  0.799721566848E+00  0.547368431091E+01  0.191192578887E+00
  0.799721566848E+00  0.589473676682E+01 -0.191192578887E+00
  0.799721566848E+00  0.589473676682E+01  0.191192578887E+00
  0.799721566848E+00  0.631578969955E+01 -0.191192578887E+00
  0.799721566848E+00  0.631578969955E+01  0.191192578887E+00
  0.799721566848E+00  0.673684215546E+01 -0.191192578887E+00
  0.799721566848E+00  0.673684215546E+01  0.191192578887E+00
  0.799721566848E+00  0.715789461136E+01 -0.191192578887E+00
  0.799721566848E+00  0.715789461136E+01  0.191192578887E+00
  0.799721566848E+00  0.757894754410E+01 -0.191192578887E+00
  0.799721566848E+00  0.757894754410E+01  0.191192578887E+00
  0.799721554777E+00  0.799999786181E+01 -0.191192788357E+00
  0.799721554777E+00  0.799999786181E+01  0.191192788357E+00
  0.799721564070E+00  0.813519368611E+01 -0.135193566932E+00
  0.799721564070E+00  0.813519368611E+01  0.135193566932E+00
  0.799721564067E+00  0.819119213171E+01 -0.320709507191E-17
  0.105025965740E+01  0.000000000000E+00 -0.198932452627E+00
  0.105025965740E+01  0.000000000000E+00  0.198932452627E+00
  0.105025965740E+01  0.421052634716E+00 -0.198932452627E+00
  0.105025965740E+01  0.421052634716E+00  0.198932452627E+00
  0.105025965740E+01  0.842105269432E+00 -0.198932452627E+00
  0.105025965740E+01  0.842105269432E+00  0.198932452627E+00
  0.105025965740E+01  0.126315784454E+01 -0.198932452627E+00
  0.105025965740E+01  0.126315784454E+01  0.198932452627E+00
  0.105025965740E+01  0.168421053886E+01 -0.198932452627E+00
  0.105025965740E+01  0.168421053886E+01  0.198932452627E+00
  0.105025965740E+01  0.210526323318E+01 -0.198932452627E+00
  0.105025965740E+01  0.210526323318E+01  0.198932452627E+00
[...]
POINT_DATA                 704
SCALARS BC_type int 1
LOOKUP_TABLE default
           1
           1
           1
           1
           1
           1
           1
           1
           1
           1
           1
           1
           1
           1
           1
           1
           1
           1
           1
           1
           1
           1
           1
           1
           1
           1
           1
           1
           1
           1
           1
           1
           1
           1
           1
           1
           1
           1
           1
           1
           1
           1
           1
           1
           1
           1
           1
           1
           1
           1
           1
           1
           1
           1
           1
           1
           1
           1
           1
           1
           1
           1
           1
           1
           1
           1
           1
           1
           1
           1
           1
           1
           1
           1
           1
           1
           1
           1
           1
           1
           1
           1
           1
           1
           1
           1
           1
           1
           1
           1
           1
           1
           1
           1
           1
           1
           1
           1
           1
           1
           1
           1
           1
           1
           1
           1
           1
           1
           1
           1
           1
           1
           1
           1
           1
           1
           1
           1
           1
           1
           1
           1
           1
           1
           1
           1
           1
           1
           1
           1
           1
           1
           1
           1
           1
           1
           1
           1
           1
           1
           1
           1
           1
           1
           1
           1
           1
           1
           1
           1
           1
           1
           1
           1
           1
           1
           1
           1
           1
           1
           1
           1
           1
           1
           1
           1
           1
           1
           1
           1
           1
           1
           1
           1
           1
           1
           1
           1
           1
           1
           1
           1
           1
           1
           1
           1
           1
           1
           1
           1
           1
           1
           1
           1
           1
           1
           1
           1
           1
           1
           1
           1
           1
           1
           1
           1
           1
           1
           1
           1
           1
           1
           1
           1
           1
           1
           1
           1
           1
           1
           1
           1
           1
           1
           1
           1
           1
           1
           1
           1
           1
           1
           1
           1
           1
           1
           1
           1
           1
           1
           1
           1
           1
           1
           1
           1
           1
           1
           1
           1
           1
           1
           1
           1
           1
           1
           1
           1
           1
           1
           1
           1
           1
           1
           1
           1
           1
           1
           1
           1
           1
           1
           1
           1
           1
           1
           1
           1
           1
           1
           1
           1
           1
           1
           1
           1
           1
           1
           1
           1
           1
           1
           1
           1
           1
           1
           1
           1
           1
           1
           1
           1
           1
           1
           1
           1
           1
           1
           1
           1
           1
           1
           1
           1
           1
           1
           1
           1
           1
           1
           1
           1
           1
           1
           1
           1
           1
           1
           1
           1
           1
           1
           1
           1
           1
           1
           1
           1
           1
           1
           1
           1
           1
           1
           1
           1
           1
           1
           1
           1
           1
           1
           1
           1
           1
           1
           1
           1
           1
           1
           1
           1
           1
           1
           1
           1
           1
           1
           1
           1
           1
           1
           1
           1
           1
           1
           1
           1
           1
           1
           1
           1
           1
           1
           1
           1
           1
           1
           1
           1
           1
           1
           1
           1
           1
           1
           1
           1
           1
           1
           1
           1
           1
           1
           1
           1
           1
           1
           1
           1
           1
           1
           1
           1
           1
           1
           1
           1
           1
           1
           1
           1
           1
           1
           1
           1
           1
           1
           1
           1
           1
           1
           1
           1
           1
           1
           1
           1
           1
           1
           1
           1
           1
           1
           1
           1
           1
           1
           1
           1
           1
           1
           1
           1
           1
           1
           1
           1
           1
           1
           1
           1
           1
           1
           1
           1
           1
           1
           1
           1
           1
           1
           1
           1
           1
           1
           1
           1
           1
           1
           1
           1
           1
           1
           1
           1
           1
           1
           1
           1
           1
           1
           1
           1
           1
           1
           1
           1
           1
           1
           1
           1
           1
           1
           1
           1
           1
           1
           1
           1
           1
           1
           1
           1
           1
           1
           1
           1
           1
           1
           1
           1
           1
           1
           1
           1
           1
           1
           1
           1
           1
           1
           1
           1
           1
           1
           1
           1
           1
           1
           1
           1
           1
           1
           1
           1
           1
           1
           1
           1
           1
           1
           1
           1
           1
           1
           1
           1
           1
           1
           1
           1
           1
           1
           1
           1
           1
           1
           1
           1
           1
           1
           1
           1
           1
           1
           1
           1
           1
           1
           1
           1
           1
           1
           1
           1
           1
           1
           1
           1
           1
           1
           1
           1
           1
           1
           1
           1
           1
           1
           1
           1
           1
           1
           1
           1
           1
           1
           1
           1
           1
           1
           1
           1
           1
           1
           1
           1
           1
           1
           1
           1
           1
           1
           1
           1
           1
           1
           1
           1
           1
           1
           1
           1
           1
           1
           1
           1
           1
           1
           1
           1
           1
           1
           1
           1
           1
           1
           1
           1
           1
           1
           1
           1
           1
           1
           1
           1
           1
           1
           1
           1
           1
           1
           1
           1
           1
           1
           1
           1
           1
           1
           1
           1
           1
           1
           1
           1
           1
           1
           1
           1
           1
           1
           1
           1
           1
           1
           1
           1
           1
           1
           1
           1
           1
           1
           1
           1
           1
           1
           1
           1
           1
           1
SCALARS residual float 1
LOOKUP_TABLE default
 -0.499600361081E-15
  0.133226762955E-14
  0.527355936697E-15
 -0.610622663544E-14
 -0.352495810318E-14
  0.230371277610E-14
  0.469069227904E-14
  0.477395900589E-14
  0.163757896132E-14
  0.277555756156E-16
  0.133226762955E-14
  0.230371277610E-14
 -0.210942374679E-14
 -0.202615701994E-14
  0.588418203051E-14
  0.296984659087E-14
 -0.471844785466E-15
 -0.524580379135E-14
 -0.321964677141E-14
  0.531519273039E-14
  0.710542735760E-14
  0.363598040565E-14
 -0.829891710907E-14
 -0.171251901548E-13
  0.177635683940E-14
  0.122124532709E-14
  0.791033905045E-14
  0.106858966120E-13
  0.521804821574E-14
 -0.494049245958E-14
  0.155431223448E-13
  0.430211422042E-14
 -0.752176099184E-14
 -0.172362124573E-13
 -0.274780198595E-14
 -0.530131494259E-14
  0.471844785466E-14
 -0.457966997658E-14
 -0.116573417586E-14
 -0.134336985980E-13
 -0.104916075827E-13
  0.296984659087E-14
 -0.702216063075E-14
 -0.114630527293E-13
  0.668909372337E-14
  0.324740234703E-14
 -0.538458166943E-14
  0.136279876273E-13
  0.283106871279E-14
 -0.101862962509E-13
 -0.319189119580E-14
  0.610622663544E-15
  0.804911692853E-15
 -0.777156117238E-15
  0.358046925442E-14
  0.358046925442E-14
  0.521804821574E-14
  0.154737334057E-13
 -0.117822418488E-13
 -0.896505092385E-14
 -0.642541575502E-14
 -0.128508315100E-13
 -0.691113832829E-14
 -0.616173778667E-14
  0.752176099184E-14
  0.360822483003E-15
 -0.546784839628E-14
  0.141553435640E-14
  0.317801340799E-14
 -0.607847105982E-14
  0.763278329430E-14
 -0.388578058619E-15
 -0.649480469406E-14
  0.371924713249E-14
  0.291433543964E-15
 -0.616173778667E-14
 -0.395516952523E-14
 -0.568989300120E-14
 -0.577315972805E-14
  0.527355936697E-15
 -0.129063426613E-14
  0.191513471748E-14
  0.155431223448E-14
  0.222044604925E-14
  0.192901250529E-14
 -0.957567358739E-14
  0.384414722276E-14
  0.499600361081E-15
  0.374700270811E-15
  0.388578058619E-14
  0.832667268469E-16
 -0.954791801178E-14
  0.643929354283E-14
 -0.668909372337E-14
  0.233146835171E-14
  0.441313652288E-14
 -0.741073868937E-14
 -0.373312492030E-14
  0.685562717706E-14
 -0.208166817117E-15
  0.101724184631E-13
 -0.749400541622E-15
  0.112895803817E-13
  0.233146835171E-14
  0.183186799063E-14
  0.129063426613E-14
 -0.596744875736E-14
  0.968669588985E-14
  0.416333634234E-14
 -0.122124532709E-14
  0.328903571045E-14
  0.392741394961E-14
 -0.510702591328E-14
  0.584254866709E-14
  0.208166817117E-15
 -0.618949336229E-14
 -0.108246744901E-14
  0.327515792264E-14
 -0.398292510084E-14
  0.276167977376E-14
 -0.301147995430E-14
  0.224820162487E-14
  0.566213742559E-14
  0.459354776439E-14
  0.820177259442E-14
  0.346944695195E-14
  0.233146835171E-14
  0.649480469406E-14
  0.338618022511E-14
  0.317801340799E-14
  0.789646126265E-14
 -0.179023462721E-14
 -0.142941214420E-14
  0.328903571045E-14
 -0.101307850997E-14
 -0.424660306919E-14
 -0.673072708679E-14
 -0.176941794550E-14
 -0.360822483003E-15
 -0.840993941154E-14
 -0.338618022511E-14
  0.249800180541E-14
  0.355271367880E-14
  0.378863607153E-14
 -0.116573417586E-14
  0.808381139805E-14
  0.100405794790E-13
  0.328209681655E-14
  0.736910532595E-14
 -0.344169137634E-14
  0.275474087985E-14
  0.341393580072E-14
 -0.552335954751E-14
 -0.485722573274E-15
  0.319189119580E-15
 -0.366373598126E-14
  0.138083988688E-14
  0.315025783237E-14
 -0.100475183729E-13
 -0.362210261784E-14
  0.213024042850E-14
 -0.494049245958E-14
  0.290739654574E-14
 -0.166533453694E-15
  0.183880688454E-14
  0.535682609382E-14
  0.735522753814E-14
  0.770217223334E-14
 -0.922872889220E-15
  0.412170297892E-14
 -0.363598040565E-14
  0.122124532709E-14
  0.348332473976E-14
  0.607847105982E-14
 -0.420496970577E-14
  0.129063426613E-14
 -0.670297151117E-14
  0.721644966006E-15
 -0.999547666858E-14
 -0.822952817003E-14
  0.537764277553E-15
  0.458660887048E-14
 -0.112375386774E-13
  0.436456426556E-14
 -0.511049536023E-14
  0.387190279838E-14
  0.147451495458E-14
 -0.491273688397E-14
  0.359781648918E-14
  0.219962936754E-14
 -0.450334214364E-14
 -0.218575157973E-14
  0.101307850997E-14
 -0.601949046164E-15
  0.154737334057E-14
 -0.698659879950E-14
 -0.542621503286E-14
 -0.899454122294E-15
 -0.275474087985E-14
  0.650521303491E-15
  0.717481629664E-14
 -0.105861500121E-13
 -0.319189119580E-14
  0.267928040865E-14
 -0.501682029252E-14
  0.276601658245E-14
  0.555111512313E-16
  0.123078630621E-14
  0.196370697481E-14
  0.954705065004E-14
  0.351108031538E-14
 -0.128889954265E-14
  0.106165076730E-14
 -0.617648293622E-14
 -0.133920652345E-14
  0.197498267740E-14
 -0.548172618409E-15
 -0.266280053562E-14
 -0.192207361138E-14
 -0.515473080887E-14
  0.249800180541E-15
 -0.582259934712E-14
  0.446864767412E-14
 -0.275951136941E-14
 -0.414251966063E-14
  0.822345663787E-14
  0.456579218877E-14
 -0.242861286637E-14
  0.812544476148E-14
 -0.468743967252E-14
 -0.530478438954E-14
 -0.203136119037E-14
 -0.341046635377E-14
 -0.868922989117E-14
 -0.637857822117E-14
  0.460395610524E-14
  0.279984369023E-14
  0.392047505571E-15
 -0.407313072159E-14
 -0.729971638691E-14
 -0.145716771982E-14
 -0.151267887105E-14
  0.164451785523E-14
  0.846892000972E-14
 -0.747318873451E-14
 -0.225167107182E-14
  0.463865057476E-14
 -0.347291639891E-14
  0.304964387077E-14
  0.995731275211E-15
 -0.388578058619E-15
 -0.332026073302E-14
  0.115601972439E-13
 -0.555111512313E-15
 -0.312250225676E-15
 -0.299760216649E-14
 -0.173819292293E-14
 -0.319362591927E-14
  0.469069227904E-14
 -0.464905891562E-14
  0.118308141062E-14
 -0.121430643318E-16
 -0.139124822773E-14
 -0.533080524168E-14
  0.655378529224E-14
  0.226901830658E-14
  0.429864477347E-14
  0.393261812004E-14
  0.539152056334E-14
 -0.545570533195E-14
  0.641847686111E-14
  0.163410951437E-14
 -0.178329573330E-14
  0.530825383649E-15
 -0.471844785466E-14
 -0.161155810918E-14
 -0.411649880849E-14
 -0.207733136248E-14
  0.772385627679E-14
  0.589112092442E-14
  0.254223725404E-14
 -0.372618602640E-14
 -0.198539101826E-14
 -0.695277169172E-14
  0.267754568517E-14
 -0.235922392733E-14
  0.715573433840E-14
 -0.756339435526E-14
 -0.278423117894E-15
  0.108246744901E-14
  0.157426155445E-14
 -0.229677388219E-14
  0.545397060847E-14
 -0.847238945667E-14
 -0.325781068788E-14
  0.641153796721E-14
 -0.170002900646E-14
 -0.432986979604E-14
 -0.353796852925E-14
 -0.160982338571E-14
  0.150834206236E-14
  0.206779038336E-14
 -0.882106887534E-15
  0.187350135405E-15
  0.217794532409E-14
  0.499600361081E-14
  0.350761086843E-14
 -0.263677968348E-14
 -0.674460487460E-14
  0.362210261784E-14
  0.274953670942E-14
  0.272004641033E-14
  0.121777588014E-14
 -0.286576318231E-14
  0.281111939282E-14
 -0.430905311433E-14
  0.735349281467E-14
 -0.662664367823E-14
 -0.115359111152E-14
 -0.221350715535E-14
 -0.817054757185E-15
  0.134614541736E-14
  0.119765308781E-13
 -0.766747776382E-15
  0.999200722163E-15
 -0.141553435640E-14
 -0.600214322688E-14
  0.211636264069E-15
 -0.187350135405E-15
 -0.257086019140E-14
 -0.219962936754E-14
 -0.579050696281E-14
  0.304617442382E-14
  0.856953397133E-15
 -0.214411821631E-14
  0.573499581158E-14
 -0.954097911787E-14
 -0.259167687311E-14
  0.353189699709E-14
 -0.574887359939E-14
 -0.563438184997E-14
 -0.789299181569E-14
 -0.645317133063E-15
  0.247718512369E-14
  0.327515792264E-14
  0.290739654574E-14
  0.291433543964E-15
 -0.248412401760E-14
  0.149671941507E-13
  0.354924423185E-14
 -0.651562137577E-14
 -0.459354776439E-14
 -0.762584440039E-14
 -0.640806852026E-14
  0.910382880193E-14
 -0.167574287779E-14
  0.305311331772E-14
  0.652602971662E-14
 -0.262984078958E-14
  0.848626724448E-14
 -0.489192020225E-14
 -0.416333634234E-16
 -0.452415882535E-14
 -0.190819582357E-14
 -0.330291349826E-14
  0.974220704109E-14
 -0.161676227961E-14
  0.267841304691E-14
 -0.190819582357E-14
  0.142941214420E-14
 -0.333066907388E-14
  0.462130334000E-14
 -0.954097911787E-14
  0.358046925442E-14
 -0.102140518266E-13
  0.660582699652E-14
  0.208166817117E-16
  0.527355936697E-15
  0.498906471691E-14
 -0.306699110553E-14
  0.454497550706E-14
  0.258126853225E-14
 -0.707073288808E-14
 -0.670297151117E-14
 -0.949934575445E-14
 -0.374700270811E-14
  0.308086889333E-14
  0.477395900589E-14
  0.222044604925E-14
  0.162370117351E-14
  0.194289029309E-14
  0.102279296144E-13
 -0.212330153460E-14
  0.471844785466E-15
 -0.134614541736E-14
 -0.628663787694E-14
 -0.888178419700E-15
  0.716093850883E-14
 -0.413558076673E-14
  0.888178419700E-14
  0.448252546192E-14
  0.338618022511E-14
  0.654684639834E-14
  0.673072708679E-15
  0.521804821574E-14
 -0.111716191853E-14
  0.281719092499E-14
  0.162370117351E-14
 -0.766053886991E-14
  0.430211422042E-14
 -0.298372437868E-14
  0.957567358739E-15
  0.421884749358E-14
 -0.138777878078E-15
  0.402455846427E-15
 -0.503763697424E-14
  0.209554595898E-14
 -0.627276008913E-14
  0.550948175970E-14
  0.364985819346E-14
 -0.138777878078E-15
  0.720257187226E-14
  0.227595720048E-14
  0.144328993201E-13
 -0.929811783124E-15
 -0.437150315946E-14
 -0.995037385820E-14
 -0.703603841856E-14
 -0.105054853705E-13
  0.879851747015E-14
 -0.666133814775E-15
  0.853483950181E-15
 -0.971445146547E-15
  0.895811202994E-14
 -0.532907051820E-14
  0.233840724562E-14
  0.241473507856E-14
 -0.154043444667E-14
  0.176247905159E-14
  0.312250225676E-15
 -0.319189119580E-15
  0.147104550763E-14
 -0.255351295664E-14
  0.449640324973E-14
 -0.388578058619E-14
 -0.182492909673E-14
  0.520417042793E-14
  0.199146255042E-14
  0.582867087928E-15
  0.294209101526E-14
 -0.360822483003E-15
 -0.131422650540E-13
  0.136002320517E-14
 -0.416333634234E-16
  0.395516952523E-14
 -0.652256026967E-15
  0.410782519111E-14
 -0.775768338457E-14
 -0.158206781009E-14
  0.487110352054E-14
 -0.228983498829E-14
  0.253963516883E-14
  0.294209101526E-14
  0.360822483003E-15
  0.577315972805E-14
  0.401068067646E-14
  0.742461647718E-14
  0.194289029309E-14
 -0.725808302349E-14
 -0.317801340799E-14
 -0.782707232361E-14
 -0.889566198481E-14
  0.684174938925E-14
  0.142941214420E-14
  0.162370117351E-14
 -0.201227923213E-14
  0.127675647832E-14
 -0.793809462607E-14
  0.215105711021E-14
 -0.902056207508E-15
 -0.410782519111E-14
 -0.531519273039E-14
 -0.971445146547E-14
 -0.446864767412E-14
  0.259514632006E-14
 -0.228983498829E-14
 -0.271310751643E-14
 -0.474620343027E-14
 -0.115810139256E-13
  0.388578058619E-14
 -0.130520594332E-13
 -0.306005221162E-14
 -0.680011602583E-14
 -0.878463968235E-14
  0.749400541622E-14
 -0.416333634234E-14
  0.455191440096E-14
  0.104360964315E-13
 -0.778543896018E-14
  0.927036225562E-14
 -0.502375918643E-14
  0.228983498829E-14
  0.408006961550E-14
  0.341393580072E-14
 -0.288657986403E-14
  0.101307850997E-14
  0.241473507856E-14
  0.599520433298E-14
 -0.117961196366E-14
 -0.800748356511E-14