# vtk DataFile Version 3.0
TriPan results file. Generated by TriPan, USU AeroLab (c) 2021.
ASCII
DATASET POLYDATA
POINTS                  80 float
     20.000000000000      0.000000000000      0.000000000000
    100.000000000000      0.000000000000      0.000000000000
     21.256410598800      1.256410241130      0.000000000000
    100.000000000000      1.256410241130      0.000000000000
     22.512821197500      2.512820482250      0.000000000000
    100.000000000000      2.512820482250      0.000000000000
     23.769229888900      3.769230842590      0.000000000000
    100.000000000000      3.769230842590      0.000000000000
     25.025640487700      5.025640964510      0.000000000000
    100.000000000000      5.025640964510      0.000000000000
     26.282051086400      6.282051086430      0.000000000000
    100.000000000000      6.282051086430      0.000000000000
     27.538461685200      7.538461685180      0.000000000000
    100.000000000000      7.538461685180      0.000000000000
     28.794872283900      8.794871330260      0.000000000000
    100.000000000000      8.794871330260      0.000000000000
     30.051282882700     10.051281929000      0.000000000000
    100.000000000000     10.051281929000      0.000000000000
     31.307691574100     11.307692527800      0.000000000000
    100.000000000000     11.307692527800      0.000000000000
     32.564102172900     12.564102172900      0.000000000000
    100.000000000000     12.564102172900      0.000000000000
     33.820514679000     13.820512771600      0.000000000000
    100.000000000000     13.820512771600      0.000000000000
     35.076923370400     15.076923370400      0.000000000000
    100.000000000000     15.076923370400      0.000000000000
     36.333332061800     16.333333969100      0.000000000000
    100.000000000000     16.333333969100      0.000000000000
     37.589744567900     17.589742660500      0.000000000000
    100.000000000000     17.589742660500      0.000000000000
     38.846153259300     18.846153259300      0.000000000000
    100.000000000000     18.846153259300      0.000000000000
     40.102565765400     20.102563858000      0.000000000000
    100.000000000000     20.102563858000      0.000000000000
     41.358974456800     21.358974456800      0.000000000000
    100.000000000000     21.358974456800      0.000000000000
     42.615383148200     22.615385055500      0.000000000000
    100.000000000000     22.615385055500      0.000000000000
     43.871795654300     23.871795654300      0.000000000000
    100.000000000000     23.871795654300      0.000000000000
     45.128204345700     25.128204345700      0.000000000000
    100.000000000000     25.128204345700      0.000000000000
     46.384616851800     26.384614944500      0.000000000000
    100.000000000000     26.384614944500      0.000000000000
     47.641025543200     27.641025543200      0.000000000000
    100.000000000000     27.641025543200      0.000000000000
     48.897434234600     28.897436142000      0.000000000000
    100.000000000000     28.897436142000      0.000000000000
     50.153846740700     30.153846740700      0.000000000000
    100.000000000000     30.153846740700      0.000000000000
     51.410255432100     31.410257339500      0.000000000000
    100.000000000000     31.410257339500      0.000000000000
     52.666667938200     32.666667938200      0.000000000000
    100.000000000000     32.666667938200      0.000000000000
     53.923076629600     33.923076629600      0.000000000000
    100.000000000000     33.923076629600      0.000000000000
     55.179485321000     35.179485321000      0.000000000000
    100.000000000000     35.179485321000      0.000000000000
     56.435897827100     36.435897827100      0.000000000000
    100.000000000000     36.435897827100      0.000000000000
     57.692306518600     37.692306518600      0.000000000000
    100.000000000000     37.692306518600      0.000000000000
     58.948719024700     38.948719024700      0.000000000000
    100.000000000000     38.948719024700      0.000000000000
     60.205127716100     40.205127716100      0.000000000000
    100.000000000000     40.205127716100      0.000000000000
     61.461540222200     41.461540222200      0.000000000000
    100.000000000000     41.461540222200      0.000000000000
     62.717948913600     42.717948913600      0.000000000000
    100.000000000000     42.717948913600      0.000000000000
     63.974357605000     43.974357605000      0.000000000000
    100.000000000000     43.974357605000      0.000000000000
     65.230766296400     45.230770111100      0.000000000000
    100.000000000000     45.230770111100      0.000000000000
     66.487182617200     46.487178802500      0.000000000000
    100.000000000000     46.487178802500      0.000000000000
     67.743591308600     47.743591308600      0.000000000000
    100.000000000000     47.743591308600      0.000000000000
     69.000000000000     49.000000000000      0.000000000000
    100.000000000000     49.000000000000      0.000000000000
POLYGONS                  78                 312
3                   0                   1                   3
3                   0                   3                   2
3                   2                   3                   5
3                   2                   5                   4
3                   4                   5                   7
3                   4                   7                   6
3                   6                   7                   9
3                   6                   9                   8
3                   8                   9                  11
3                   8                  11                  10
3                  10                  11                  13
3                  10                  13                  12
3                  12                  13                  15
3                  12                  15                  14
3                  14                  15                  17
3                  14                  17                  16
3                  16                  17                  19
3                  16                  19                  18
3                  18                  19                  21
3                  18                  21                  20
3                  20                  21                  23
3                  20                  23                  22
3                  22                  23                  25
3                  22                  25                  24
3                  24                  25                  27
3                  24                  27                  26
3                  26                  27                  29
3                  26                  29                  28
3                  28                  29                  31
3                  28                  31                  30
3                  30                  31                  33
3                  30                  33                  32
3                  32                  33                  35
3                  32                  35                  34
3                  34                  35                  37
3                  34                  37                  36
3                  36                  37                  39
3                  36                  39                  38
3                  38                  39                  41
3                  38                  41                  40
3                  40                  41                  43
3                  40                  43                  42
3                  42                  43                  45
3                  42                  45                  44
3                  44                  45                  47
3                  44                  47                  46
3                  46                  47                  49
3                  46                  49                  48
3                  48                  49                  51
3                  48                  51                  50
3                  50                  51                  53
3                  50                  53                  52
3                  52                  53                  55
3                  52                  55                  54
3                  54                  55                  57
3                  54                  57                  56
3                  56                  57                  59
3                  56                  59                  58
3                  58                  59                  61
3                  58                  61                  60
3                  60                  61                  63
3                  60                  63                  62
3                  62                  63                  65
3                  62                  65                  64
3                  64                  65                  67
3                  64                  67                  66
3                  66                  67                  69
3                  66                  69                  68
3                  68                  69                  71
3                  68                  71                  70
3                  70                  71                  73
3                  70                  73                  72
3                  72                  73                  75
3                  72                  75                  74
3                  74                  75                  77
3                  74                  77                  76
3                  76                  77                  79
3                  76                  79                  78
POINT_DATA                  80
SCALARS mu float 1
LOOKUP_TABLE default
    -36.316301181402
    -36.316301181402
    -18.793136800262
    -18.793136800262
    -13.457514215302
    -13.457514215302
    -14.023705205991
    -14.023705205991
    -12.065547171655
    -12.065547171655
     -9.063329001278
     -9.063329001278
    -10.814816527578
    -10.814816527578
     -9.737800912554
     -9.737800912554
     -8.087791786502
     -8.087791786502
     -6.919803663798
     -6.919803663798
     -7.915233209527
     -7.915233209527
     -8.596000378012
     -8.596000378012
     -8.607630888680
     -8.607630888680
     -9.791009293630
     -9.791009293630
     -8.461574443104
     -8.461574443104
    -10.759671951107
    -10.759671951107
     -8.479147344883
     -8.479147344883
     -5.797260078977
     -5.797260078977
     -6.166731869614
     -6.166731869614
     -7.558355331667
     -7.558355331667
    -11.128330595090
    -11.128330595090
    -12.847326433078
    -12.847326433078
    -13.948242936929
    -13.948242936929
    -12.182654488337
    -12.182654488337
    -12.107473794069
    -12.107473794069
    -11.104871359365
    -11.104871359365
    -14.213138207818
    -14.213138207818
    -15.746377354672
    -15.746377354672
    -14.144518910457
    -14.144518910457
    -16.247263282561
    -16.247263282561
    -20.251036940538
    -20.251036940538
    -22.068149097010
    -22.068149097010
    -26.003168870307
    -26.003168870307
    -30.819040455378
    -30.819040455378
    -41.910928216194
    -41.910928216194
    -65.837987688525
    -65.837987688525
   -123.413250561044
   -123.413250561044
   -283.069453315722
   -283.069453315722
  -1019.769346563235
  -1019.769346563235
      0.000000000000
      0.000000000000
