# vtk DataFile Version 3.0
TriPan results file. Generated by TriPan, USU AeroLab (c) 2021.
ASCII
DATASET POLYDATA
POINTS                 704 float
  0.476456375309E-05  0.000000000000E+00  0.000000000000E+00
  0.447911218842E-05  0.421052634716E+00  0.000000000000E+00
  0.447911189904E-05  0.842105269432E+00  0.182066632791E-21
  0.447911236849E-05  0.126315784454E+01  0.000000000000E+00
  0.447911258705E-05  0.168421053886E+01  0.000000000000E+00
  0.447911142965E-05  0.210526323318E+01  0.000000000000E+00
  0.447911214996E-05  0.252631568909E+01  0.000000000000E+00
  0.447911258705E-05  0.294736838341E+01  0.000000000000E+00
  0.447911258705E-05  0.336842107773E+01  0.000000000000E+00
  0.447911258705E-05  0.378947377205E+01  0.000000000000E+00
  0.447911142961E-05  0.421052646637E+01  0.000000000000E+00
  0.447911099250E-05  0.463157892227E+01  0.000000000000E+00
  0.447911330738E-05  0.505263137817E+01  0.000000000000E+00
  0.447911186676E-05  0.547368431091E+01  0.000000000000E+00
  0.447911330735E-05  0.589473676682E+01  0.000000000000E+00
  0.447911186674E-05  0.631578969955E+01  0.000000000000E+00
  0.447911099252E-05  0.673684215546E+01  0.000000000000E+00
  0.447911330738E-05  0.715789461136E+01  0.000000000000E+00
  0.447911186671E-05  0.757894754410E+01  0.000000000000E+00
  0.254366756317E-05  0.799999770501E+01  0.808768670280E-21
  0.257793408580E+00  0.000000000000E+00 -0.131795675270E+00
  0.257793408580E+00  0.000000000000E+00  0.131795675270E+00
  0.257793646802E+00  0.421052634716E+00 -0.131795735340E+00
  0.257793646802E+00  0.421052634716E+00  0.131795735340E+00
  0.257793646802E+00  0.842105269432E+00 -0.131795735340E+00
  0.257793646802E+00  0.842105269432E+00  0.131795735340E+00
  0.257793646802E+00  0.126315784454E+01 -0.131795735340E+00
  0.257793646802E+00  0.126315784454E+01  0.131795735340E+00
  0.257793646802E+00  0.168421053886E+01 -0.131795735340E+00
  0.257793646802E+00  0.168421053886E+01  0.131795735340E+00
  0.257793646802E+00  0.210526323318E+01 -0.131795735341E+00
  0.257793646802E+00  0.210526323318E+01  0.131795735341E+00
  0.257793646802E+00  0.252631568909E+01 -0.131795735341E+00
  0.257793646802E+00  0.252631568909E+01  0.131795735341E+00
  0.257793646802E+00  0.294736838341E+01 -0.131795735340E+00
  0.257793646802E+00  0.294736838341E+01  0.131795735340E+00
  0.257793646802E+00  0.336842107773E+01 -0.131795735340E+00
  0.257793646802E+00  0.336842107773E+01  0.131795735340E+00
  0.257793646802E+00  0.378947377205E+01 -0.131795735340E+00
  0.257793646802E+00  0.378947377205E+01  0.131795735340E+00
  0.257793646802E+00  0.421052646637E+01 -0.131795735341E+00
  0.257793646802E+00  0.421052646637E+01  0.131795735341E+00
  0.257793646801E+00  0.463157892227E+01 -0.131795735341E+00
  0.257793646801E+00  0.463157892227E+01  0.131795735341E+00
  0.257793646802E+00  0.505263137817E+01 -0.131795735340E+00
  0.257793646802E+00  0.505263137817E+01  0.131795735340E+00
  0.257793646802E+00  0.547368431091E+01 -0.131795735340E+00
  0.257793646802E+00  0.547368431091E+01  0.131795735340E+00
  0.257793646802E+00  0.589473676682E+01 -0.131795735340E+00
  0.257793646802E+00  0.589473676682E+01  0.131795735340E+00
  0.257793646802E+00  0.631578969955E+01 -0.131795735340E+00
  0.257793646802E+00  0.631578969955E+01  0.131795735340E+00
  0.257793646801E+00  0.673684215546E+01 -0.131795735341E+00
  0.257793646801E+00  0.673684215546E+01  0.131795735341E+00
  0.257793646802E+00  0.715789461136E+01 -0.131795735340E+00
  0.257793646802E+00  0.715789461136E+01  0.131795735340E+00
  0.257793646802E+00  0.757894754410E+01 -0.131795735340E+00
  0.257793646802E+00  0.757894754410E+01  0.131795735340E+00
  0.257793344885E+00  0.799999933573E+01 -0.131796711276E+00
  0.257793344885E+00  0.799999933573E+01  0.131796711276E+00
  0.257792938451E+00  0.809319512484E+01 -0.931951994684E-01
  0.257792938451E+00  0.809319512484E+01  0.931951994684E-01
  0.257792941477E+00  0.813179767392E+01 -0.140524563986E-15
  0.536311090991E+00  0.000000000000E+00 -0.172265355624E+00
  0.536311090991E+00  0.000000000000E+00  0.172265355624E+00
  0.536311145390E+00  0.421052634716E+00 -0.172265343805E+00
  0.536311145390E+00  0.421052634716E+00  0.172265343805E+00
  0.536311145389E+00  0.842105269432E+00 -0.172265343805E+00
  0.536311145389E+00  0.842105269432E+00  0.172265343805E+00
  0.536311145390E+00  0.126315784454E+01 -0.172265343805E+00
  0.536311145390E+00  0.126315784454E+01  0.172265343805E+00
  0.536311145390E+00  0.168421053886E+01 -0.172265343804E+00
  0.536311145390E+00  0.168421053886E+01  0.172265343804E+00
  0.536311145389E+00  0.210526323318E+01 -0.172265343805E+00
  0.536311145389E+00  0.210526323318E+01  0.172265343805E+00
  0.536311145389E+00  0.252631568909E+01 -0.172265343805E+00
  0.536311145389E+00  0.252631568909E+01  0.172265343805E+00
  0.536311145390E+00  0.294736838341E+01 -0.172265343804E+00
  0.536311145390E+00  0.294736838341E+01  0.172265343804E+00
  0.536311145390E+00  0.336842107773E+01 -0.172265343804E+00
  0.536311145390E+00  0.336842107773E+01  0.172265343804E+00
  0.536311145390E+00  0.378947377205E+01 -0.172265343804E+00
  0.536311145390E+00  0.378947377205E+01  0.172265343804E+00
  0.536311145389E+00  0.421052646637E+01 -0.172265343805E+00
  0.536311145389E+00  0.421052646637E+01  0.172265343805E+00
  0.536311145389E+00  0.463157892227E+01 -0.172265343806E+00
  0.536311145389E+00  0.463157892227E+01  0.172265343806E+00
  0.536311145390E+00  0.505263137817E+01 -0.172265343804E+00
  0.536311145390E+00  0.505263137817E+01  0.172265343804E+00
  0.536311145390E+00  0.547368431091E+01 -0.172265343804E+00
  0.536311145390E+00  0.547368431091E+01  0.172265343804E+00
  0.536311145390E+00  0.589473676682E+01 -0.172265343804E+00
  0.536311145390E+00  0.589473676682E+01  0.172265343804E+00
  0.536311145390E+00  0.631578969955E+01 -0.172265343804E+00
  0.536311145390E+00  0.631578969955E+01  0.172265343804E+00
  0.536311145389E+00  0.673684215546E+01 -0.172265343806E+00
  0.536311145389E+00  0.673684215546E+01  0.172265343806E+00
  0.536311145390E+00  0.715789461136E+01 -0.172265343804E+00
  0.536311145390E+00  0.715789461136E+01  0.172265343804E+00
  0.536311145390E+00  0.757894754410E+01 -0.172265343804E+00
  0.536311145390E+00  0.757894754410E+01  0.172265343804E+00
  0.536311043437E+00  0.799999932197E+01 -0.172266299248E+00
  0.536311043437E+00  0.799999932197E+01  0.172266299248E+00
  0.536310951866E+00  0.812181100008E+01 -0.121811262543E+00
  0.536310951866E+00  0.812181100008E+01  0.121811262543E+00
  0.536310984225E+00  0.817226724107E+01  0.124536798326E-17
  0.799721193196E+00  0.000000000000E+00 -0.191199284362E+00
  0.799721193196E+00  0.000000000000E+00  0.191199284362E+00
  0.799721223010E+00  0.421052634716E+00 -0.191199272934E+00
  0.799721223010E+00  0.421052634716E+00  0.191199272934E+00
  0.799721223010E+00  0.842105269432E+00 -0.191199272934E+00
  0.799721223010E+00  0.842105269432E+00  0.191199272934E+00
  0.799721223010E+00  0.126315784454E+01 -0.191199272934E+00
  0.799721223010E+00  0.126315784454E+01  0.191199272934E+00
  0.799721223010E+00  0.168421053886E+01 -0.191199272934E+00
  0.799721223010E+00  0.168421053886E+01  0.191199272934E+00
  0.799721223010E+00  0.210526323318E+01 -0.191199272935E+00
  0.799721223010E+00  0.210526323318E+01  0.191199272935E+00
  0.799721223010E+00  0.252631568909E+01 -0.191199272935E+00
  0.799721223010E+00  0.252631568909E+01  0.191199272935E+00
  0.799721223010E+00  0.294736838341E+01 -0.191199272934E+00
  0.799721223010E+00  0.294736838341E+01  0.191199272934E+00
  0.799721223010E+00  0.336842107773E+01 -0.191199272934E+00
  0.799721223010E+00  0.336842107773E+01  0.191199272934E+00
  0.799721223010E+00  0.378947377205E+01 -0.191199272934E+00
  0.799721223010E+00  0.378947377205E+01  0.191199272934E+00
  0.799721223010E+00  0.421052646637E+01 -0.191199272935E+00
  0.799721223010E+00  0.421052646637E+01  0.191199272935E+00
  0.799721223010E+00  0.463157892227E+01 -0.191199272935E+00
  0.799721223010E+00  0.463157892227E+01  0.191199272935E+00
  0.799721223010E+00  0.505263137817E+01 -0.191199272934E+00
  0.799721223010E+00  0.505263137817E+01  0.191199272934E+00
  0.799721223010E+00  0.547368431091E+01 -0.191199272934E+00
  0.799721223010E+00  0.547368431091E+01  0.191199272934E+00
  0.799721223010E+00  0.589473676682E+01 -0.191199272934E+00
  0.799721223010E+00  0.589473676682E+01  0.191199272934E+00
  0.799721223010E+00  0.631578969955E+01 -0.191199272934E+00
  0.799721223010E+00  0.631578969955E+01  0.191199272934E+00
  0.799721223010E+00  0.673684215546E+01 -0.191199272935E+00
  0.799721223010E+00  0.673684215546E+01  0.191199272935E+00
  0.799721223010E+00  0.715789461136E+01 -0.191199272934E+00
  0.799721223010E+00  0.715789461136E+01  0.191199272934E+00
  0.799721223010E+00  0.757894754410E+01 -0.191199272934E+00
  0.799721223010E+00  0.757894754410E+01  0.191199272934E+00
  0.799721176061E+00  0.799999933141E+01 -0.191200204690E+00
  0.799721176061E+00  0.799999933141E+01  0.191200204690E+00
  0.799721134022E+00  0.813519964457E+01 -0.135199525819E+00
  0.799721134022E+00  0.813519964457E+01  0.135199525819E+00
  0.799721152158E+00  0.819120054732E+01 -0.320712640167E-17
  0.105025952291E+01  0.000000000000E+00 -0.198939228890E+00
  0.105025952291E+01  0.000000000000E+00  0.198939228890E+00
  0.105025954267E+01  0.421052634716E+00 -0.198939219847E+00
  0.105025954267E+01  0.421052634716E+00  0.198939219847E+00
  0.105025954267E+01  0.842105269432E+00 -0.198939219847E+00
  0.105025954267E+01  0.842105269432E+00  0.198939219847E+00
  0.105025954267E+01  0.126315784454E+01 -0.198939219847E+00
  0.105025954267E+01  0.126315784454E+01  0.198939219847E+00
  0.105025954267E+01  0.168421053886E+01 -0.198939219846E+00
  0.105025954267E+01  0.168421053886E+01  0.198939219846E+00
  0.105025954267E+01  0.210526323318E+01 -0.198939219847E+00
  0.105025954267E+01  0.210526323318E+01  0.198939219847E+00
[...]
POINT_DATA                 704
SCALARS phi float 1
LOOKUP_TABLE default
 -0.476456375314E-05
 -0.447911218840E-05
 -0.447911189901E-05
 -0.447911236856E-05
 -0.447911258692E-05
 -0.447911142970E-05
 -0.447911214985E-05
 -0.447911258725E-05
 -0.447911258688E-05
 -0.447911258694E-05
 -0.447911142974E-05
 -0.447911099215E-05
 -0.447911330755E-05
 -0.447911186687E-05
 -0.447911330734E-05
 -0.447911186693E-05
 -0.447911099279E-05
 -0.447911330719E-05
 -0.447911186659E-05
 -0.254366756296E-05
 -0.257793408580E+00
 -0.257793408580E+00
 -0.257793646802E+00
 -0.257793646802E+00
 -0.257793646802E+00
 -0.257793646802E+00
 -0.257793646802E+00
 -0.257793646802E+00
 -0.257793646802E+00
 -0.257793646802E+00
 -0.257793646802E+00
 -0.257793646802E+00
 -0.257793646802E+00
 -0.257793646802E+00
 -0.257793646802E+00
 -0.257793646802E+00
 -0.257793646802E+00
 -0.257793646802E+00
 -0.257793646802E+00
 -0.257793646802E+00
 -0.257793646802E+00
 -0.257793646802E+00
 -0.257793646801E+00
 -0.257793646801E+00
 -0.257793646802E+00
 -0.257793646802E+00
 -0.257793646802E+00
 -0.257793646802E+00
 -0.257793646802E+00
 -0.257793646802E+00
 -0.257793646802E+00
 -0.257793646802E+00
 -0.257793646801E+00
 -0.257793646801E+00
 -0.257793646802E+00
 -0.257793646802E+00
 -0.257793646802E+00
 -0.257793646802E+00
 -0.257793344885E+00
 -0.257793344885E+00
 -0.257792938451E+00
 -0.257792938451E+00
 -0.257792941477E+00
 -0.536311090991E+00
 -0.536311090991E+00
 -0.536311145390E+00
 -0.536311145390E+00
 -0.536311145389E+00
 -0.536311145389E+00
 -0.536311145390E+00
 -0.536311145390E+00
 -0.536311145390E+00
 -0.536311145390E+00
 -0.536311145389E+00
 -0.536311145389E+00
 -0.536311145389E+00
 -0.536311145389E+00
 -0.536311145390E+00
 -0.536311145390E+00
 -0.536311145390E+00
 -0.536311145390E+00
 -0.536311145390E+00
 -0.536311145390E+00
 -0.536311145389E+00
 -0.536311145389E+00
 -0.536311145389E+00
 -0.536311145389E+00
 -0.536311145390E+00
 -0.536311145390E+00
 -0.536311145390E+00
 -0.536311145390E+00
 -0.536311145390E+00
 -0.536311145390E+00
 -0.536311145390E+00
 -0.536311145390E+00
 -0.536311145389E+00
 -0.536311145389E+00
 -0.536311145390E+00
 -0.536311145390E+00
 -0.536311145390E+00
 -0.536311145390E+00
 -0.536311043437E+00
 -0.536311043437E+00
 -0.536310951866E+00
 -0.536310951866E+00
 -0.536310984225E+00
 -0.799721193196E+00
 -0.799721193196E+00
 -0.799721223010E+00
 -0.799721223010E+00
 -0.799721223010E+00
 -0.799721223010E+00
 -0.799721223010E+00
 -0.799721223010E+00
 -0.799721223010E+00
 -0.799721223010E+00
 -0.799721223010E+00
 -0.799721223010E+00
 -0.799721223010E+00
 -0.799721223010E+00
 -0.799721223010E+00
 -0.799721223010E+00
 -0.799721223010E+00
 -0.799721223010E+00
 -0.799721223010E+00
 -0.799721223010E+00
 -0.799721223010E+00
 -0.799721223010E+00
 -0.799721223010E+00
 -0.799721223010E+00
 -0.799721223010E+00
 -0.799721223010E+00
 -0.799721223010E+00
 -0.799721223010E+00
 -0.799721223010E+00
 -0.799721223010E+00
 -0.799721223010E+00
 -0.799721223010E+00
 -0.799721223010E+00
 -0.799721223010E+00
 -0.799721223010E+00
 -0.799721223010E+00
 -0.799721223010E+00
 -0.799721223010E+00
 -0.799721176061E+00
 -0.799721176061E+00
 -0.799721134022E+00
 -0.799721134022E+00
 -0.799721152158E+00
 -0.105025952291E+01
 -0.105025952291E+01
 -0.105025954267E+01
 -0.105025954267E+01
 -0.105025954267E+01
 -0.105025954267E+01
 -0.105025954267E+01
 -0.105025954267E+01
 -0.105025954267E+01
 -0.105025954267E+01
 -0.105025954267E+01
 -0.105025954267E+01
 -0.105025954267E+01
 -0.105025954267E+01
 -0.105025954267E+01
 -0.105025954267E+01
 -0.105025954267E+01
 -0.105025954267E+01
 -0.105025954267E+01
 -0.105025954267E+01
 -0.105025954267E+01
 -0.105025954267E+01
 -0.105025954267E+01
 -0.105025954267E+01
 -0.105025954267E+01
 -0.105025954267E+01
 -0.105025954267E+01
 -0.105025954267E+01
 -0.105025954267E+01
 -0.105025954267E+01
 -0.105025954267E+01
 -0.105025954267E+01
 -0.105025954267E+01
 -0.105025954267E+01
 -0.105025954267E+01
 -0.105025954267E+01
 -0.105025954267E+01
 -0.105025954267E+01
 -0.105025952761E+01
 -0.105025952761E+01
 -0.105025951359E+01
 -0.105025951359E+01
 -0.105025952555E+01
 -0.129081399707E+01
 -0.129081399707E+01
 -0.129081401143E+01
 -0.129081401143E+01
 -0.129081401143E+01
 -0.129081401143E+01
 -0.129081401143E+01
 -0.129081401143E+01
 -0.129081401143E+01
 -0.129081401143E+01
 -0.129081401143E+01
 -0.129081401143E+01
 -0.129081401143E+01
 -0.129081401143E+01
 -0.129081401143E+01
 -0.129081401143E+01
 -0.129081401143E+01
 -0.129081401143E+01
 -0.129081401143E+01
 -0.129081401143E+01
 -0.129081401143E+01
 -0.129081401143E+01
 -0.129081401143E+01
 -0.129081401143E+01
 -0.129081401143E+01
 -0.129081401143E+01
 -0.129081401143E+01
 -0.129081401143E+01
 -0.129081401143E+01
 -0.129081401143E+01
 -0.129081401143E+01
 -0.129081401143E+01
 -0.129081401143E+01
 -0.129081401143E+01
 -0.129081401143E+01
 -0.129081401143E+01
 -0.129081401143E+01
 -0.129081401143E+01
 -0.129081401868E+01
 -0.129081401868E+01
 -0.129081402406E+01
 -0.129081402406E+01
 -0.129081403250E+01
 -0.152410924540E+01
 -0.152410924540E+01
 -0.152410925651E+01
 -0.152410925651E+01
 -0.152410925651E+01
 -0.152410925651E+01
 -0.152410925651E+01
 -0.152410925651E+01
 -0.152410925651E+01
 -0.152410925651E+01
 -0.152410925651E+01
 -0.152410925651E+01
 -0.152410925651E+01
 -0.152410925651E+01
 -0.152410925651E+01
 -0.152410925651E+01
 -0.152410925651E+01
 -0.152410925651E+01
 -0.152410925651E+01
 -0.152410925651E+01
 -0.152410925651E+01
 -0.152410925651E+01
 -0.152410925651E+01
 -0.152410925651E+01
 -0.152410925651E+01
 -0.152410925651E+01
 -0.152410925651E+01
 -0.152410925651E+01
 -0.152410925651E+01
 -0.152410925651E+01
 -0.152410925651E+01
 -0.152410925651E+01
 -0.152410925651E+01
 -0.152410925651E+01
 -0.152410925651E+01
 -0.152410925651E+01
 -0.152410925651E+01
 -0.152410925651E+01
 -0.152410928111E+01
 -0.152410928111E+01
 -0.152410930159E+01
 -0.152410930159E+01
 -0.152410930781E+01
 -0.175265437637E+01
 -0.175265437637E+01
 -0.175265438531E+01
 -0.175265438531E+01
 -0.175265438531E+01
 -0.175265438531E+01
 -0.175265438531E+01
 -0.175265438531E+01
 -0.175265438531E+01
 -0.175265438531E+01
 -0.175265438531E+01
 -0.175265438531E+01
 -0.175265438531E+01
 -0.175265438531E+01
 -0.175265438531E+01
 -0.175265438531E+01
 -0.175265438531E+01
 -0.175265438531E+01
 -0.175265438531E+01
 -0.175265438531E+01
 -0.175265438531E+01
 -0.175265438531E+01
 -0.175265438531E+01
 -0.175265438531E+01
 -0.175265438531E+01
 -0.175265438531E+01
 -0.175265438531E+01
 -0.175265438531E+01
 -0.175265438531E+01
 -0.175265438531E+01
 -0.175265438531E+01
 -0.175265438531E+01
 -0.175265438531E+01
 -0.175265438531E+01
 -0.175265438531E+01
 -0.175265438531E+01
 -0.175265438531E+01
 -0.175265438531E+01
 -0.175265442438E+01
 -0.175265442438E+01
 -0.175265445754E+01
 -0.175265445754E+01
 -0.175265446226E+01
 -0.197879939480E+01
 -0.197879939480E+01
 -0.197879936513E+01
 -0.197879936513E+01
 -0.197879936513E+01
 -0.197879936513E+01
 -0.197879936513E+01
 -0.197879936513E+01
 -0.197879936513E+01
 -0.197879936513E+01
 -0.197879936513E+01
 -0.197879936513E+01
 -0.197879936513E+01
 -0.197879936513E+01
 -0.197879936513E+01
 -0.197879936513E+01
 -0.197879936513E+01
 -0.197879936513E+01
 -0.197879936513E+01
 -0.197879936513E+01
 -0.197879936513E+01
 -0.197879936513E+01
 -0.197879936513E+01
 -0.197879936513E+01
 -0.197879936513E+01
 -0.197879936513E+01
 -0.197879936513E+01
 -0.197879936513E+01
 -0.197879936513E+01
 -0.197879936513E+01
 -0.197879936513E+01
 -0.197879936513E+01
 -0.197879936513E+01
 -0.197879936513E+01
 -0.197879936513E+01
 -0.197879936513E+01
 -0.197879936513E+01
 -0.197879936513E+01
 -0.197879939417E+01
 -0.197879939417E+01
 -0.197879946237E+01
 -0.197879946237E+01
 -0.197879945330E+01
 -0.220481489734E+01
 -0.220481489734E+01
 -0.220481489079E+01
 -0.220481489079E+01
 -0.220481489079E+01
 -0.220481489079E+01
 -0.220481489079E+01
 -0.220481489079E+01
 -0.220481489079E+01
 -0.220481489079E+01
 -0.220481489079E+01
 -0.220481489079E+01
 -0.220481489079E+01
 -0.220481489079E+01
 -0.220481489079E+01
 -0.220481489079E+01
 -0.220481489079E+01
 -0.220481489079E+01
 -0.220481489079E+01
 -0.220481489079E+01
 -0.220481489079E+01
 -0.220481489079E+01
 -0.220481489079E+01
 -0.220481489079E+01
 -0.220481489079E+01
 -0.220481489079E+01
 -0.220481489079E+01
 -0.220481489079E+01
 -0.220481489079E+01
 -0.220481489079E+01
 -0.220481489079E+01
 -0.220481489079E+01
 -0.220481489079E+01
 -0.220481489079E+01
 -0.220481489079E+01
 -0.220481489079E+01
 -0.220481489079E+01
 -0.220481489079E+01
 -0.220481495317E+01
 -0.220481495317E+01
 -0.220481500877E+01
 -0.220481500877E+01
 -0.220481500566E+01
 -0.243297547899E+01
 -0.243297547899E+01
 -0.243297547307E+01
 -0.243297547307E+01
 -0.243297547307E+01
 -0.243297547307E+01
 -0.243297547307E+01
 -0.243297547307E+01
 -0.243297547307E+01
 -0.243297547307E+01
 -0.243297547307E+01
 -0.243297547307E+01
 -0.243297547307E+01
 -0.243297547307E+01
 -0.243297547307E+01
 -0.243297547307E+01
 -0.243297547307E+01
 -0.243297547307E+01
 -0.243297547307E+01
 -0.243297547307E+01
 -0.243297547307E+01
 -0.243297547307E+01
 -0.243297547307E+01
 -0.243297547307E+01
 -0.243297547307E+01
 -0.243297547307E+01
 -0.243297547307E+01
 -0.243297547307E+01
 -0.243297547307E+01
 -0.243297547307E+01
 -0.243297547307E+01
 -0.243297547307E+01
 -0.243297547307E+01
 -0.243297547307E+01
 -0.243297547307E+01
 -0.243297547307E+01
 -0.243297547307E+01
 -0.243297547307E+01
 -0.243297554629E+01
 -0.243297554629E+01
 -0.243297561165E+01
 -0.243297561165E+01
 -0.243297560884E+01
 -0.266564598947E+01
 -0.266564598947E+01
 -0.266564598379E+01
 -0.266564598379E+01
 -0.266564598379E+01
 -0.266564598379E+01
 -0.266564598379E+01
 -0.266564598379E+01
 -0.266564598379E+01
 -0.266564598379E+01
 -0.266564598379E+01
 -0.266564598379E+01
 -0.266564598379E+01
 -0.266564598379E+01
 -0.266564598379E+01
 -0.266564598379E+01
 -0.266564598379E+01
 -0.266564598379E+01
 -0.266564598379E+01
 -0.266564598379E+01
 -0.266564598379E+01
 -0.266564598379E+01
 -0.266564598379E+01
 -0.266564598379E+01
 -0.266564598379E+01
 -0.266564598379E+01
 -0.266564598379E+01
 -0.266564598379E+01
 -0.266564598379E+01
 -0.266564598379E+01
 -0.266564598379E+01
 -0.266564598379E+01
 -0.266564598379E+01
 -0.266564598379E+01
 -0.266564598379E+01
 -0.266564598379E+01
 -0.266564598379E+01
 -0.266564598379E+01
 -0.266564606752E+01
 -0.266564606752E+01
 -0.266564614228E+01
 -0.266564614228E+01
 -0.266564613943E+01
 -0.290538036658E+01
 -0.290538036658E+01
 -0.290538036088E+01
 -0.290538036088E+01
 -0.290538036088E+01
 -0.290538036088E+01
 -0.290538036088E+01
 -0.290538036088E+01
 -0.290538036088E+01
 -0.290538036088E+01
 -0.290538036088E+01
 -0.290538036088E+01
 -0.290538036088E+01
 -0.290538036088E+01
 -0.290538036088E+01
 -0.290538036088E+01
 -0.290538036088E+01
 -0.290538036088E+01
 -0.290538036088E+01
 -0.290538036088E+01
 -0.290538036088E+01
 -0.290538036088E+01
 -0.290538036088E+01
 -0.290538036088E+01
 -0.290538036088E+01
 -0.290538036088E+01
 -0.290538036088E+01
 -0.290538036088E+01
 -0.290538036088E+01
 -0.290538036088E+01
 -0.290538036088E+01
 -0.290538036088E+01
 -0.290538036088E+01
 -0.290538036088E+01
 -0.290538036088E+01
 -0.290538036088E+01
 -0.290538036088E+01
 -0.290538036088E+01
 -0.290538045506E+01
 -0.290538045506E+01
 -0.290538053912E+01
 -0.290538053912E+01
 -0.290538053593E+01
 -0.315503653207E+01
 -0.315503653207E+01
 -0.315503652596E+01
 -0.315503652596E+01
 -0.315503652596E+01
 -0.315503652596E+01
 -0.315503652596E+01
 -0.315503652596E+01
 -0.315503652596E+01
 -0.315503652596E+01
 -0.315503652596E+01
 -0.315503652596E+01
 -0.315503652596E+01
 -0.315503652596E+01
 -0.315503652596E+01
 -0.315503652596E+01
 -0.315503652596E+01
 -0.315503652596E+01
 -0.315503652596E+01
 -0.315503652596E+01
 -0.315503652596E+01
 -0.315503652596E+01
 -0.315503652596E+01
 -0.315503652596E+01
 -0.315503652596E+01
 -0.315503652596E+01
 -0.315503652596E+01
 -0.315503652596E+01
 -0.315503652596E+01
 -0.315503652596E+01
 -0.315503652596E+01
 -0.315503652596E+01
 -0.315503652596E+01
 -0.315503652596E+01
 -0.315503652596E+01
 -0.315503652596E+01
 -0.315503652596E+01
 -0.315503652596E+01
 -0.315503663083E+01
 -0.315503663083E+01
 -0.315503672427E+01
 -0.315503672427E+01
 -0.315503672035E+01
 -0.341791824988E+01
 -0.341791824988E+01
 -0.341791824292E+01
 -0.341791824292E+01
 -0.341791824292E+01
 -0.341791824292E+01
 -0.341791824292E+01
 -0.341791824292E+01
 -0.341791824292E+01
 -0.341791824292E+01
 -0.341791824292E+01
 -0.341791824292E+01
 -0.341791824292E+01
 -0.341791824292E+01
 -0.341791824292E+01
 -0.341791824292E+01
 -0.341791824292E+01
 -0.341791824292E+01
 -0.341791824292E+01
 -0.341791824292E+01
 -0.341791824292E+01
 -0.341791824292E+01
 -0.341791824292E+01
 -0.341791824292E+01
 -0.341791824292E+01
 -0.341791824292E+01
 -0.341791824292E+01
 -0.341791824292E+01
 -0.341791824292E+01
 -0.341791824292E+01
 -0.341791824292E+01
 -0.341791824292E+01
 -0.341791824292E+01
 -0.341791824292E+01
 -0.341791824292E+01
 -0.341791824292E+01
 -0.341791824292E+01
 -0.341791824292E+01
 -0.341791835913E+01
 -0.341791835913E+01
 -0.341791846237E+01
 -0.341791846237E+01
 -0.341791845723E+01
 -0.369796443047E+01
 -0.369796443047E+01
 -0.369796442197E+01
 -0.369796442197E+01
 -0.369796442197E+01
 -0.369796442197E+01
 -0.369796442197E+01
 -0.369796442197E+01
 -0.369796442197E+01
 -0.369796442197E+01
 -0.369796442197E+01
 -0.369796442197E+01
 -0.369796442197E+01
 -0.369796442197E+01
 -0.369796442197E+01
 -0.369796442197E+01
 -0.369796442197E+01
 -0.369796442197E+01
 -0.369796442197E+01
 -0.369796442197E+01
 -0.369796442197E+01
 -0.369796442197E+01
 -0.369796442197E+01
 -0.369796442197E+01
 -0.369796442197E+01
 -0.369796442197E+01
 -0.369796442197E+01
 -0.369796442197E+01
 -0.369796442197E+01
 -0.369796442197E+01
 -0.369796442197E+01
 -0.369796442197E+01
 -0.369796442197E+01
 -0.369796442197E+01
 -0.369796442197E+01
 -0.369796442197E+01
 -0.369796442197E+01
 -0.369796442197E+01
 -0.369796455075E+01
 -0.369796455075E+01
 -0.369796469062E+01
 -0.369796469062E+01
 -0.369796471776E+01
 -0.399999518046E+01
 -0.399999546612E+01
 -0.399999546612E+01
 -0.399999546612E+01
 -0.399999546612E+01
 -0.399999546612E+01
 -0.399999546612E+01
 -0.399999546612E+01
 -0.399999546612E+01
 -0.399999546612E+01
 -0.399999546612E+01
 -0.399999546612E+01
 -0.399999546612E+01
 -0.399999546612E+01
 -0.399999546612E+01
 -0.399999546612E+01
 -0.399999546612E+01
 -0.399999546612E+01
 -0.399999546612E+01
 -0.399999915308E+01
 -0.399999523682E+01
 -0.399999556261E+01
 -0.399999556261E+01
 -0.399999556261E+01
 -0.399999556261E+01
 -0.399999556261E+01
 -0.399999556261E+01
 -0.399999556261E+01
 -0.399999556261E+01
 -0.399999556261E+01
 -0.399999556261E+01
 -0.399999556261E+01
 -0.399999556261E+01
 -0.399999556261E+01
 -0.399999556261E+01
 -0.399999556261E+01
 -0.399999556261E+01
 -0.399999556261E+01
 -0.399999556261E+01
SCALARS phi_mu float 1
LOOKUP_TABLE default
 -0.476456375314E-05
 -0.447911218840E-05
 -0.447911189901E-05
 -0.447911236856E-05
 -0.447911258692E-05
 -0.447911142970E-05
 -0.447911214985E-05
 -0.447911258725E-05
 -0.447911258688E-05
 -0.447911258694E-05
 -0.447911142974E-05
 -0.447911099215E-05
 -0.447911330755E-05
 -0.447911186687E-05
 -0.447911330734E-05
 -0.447911186693E-05
 -0.447911099279E-05
 -0.447911330719E-05
 -0.447911186659E-05
 -0.254366756296E-05
 -0.257793408580E+00
 -0.257793408580E+00
 -0.257793646802E+00
 -0.257793646802E+00
 -0.257793646802E+00
 -0.257793646802E+00
 -0.257793646802E+00
 -0.257793646802E+00
 -0.257793646802E+00
 -0.257793646802E+00
 -0.257793646802E+00
 -0.257793646802E+00
 -0.257793646802E+00
 -0.257793646802E+00
 -0.257793646802E+00
 -0.257793646802E+00
 -0.257793646802E+00
 -0.257793646802E+00
 -0.257793646802E+00
 -0.257793646802E+00
 -0.257793646802E+00
 -0.257793646802E+00
 -0.257793646801E+00
 -0.257793646801E+00
 -0.257793646802E+00
 -0.257793646802E+00
 -0.257793646802E+00
 -0.257793646802E+00
 -0.257793646802E+00
 -0.257793646802E+00
 -0.257793646802E+00
 -0.257793646802E+00
 -0.257793646801E+00
 -0.257793646801E+00
 -0.257793646802E+00
 -0.257793646802E+00
 -0.257793646802E+00
 -0.257793646802E+00
 -0.257793344885E+00
 -0.257793344885E+00
 -0.257792938451E+00
 -0.257792938451E+00
 -0.257792941477E+00
 -0.536311090991E+00
 -0.536311090991E+00
 -0.536311145390E+00
 -0.536311145390E+00
 -0.536311145389E+00
 -0.536311145389E+00
 -0.536311145390E+00
 -0.536311145390E+00
 -0.536311145390E+00
 -0.536311145390E+00
 -0.536311145389E+00
 -0.536311145389E+00
 -0.536311145389E+00
 -0.536311145389E+00
 -0.536311145390E+00
 -0.536311145390E+00
 -0.536311145390E+00
 -0.536311145390E+00
 -0.536311145390E+00
 -0.536311145390E+00
 -0.536311145389E+00
 -0.536311145389E+00
 -0.536311145389E+00
 -0.536311145389E+00
 -0.536311145390E+00
 -0.536311145390E+00
 -0.536311145390E+00
 -0.536311145390E+00
 -0.536311145390E+00
 -0.536311145390E+00
 -0.536311145390E+00
 -0.536311145390E+00
 -0.536311145389E+00
 -0.536311145389E+00
 -0.536311145390E+00
 -0.536311145390E+00
 -0.536311145390E+00
 -0.536311145390E+00
 -0.536311043437E+00
 -0.536311043437E+00
 -0.536310951866E+00
 -0.536310951866E+00
 -0.536310984225E+00
 -0.799721193196E+00
 -0.799721193196E+00
 -0.799721223010E+00
 -0.799721223010E+00
 -0.799721223010E+00
 -0.799721223010E+00
 -0.799721223010E+00
 -0.799721223010E+00
 -0.799721223010E+00
 -0.799721223010E+00
 -0.799721223010E+00
 -0.799721223010E+00
 -0.799721223010E+00
 -0.799721223010E+00
 -0.799721223010E+00
 -0.799721223010E+00
 -0.799721223010E+00
 -0.799721223010E+00
 -0.799721223010E+00
 -0.799721223010E+00
 -0.799721223010E+00
 -0.799721223010E+00
 -0.799721223010E+00
 -0.799721223010E+00
 -0.799721223010E+00
 -0.799721223010E+00
 -0.799721223010E+00
 -0.799721223010E+00
 -0.799721223010E+00
 -0.799721223010E+00
 -0.799721223010E+00
 -0.799721223010E+00
 -0.799721223010E+00
 -0.799721223010E+00
 -0.799721223010E+00
 -0.799721223010E+00
 -0.799721223010E+00
 -0.799721223010E+00
 -0.799721176061E+00
 -0.799721176061E+00
 -0.799721134022E+00
 -0.799721134022E+00
 -0.799721152158E+00
 -0.105025952291E+01
 -0.105025952291E+01
 -0.105025954267E+01
 -0.105025954267E+01
 -0.105025954267E+01
 -0.105025954267E+01
 -0.105025954267E+01
 -0.105025954267E+01
 -0.105025954267E+01
 -0.105025954267E+01
 -0.105025954267E+01
 -0.105025954267E+01
 -0.105025954267E+01
 -0.105025954267E+01
 -0.105025954267E+01
 -0.105025954267E+01
 -0.105025954267E+01
 -0.105025954267E+01
 -0.105025954267E+01
 -0.105025954267E+01
 -0.105025954267E+01
 -0.105025954267E+01
 -0.105025954267E+01
 -0.105025954267E+01
 -0.105025954267E+01
 -0.105025954267E+01
 -0.105025954267E+01
 -0.105025954267E+01
 -0.105025954267E+01
 -0.105025954267E+01
 -0.105025954267E+01
 -0.105025954267E+01
 -0.105025954267E+01
 -0.105025954267E+01
 -0.105025954267E+01
 -0.105025954267E+01
 -0.105025954267E+01
 -0.105025954267E+01
 -0.105025952761E+01
 -0.105025952761E+01
 -0.105025951359E+01
 -0.105025951359E+01
 -0.105025952555E+01
 -0.129081399707E+01
 -0.129081399707E+01
 -0.129081401143E+01
 -0.129081401143E+01
 -0.129081401143E+01
 -0.129081401143E+01
 -0.129081401143E+01
 -0.129081401143E+01
 -0.129081401143E+01
 -0.129081401143E+01
 -0.129081401143E+01
 -0.129081401143E+01
 -0.129081401143E+01
 -0.129081401143E+01
 -0.129081401143E+01
 -0.129081401143E+01
 -0.129081401143E+01
 -0.129081401143E+01
 -0.129081401143E+01
 -0.129081401143E+01
 -0.129081401143E+01
 -0.129081401143E+01
 -0.129081401143E+01
 -0.129081401143E+01
 -0.129081401143E+01
 -0.129081401143E+01
 -0.129081401143E+01
 -0.129081401143E+01
 -0.129081401143E+01
 -0.129081401143E+01
 -0.129081401143E+01
 -0.129081401143E+01
 -0.129081401143E+01
 -0.129081401143E+01
 -0.129081401143E+01
 -0.129081401143E+01
 -0.129081401143E+01
 -0.129081401143E+01
 -0.129081401868E+01
 -0.129081401868E+01
 -0.129081402406E+01
 -0.129081402406E+01
 -0.129081403250E+01
 -0.152410924540E+01
 -0.152410924540E+01
 -0.152410925651E+01
 -0.152410925651E+01
 -0.152410925651E+01
 -0.152410925651E+01
 -0.152410925651E+01