# vtk DataFile Version 3.0
MFTran results file. Generated by MFTran, USU AeroLab (c) 2021.
ASCII
DATASET POLYDATA
POINTS                 704 float
      0.000004764564      0.000000000000      0.000000000000
      0.000004479112      0.421052634716      0.000000000000
      0.000004479112      0.842105269432      0.000000000000
      0.000004479112      1.263157844540      0.000000000000
      0.000004479113      1.684210538860      0.000000000000
      0.000004479111      2.105263233180      0.000000000000
      0.000004479112      2.526315689090      0.000000000000
      0.000004479113      2.947368383410      0.000000000000
      0.000004479113      3.368421077730      0.000000000000
      0.000004479113      3.789473772050      0.000000000000
      0.000004479111      4.210526466370      0.000000000000
      0.000004479111      4.631578922270      0.000000000000
      0.000004479113      5.052631378170      0.000000000000
      0.000004479112      5.473684310910      0.000000000000
      0.000004479113      5.894736766820      0.000000000000
      0.000004479112      6.315789699550      0.000000000000
      0.000004479111      6.736842155460      0.000000000000
      0.000004479113      7.157894611360      0.000000000000
      0.000004479112      7.578947544100      0.000000000000
      0.000002543668      7.999997705012      0.000000000000
      0.257793408580      0.000000000000     -0.131795675270
      0.257793408580      0.000000000000      0.131795675270
      0.257793646802      0.421052634716     -0.131795735340
      0.257793646802      0.421052634716      0.131795735340
      0.257793646802      0.842105269432     -0.131795735340
      0.257793646802      0.842105269432      0.131795735340
      0.257793646802      1.263157844540     -0.131795735340
      0.257793646802      1.263157844540      0.131795735340
      0.257793646802      1.684210538860     -0.131795735340
      0.257793646802      1.684210538860      0.131795735340
      0.257793646802      2.105263233180     -0.131795735341
      0.257793646802      2.105263233180      0.131795735341
      0.257793646802      2.526315689090     -0.131795735341
      0.257793646802      2.526315689090      0.131795735341
      0.257793646802      2.947368383410     -0.131795735340
      0.257793646802      2.947368383410      0.131795735340
      0.257793646802      3.368421077730     -0.131795735340
      0.257793646802      3.368421077730      0.131795735340
      0.257793646802      3.789473772050     -0.131795735340
      0.257793646802      3.789473772050      0.131795735340
      0.257793646802      4.210526466370     -0.131795735341
      0.257793646802      4.210526466370      0.131795735341
      0.257793646801      4.631578922270     -0.131795735341
      0.257793646801      4.631578922270      0.131795735341
      0.257793646802      5.052631378170     -0.131795735340
      0.257793646802      5.052631378170      0.131795735340
      0.257793646802      5.473684310910     -0.131795735340
      0.257793646802      5.473684310910      0.131795735340
      0.257793646802      5.894736766820     -0.131795735340
      0.257793646802      5.894736766820      0.131795735340
      0.257793646802      6.315789699550     -0.131795735340
      0.257793646802      6.315789699550      0.131795735340
      0.257793646801      6.736842155460     -0.131795735341
      0.257793646801      6.736842155460      0.131795735341
      0.257793646802      7.157894611360     -0.131795735340
      0.257793646802      7.157894611360      0.131795735340
      0.257793646802      7.578947544100     -0.131795735340
      0.257793646802      7.578947544100      0.131795735340
      0.257793344885      7.999999335729     -0.131796711276
      0.257793344885      7.999999335729      0.131796711276
      0.257792938451      8.093195124844     -0.093195199468
      0.257792938451      8.093195124844      0.093195199468
      0.257792941477      8.131797673924     -0.000000000000
      0.536311090991      0.000000000000     -0.172265355624
      0.536311090991      0.000000000000      0.172265355624
      0.536311145390      0.421052634716     -0.172265343805
      0.536311145390      0.421052634716      0.172265343805
      0.536311145389      0.842105269432     -0.172265343805
      0.536311145389      0.842105269432      0.172265343805
      0.536311145390      1.263157844540     -0.172265343805
      0.536311145390      1.263157844540      0.172265343805
      0.536311145390      1.684210538860     -0.172265343804
      0.536311145390      1.684210538860      0.172265343804
      0.536311145389      2.105263233180     -0.172265343805
      0.536311145389      2.105263233180      0.172265343805
      0.536311145389      2.526315689090     -0.172265343805
      0.536311145389      2.526315689090      0.172265343805
      0.536311145390      2.947368383410     -0.172265343804
      0.536311145390      2.947368383410      0.172265343804
      0.536311145390      3.368421077730     -0.172265343804
      0.536311145390      3.368421077730      0.172265343804
      0.536311145390      3.789473772050     -0.172265343804
      0.536311145390      3.789473772050      0.172265343804
      0.536311145389      4.210526466370     -0.172265343805
      0.536311145389      4.210526466370      0.172265343805
      0.536311145389      4.631578922270     -0.172265343806
      0.536311145389      4.631578922270      0.172265343806
      0.536311145390      5.052631378170     -0.172265343804
      0.536311145390      5.052631378170      0.172265343804
      0.536311145390      5.473684310910     -0.172265343804
      0.536311145390      5.473684310910      0.172265343804
      0.536311145390      5.894736766820     -0.172265343804
      0.536311145390      5.894736766820      0.172265343804
      0.536311145390      6.315789699550     -0.172265343804
      0.536311145390      6.315789699550      0.172265343804
      0.536311145389      6.736842155460     -0.172265343806
      0.536311145389      6.736842155460      0.172265343806
      0.536311145390      7.157894611360     -0.172265343804
      0.536311145390      7.157894611360      0.172265343804
      0.536311145390      7.578947544100     -0.172265343804
      0.536311145390      7.578947544100      0.172265343804
      0.536311043437      7.999999321970     -0.172266299248
      0.536311043437      7.999999321970      0.172266299248
      0.536310951866      8.121811000078     -0.121811262543
      0.536310951866      8.121811000078      0.121811262543
      0.536310984225      8.172267241072      0.000000000000
      0.799721193196      0.000000000000     -0.191199284362
      0.799721193196      0.000000000000      0.191199284362
      0.799721223010      0.421052634716     -0.191199272934
      0.799721223010      0.421052634716      0.191199272934
      0.799721223010      0.842105269432     -0.191199272934
      0.799721223010      0.842105269432      0.191199272934
      0.799721223010      1.263157844540     -0.191199272934
      0.799721223010      1.263157844540      0.191199272934
      0.799721223010      1.684210538860     -0.191199272934
      0.799721223010      1.684210538860      0.191199272934
      0.799721223010      2.105263233180     -0.191199272935
      0.799721223010      2.105263233180      0.191199272935
      0.799721223010      2.526315689090     -0.191199272935
      0.799721223010      2.526315689090      0.191199272935
      0.799721223010      2.947368383410     -0.191199272934
      0.799721223010      2.947368383410      0.191199272934
      0.799721223010      3.368421077730     -0.191199272934
      0.799721223010      3.368421077730      0.191199272934
      0.799721223010      3.789473772050     -0.191199272934
      0.799721223010      3.789473772050      0.191199272934
      0.799721223010      4.210526466370     -0.191199272935
      0.799721223010      4.210526466370      0.191199272935
      0.799721223010      4.631578922270     -0.191199272935
      0.799721223010      4.631578922270      0.191199272935
      0.799721223010      5.052631378170     -0.191199272934
      0.799721223010      5.052631378170      0.191199272934
      0.799721223010      5.473684310910     -0.191199272934
      0.799721223010      5.473684310910      0.191199272934
      0.799721223010      5.894736766820     -0.191199272934
      0.799721223010      5.894736766820      0.191199272934
      0.799721223010      6.315789699550     -0.191199272934
      0.799721223010      6.315789699550      0.191199272934
      0.799721223010      6.736842155460     -0.191199272935
      0.799721223010      6.736842155460      0.191199272935
      0.799721223010      7.157894611360     -0.191199272934
      0.799721223010      7.157894611360      0.191199272934
      0.799721223010      7.578947544100     -0.191199272934
      0.799721223010      7.578947544100      0.191199272934
      0.799721176061      7.999999331409     -0.191200204690
      0.799721176061      7.999999331409      0.191200204690
      0.799721134022      8.135199644571     -0.135199525819
      0.799721134022      8.135199644571      0.135199525819
      0.799721152158      8.191200547324     -0.000000000000
      1.050259522907      0.000000000000     -0.198939228890
      1.050259522907      0.000000000000      0.198939228890
      1.050259542673      0.421052634716     -0.198939219847
      1.050259542673      0.421052634716      0.198939219847
      1.050259542673      0.842105269432     -0.198939219847
      1.050259542673      0.842105269432      0.198939219847
      1.050259542673      1.263157844540     -0.198939219847
      1.050259542673      1.263157844540      0.198939219847
      1.050259542673      1.684210538860     -0.198939219846
      1.050259542673      1.684210538860      0.198939219846
      1.050259542673      2.105263233180     -0.198939219847
      1.050259542673      2.105263233180      0.198939219847
[...]
POINT_DATA                 704
SCALARS phi float 1
LOOKUP_TABLE default
     -0.000004542833
      0.120433109926
      0.240870490517
      0.361307854058
      0.481745251699
      0.602182649340
      0.722619978786
      0.843057376426
      0.963494774066
      1.083932171707
      1.204369569348
      1.324806898792
      1.445244228233
      1.565681694072
      1.686119023517
      1.806556489353
      1.926993818800
      2.047431148241
      2.167868614081
      2.288307132442
     -0.233230146256
     -0.258362595415
     -0.112792987072
     -0.137925447686
      0.007644393519
     -0.017488067095
      0.128081757060
      0.102949296447
      0.248519154701
      0.223386694087
      0.368956552342
      0.343824091728
      0.489393881788
      0.464261421174
      0.609831279428
      0.584698818814
      0.730268677069
      0.705136216455
      0.850706074709
      0.825573614095
      0.971143472350
      0.946011011736
      1.091580801793
      1.066448341179
      1.212018131236
      1.186885670622
      1.332455597074
      1.307323136460
      1.452892926520
      1.427760465906
      1.573330392355
      1.548197931741
      1.693767721802
      1.668635261188
      1.814205051244
      1.789072590631
      1.934642517082
      1.909510056469
      2.055080037436
      2.029947390719
      2.078057524735
      2.060285897497
      2.080213534151
     -0.494927704256
     -0.527777418658
     -0.374490376659
     -0.407340088807
     -0.254052996067
     -0.286902708215
     -0.133615632526
     -0.166465344674
     -0.013178234885
     -0.046027947034
      0.107259162755
      0.074409450607
      0.227696492201
      0.194846780053
      0.348133889842
      0.315284177694
      0.468571287482
      0.435721575334
      0.589008685123
      0.556158972975
      0.709446082764
      0.676596370615
      0.829883412207
      0.797033700058
      0.950320741650
      0.917471029502
      1.070758207488
      1.037908495339
      1.191195536934
      1.158345824786
      1.311633002769
      1.278783290621
      1.432070332215
      1.399220620067
      1.552507661658
      1.519657949510
      1.672945127496
      1.640095415348
      1.793382451302
      1.760532556958
      1.823414703021
      1.800186206664
      1.826232865443
     -0.744274103066
     -0.780734376012
     -0.623836751991
     -0.660297022757
     -0.503399371399
     -0.539859642166
     -0.382962007858
     -0.419422278625
     -0.262524610217
     -0.298984880984
     -0.142087212577
     -0.178547483344
     -0.021649883131
     -0.058110153897
      0.098787514510
      0.062327243743
      0.219224912150
      0.182764641384
      0.339662309791
      0.303202039024
      0.460099707432
      0.423639436665
      0.580537036875
      0.544076766108
      0.700974366318
      0.664514095551
      0.821411832156
      0.784951561389
      0.941849161602
      0.905388890835
      1.062286627437
      1.025826356670
      1.182723956883
      1.146263686116
      1.303161286326
      1.266701015559
      1.423598752164
      1.387138481397
      1.544036023968
      1.507575575522
      1.577369141019
      1.551587603028
      1.580496784453
     -0.982415052863
     -1.020351275319
     -0.861977691979
     -0.899913912711
     -0.741540311388
     -0.779476532119
     -0.621102947846
     -0.659039168578
     -0.500665550206
     -0.538601770937
     -0.380228152565
     -0.418164373297
     -0.259790823119
     -0.297727043851
     -0.139353425479
     -0.177289646210
     -0.018916027838
     -0.056852248570
      0.101521369802
      0.063585149071
      0.221958767443
      0.184022546711
      0.342396096886
      0.304459876155
      0.462833426329
      0.424897205598
      0.583270892167
      0.545334671436
      0.703708221613
      0.665772000882
      0.824145687448
      0.786209466717
      0.944583016895
      0.906646796163
      1.065020346338
      1.027084125606
      1.185457812175
      1.147521591444
      1.305895055933
      1.267958658952
      1.340577533252
      1.313752342988
      1.343831776358
     -1.211705472177
     -1.249780239591
     -1.091268105909
     -1.129342872060
     -0.970830725318
     -1.008905491469
     -0.850393361777
     -0.888468127927
     -0.729955964136
     -0.768030730287
     -0.609518566495
     -0.647593332646
     -0.489081237049
     -0.527156003200
     -0.368643839409
     -0.406718605560
     -0.248206441768
     -0.286281207919
     -0.127769044128
     -0.165843810279
     -0.007331646487
     -0.045406412638
      0.113105682956
      0.075030916805
      0.233543012399
      0.195468246248
      0.353980478237
      0.315905712086
      0.474417807683
      0.436343041532
      0.594855273518
      0.556780507367
      0.715292602964
      0.677217836813
      0.835729932407
      0.797655166257
      0.956167398245
      0.918092632094
      1.076604624045
      1.038529680879
      1.111413561041
      1.084490404191
      1.114679933207
     -1.434536924700
     -1.471825370125
     -1.314099555120
     -1.351387999704
     -1.193662174529
     -1.230950619112
     -1.073224810988
     -1.110513255571
     -0.952787413347
     -0.990075857930
     -0.832350015706
     -0.869638460290
     -0.711912686260
     -0.749201130844
     -0.591475288620
     -0.628763733203
     -0.471037890979
     -0.508326335563
     -0.350600493339
     -0.387888937922
     -0.230163095698
     -0.267451540282
     -0.109725766255
     -0.147014210839
      0.010711563188
     -0.026576881395
      0.131149029026
      0.093860584443
      0.251586358472
      0.214297913889
      0.372023824307
      0.334735379724
      0.492461153753
      0.455172709170
      0.612898483196
      0.575610038613
      0.733335949034
      0.696047504451
      0.853773162060
      0.816484538139
      0.887863337224
      0.861496188014
      0.891062098183
     -1.653185165905
     -1.688995593588
     -1.532747794059
     -1.568558221291
     -1.412310413468
     -1.448120840700
     -1.291873049927
     -1.327683477159
     -1.171435652286
     -1.207246079518
     -1.050998254645
     -1.086808681878
     -0.930560925199
     -0.966371352432
     -0.810123527559
     -0.845933954791
     -0.689686129918
     -0.725496557150
     -0.569248732278
     -0.605059159510
     -0.448811334637
     -0.484621761869
     -0.328374005194
     -0.364184432426
     -0.207936675751
     -0.243747102983
     -0.087499209913
     -0.123309637145
      0.032938119533
     -0.002872307699
      0.153375585368
      0.117565158136
      0.273812914814
      0.238002487582
      0.394250244257
      0.358439817025
      0.514687710095
      0.478877282863
      0.635124913254
      0.599314303240
      0.667863824339
      0.642541788580
      0.670935913595
     -1.869820266513
     -1.903602122618
     -1.749382911511
     -1.783164659852
     -1.628945530919
     -1.662727279261
     -1.508508167378
     -1.542289915719
     -1.388070769737
     -1.421852518079
     -1.267633372097
     -1.301415120438
     -1.147196042651
     -1.180977790992
     -1.026758645010
     -1.060540393351
     -0.906321247370
     -0.940102995711
     -0.785883849729
     -0.819665598070
     -0.665446452088
     -0.699228200430
     -0.545009122645
     -0.578790870987
     -0.424571793202
     -0.458353541544
     -0.304134327364
     -0.337916075705
     -0.183696997918
     -0.217478746260
     -0.063259532083
     -0.097041280424
      0.057177797363
      0.023396049021
      0.177615126806
      0.143833378465
      0.298052592644
      0.264270844303
      0.418489813525
      0.384707959733
      0.449374087409
      0.425486578287
      0.452272151889
     -2.086567093290
     -2.117849948365
     -1.966129706605
     -1.997412561378
     -1.845692326014
     -1.876975180786
     -1.725254962473
     -1.756537817245
     -1.604817564832
     -1.636100419604
     -1.484380167192
     -1.515663021964
     -1.363942837745
     -1.395225692518
     -1.243505440105
     -1.274788294877
     -1.123068042464
     -1.154350897237
     -1.002630644824
     -1.033913499596
     -0.882193247183
     -0.913476101956
     -0.761755917740
     -0.793038772513
     -0.641318588297
     -0.672601443069
     -0.520881122459
     -0.552163977231
     -0.400443793013
     -0.431726647785
     -0.280006327178
     -0.311289181950
     -0.159568997732
     -0.190851852504
     -0.039131668289
     -0.070414523061
      0.081305797549
      0.050022942777
      0.201742984772
      0.170459939624
      0.230342786120
      0.208222214308
      0.233026459379
     -2.305575179347
     -2.333927020192
     -2.185137793460
     -2.213489633600
     -2.064700412868
     -2.093052253008
     -1.944263049327
     -1.972614889467
     -1.823825651687
     -1.852177491826
     -1.703388254046
     -1.731740094186
     -1.582950924600
     -1.611302764740
     -1.462513526959
     -1.490865367099
     -1.342076129319
     -1.370427969459
     -1.221638731678
     -1.249990571818
     -1.101201334038
     -1.129553174178
     -0.980764004594
     -1.009115844735
     -0.860326675151
     -0.888678515291
     -0.739889209313
     -0.768241049453
     -0.619451879867
     -0.647803720007
     -0.499014414032
     -0.527366254172
     -0.378577084586
     -0.406928924726
     -0.258139755143
     -0.286491595283
     -0.137702289305
     -0.166054129445
     -0.017265109011
     -0.045617144984
      0.008654966403
     -0.011393073994
      0.011087348886
     -2.529094360518
     -2.554093093739
     -2.408656975094
     -2.433655707158
     -2.288219594503
     -2.313218326567
     -2.167782230962
     -2.192780963025
     -2.047344833321
     -2.072343565385
     -1.926907435680
     -1.951906167744
     -1.806470106234
     -1.831468838298
     -1.686032708594
     -1.711031440658
     -1.565595310953
     -1.590594043017
     -1.445157913313
     -1.470156645377
     -1.324720515672
     -1.349719247736
     -1.204283186229
     -1.229281918293
     -1.083845856786
     -1.108844588850
     -0.963408390948
     -0.988407123012
     -0.842971061502
     -0.867969793566
     -0.722533595667
     -0.747532327731
     -0.602096266221
     -0.627094998285
     -0.481658936778
     -0.506657668841
     -0.361221470940
     -0.386220203003
     -0.240784297704
     -0.265783231435
     -0.217929508376
     -0.235606550493
     -0.215784952634
     -2.759570599219
     -2.780772374904
     -2.639133214045
     -2.660334988036
     -2.518695833453
     -2.539897607445
     -2.398258469912
     -2.419460243904
     -2.277821072272
     -2.299022846263
     -2.157383674631
     -2.178585448623
     -2.036946345185
     -2.058148119177
     -1.916508947544
     -1.937710721536
     -1.796071549904
     -1.817273323895
     -1.675634152263
     -1.696835926255
     -1.555196754623
     -1.576398528614
     -1.434759425180
     -1.455961199171
     -1.314322095736
     -1.335523869728
     -1.193884629898
     -1.215086403890
     -1.073447300452
     -1.094649074444
     -0.953009834617
     -0.974211608609
     -0.832572505171
     -0.853774279163
     -0.712135175728
     -0.733336949720
     -0.591697709890
     -0.612899483882
     -0.471260544314
     -0.492462526068
     -0.451877146945
     -0.466869342261
     -0.450058265444
     -2.999752695291
     -3.016665906763
     -2.879315310054
     -2.896228519172
     -2.758877929463
     -2.775791138580
     -2.638440565922
     -2.655353775039
     -2.518003168281
     -2.534916377398
     -2.397565770641
     -2.414478979758
     -2.277128441195
     -2.294041650312
     -2.156691043554
     -2.173604252671
     -2.036253645913
     -2.053166855030
     -1.915816248273
     -1.932729457390
     -1.795378850632
     -1.812292059750
     -1.674941521189
     -1.691854730306
     -1.554504191746
     -1.571417400863
     -1.434066725908
     -1.450979935025
     -1.313629396462
     -1.330542605579
     -1.193191930627
     -1.210105139744
     -1.072754601181
     -1.089667810298
     -0.952317271738
     -0.969230480855
     -0.831879805900
     -0.848793015017
     -0.711442649085
     -0.728356072227
     -0.695979676717
     -0.707939407361
     -0.694528982811
     -3.252833029604
     -3.264881339111
     -3.132395643980
     -3.144443950286
     -3.011958263389
     -3.024006569695
     -2.891520899847
     -2.903569206153
     -2.771083502207
     -2.783131808513
     -2.650646104566
     -2.662694410872
     -2.530208775120
     -2.542257081426
     -2.409771377480
     -2.421819683786
     -2.289333979839
     -2.301382286145
     -2.168896582199
     -2.180944888505
     -2.048459184558
     -2.060507490864
     -1.928021855115
     -1.940070161421
     -1.807584525672
     -1.819632831978
     -1.687147059834
     -1.699195366140
     -1.566709730388
     -1.578758036694
     -1.446272264553
     -1.458320570859
     -1.325834935107
     -1.337883241413
     -1.205397605663
     -1.217445911969
     -1.084960139826
     -1.097008446131
     -0.964522993506
     -0.976571520207
     -0.953507637329
     -0.962027370970
     -0.952473968337
     -3.522632052078
     -3.529109429551
     -3.402194665538
     -3.408672038695
     -3.281757284947
     -3.288234658103
     -3.161319921406
     -3.167797294562
     -3.040882523765
     -3.047359896921
     -2.920445126125
     -2.926922499281
     -2.800007796679
     -2.806485169835
     -2.679570399038
     -2.686047772194
     -2.559133001397
     -2.565610374554
     -2.438695603757
     -2.445172976913
     -2.318258206116
     -2.324735579273
     -2.197820876673
     -2.204298249830
     -2.077383547230
     -2.083860920386
     -1.956946081392
     -1.963423454548
     -1.836508751946
     -1.842986125102
     -1.716071286111
     -1.722548659267
     -1.595633956665
     -1.602111329821
     -1.475196627222
     -1.481674000378
     -1.354759161384
     -1.361236534540
     -1.234322028145
     -1.240799628161
     -1.228399687202
     -1.232980236362
     -1.227844050837
     -3.813845736048
     -3.693408629349
     -3.572971248758
     -3.452533885216
     -3.332096487575
     -3.211659089936
     -3.091221760489
     -2.970784362848
     -2.850346965208
     -2.729909567567
     -2.609472169928
     -2.489034840485
     -2.368597511040
     -2.248160045203
     -2.127722715756
     -2.007285249922
     -1.886847920477
     -1.766410591031
     -1.645973125195
     -1.525540323772
     -3.693408677666
     -3.813845787410
     -3.572971297075
     -3.452533933533
     -3.332096535892
     -3.211659138253
     -3.091221808806
     -2.970784411165
     -2.850347013525
     -2.729909615884
     -2.609472218245
     -2.489034888802
     -2.368597559357
     -2.248160093520
     -2.127722764073
     -2.007285298239
     -1.886847968794
     -1.766410639348
     -1.645973173512
SCALARS phi_mu float 1
LOOKUP_TABLE default
     -0.000004542833
      0.120433109926
      0.240870490517
      0.361307854058
      0.481745251699
      0.602182649340
      0.722619978786
      0.843057376426
      0.963494774066
      1.083932171707
      1.204369569348
      1.324806898792
      1.445244228233
      1.565681694072
      1.686119023517
      1.806556489353
      1.926993818800
      2.047431148241
      2.167868614081
      2.288307132442
     -0.233230146256
     -0.258362595415
     -0.112792987072
     -0.137925447686
      0.007644393519
     -0.017488067095
      0.128081757060
      0.102949296447
      0.248519154701
      0.223386694087
      0.368956552342
      0.343824091728
      0.489393881788
      0.464261421174
      0.609831279428
      0.584698818814
      0.730268677069
      0.705136216455
      0.850706074709
      0.825573614095
      0.971143472350
      0.946011011736
      1.091580801793
      1.066448341179
      1.212018131236
      1.186885670622
      1.332455597074
      1.307323136460
      1.452892926520
      1.427760465906
      1.573330392355
      1.548197931741
      1.693767721802
      1.668635261188
      1.814205051244
      1.789072590631
      1.934642517082
      1.909510056469
      2.055080037436
      2.029947390719
      2.078057524735
      2.060285897497
      2.080213534151
     -0.494927704256
     -0.527777418658
     -0.374490376659
     -0.407340088807
     -0.254052996067
     -0.286902708215
     -0.133615632526
     -0.166465344674
     -0.013178234885
     -0.046027947034
      0.107259162755
      0.074409450607
      0.227696492201
      0.194846780053
      0.348133889842
      0.315284177694
      0.468571287482
      0.435721575334
      0.589008685123
      0.556158972975
      0.709446082764
      0.676596370615
      0.829883412207
      0.797033700058
      0.950320741650
      0.917471029502
      1.070758207488
      1.037908495339
      1.191195536934
      1.158345824786
      1.311633002769
      1.278783290621
      1.432070332215
      1.399220620067
      1.552507661658
      1.519657949510
      1.672945127496
      1.640095415348
      1.793382451302
      1.760532556958
      1.823414703021
      1.800186206664
      1.826232865443
     -0.744274103066
     -0.780734376012
     -0.623836751991
     -0.660297022757
     -0.503399371399
     -0.539859642166
     -0.382962007858
     -0.419422278625
     -0.262524610217
     -0.298984880984
     -0.142087212577
     -0.178547483344
     -0.021649883131
     -0.058110153897
      0.098787514510
      0.062327243743
      0.219224912150
      0.182764641384
      0.339662309791
      0.303202039024
      0.460099707432
      0.423639436665
      0.580537036875
      0.544076766108
      0.700974366318
      0.664514095551
      0.821411832156
      0.784951561389
      0.941849161602
      0.905388890835
      1.062286627437
      1.025826356670
      1.182723956883
      1.146263686116
      1.303161286326
      1.266701015559
      1.423598752164
      1.387138481397
      1.544036023968
      1.507575575522
      1.577369141019
      1.551587603028
      1.580496784453
     -0.982415052863
     -1.020351275319
     -0.861977691979
     -0.899913912711
     -0.741540311388
     -0.779476532119
     -0.621102947846
     -0.659039168578
     -0.500665550206
     -0.538601770937
     -0.380228152565
     -0.418164373297
     -0.259790823119
     -0.297727043851
     -0.139353425479
     -0.177289646210
     -0.018916027838
     -0.056852248570
      0.101521369802
      0.063585149071
      0.221958767443
      0.184022546711
      0.342396096886
      0.304459876155
      0.462833426329
      0.424897205598
      0.583270892167
      0.545334671436
      0.703708221613
      0.665772000882
      0.824145687448
      0.786209466717
      0.944583016895
      0.906646796163
      1.065020346338
      1.027084125606
      1.185457812175
      1.147521591444
      1.305895055933
      1.267958658952
      1.340577533252
      1.313752342988
      1.343831776358
     -1.211705472177
     -1.249780239591
     -1.091268105909
     -1.129342872060
     -0.970830725318
     -1.008905491469
     -0.850393361777
     -0.888468127927
     -0.729955964136
     -0.768030730287
     -0.609518566495
     -0.647593332646
     -0.489081237049
     -0.527156003200
     -0.368643839409
     -0.406718605560
     -0.248206441768
     -0.286281207919
     -0.127769044128
     -0.165843810279
     -0.007331646487
     -0.045406412638
      0.113105682956
      0.075030916805
      0.233543012399
      0.195468246248
      0.353980478237
      0.315905712086
      0.474417807683
      0.436343041532
      0.594855273518
      0.556780507367
      0.715292602964
      0.677217836813
      0.835729932407
      0.797655166257
      0.956167398245
      0.918092632094
      1.076604624045
      1.038529680879
      1.111413561041
      1.084490404191
      1.114679933207
     -1.434536924700
     -1.471825370125
     -1.314099555120
     -1.351387999704
     -1.193662174529
     -1.230950619112
     -1.073224810988