# vtk DataFile Version 3.0
MachLine results file. Generated by MachLine, USU AeroLab (c) 2022.
ASCII
DATASET POLYDATA
POINTS                  40 float
  0.400000000000E+01  0.800000000000E+01  0.000000000000E+00
  0.800000000000E+02  0.800000000000E+01  0.000000000000E+00
  0.400000000000E+01  0.757894754410E+01  0.000000000000E+00
  0.800000000000E+02  0.757894754410E+01  0.000000000000E+00
  0.400000000000E+01  0.421052634716E+00  0.000000000000E+00
  0.800000000000E+02  0.421052634716E+00  0.000000000000E+00
  0.400000000000E+01  0.000000000000E+00  0.000000000000E+00
  0.800000000000E+02  0.000000000000E+00  0.000000000000E+00
  0.400000000000E+01  0.252631568909E+01  0.000000000000E+00
  0.800000000000E+02  0.252631568909E+01  0.000000000000E+00
  0.400000000000E+01  0.210526323318E+01  0.000000000000E+00
  0.800000000000E+02  0.210526323318E+01  0.000000000000E+00
  0.400000000000E+01  0.589473676682E+01  0.000000000000E+00
  0.800000000000E+02  0.589473676682E+01  0.000000000000E+00
  0.400000000000E+01  0.547368431091E+01  0.000000000000E+00
  0.800000000000E+02  0.547368431091E+01  0.000000000000E+00
  0.400000000000E+01  0.715789461136E+01  0.000000000000E+00
  0.800000000000E+02  0.715789461136E+01  0.000000000000E+00
  0.400000000000E+01  0.673684215546E+01  0.000000000000E+00
  0.800000000000E+02  0.673684215546E+01  0.000000000000E+00
  0.400000000000E+01  0.168421053886E+01  0.000000000000E+00
  0.800000000000E+02  0.168421053886E+01  0.000000000000E+00
  0.400000000000E+01  0.126315784454E+01  0.000000000000E+00
  0.800000000000E+02  0.126315784454E+01  0.000000000000E+00
  0.400000000000E+01  0.505263137817E+01  0.000000000000E+00
  0.800000000000E+02  0.505263137817E+01  0.000000000000E+00
  0.400000000000E+01  0.463157892227E+01  0.000000000000E+00
  0.800000000000E+02  0.463157892227E+01  0.000000000000E+00
  0.400000000000E+01  0.294736838341E+01  0.000000000000E+00
  0.800000000000E+02  0.294736838341E+01  0.000000000000E+00
  0.400000000000E+01  0.631578969955E+01  0.000000000000E+00
  0.800000000000E+02  0.631578969955E+01  0.000000000000E+00
  0.400000000000E+01  0.842105269432E+00  0.000000000000E+00
  0.800000000000E+02  0.842105269432E+00  0.000000000000E+00
  0.400000000000E+01  0.336842107773E+01  0.000000000000E+00
  0.800000000000E+02  0.336842107773E+01  0.000000000000E+00
  0.400000000000E+01  0.378947377205E+01  0.000000000000E+00
  0.800000000000E+02  0.378947377205E+01  0.000000000000E+00
  0.400000000000E+01  0.421052646637E+01  0.000000000000E+00
  0.800000000000E+02  0.421052646637E+01  0.000000000000E+00
POLYGONS                  38                 152
3                   4                   5                   7
3                   4                   7                   6
3                  32                  33                   5
3                  32                   5                   4
3                  22                  23                  33
3                  22                  33                  32
3                  20                  21                  23
3                  20                  23                  22
3                  10                  11                  21
3                  10                  21                  20
3                   8                   9                  11
3                   8                  11                  10
3                  28                  29                   9
3                  28                   9                   8
3                  34                  35                  29
3                  34                  29                  28
3                  36                  37                  35
3                  36                  35                  34
3                  38                  39                  37
3                  38                  37                  36
3                  26                  27                  39
3                  26                  39                  38
3                  24                  25                  27
3                  24                  27                  26
3                  14                  15                  25
3                  14                  25                  24
3                  12                  13                  15
3                  12                  15                  14
3                  30                  31                  13
3                  30                  13                  12
3                  18                  19                  31
3                  18                  31                  30
3                  16                  17                  19
3                  16                  19                  18
3                   2                   3                  17
3                   2                  17                  16
3                   0                   1                   3
3                   0                   3                   2
CELL_DATA                  38
NORMALS normals float
 -0.000000000000E+00 -0.000000000000E+00 -0.100000000000E+01
 -0.000000000000E+00 -0.000000000000E+00 -0.100000000000E+01
 -0.000000000000E+00 -0.000000000000E+00 -0.100000000000E+01
 -0.000000000000E+00 -0.000000000000E+00 -0.100000000000E+01
 -0.000000000000E+00 -0.000000000000E+00 -0.100000000000E+01
 -0.000000000000E+00 -0.000000000000E+00 -0.100000000000E+01
 -0.000000000000E+00 -0.000000000000E+00 -0.100000000000E+01
 -0.000000000000E+00 -0.000000000000E+00 -0.100000000000E+01
 -0.000000000000E+00 -0.000000000000E+00 -0.100000000000E+01
 -0.000000000000E+00 -0.000000000000E+00 -0.100000000000E+01
 -0.000000000000E+00 -0.000000000000E+00 -0.100000000000E+01
 -0.000000000000E+00 -0.000000000000E+00 -0.100000000000E+01
 -0.000000000000E+00 -0.000000000000E+00 -0.100000000000E+01
 -0.000000000000E+00 -0.000000000000E+00 -0.100000000000E+01
 -0.000000000000E+00 -0.000000000000E+00 -0.100000000000E+01
 -0.000000000000E+00 -0.000000000000E+00 -0.100000000000E+01
 -0.000000000000E+00 -0.000000000000E+00 -0.100000000000E+01
 -0.000000000000E+00 -0.000000000000E+00 -0.100000000000E+01
 -0.000000000000E+00 -0.000000000000E+00 -0.100000000000E+01
 -0.000000000000E+00 -0.000000000000E+00 -0.100000000000E+01
 -0.000000000000E+00 -0.000000000000E+00 -0.100000000000E+01
 -0.000000000000E+00 -0.000000000000E+00 -0.100000000000E+01
 -0.000000000000E+00 -0.000000000000E+00 -0.100000000000E+01
 -0.000000000000E+00 -0.000000000000E+00 -0.100000000000E+01
 -0.000000000000E+00 -0.000000000000E+00 -0.100000000000E+01
 -0.000000000000E+00 -0.000000000000E+00 -0.100000000000E+01
 -0.000000000000E+00 -0.000000000000E+00 -0.100000000000E+01
 -0.000000000000E+00 -0.000000000000E+00 -0.100000000000E+01
 -0.000000000000E+00 -0.000000000000E+00 -0.100000000000E+01
 -0.000000000000E+00 -0.000000000000E+00 -0.100000000000E+01
 -0.000000000000E+00 -0.000000000000E+00 -0.100000000000E+01
 -0.000000000000E+00 -0.000000000000E+00 -0.100000000000E+01
 -0.000000000000E+00 -0.000000000000E+00 -0.100000000000E+01
 -0.000000000000E+00 -0.000000000000E+00 -0.100000000000E+01
 -0.000000000000E+00 -0.000000000000E+00 -0.100000000000E+01
 -0.000000000000E+00 -0.000000000000E+00 -0.100000000000E+01
 -0.000000000000E+00 -0.000000000000E+00 -0.100000000000E+01
 -0.000000000000E+00 -0.000000000000E+00 -0.100000000000E+01
POINT_DATA                  40
SCALARS mu float 1
LOOKUP_TABLE default
  0.000000000000E+00
  0.000000000000E+00
 -0.361753932365E-09
 -0.361753932365E-09
  0.309153568023E-07
  0.309153568023E-07
  0.327035097336E-07
  0.327035097336E-07
  0.444724997384E-07
  0.444724997384E-07
  0.425430209394E-07
  0.425430209394E-07
  0.415079784433E-08
  0.415079784433E-08
  0.122590847473E-07
  0.122590847473E-07
 -0.162015292848E-08
 -0.162015292848E-08
  0.909885776446E-08
  0.909885776446E-08
  0.427626947741E-07
  0.427626947741E-07
  0.421707078424E-07
  0.421707078424E-07
  0.541854955349E-08
  0.541854955349E-08
  0.160189177756E-07
  0.160189177756E-07
  0.360988539616E-07
  0.360988539616E-07
  0.894090326775E-08
  0.894090326775E-08
  0.358028956760E-07
  0.358028956760E-07
  0.342462395941E-07
  0.342462395941E-07
  0.283412971147E-07
  0.283412971147E-07
  0.134504673233E-07
  0.134504673233E-07
