# vtk DataFile Version 3.0
MachLine results file. Generated by MachLine, USU AeroLab (c) 2022.
ASCII
DATASET POLYDATA
POINTS                 704 float
  0.000000000000E+00 -0.000000000000E+00  0.000000000000E+00
  0.000000000000E+00 -0.421052634716E+00  0.000000000000E+00
  0.000000000000E+00 -0.842105269432E+00  0.000000000000E+00
  0.000000000000E+00 -0.126315784454E+01  0.000000000000E+00
  0.000000000000E+00 -0.168421053886E+01  0.000000000000E+00
  0.000000000000E+00 -0.210526323318E+01  0.000000000000E+00
  0.000000000000E+00 -0.252631568909E+01  0.000000000000E+00
  0.000000000000E+00 -0.294736838341E+01  0.000000000000E+00
  0.000000000000E+00 -0.336842107773E+01  0.000000000000E+00
  0.000000000000E+00 -0.378947377205E+01  0.000000000000E+00
  0.000000000000E+00 -0.421052646637E+01  0.000000000000E+00
  0.000000000000E+00 -0.463157892227E+01  0.000000000000E+00
  0.000000000000E+00 -0.505263137817E+01  0.000000000000E+00
  0.000000000000E+00 -0.547368431091E+01  0.000000000000E+00
  0.000000000000E+00 -0.589473676682E+01  0.000000000000E+00
  0.000000000000E+00 -0.631578969955E+01  0.000000000000E+00
  0.000000000000E+00 -0.673684215546E+01  0.000000000000E+00
  0.000000000000E+00 -0.715789461136E+01  0.000000000000E+00
  0.000000000000E+00 -0.757894754410E+01  0.000000000000E+00
  0.000000000000E+00 -0.800000000000E+01  0.000000000000E+00
  0.257792294025E+00 -0.000000000000E+00 -0.131799980998E+00
  0.257792294025E+00 -0.000000000000E+00  0.131799980998E+00
  0.257792294025E+00 -0.421052634716E+00 -0.131799980998E+00
  0.257792294025E+00 -0.421052634716E+00  0.131799980998E+00
  0.257792294025E+00 -0.842105269432E+00 -0.131799980998E+00
  0.257792294025E+00 -0.842105269432E+00  0.131799980998E+00
  0.257792294025E+00 -0.126315784454E+01 -0.131799980998E+00
  0.257792294025E+00 -0.126315784454E+01  0.131799980998E+00
  0.257792294025E+00 -0.168421053886E+01 -0.131799980998E+00
  0.257792294025E+00 -0.168421053886E+01  0.131799980998E+00
  0.257792294025E+00 -0.210526323318E+01 -0.131799980998E+00
  0.257792294025E+00 -0.210526323318E+01  0.131799980998E+00
  0.257792294025E+00 -0.252631568909E+01 -0.131799980998E+00
  0.257792294025E+00 -0.252631568909E+01  0.131799980998E+00
  0.257792294025E+00 -0.294736838341E+01 -0.131799980998E+00
  0.257792294025E+00 -0.294736838341E+01  0.131799980998E+00
  0.257792294025E+00 -0.336842107773E+01 -0.131799980998E+00
  0.257792294025E+00 -0.336842107773E+01  0.131799980998E+00
  0.257792294025E+00 -0.378947377205E+01 -0.131799980998E+00
  0.257792294025E+00 -0.378947377205E+01  0.131799980998E+00
  0.257792294025E+00 -0.421052646637E+01 -0.131799980998E+00
  0.257792294025E+00 -0.421052646637E+01  0.131799980998E+00
  0.257792294025E+00 -0.463157892227E+01 -0.131799980998E+00
  0.257792294025E+00 -0.463157892227E+01  0.131799980998E+00
  0.257792294025E+00 -0.505263137817E+01 -0.131799980998E+00
  0.257792294025E+00 -0.505263137817E+01  0.131799980998E+00
  0.257792294025E+00 -0.547368431091E+01 -0.131799980998E+00
  0.257792294025E+00 -0.547368431091E+01  0.131799980998E+00
  0.257792294025E+00 -0.589473676682E+01 -0.131799980998E+00
  0.257792294025E+00 -0.589473676682E+01  0.131799980998E+00
  0.257792294025E+00 -0.631578969955E+01 -0.131799980998E+00
  0.257792294025E+00 -0.631578969955E+01  0.131799980998E+00
  0.257792294025E+00 -0.673684215546E+01 -0.131799980998E+00
  0.257792294025E+00 -0.673684215546E+01  0.131799980998E+00
  0.257792294025E+00 -0.715789461136E+01 -0.131799980998E+00
  0.257792294025E+00 -0.715789461136E+01  0.131799980998E+00
  0.257792294025E+00 -0.757894754410E+01 -0.131799980998E+00
  0.257792294025E+00 -0.757894754410E+01  0.131799980998E+00
  0.257792294025E+00 -0.800000000000E+01 -0.131799980998E+00
  0.257792294025E+00 -0.800000000000E+01  0.131799980998E+00
  0.257792294025E+00 -0.809319686890E+01 -0.931966677308E-01
  0.257792294025E+00 -0.809319686890E+01  0.931966677308E-01
  0.257792294025E+00 -0.813179969788E+01 -0.140525558511E-15
  0.536310672760E+00 -0.000000000000E+00 -0.172269701958E+00
  0.536310672760E+00 -0.000000000000E+00  0.172269701958E+00
  0.536310672760E+00 -0.421052634716E+00 -0.172269701958E+00
  0.536310672760E+00 -0.421052634716E+00  0.172269701958E+00
  0.536310672760E+00 -0.842105269432E+00 -0.172269701958E+00
  0.536310672760E+00 -0.842105269432E+00  0.172269701958E+00
  0.536310672760E+00 -0.126315784454E+01 -0.172269701958E+00
  0.536310672760E+00 -0.126315784454E+01  0.172269701958E+00
  0.536310672760E+00 -0.168421053886E+01 -0.172269701958E+00
  0.536310672760E+00 -0.168421053886E+01  0.172269701958E+00
  0.536310672760E+00 -0.210526323318E+01 -0.172269701958E+00
  0.536310672760E+00 -0.210526323318E+01  0.172269701958E+00
  0.536310672760E+00 -0.252631568909E+01 -0.172269701958E+00
  0.536310672760E+00 -0.252631568909E+01  0.172269701958E+00
  0.536310672760E+00 -0.294736838341E+01 -0.172269701958E+00
  0.536310672760E+00 -0.294736838341E+01  0.172269701958E+00
  0.536310672760E+00 -0.336842107773E+01 -0.172269701958E+00
  0.536310672760E+00 -0.336842107773E+01  0.172269701958E+00
  0.536310672760E+00 -0.378947377205E+01 -0.172269701958E+00
  0.536310672760E+00 -0.378947377205E+01  0.172269701958E+00
  0.536310672760E+00 -0.421052646637E+01 -0.172269701958E+00
  0.536310672760E+00 -0.421052646637E+01  0.172269701958E+00
  0.536310672760E+00 -0.463157892227E+01 -0.172269701958E+00
  0.536310672760E+00 -0.463157892227E+01  0.172269701958E+00
  0.536310672760E+00 -0.505263137817E+01 -0.172269701958E+00
  0.536310672760E+00 -0.505263137817E+01  0.172269701958E+00
  0.536310672760E+00 -0.547368431091E+01 -0.172269701958E+00
  0.536310672760E+00 -0.547368431091E+01  0.172269701958E+00
  0.536310672760E+00 -0.589473676682E+01 -0.172269701958E+00
  0.536310672760E+00 -0.589473676682E+01  0.172269701958E+00
  0.536310672760E+00 -0.631578969955E+01 -0.172269701958E+00
  0.536310672760E+00 -0.631578969955E+01  0.172269701958E+00
  0.536310672760E+00 -0.673684215546E+01 -0.172269701958E+00
  0.536310672760E+00 -0.673684215546E+01  0.172269701958E+00
  0.536310672760E+00 -0.715789461136E+01 -0.172269701958E+00
  0.536310672760E+00 -0.715789461136E+01  0.172269701958E+00
  0.536310672760E+00 -0.757894754410E+01 -0.172269701958E+00
  0.536310672760E+00 -0.757894754410E+01  0.172269701958E+00
  0.536310672760E+00 -0.800000000000E+01 -0.172269701958E+00
  0.536310672760E+00 -0.800000000000E+01  0.172269701958E+00
  0.536310672760E+00 -0.812181282043E+01 -0.121813081205E+00
  0.536310672760E+00 -0.812181282043E+01  0.121813081205E+00
  0.536310672760E+00 -0.817226982117E+01  0.124489979086E-17
  0.799721002579E+00 -0.000000000000E+00 -0.191203564405E+00
  0.799721002579E+00 -0.000000000000E+00  0.191203564405E+00
  0.799721002579E+00 -0.421052634716E+00 -0.191203564405E+00
  0.799721002579E+00 -0.421052634716E+00  0.191203564405E+00
  0.799721002579E+00 -0.842105269432E+00 -0.191203564405E+00
  0.799721002579E+00 -0.842105269432E+00  0.191203564405E+00
  0.799721002579E+00 -0.126315784454E+01 -0.191203564405E+00
  0.799721002579E+00 -0.126315784454E+01  0.191203564405E+00
  0.799721002579E+00 -0.168421053886E+01 -0.191203564405E+00
  0.799721002579E+00 -0.168421053886E+01  0.191203564405E+00
  0.799721002579E+00 -0.210526323318E+01 -0.191203564405E+00
  0.799721002579E+00 -0.210526323318E+01  0.191203564405E+00
  0.799721002579E+00 -0.252631568909E+01 -0.191203564405E+00
  0.799721002579E+00 -0.252631568909E+01  0.191203564405E+00
  0.799721002579E+00 -0.294736838341E+01 -0.191203564405E+00
  0.799721002579E+00 -0.294736838341E+01  0.191203564405E+00
  0.799721002579E+00 -0.336842107773E+01 -0.191203564405E+00
  0.799721002579E+00 -0.336842107773E+01  0.191203564405E+00
  0.799721002579E+00 -0.378947377205E+01 -0.191203564405E+00
  0.799721002579E+00 -0.378947377205E+01  0.191203564405E+00
  0.799721002579E+00 -0.421052646637E+01 -0.191203564405E+00
  0.799721002579E+00 -0.421052646637E+01  0.191203564405E+00
  0.799721002579E+00 -0.463157892227E+01 -0.191203564405E+00
  0.799721002579E+00 -0.463157892227E+01  0.191203564405E+00
  0.799721002579E+00 -0.505263137817E+01 -0.191203564405E+00
  0.799721002579E+00 -0.505263137817E+01  0.191203564405E+00
  0.799721002579E+00 -0.547368431091E+01 -0.191203564405E+00
  0.799721002579E+00 -0.547368431091E+01  0.191203564405E+00
  0.799721002579E+00 -0.589473676682E+01 -0.191203564405E+00
  0.799721002579E+00 -0.589473676682E+01  0.191203564405E+00
  0.799721002579E+00 -0.631578969955E+01 -0.191203564405E+00
  0.799721002579E+00 -0.631578969955E+01  0.191203564405E+00
  0.799721002579E+00 -0.673684215546E+01 -0.191203564405E+00
  0.799721002579E+00 -0.673684215546E+01  0.191203564405E+00
  0.799721002579E+00 -0.715789461136E+01 -0.191203564405E+00
  0.799721002579E+00 -0.715789461136E+01  0.191203564405E+00
  0.799721002579E+00 -0.757894754410E+01 -0.191203564405E+00
  0.799721002579E+00 -0.757894754410E+01  0.191203564405E+00
  0.799721002579E+00 -0.800000000000E+01 -0.191203564405E+00
  0.799721002579E+00 -0.800000000000E+01  0.191203564405E+00
  0.799721002579E+00 -0.813520145416E+01 -0.135201334953E+00
  0.799721002579E+00 -0.813520145416E+01  0.135201334953E+00
  0.799721002579E+00 -0.819120311737E+01 -0.320710062362E-17
  0.105025947094E+01 -0.000000000000E+00 -0.198943451047E+00
  0.105025947094E+01 -0.000000000000E+00  0.198943451047E+00
  0.105025947094E+01 -0.421052634716E+00 -0.198943451047E+00
  0.105025947094E+01 -0.421052634716E+00  0.198943451047E+00
  0.105025947094E+01 -0.842105269432E+00 -0.198943451047E+00
  0.105025947094E+01 -0.842105269432E+00  0.198943451047E+00
  0.105025947094E+01 -0.126315784454E+01 -0.198943451047E+00
  0.105025947094E+01 -0.126315784454E+01  0.198943451047E+00
  0.105025947094E+01 -0.168421053886E+01 -0.198943451047E+00
  0.105025947094E+01 -0.168421053886E+01  0.198943451047E+00
  0.105025947094E+01 -0.210526323318E+01 -0.198943451047E+00
  0.105025947094E+01 -0.210526323318E+01  0.198943451047E+00
[...]
CELL_DATA                1336
SCALARS C_p_inc float 1
LOOKUP_TABLE default
  0.132245875730E+00
  0.132262618353E+00
  0.238028662753E-01
  0.238197719273E-01
 -0.206401735215E-01
 -0.206268648411E-01
 -0.547018148847E-01
 -0.546928820814E-01
 -0.835893709364E-01
 -0.835852248419E-01
 -0.109907499327E+00
 -0.109908389761E+00
 -0.135008948140E+00
 -0.135015083207E+00
 -0.159673365835E+00
 -0.159685082621E+00
 -0.184399545187E+00
 -0.184377000603E+00
 -0.209565025085E+00
 -0.209535319960E+00
 -0.235328301622E+00
 -0.235291586204E+00
 -0.261910558487E+00
 -0.261866859751E+00
 -0.289871335353E+00
 -0.289820955447E+00
 -0.322714746697E+00
 -0.322658356698E+00
 -0.392622494169E+00
 -0.392556678811E+00
  0.181295477503E+00
  0.181344369733E+00
  0.181344084914E+00
  0.181295196326E+00
 -0.392556907569E+00
 -0.392622719053E+00
 -0.322658522503E+00
 -0.322714908346E+00
 -0.289821093075E+00
 -0.289871467979E+00
 -0.261866978053E+00
 -0.261910670653E+00
 -0.235291688321E+00
 -0.235328396142E+00
 -0.209535406472E+00
 -0.209565102156E+00
 -0.184377070430E+00
 -0.184399603186E+00
 -0.159685120123E+00
 -0.159673414605E+00
 -0.135015092949E+00
 -0.135008972756E+00
 -0.109908361896E+00
 -0.109907491575E+00
 -0.835851420620E-01
 -0.835893165646E-01
 -0.546927110961E-01
 -0.547016876412E-01
 -0.206265299912E-01
 -0.206399205290E-01
  0.238204926533E-01
  0.238033561673E-01
  0.132264539474E+00
  0.132246740717E+00
  0.132177917360E+00
  0.132182672927E+00
  0.237474751914E-01
  0.237453437192E-01
 -0.206810209095E-01
 -0.206910641237E-01
 -0.547277086940E-01
 -0.547458342191E-01
 -0.836001493989E-01
 -0.836263485946E-01
 -0.109903085989E+00
 -0.109937267977E+00
 -0.134989197928E+00
 -0.135031303866E+00
 -0.159638132389E+00
 -0.159688064048E+00
 -0.184396653577E+00
 -0.184319939149E+00
 -0.209548922637E+00
 -0.209463812902E+00
 -0.235299008415E+00
 -0.235205746832E+00
 -0.261867960786E+00
 -0.261767101741E+00
 -0.289815584510E+00
 -0.289708747981E+00
 -0.322646435099E+00
 -0.322540169282E+00
 -0.392539401944E+00
 -0.392457719233E+00
  0.181364236367E+00
  0.182191539262E+00
  0.182191249202E+00
  0.181363952788E+00
 -0.392457953409E+00
 -0.392539629142E+00
 -0.322540340410E+00
 -0.322646598874E+00
 -0.289708891686E+00
 -0.289815719513E+00
 -0.261767227319E+00
 -0.261868075738E+00
 -0.235205857850E+00
 -0.235299106289E+00
 -0.209463910468E+00
 -0.209549003778E+00
 -0.184320022932E+00
 -0.184396716572E+00
 -0.159688109484E+00
 -0.159638197755E+00
 -0.135031324327E+00
 -0.134989244766E+00
 -0.109937255081E+00
 -0.109903108950E+00
 -0.836262879656E-01
 -0.836001393824E-01
 -0.547456999595E-01
 -0.547276495059E-01
 -0.206908070762E-01
 -0.206808803030E-01
  0.237458053031E-01
  0.237477770393E-01
  0.132183226632E+00
  0.132178672953E+00
  0.132119693761E+00
  0.132110550701E+00
  0.237079279270E-01
  0.236869436991E-01
 -0.207012034385E-01
 -0.207344625842E-01
 -0.547284497169E-01
 -0.547738805384E-01
 -0.835815965606E-01
 -0.836388568355E-01
 -0.109865453773E+00
 -0.109934109920E+00
 -0.134932625624E+00
 -0.135012273191E+00
 -0.159562790150E+00
 -0.159652960811E+00
 -0.184353395152E+00
 -0.184219498449E+00
 -0.209490979515E+00
 -0.209346356438E+00
 -0.235226405732E+00
 -0.235071664819E+00
 -0.261781002301E+00
 -0.261616814512E+00
 -0.289715462594E+00
 -0.289542288965E+00
 -0.322538339337E+00
 -0.322353536193E+00
 -0.392441857517E+00
 -0.392220110026E+00
  0.182084205750E+00
  0.181452378547E+00
  0.181452081289E+00
  0.182083917329E+00
 -0.392220351713E+00
 -0.392442089962E+00
 -0.322353714915E+00
 -0.322538508388E+00
 -0.289542441425E+00
 -0.289715603717E+00
 -0.261616950609E+00
 -0.261781124664E+00
 -0.235071788692E+00
 -0.235226512750E+00
 -0.209346469927E+00
 -0.209491072095E+00
 -0.184219602214E+00
 -0.184353472683E+00
 -0.159653026098E+00
 -0.159562880253E+00
 -0.135012320342E+00
 -0.134932705017E+00
 -0.109934134092E+00
 -0.109865520917E+00
 -0.836388499582E-01
 -0.835816491107E-01
 -0.547738285920E-01
 -0.547284848186E-01
 -0.207343375912E-01
 -0.207012199902E-01
  0.236872215296E-01
  0.237079089707E-01
  0.132111420260E+00
  0.132119469030E+00
  0.132066933060E+00
  0.132045660010E+00
  0.236809154102E-01
  0.236412545076E-01
 -0.207029830014E-01
 -0.207601267236E-01
 -0.547051979561E-01
 -0.547793691663E-01
 -0.835337420756E-01
 -0.836242484985E-01
 -0.109793503308E+00
 -0.109899542630E+00
 -0.134837016159E+00
 -0.134957801829E+00
 -0.159444017939E+00
 -0.159578667085E+00
 -0.184268423979E+00
 -0.184070874277E+00
 -0.209388446988E+00
 -0.209177238185E+00
 -0.235106648384E+00
 -0.234882937670E+00
 -0.261644442726E+00
 -0.261409469507E+00
 -0.289562367753E+00
 -0.289317119212E+00
 -0.322366300215E+00
 -0.322109232531E+00
 -0.392228917724E+00
 -0.391953732446E+00
  0.181601700395E+00
  0.181731504403E+00
  0.181731199155E+00
  0.181601404986E+00
 -0.391953982895E+00
 -0.392229157688E+00
 -0.322109420253E+00
 -0.322366477020E+00
 -0.289317282102E+00
 -0.289562517928E+00
 -0.261409618087E+00
 -0.261644576061E+00
 -0.234883076682E+00
 -0.235106768908E+00
 -0.209177370193E+00
 -0.209388556406E+00
 -0.184071000910E+00
 -0.184268522777E+00
 -0.159578759956E+00
 -0.159444136459E+00
 -0.134957885289E+00
 -0.134837131827E+00
 -0.109899616078E+00
 -0.109793617915E+00
 -0.836243113561E-01
 -0.835338590122E-01
 -0.547794222574E-01
 -0.547053251463E-01
 -0.207601781334E-01
 -0.207031419708E-01
  0.236411493675E-01
  0.236806562512E-01
  0.132045052662E+00
  0.132066359055E+00
  0.132015548769E+00
  0.131982040309E+00
  0.236631360052E-01
  0.236045240680E-01
 -0.206882892631E-01
 -0.207706173583E-01
 -0.546583965357E-01
 -0.547637335547E-01
 -0.834554971410E-01
 -0.835828054512E-01
 -0.109684606278E+00
 -0.109832680827E+00
 -0.134698217779E+00
 -0.134865833032E+00
 -0.159276186323E+00
 -0.159461960808E+00
 -0.184137872448E+00
 -0.183866636195E+00
 -0.209236470696E+00
 -0.208947854545E+00
 -0.234934040281E+00
 -0.234630044571E+00
 -0.261452133442E+00
 -0.261135123816E+00
 -0.289351161472E+00
 -0.289024033135E+00
 -0.322134988525E+00
 -0.321800697143E+00
 -0.391972443931E+00
 -0.391627982888E+00
  0.181738036122E+00
  0.181932213969E+00
  0.181931900719E+00
  0.181737732727E+00
 -0.391628242457E+00
 -0.391972692835E+00
 -0.321800894366E+00
 -0.322135174664E+00
 -0.289024207107E+00
 -0.289351322562E+00
 -0.261135285598E+00
 -0.261452279924E+00
 -0.234630199451E+00
 -0.234934176827E+00
 -0.208948005682E+00
 -0.209236599797E+00
 -0.183866785949E+00
 -0.184137995659E+00
 -0.159462083998E+00
 -0.159276333194E+00
 -0.134865955011E+00
 -0.134698368180E+00
 -0.109832804324E+00
 -0.109684763887E+00
 -0.835829355490E-01
 -0.834556681033E-01
 -0.547638814679E-01
 -0.546585930553E-01
 -0.207708115006E-01
 -0.206885402035E-01
  0.236042033106E-01
  0.236627446523E-01
  0.131981433060E+00
  0.132014707826E+00
  0.131959553006E+00
  0.131915188461E+00
  0.236503490586E-01
  0.235724708514E-01
 -0.206594213878E-01
 -0.207688222644E-01
 -0.545882514155E-01
 -0.547282846518E-01
 -0.833448972362E-01
 -0.835141919980E-01
 -0.109534612550E+00
 -0.109731516154E+00
 -0.134509920516E+00
 -0.134732685276E+00
 -0.159050896578E+00
 -0.159297517917E+00
 -0.183955502569E+00
 -0.183595881544E+00
 -0.209027519229E+00
 -0.208645576295E+00
 -0.234699971138E+00
 -0.234298808579E+00
 -0.261194819101E+00
 -0.260778106391E+00
 -0.289073028965E+00
 -0.288645190445E+00
 -0.321838582249E+00
 -0.321403973757E+00
 -0.391654790202E+00
 -0.391209130357E+00
  0.181933148152E+00
  0.182183818950E+00
  0.182183498552E+00
  0.181932836562E+00
 -0.391209398476E+00
 -0.391655048553E+00
 -0.321404180166E+00
 -0.321838778349E+00
 -0.288645375204E+00
 -0.289073201742E+00
 -0.260778281078E+00
 -0.261194979552E+00
 -0.234298978892E+00
 -0.234700124504E+00
 -0.208645745856E+00
 -0.209027668633E+00
 -0.183596053209E+00
 -0.183955650343E+00
 -0.159297670396E+00
 -0.159051069860E+00
 -0.134732842751E+00
 -0.134510102086E+00
 -0.109731682877E+00
 -0.109534806674E+00
 -0.835143749980E-01
 -0.833451102228E-01
 -0.547284975435E-01
 -0.545884937966E-01
 -0.207690964042E-01
 -0.206597122696E-01
  0.235720420412E-01
  0.236499774518E-01
  0.131914223529E+00
  0.131959125006E+00
  0.131891660886E+00
  0.131837084140E+00
  0.236366783049E-01
  0.235392677140E-01
 -0.206196681265E-01
 -0.207585215944E-01
 -0.544951103047E-01
 -0.546745848285E-01
 -0.831991958789E-01
 -0.834176391316E-01
 -0.109337638437E+00
 -0.109592899096E+00
 -0.134263131168E+00
 -0.134552822935E+00
 -0.158756147566E+00
 -0.159077459547E+00
 -0.183712081650E+00
 -0.183243057019E+00
 -0.208750471864E+00
 -0.208252392413E+00
 -0.234391604634E+00
 -0.233869111917E+00
 -0.260858067980E+00
 -0.260316631761E+00
 -0.288711617141E+00
 -0.288157762696E+00
 -0.321456266616E+00
 -0.320896494868E+00
 -0.391247435100E+00
 -0.390677177531E+00
  0.182180600406E+00
  0.182499177182E+00
  0.182498851324E+00
  0.182180281280E+00
 -0.390677452853E+00
 -0.391247702451E+00
 -0.320896709354E+00
 -0.321456472454E+00
 -0.288157957206E+00
 -0.288711801379E+00
 -0.260316818237E+00
 -0.260858242141E+00
 -0.233869296432E+00
 -0.234391774380E+00
 -0.208252578964E+00
 -0.208750640783E+00
 -0.183243248890E+00
 -0.183712252563E+00
 -0.159077638825E+00
 -0.158756345099E+00
 -0.134553011635E+00
 -0.134263341056E+00
 -0.109593101658E+00
 -0.109337865290E+00
 -0.834178619175E-01
 -0.831994459828E-01
 -0.546748378358E-01
 -0.544953932406E-01
 -0.207588206249E-01
 -0.206200006651E-01
  0.235389103677E-01
  0.236362570001E-01
  0.131836852063E+00
  0.131891010905E+00
  0.131799838301E+00
  0.131738548142E+00
  0.236129983819E-01
  0.234966898395E-01
 -0.205744053907E-01
 -0.207452895116E-01
 -0.543801332697E-01
 -0.546050986202E-01
 -0.830150748530E-01
 -0.832922822358E-01
 -0.109085788839E+00
 -0.109412535696E+00
 -0.133945396571E+00
 -0.134318498419E+00
 -0.158375071027E+00
 -0.158790640137E+00
 -0.183394466249E+00
 -0.182786137403E+00
 -0.208389463695E+00
 -0.207742711578E+00
 -0.233990655778E+00
 -0.233312389463E+00
 -0.260421558502E+00
 -0.259719918897E+00
 -0.288245053930E+00
 -0.287529710733E+00
 -0.320965298781E+00
 -0.320246059565E+00
 -0.390727656856E+00
 -0.390000268703E+00
  0.182493673001E+00
  0.182896781904E+00
  0.182896453000E+00
  0.182493347862E+00
 -0.390000549102E+00
 -0.390727931959E+00
 -0.320246280382E+00
 -0.320965513317E+00
 -0.287529913247E+00
 -0.288245248642E+00
 -0.259720115378E+00
 -0.260421745290E+00
 -0.233312586298E+00
 -0.233990840676E+00
 -0.207742913155E+00
 -0.208389650661E+00
 -0.182786347462E+00
 -0.183394658506E+00
 -0.158790843986E+00
 -0.158375290850E+00
 -0.134318715633E+00
 -0.133945633085E+00
 -0.109412770942E+00
 -0.109086047554E+00
 -0.832925417214E-01
 -0.830153633041E-01
 -0.546053915310E-01
 -0.543804628927E-01
 -0.207456319685E-01
 -0.205747966041E-01
  0.234962534244E-01
  0.236124979496E-01
  0.131737770796E+00
  0.131799101913E+00
  0.131666475549E+00
  0.131603317432E+00
  0.235648434727E-01
  0.234318582706E-01
 -0.205328850028E-01
 -0.207380842053E-01
 -0.542464868710E-01
 -0.545243227059E-01
 -0.827891218255E-01
 -0.831377937115E-01
 -0.108768852355E+00
 -0.109185080137E+00
 -0.133539686451E+00
 -0.134019278426E+00
 -0.157884007045E+00
 -0.158421603545E+00
 -0.182984221914E+00
 -0.182193763381E+00
 -0.207922069338E+00
 -0.207079827717E+00
 -0.233471209851E+00
 -0.232587532492E+00
 -0.259856558944E+00
 -0.258943664167E+00
 -0.287642663476E+00
 -0.286715035360E+00
 -0.320334085799E+00
 -0.319406659891E+00
 -0.390063506584E+00
 -0.389133332964E+00
  0.182891863258E+00
  0.183402485075E+00
  0.183402156171E+00
  0.182891534375E+00
 -0.389133615675E+00
 -0.390063787395E+00
 -0.319406884650E+00
 -0.320334307342E+00
 -0.286715243519E+00
 -0.287642866959E+00
 -0.258943868182E+00
 -0.259856756609E+00
 -0.232587739046E+00
 -0.233471408063E+00
 -0.207080041600E+00
 -0.207922272450E+00
 -0.182193988895E+00
 -0.182984433603E+00
 -0.158421830130E+00
 -0.157884246669E+00
 -0.134019522889E+00
 -0.133539947633E+00
 -0.109185348182E+00
 -0.108769142299E+00
 -0.831380931024E-01
 -0.827894508701E-01
 -0.545246651607E-01
 -0.542468713679E-01
 -0.207384905783E-01
 -0.205333541898E-01
  0.234313407154E-01
  0.235642282225E-01
  0.131602601754E+00
  0.131665593373E+00
  0.131464138810E+00
  0.131408469107E+00
  0.234685707539E-01
  0.233245373238E-01
 -0.205114109959E-01
 -0.207518262568E-01
 -0.541015678142E-01
 -0.544407707201E-01
 -0.825188979056E-01
 -0.829556023789E-01
 -0.108374087961E+00
 -0.108904489182E+00
 -0.133022833392E+00
 -0.133641474464E+00
 -0.157249590426E+00
 -0.157949068497E+00
 -0.182455527799E+00
 -0.181420751489E+00
 -0.207316441884E+00
 -0.206210287402E+00
 -0.232796185336E+00
 -0.231634329736E+00
 -0.259121826869E+00
 -0.257922860822E+00
 -0.286860430968E+00
 -0.285646391761E+00
 -0.319517453552E+00
 -0.318311410675E+00
 -0.389209598647E+00
 -0.388011725816E+00
  0.183402916425E+00
  0.184052993437E+00
  0.184052668087E+00
  0.183402586729E+00
 -0.388012007513E+00
 -0.389209882461E+00
 -0.318311636451E+00
 -0.319517679746E+00
 -0.285646602590E+00
 -0.286860640886E+00
 -0.257923069199E+00
 -0.259122032974E+00
 -0.231634542568E+00
 -0.232796394317E+00
 -0.206210509841E+00
 -0.207316658527E+00
 -0.181420988381E+00
 -0.182455756385E+00
 -0.157949315304E+00
 -0.157249845755E+00
 -0.133641744349E+00
 -0.133023115060E+00
 -0.108904789811E+00
 -0.108374405305E+00
 -0.829559448352E-01
 -0.825192652271E-01
 -0.544411726041E-01
 -0.541020098361E-01
 -0.207523188125E-01
 -0.205119786415E-01
  0.233238909017E-01
  0.234677394978E-01
  0.131407552078E+00
  0.131462562194E+00
  0.131147990827E+00
  0.131117671832E+00
  0.232844462261E-01
  0.231418209530E-01
 -0.205391230299E-01
 -0.208120258534E-01
 -0.539612238788E-01
 -0.543706246817E-01
 -0.822052503453E-01
 -0.827513082422E-01
 -0.107886400579E+00
 -0.108565018913E+00
 -0.132363437231E+00
 -0.133167603271E+00
 -0.156424344368E+00
 -0.157343797775E+00
 -0.181772047847E+00
 -0.180400973410E+00
 -0.206526871571E+00
 -0.205054754477E+00
 -0.231911741797E+00
 -0.230362673753E+00
 -0.258157115969E+00
 -0.256559872196E+00
 -0.285833964871E+00
 -0.284222750019E+00
 -0.318449529221E+00
 -0.316860684635E+00
 -0.388100349550E+00
 -0.386540615252E+00
  0.184067000866E+00
  0.184901570616E+00
  0.184901252725E+00
  0.184066673832E+00
 -0.386540892164E+00
 -0.388100633072E+00
 -0.316860908073E+00
 -0.318449757145E+00
 -0.284222960013E+00
 -0.285834178248E+00
 -0.256560081127E+00
 -0.258157327337E+00
 -0.230362888595E+00
 -0.231911958110E+00
 -0.205054980621E+00
 -0.206527098032E+00
 -0.180401216072E+00
 -0.181772289358E+00
 -0.157344060333E+00
 -0.156424609103E+00
 -0.133167893919E+00
 -0.132363731821E+00
 -0.108565347673E+00
 -0.107886735918E+00
 -0.827516906772E-01
 -0.822056435361E-01
 -0.543710882064E-01
 -0.539617052454E-01
 -0.208126285886E-01
 -0.205397566239E-01
  0.231409140027E-01
  0.232834877843E-01
  0.131115828577E+00
  0.131146155996E+00
  0.130645050029E+00
  0.130671419180E+00
  0.229445799899E-01
  0.228286194727E-01
 -0.206686330270E-01
 -0.209632540997E-01
 -0.538578596870E-01
 -0.543446247843E-01
 -0.818572151779E-01
 -0.825395337231E-01
 -0.107289619733E+00
 -0.108163705144E+00
 -0.131519255862E+00
 -0.132576266509E+00
 -0.155340058421E+00
 -0.156565747440E+00
 -0.180882330587E+00
 -0.179035941119E+00
 -0.205486868724E+00
 -0.203492901000E+00
 -0.230738296472E+00
 -0.228634299136E+00
 -0.256872547040E+00
 -0.254703905808E+00
 -0.284466847500E+00
 -0.282287926697E+00
 -0.317031890738E+00
 -0.314901434817E+00
 -0.386638697891E+00
 -0.384576742804E+00
  0.184943781598E+00
  0.186027642330E+00
  0.186027336042E+00
  0.184943461077E+00
 -0.384577010967E+00
 -0.386638977351E+00
 -0.314901652249E+00
 -0.317032117010E+00
 -0.282288132014E+00
 -0.284467060780E+00
 -0.254704111031E+00
 -0.256872759797E+00
 -0.228634511137E+00
 -0.230738515769E+00
 -0.203493125205E+00
 -0.205487100054E+00
 -0.179036182855E+00
 -0.180882579301E+00
 -0.156566018793E+00
 -0.155340324583E+00
 -0.132576569361E+00
 -0.131519553338E+00
 -0.108164050973E+00
 -0.107289959768E+00
 -0.825399406511E-01
 -0.818576151328E-01
 -0.543451250907E-01
 -0.538583489841E-01
 -0.209639161615E-01
 -0.206692678835E-01
  0.228276128695E-01
  0.229436786445E-01
  0.130669511421E+00
  0.130643660396E+00
  0.129832780028E+00
  0.129972794659E+00
  0.223300346449E-01
  0.222908009025E-01
 -0.209963623160E-01
 -0.212849711703E-01
 -0.538563259616E-01
 -0.544213942256E-01
 -0.815023340063E-01
 -0.823538265468E-01
 -0.106570568106E+00
 -0.107706228806E+00
 -0.130434562605E+00
 -0.131843542517E+00
 -0.153898108694E+00
 -0.155560693261E+00
 -0.179713295390E+00
 -0.177176491234E+00
 -0.204098419245E+00
 -0.201338059115E+00
 -0.229155879100E+00
 -0.226231063530E+00
 -0.255130723745E+00
 -0.252114333071E+00
 -0.282610606774E+00
 -0.279591402652E+00
 -0.315112944044E+00
 -0.312189101030E+00
 -0.384676477869E+00
 -0.381895188274E+00
  0.186124869399E+00
  0.187553881149E+00
  0.187553590621E+00
  0.186124559541E+00
 -0.381895443564E+00
 -0.384676749264E+00
 -0.312189308698E+00
 -0.315113164937E+00
 -0.279591599309E+00
 -0.282610816027E+00
 -0.252114530155E+00
 -0.255130933509E+00
 -0.226231267630E+00
 -0.229156096367E+00
 -0.201338275478E+00
 -0.204098649585E+00
 -0.177176725033E+00
 -0.179713544312E+00
 -0.155560964807E+00
 -0.153898367813E+00
 -0.131843846624E+00
 -0.130434852502E+00
 -0.107706576989E+00
 -0.106570899611E+00
 -0.823542364469E-01
 -0.815027236526E-01
 -0.544218951944E-01
 -0.538568013511E-01
 -0.212856168678E-01
 -0.209969759753E-01
  0.222899085858E-01
  0.223291595749E-01
  0.129971571065E+00
  0.129831280327E+00
  0.128494790537E+00
  0.128856919752E+00
  0.212251671023E-01
  0.213620111659E-01
 -0.217028595731E-01
 -0.219227579274E-01
 -0.540857168281E-01
 -0.547142237125E-01
 -0.812083414657E-01
 -0.822674165146E-01
 -0.105729859143E+00
 -0.107220634553E+00
 -0.129039418007E+00
 -0.130948920386E+00
 -0.151956444274E+00
 -0.154257763175E+00
 -0.178162021649E+00
 -0.174594029759E+00
 -0.202215792677E+00
 -0.198294598491E+00
 -0.226980192528E+00
 -0.222798585961E+00
 -0.252715928952E+00
 -0.248392336860E+00
 -0.280028911467E+00
 -0.275712443294E+00
 -0.312450153511E+00
 -0.308312080947E+00
 -0.381978191631E+00
 -0.378123662238E+00
  0.187757185145E+00
  0.189678989490E+00
  0.189678718805E+00
  0.187756890130E+00
 -0.378123900629E+00
 -0.381978450792E+00
 -0.308312275146E+00
 -0.312450365187E+00
 -0.275712627384E+00
 -0.280029112603E+00
 -0.248392521492E+00
 -0.252716131150E+00
 -0.222798777269E+00
 -0.226980402521E+00
 -0.198294801353E+00
 -0.202216015874E+00
 -0.174594248964E+00
 -0.178162263433E+00
 -0.154258026105E+00
 -0.151956688324E+00
 -0.130949214899E+00
 -0.129039690648E+00
 -0.107220971552E+00
 -0.105730170360E+00
 -0.822678125557E-01
 -0.812087066189E-01
 -0.547147062684E-01
 -0.540861619548E-01
 -0.219233793693E-01
 -0.217034358730E-01
  0.213611221664E-01
  0.212243351609E-01
  0.128855304657E+00
  0.128493353400E+00
  0.126232048783E+00
  0.127025898429E+00
  0.192218428571E-01
  0.197342378249E-01
 -0.231363000499E-01
 -0.231536329081E-01
 -0.548046680893E-01
 -0.554476141625E-01
 -0.811291104892E-01
 -0.824384879927E-01
 -0.104808806616E+00
 -0.106790031850E+00
 -0.127257304608E+00
 -0.129894406349E+00
 -0.149316358718E+00
 -0.152573738836E+00
 -0.176089463787E+00
 -0.170938670725E+00
 -0.199623719074E+00
 -0.193887980300E+00
 -0.223924535081E+00
 -0.217744794238E+00
 -0.249280280611E+00
 -0.242847665225E+00
 -0.276330741724E+00
 -0.269901923649E+00
 -0.308636271390E+00
 -0.302526645456E+00
 -0.378148581570E+00
 -0.372597016574E+00
  0.190090901106E+00
  0.192747724313E+00
  0.192747477389E+00
  0.190090625072E+00
 -0.372597234150E+00
 -0.378148824415E+00
 -0.302526822647E+00
 -0.308636470083E+00
 -0.269902091525E+00
 -0.276330930758E+00
 -0.242847833456E+00
 -0.249280470823E+00
 -0.217744968343E+00
 -0.223924732762E+00
 -0.193888164632E+00
 -0.199623929278E+00
 -0.170938869500E+00
 -0.176089691523E+00
 -0.152573985057E+00
 -0.149316580664E+00
 -0.129894681562E+00
 -0.127257551546E+00