# vtk DataFile Version 3.0
MachLine results file. Generated by MachLine, USU AeroLab (c) 2022.
ASCII
DATASET POLYDATA
POINTS                 704 float
  0.000000000000E+00  0.000000000000E+00  0.000000000000E+00
  0.000000000000E+00  0.421052634716E+00  0.000000000000E+00
  0.000000000000E+00  0.842105269432E+00  0.000000000000E+00
  0.000000000000E+00  0.126315784454E+01  0.000000000000E+00
  0.000000000000E+00  0.168421053886E+01  0.000000000000E+00
  0.000000000000E+00  0.210526323318E+01  0.000000000000E+00
  0.000000000000E+00  0.252631568909E+01  0.000000000000E+00
  0.000000000000E+00  0.294736838341E+01  0.000000000000E+00
  0.000000000000E+00  0.336842107773E+01  0.000000000000E+00
  0.000000000000E+00  0.378947377205E+01  0.000000000000E+00
  0.000000000000E+00  0.421052646637E+01  0.000000000000E+00
  0.000000000000E+00  0.463157892227E+01  0.000000000000E+00
  0.000000000000E+00  0.505263137817E+01  0.000000000000E+00
  0.000000000000E+00  0.547368431091E+01  0.000000000000E+00
  0.000000000000E+00  0.589473676682E+01  0.000000000000E+00
  0.000000000000E+00  0.631578969955E+01  0.000000000000E+00
  0.000000000000E+00  0.673684215546E+01  0.000000000000E+00
  0.000000000000E+00  0.715789461136E+01  0.000000000000E+00
  0.000000000000E+00  0.757894754410E+01  0.000000000000E+00
  0.000000000000E+00  0.800000000000E+01  0.000000000000E+00
  0.257792294025E+00  0.000000000000E+00 -0.131799980998E+00
  0.257792294025E+00  0.000000000000E+00  0.131799980998E+00
  0.257792294025E+00  0.421052634716E+00 -0.131799980998E+00
  0.257792294025E+00  0.421052634716E+00  0.131799980998E+00
  0.257792294025E+00  0.842105269432E+00 -0.131799980998E+00
  0.257792294025E+00  0.842105269432E+00  0.131799980998E+00
  0.257792294025E+00  0.126315784454E+01 -0.131799980998E+00
  0.257792294025E+00  0.126315784454E+01  0.131799980998E+00
  0.257792294025E+00  0.168421053886E+01 -0.131799980998E+00
  0.257792294025E+00  0.168421053886E+01  0.131799980998E+00
  0.257792294025E+00  0.210526323318E+01 -0.131799980998E+00
  0.257792294025E+00  0.210526323318E+01  0.131799980998E+00
  0.257792294025E+00  0.252631568909E+01 -0.131799980998E+00
  0.257792294025E+00  0.252631568909E+01  0.131799980998E+00
  0.257792294025E+00  0.294736838341E+01 -0.131799980998E+00
  0.257792294025E+00  0.294736838341E+01  0.131799980998E+00
  0.257792294025E+00  0.336842107773E+01 -0.131799980998E+00
  0.257792294025E+00  0.336842107773E+01  0.131799980998E+00
  0.257792294025E+00  0.378947377205E+01 -0.131799980998E+00
  0.257792294025E+00  0.378947377205E+01  0.131799980998E+00
  0.257792294025E+00  0.421052646637E+01 -0.131799980998E+00
  0.257792294025E+00  0.421052646637E+01  0.131799980998E+00
  0.257792294025E+00  0.463157892227E+01 -0.131799980998E+00
  0.257792294025E+00  0.463157892227E+01  0.131799980998E+00
  0.257792294025E+00  0.505263137817E+01 -0.131799980998E+00
  0.257792294025E+00  0.505263137817E+01  0.131799980998E+00
  0.257792294025E+00  0.547368431091E+01 -0.131799980998E+00
  0.257792294025E+00  0.547368431091E+01  0.131799980998E+00
  0.257792294025E+00  0.589473676682E+01 -0.131799980998E+00
  0.257792294025E+00  0.589473676682E+01  0.131799980998E+00
  0.257792294025E+00  0.631578969955E+01 -0.131799980998E+00
  0.257792294025E+00  0.631578969955E+01  0.131799980998E+00
  0.257792294025E+00  0.673684215546E+01 -0.131799980998E+00
  0.257792294025E+00  0.673684215546E+01  0.131799980998E+00
  0.257792294025E+00  0.715789461136E+01 -0.131799980998E+00
  0.257792294025E+00  0.715789461136E+01  0.131799980998E+00
  0.257792294025E+00  0.757894754410E+01 -0.131799980998E+00
  0.257792294025E+00  0.757894754410E+01  0.131799980998E+00
  0.257792294025E+00  0.800000000000E+01 -0.131799980998E+00
  0.257792294025E+00  0.800000000000E+01  0.131799980998E+00
  0.257792294025E+00  0.809319686890E+01 -0.931966677308E-01
  0.257792294025E+00  0.809319686890E+01  0.931966677308E-01
  0.257792294025E+00  0.813179969788E+01 -0.140525558511E-15
  0.536310672760E+00  0.000000000000E+00 -0.172269701958E+00
  0.536310672760E+00  0.000000000000E+00  0.172269701958E+00
  0.536310672760E+00  0.421052634716E+00 -0.172269701958E+00
  0.536310672760E+00  0.421052634716E+00  0.172269701958E+00
  0.536310672760E+00  0.842105269432E+00 -0.172269701958E+00
  0.536310672760E+00  0.842105269432E+00  0.172269701958E+00
  0.536310672760E+00  0.126315784454E+01 -0.172269701958E+00
  0.536310672760E+00  0.126315784454E+01  0.172269701958E+00
  0.536310672760E+00  0.168421053886E+01 -0.172269701958E+00
  0.536310672760E+00  0.168421053886E+01  0.172269701958E+00
  0.536310672760E+00  0.210526323318E+01 -0.172269701958E+00
  0.536310672760E+00  0.210526323318E+01  0.172269701958E+00
  0.536310672760E+00  0.252631568909E+01 -0.172269701958E+00
  0.536310672760E+00  0.252631568909E+01  0.172269701958E+00
  0.536310672760E+00  0.294736838341E+01 -0.172269701958E+00
  0.536310672760E+00  0.294736838341E+01  0.172269701958E+00
  0.536310672760E+00  0.336842107773E+01 -0.172269701958E+00
  0.536310672760E+00  0.336842107773E+01  0.172269701958E+00
  0.536310672760E+00  0.378947377205E+01 -0.172269701958E+00
  0.536310672760E+00  0.378947377205E+01  0.172269701958E+00
  0.536310672760E+00  0.421052646637E+01 -0.172269701958E+00
  0.536310672760E+00  0.421052646637E+01  0.172269701958E+00
  0.536310672760E+00  0.463157892227E+01 -0.172269701958E+00
  0.536310672760E+00  0.463157892227E+01  0.172269701958E+00
  0.536310672760E+00  0.505263137817E+01 -0.172269701958E+00
  0.536310672760E+00  0.505263137817E+01  0.172269701958E+00
  0.536310672760E+00  0.547368431091E+01 -0.172269701958E+00
  0.536310672760E+00  0.547368431091E+01  0.172269701958E+00
  0.536310672760E+00  0.589473676682E+01 -0.172269701958E+00
  0.536310672760E+00  0.589473676682E+01  0.172269701958E+00
  0.536310672760E+00  0.631578969955E+01 -0.172269701958E+00
  0.536310672760E+00  0.631578969955E+01  0.172269701958E+00
  0.536310672760E+00  0.673684215546E+01 -0.172269701958E+00
  0.536310672760E+00  0.673684215546E+01  0.172269701958E+00
  0.536310672760E+00  0.715789461136E+01 -0.172269701958E+00
  0.536310672760E+00  0.715789461136E+01  0.172269701958E+00
  0.536310672760E+00  0.757894754410E+01 -0.172269701958E+00
  0.536310672760E+00  0.757894754410E+01  0.172269701958E+00
  0.536310672760E+00  0.800000000000E+01 -0.172269701958E+00
  0.536310672760E+00  0.800000000000E+01  0.172269701958E+00
  0.536310672760E+00  0.812181282043E+01 -0.121813081205E+00
  0.536310672760E+00  0.812181282043E+01  0.121813081205E+00
  0.536310672760E+00  0.817226982117E+01  0.124489979086E-17
  0.799721002579E+00  0.000000000000E+00 -0.191203564405E+00
  0.799721002579E+00  0.000000000000E+00  0.191203564405E+00
  0.799721002579E+00  0.421052634716E+00 -0.191203564405E+00
  0.799721002579E+00  0.421052634716E+00  0.191203564405E+00
  0.799721002579E+00  0.842105269432E+00 -0.191203564405E+00
  0.799721002579E+00  0.842105269432E+00  0.191203564405E+00
  0.799721002579E+00  0.126315784454E+01 -0.191203564405E+00
  0.799721002579E+00  0.126315784454E+01  0.191203564405E+00
  0.799721002579E+00  0.168421053886E+01 -0.191203564405E+00
  0.799721002579E+00  0.168421053886E+01  0.191203564405E+00
  0.799721002579E+00  0.210526323318E+01 -0.191203564405E+00
  0.799721002579E+00  0.210526323318E+01  0.191203564405E+00
  0.799721002579E+00  0.252631568909E+01 -0.191203564405E+00
  0.799721002579E+00  0.252631568909E+01  0.191203564405E+00
  0.799721002579E+00  0.294736838341E+01 -0.191203564405E+00
  0.799721002579E+00  0.294736838341E+01  0.191203564405E+00
  0.799721002579E+00  0.336842107773E+01 -0.191203564405E+00
  0.799721002579E+00  0.336842107773E+01  0.191203564405E+00
  0.799721002579E+00  0.378947377205E+01 -0.191203564405E+00
  0.799721002579E+00  0.378947377205E+01  0.191203564405E+00
  0.799721002579E+00  0.421052646637E+01 -0.191203564405E+00
  0.799721002579E+00  0.421052646637E+01  0.191203564405E+00
  0.799721002579E+00  0.463157892227E+01 -0.191203564405E+00
  0.799721002579E+00  0.463157892227E+01  0.191203564405E+00
  0.799721002579E+00  0.505263137817E+01 -0.191203564405E+00
  0.799721002579E+00  0.505263137817E+01  0.191203564405E+00
  0.799721002579E+00  0.547368431091E+01 -0.191203564405E+00
  0.799721002579E+00  0.547368431091E+01  0.191203564405E+00
  0.799721002579E+00  0.589473676682E+01 -0.191203564405E+00
  0.799721002579E+00  0.589473676682E+01  0.191203564405E+00
  0.799721002579E+00  0.631578969955E+01 -0.191203564405E+00
  0.799721002579E+00  0.631578969955E+01  0.191203564405E+00
  0.799721002579E+00  0.673684215546E+01 -0.191203564405E+00
  0.799721002579E+00  0.673684215546E+01  0.191203564405E+00
  0.799721002579E+00  0.715789461136E+01 -0.191203564405E+00
  0.799721002579E+00  0.715789461136E+01  0.191203564405E+00
  0.799721002579E+00  0.757894754410E+01 -0.191203564405E+00
  0.799721002579E+00  0.757894754410E+01  0.191203564405E+00
  0.799721002579E+00  0.800000000000E+01 -0.191203564405E+00
  0.799721002579E+00  0.800000000000E+01  0.191203564405E+00
  0.799721002579E+00  0.813520145416E+01 -0.135201334953E+00
  0.799721002579E+00  0.813520145416E+01  0.135201334953E+00
  0.799721002579E+00  0.819120311737E+01 -0.320710062362E-17
  0.105025947094E+01  0.000000000000E+00 -0.198943451047E+00
  0.105025947094E+01  0.000000000000E+00  0.198943451047E+00
  0.105025947094E+01  0.421052634716E+00 -0.198943451047E+00
  0.105025947094E+01  0.421052634716E+00  0.198943451047E+00
  0.105025947094E+01  0.842105269432E+00 -0.198943451047E+00
  0.105025947094E+01  0.842105269432E+00  0.198943451047E+00
  0.105025947094E+01  0.126315784454E+01 -0.198943451047E+00
  0.105025947094E+01  0.126315784454E+01  0.198943451047E+00
  0.105025947094E+01  0.168421053886E+01 -0.198943451047E+00
  0.105025947094E+01  0.168421053886E+01  0.198943451047E+00
  0.105025947094E+01  0.210526323318E+01 -0.198943451047E+00
  0.105025947094E+01  0.210526323318E+01  0.198943451047E+00
[...]
CELL_DATA                1336
SCALARS C_p_inc float 1
LOOKUP_TABLE default
  0.132368186238E+00
  0.132314934924E+00
  0.239227665328E-01
  0.238669721350E-01
 -0.205308439472E-01
 -0.205851493675E-01
 -0.546053220572E-01
 -0.546569315453E-01
 -0.835070440504E-01
 -0.835552699348E-01
 -0.109840263453E+00
 -0.109884639343E+00
 -0.134957553520E+00
 -0.134997756770E+00
 -0.159638548476E+00
 -0.159674477755E+00
 -0.184388940321E+00
 -0.184366479055E+00
 -0.209561207623E+00
 -0.209543053086E+00
 -0.235331437940E+00
 -0.235318066804E+00
 -0.261920782754E+00
 -0.261912634981E+00
 -0.289888765997E+00
 -0.289886526156E+00
 -0.322739392778E+00
 -0.322744076270E+00
 -0.392654104320E+00
 -0.392664493531E+00
  0.181256492352E+00
  0.181254440462E+00
  0.181254158642E+00
  0.181256210500E+00
 -0.392664719419E+00
 -0.392654330399E+00
 -0.322744239288E+00
 -0.322739556137E+00
 -0.289886660617E+00
 -0.289888900923E+00
 -0.261912749545E+00
 -0.261920897920E+00
 -0.235318164455E+00
 -0.235331536316E+00
 -0.209543134258E+00
 -0.209561289621E+00
 -0.184366542492E+00
 -0.184389004619E+00
 -0.159674521556E+00
 -0.159638591185E+00
 -0.134997774647E+00
 -0.134957570661E+00
 -0.109884622192E+00
 -0.109840246593E+00
 -0.835552016693E-01
 -0.835069788557E-01
 -0.546567811018E-01
 -0.546051831078E-01
 -0.205848459735E-01
 -0.205305853195E-01
  0.238676355916E-01
  0.239232030637E-01
  0.132316701286E+00
  0.132368482334E+00
  0.132484666896E+00
  0.132406582543E+00
  0.240445561763E-01
  0.239563571220E-01
 -0.204109768261E-01
 -0.205021392993E-01
 -0.544893631175E-01
 -0.545817678228E-01
 -0.833964277096E-01
 -0.834889048036E-01
 -0.109736119539E+00
 -0.109827783273E+00
 -0.134860761914E+00
 -0.134950971547E+00
 -0.159549935026E+00
 -0.159638095252E+00
 -0.184357471616E+00
 -0.184294591904E+00
 -0.209541792827E+00
 -0.209482553892E+00
 -0.235324711595E+00
 -0.235269896813E+00
 -0.261927399547E+00
 -0.261878020878E+00
 -0.289909698524E+00
 -0.289867536498E+00
 -0.322775955357E+00
 -0.322746361469E+00
 -0.392704207203E+00
 -0.392705686803E+00
  0.181214410110E+00
  0.181696343575E+00
  0.181696058886E+00
  0.181214127599E+00
 -0.392705916298E+00
 -0.392704434280E+00
 -0.322746528575E+00
 -0.322776120068E+00
 -0.289867675989E+00
 -0.289909835255E+00
 -0.261878141749E+00
 -0.261927517065E+00
 -0.235270002439E+00
 -0.235324813038E+00
 -0.209482645221E+00
 -0.209541878839E+00
 -0.184294668416E+00
 -0.184357541229E+00
 -0.159638144428E+00
 -0.159549996778E+00
 -0.134950996884E+00
 -0.134860805046E+00
 -0.109827776924E+00
 -0.109736139287E+00
 -0.834888532362E-01
 -0.833964162438E-01
 -0.545816464607E-01
 -0.544893069737E-01
 -0.205019008809E-01
 -0.204108488079E-01
  0.239567944994E-01
  0.240448423945E-01
  0.132407133301E+00
  0.132485675363E+00
  0.132624611726E+00
  0.132517079331E+00
  0.241948058643E-01
  0.240708279365E-01
 -0.202586632749E-01
 -0.203904995519E-01
 -0.543376045030E-01
 -0.544748901692E-01
 -0.832472183988E-01
 -0.833881729077E-01
 -0.109591073901E+00
 -0.109734287248E+00
 -0.134721192567E+00
 -0.134865560472E+00
 -0.159417082194E+00
 -0.159561559850E+00
 -0.184283882808E+00
 -0.184177974697E+00
 -0.209479939877E+00
 -0.209376857196E+00
 -0.235275529571E+00
 -0.235176496958E+00
 -0.261892134066E+00
 -0.261798429943E+00
 -0.289890595297E+00
 -0.289803342199E+00
 -0.322779832780E+00
 -0.322697970707E+00
 -0.392755322148E+00
 -0.392662511442E+00
  0.181772778896E+00
  0.181340014104E+00
  0.181339723657E+00
  0.181772492902E+00
 -0.392662747356E+00
 -0.392755553236E+00
 -0.322698144735E+00
 -0.322780001935E+00
 -0.289803489946E+00
 -0.289890737415E+00
 -0.261798560942E+00
 -0.261892258269E+00
 -0.235176615143E+00
 -0.235275639391E+00
 -0.209376964251E+00
 -0.209480036476E+00
 -0.184178071123E+00
 -0.184283965967E+00
 -0.159561625421E+00
 -0.159417171131E+00
 -0.134865608104E+00
 -0.134721271788E+00
 -0.109734312124E+00
 -0.109591142992E+00
 -0.833881669211E-01
 -0.832472772401E-01
 -0.544748389983E-01
 -0.543376550879E-01
 -0.203903742240E-01
 -0.202587175694E-01
  0.240711088142E-01
  0.241946704932E-01
  0.132517925075E+00
  0.132623726730E+00
  0.132790536437E+00
  0.132652113570E+00
  0.243789285017E-01
  0.242150036984E-01
 -0.200678160229E-01
 -0.202453943598E-01
 -0.541435660605E-01
 -0.543314397845E-01
 -0.830527051368E-01
 -0.832483477059E-01
 -0.109398339010E+00
 -0.109599689584E+00
 -0.134532130231E+00
 -0.134737498561E+00
 -0.159233499967E+00
 -0.159441269954E+00
 -0.184165064389E+00
 -0.184010977306E+00
 -0.209372805535E+00
 -0.209220887112E+00
 -0.235181413419E+00
 -0.235033499126E+00
 -0.261812450795E+00
 -0.261670438385E+00
 -0.289826603470E+00
 -0.289692188374E+00
 -0.322730249475E+00
 -0.322603326316E+00
 -0.392700612412E+00
 -0.392578445919E+00
  0.181147161804E+00
  0.181185343205E+00
  0.181185044982E+00
  0.181146869558E+00
 -0.392578690473E+00
 -0.392700850194E+00
 -0.322603509398E+00
 -0.322730425719E+00
 -0.289692346712E+00
 -0.289826753945E+00
 -0.261670582135E+00
 -0.261812585158E+00
 -0.235033632837E+00
 -0.235181535744E+00
 -0.209221013214E+00
 -0.209372917681E+00
 -0.184011097317E+00
 -0.184165167093E+00
 -0.159441359839E+00
 -0.159233619327E+00
 -0.134737578379E+00
 -0.134532248247E+00
 -0.109599758310E+00
 -0.109398458659E+00
 -0.832484039548E-01
 -0.830528320840E-01
 -0.543314826895E-01
 -0.541437129180E-01
 -0.202454281409E-01
 -0.200680148771E-01
  0.242149333228E-01
  0.243785889842E-01
  0.132651576782E+00
  0.132789928798E+00
  0.132989972714E+00
  0.132815334043E+00
  0.246042814487E-01
  0.243945399716E-01
 -0.198302980511E-01
 -0.200606713070E-01
 -0.538984587926E-01
 -0.541450306386E-01
 -0.828036463220E-01
 -0.830629645611E-01
 -0.109148416438E+00
 -0.109417590790E+00
 -0.134284006997E+00
 -0.134560588698E+00
 -0.158989744545E+00
 -0.159271363553E+00
 -0.183995176499E+00
 -0.183785021765E+00
 -0.209215212822E+00
 -0.209006735943E+00
 -0.235038036720E+00
 -0.234833951797E+00
 -0.261685268539E+00
 -0.261488539274E+00
 -0.289717318461E+00
 -0.289531234443E+00
 -0.322638311756E+00
 -0.322466141387E+00
 -0.392622090288E+00
 -0.392463444837E+00
  0.181121031958E+00
  0.181192192541E+00
  0.181191885127E+00
  0.181120731604E+00
 -0.392463699482E+00
 -0.392622336819E+00
 -0.322466334821E+00
 -0.322638497028E+00
 -0.289531404726E+00
 -0.289717479394E+00
 -0.261488697162E+00
 -0.261685415401E+00
 -0.234834102417E+00
 -0.235038174166E+00
 -0.209006882354E+00
 -0.209215343407E+00
 -0.183785166254E+00
 -0.183995301885E+00
 -0.159271481468E+00
 -0.158989893809E+00
 -0.134560704286E+00
 -0.134284161218E+00
 -0.109417706196E+00
 -0.109148580068E+00
 -0.830630838422E-01
 -0.828038268032E-01
 -0.541451630779E-01
 -0.538986706874E-01
 -0.200608415717E-01
 -0.198305753668E-01
  0.243942577482E-01
  0.246038341423E-01
  0.132814769231E+00
  0.132988885355E+00
  0.133229277628E+00
  0.133013998695E+00
  0.248801151275E-01
  0.246169673216E-01
 -0.195354191059E-01
 -0.198281221311E-01
 -0.535904870777E-01
 -0.539069467848E-01
 -0.824874211823E-01
 -0.828230085808E-01
 -0.108828139075E+00
 -0.109178879352E+00
 -0.133963382273E+00
 -0.134325814631E+00
 -0.158672383656E+00
 -0.159043114969E+00
 -0.183765415998E+00
 -0.183487686353E+00
 -0.208999184324E+00
 -0.208722742558E+00
 -0.234838558002E+00
 -0.234567257560E+00
 -0.261505415164E+00
 -0.261243467530E+00
 -0.289560517869E+00
 -0.289312558010E+00
 -0.322507977556E+00
 -0.322278425958E+00
 -0.392517695583E+00
 -0.392305344336E+00
  0.181116289953E+00
  0.181212436775E+00
  0.181212119561E+00
  0.181115980264E+00
 -0.392305609639E+00
 -0.392517952148E+00
 -0.322278630224E+00
 -0.322508172982E+00
 -0.289312740632E+00
 -0.289560690426E+00
 -0.261243639886E+00
 -0.261505575708E+00
 -0.234567425257E+00
 -0.234838711746E+00
 -0.208722909153E+00
 -0.208999334411E+00
 -0.183487854650E+00
 -0.183765564801E+00
 -0.159043261171E+00
 -0.158672560881E+00
 -0.134325964707E+00
 -0.133963568945E+00
 -0.109179037120E+00
 -0.108828339725E+00
 -0.828231803935E-01
 -0.824876422634E-01
 -0.539071452032E-01
 -0.535907385356E-01
 -0.198283770061E-01
 -0.195357153484E-01
  0.246165638755E-01
  0.248797751078E-01
  0.133013065135E+00
  0.133229211572E+00
  0.133519478269E+00
  0.133255544857E+00
  0.252186472814E-01
  0.248920273618E-01
 -0.191689993211E-01
 -0.195367786977E-01
 -0.532037309186E-01
 -0.536053255601E-01
 -0.820867392663E-01
 -0.825160182364E-01
 -0.108419246352E+00
 -0.108870786279E+00
 -0.133551428529E+00
 -0.134020381995E+00
 -0.158262444411E+00
 -0.158743991233E+00
 -0.183463016241E+00
 -0.183101265584E+00
 -0.208712934006E+00
 -0.208352161910E+00
 -0.234572458696E+00
 -0.234218078656E+00
 -0.261263818288E+00
 -0.260921722509E+00
 -0.289348212362E+00
 -0.289024824797E+00
 -0.322329496744E+00
 -0.322030902596E+00
 -0.392371368242E+00
 -0.392096221548E+00
  0.181119516255E+00
  0.181243592364E+00
  0.181243265638E+00
  0.181119196830E+00
 -0.392096497224E+00
 -0.392371635249E+00
 -0.322031117327E+00
 -0.322329702654E+00
 -0.289025019336E+00
 -0.289348396788E+00
 -0.260921908789E+00
 -0.261263992707E+00
 -0.234218262742E+00
 -0.234572628790E+00
 -0.208352347790E+00
 -0.208713103409E+00
 -0.183101456519E+00
 -0.183463187841E+00
 -0.158744164356E+00
 -0.158262647989E+00
 -0.134020563681E+00
 -0.133551645666E+00
 -0.108870980803E+00
 -0.108419481797E+00
 -0.825162318026E-01
 -0.820869992860E-01
 -0.536055682097E-01
 -0.532040247549E-01
 -0.195370672122E-01
 -0.191693434986E-01
  0.248916756043E-01
  0.252182015846E-01
  0.133255286524E+00
  0.133518575729E+00
  0.133870879388E+00
  0.133551536367E+00
  0.256353559850E-01
  0.252327418742E-01
 -0.187121854649E-01
 -0.191718807644E-01
 -0.527165487121E-01
 -0.532239680378E-01
 -0.815777342778E-01
 -0.821247610426E-01
 -0.107896242559E+00
 -0.108475470383E+00
 -0.133021628340E+00
 -0.133626261760E+00
 -0.157733032462E+00
 -0.158356206781E+00
 -0.183069757001E+00
 -0.182600552119E+00
 -0.208339558178E+00
 -0.207871106953E+00
 -0.234224612988E+00
 -0.233764566651E+00
 -0.260947578950E+00
 -0.260504240042E+00
 -0.289070159864E+00
 -0.288652520977E+00
 -0.322095760146E+00
 -0.321712337528E+00
 -0.392179810451E+00
 -0.391829465466E+00
  0.181126207208E+00
  0.181282700674E+00
  0.181282365619E+00
  0.181125878539E+00
 -0.391829750313E+00
 -0.392180087458E+00
 -0.321712561585E+00
 -0.322095976037E+00
 -0.288652726193E+00
 -0.289070355608E+00
 -0.260504438914E+00
 -0.260947766576E+00
 -0.233764765698E+00
 -0.234224798642E+00
 -0.207871310636E+00
 -0.208339745936E+00
 -0.182600764225E+00
 -0.183069950234E+00
 -0.158356405352E+00
 -0.157733261177E+00
 -0.133626473118E+00
 -0.133021875487E+00
 -0.108475699221E+00
 -0.107896514045E+00
 -0.821250137004E-01
 -0.815780381163E-01
 -0.532242541617E-01
 -0.527168970535E-01
 -0.191722176979E-01
 -0.187126002353E-01
  0.252323070797E-01
  0.256348248377E-01
  0.133550750695E+00
  0.133870162777E+00
  0.134298978004E+00
  0.133914626150E+00
  0.261506619746E-01
  0.256561248757E-01
 -0.181395867995E-01
 -0.187134764022E-01
 -0.520991838984E-01
 -0.527405980116E-01
 -0.809270757372E-01
 -0.816252506985E-01
 -0.107223107227E+00
 -0.107967873529E+00
 -0.132336196701E+00
 -0.133117964794E+00
 -0.157045596116E+00
 -0.157854506514E+00
 -0.182559658630E+00
 -0.181949329369E+00
 -0.207854969109E+00
 -0.207245246651E+00
 -0.233773577666E+00
 -0.233175421567E+00
 -0.260538670711E+00
 -0.259963947732E+00
 -0.288712539753E+00
 -0.288174028628E+00
 -0.321797886921E+00
 -0.321307693881E+00
 -0.391939303319E+00
 -0.391497003182E+00
  0.181130074553E+00
  0.181324789276E+00
  0.181324447979E+00
  0.181129738035E+00
 -0.391497295117E+00
 -0.391939588976E+00
 -0.321307925294E+00
 -0.321798111521E+00
 -0.288174242471E+00
 -0.288712745441E+00
 -0.259964157004E+00
 -0.260538870076E+00
 -0.233175633257E+00
 -0.233773777305E+00
 -0.207245465749E+00
 -0.207855173576E+00
 -0.181949560345E+00
 -0.182559871845E+00
 -0.157854729149E+00
 -0.157045847899E+00
 -0.133118204917E+00
 -0.132336472683E+00
 -0.107968136939E+00
 -0.107223415524E+00
 -0.816255453454E-01
 -0.809274280611E-01
 -0.527409360975E-01
 -0.520995988472E-01
 -0.187138800732E-01
 -0.181400970746E-01
  0.256556043752E-01
  0.261499923341E-01
  0.133913881895E+00
  0.134298027773E+00
  0.134822552565E+00
  0.134362919531E+00
  0.267913999719E-01
  0.261850870123E-01
 -0.174166587397E-01
 -0.181342388762E-01
 -0.513101750647E-01
 -0.521242159765E-01
 -0.800875244108E-01
 -0.809837082304E-01
 -0.106348153124E+00
 -0.107312401878E+00
 -0.131440423702E+00
 -0.132459070889E+00
 -0.156143964638E+00
 -0.157202683158E+00
 -0.181895316389E+00
 -0.181094742452E+00
 -0.207224564730E+00
 -0.206424477358E+00
 -0.233188758695E+00
 -0.232405138191E+00
 -0.260011740207E+00
 -0.259261873598E+00
 -0.288256473020E+00
 -0.287558883708E+00
 -0.321424562099E+00
 -0.320796805464E+00
 -0.391646362799E+00
 -0.391089607405E+00
  0.181120752279E+00
  0.181360890459E+00
  0.181360545879E+00
  0.181120410201E+00
 -0.391089903470E+00
 -0.391646654880E+00
 -0.320797041459E+00
 -0.321424793313E+00
 -0.287559103265E+00
 -0.288256686476E+00
 -0.259262090108E+00
 -0.260011948971E+00
 -0.232405359076E+00
 -0.233188969817E+00
 -0.206424708142E+00
 -0.207224783276E+00
 -0.181094988319E+00
 -0.181895546940E+00
 -0.157202927641E+00
 -0.156144235063E+00
 -0.132459338202E+00
 -0.131440724018E+00
 -0.107312699776E+00
 -0.106348494167E+00
 -0.809840478895E-01
 -0.800879230757E-01
 -0.521246152206E-01
 -0.513106614674E-01
 -0.181347296153E-01
 -0.174172981355E-01
  0.261844387686E-01
  0.267904141814E-01
  0.134361972752E+00
  0.134820411304E+00
  0.135463417749E+00
  0.134919958944E+00
  0.275926658320E-01
  0.268506819260E-01
 -0.164959012327E-01
 -0.173962351815E-01
 -0.502908460054E-01
 -0.513310385087E-01
 -0.789909394770E-01
 -0.801518247276E-01
 -0.105195816161E+00
 -0.106457699992E+00
 -0.130253544771E+00
 -0.131596722785E+00
 -0.154944640781E+00
 -0.156348023614E+00
 -0.181022003932E+00
 -0.179958083647E+00
 -0.206397868368E+00
 -0.205334154184E+00
 -0.232425890212E+00
 -0.231386171500E+00
 -0.259330739086E+00
 -0.258340786501E+00
 -0.287676121393E+00
 -0.286763465279E+00
 -0.320961887231E+00
 -0.320152648885E+00
 -0.391299477342E+00
 -0.390598028218E+00
  0.181080339912E+00
  0.181374454423E+00
  0.181374110307E+00
  0.181079995419E+00
 -0.390598324623E+00
 -0.391299772760E+00
 -0.320152885927E+00
 -0.320962122180E+00
 -0.286763686769E+00
 -0.287676339590E+00
 -0.258341006090E+00
 -0.259330953957E+00
 -0.231386396910E+00
 -0.232426109202E+00
 -0.205334391359E+00
 -0.206398097031E+00
 -0.179958338333E+00
 -0.181022247496E+00
 -0.156348285690E+00
 -0.154944922320E+00
 -0.131597012922E+00
 -0.130253860181E+00
 -0.106458028344E+00
 -0.105196178007E+00
 -0.801522069399E-01
 -0.789913676095E-01
 -0.513315020552E-01
 -0.502913760478E-01
 -0.173968382424E-01
 -0.164966095990E-01
  0.268497729362E-01
  0.275915720968E-01
  0.134918089661E+00
  0.135461318123E+00
  0.136249414231E+00
  0.135615879966E+00
  0.286010795425E-01
  0.276953071987E-01
 -0.153109107340E-01
 -0.164459901196E-01
 -0.489565185423E-01
 -0.502981145599E-01
 -0.775369497887E-01
 -0.790592108232E-01
 -0.103653220571E+00
 -0.105328251217E+00
 -0.128653678540E+00
 -0.130452723249E+00
 -0.153320649293E+00
 -0.155212288824E+00
 -0.179858004613E+00
 -0.178419360461E+00
 -0.205299729539E+00
 -0.203860273953E+00
 -0.231419655036E+00
 -0.230015594687E+00
 -0.258443559448E+00
 -0.257114343442E+00
 -0.286935946177E+00
 -0.285723768380E+00
 -0.320393789855E+00
 -0.319338844641E+00
 -0.390902859489E+00
 -0.390015833472E+00
  0.180976938063E+00
  0.181334426890E+00
  0.181334087713E+00
  0.180976595076E+00
 -0.390016125771E+00
 -0.390903154351E+00
 -0.319339078510E+00
 -0.320394024925E+00
 -0.285723987293E+00
 -0.286936165263E+00
 -0.257114561071E+00
 -0.258443776189E+00
 -0.230015818878E+00
 -0.231419877131E+00
 -0.203860510866E+00
 -0.205299962905E+00
 -0.178419616130E+00
 -0.179858254955E+00
 -0.155212561522E+00
 -0.153320932083E+00
 -0.130453027800E+00
 -0.128653996597E+00
 -0.105328599451E+00
 -0.103653586600E+00
 -0.790596213006E-01
 -0.775373830935E-01
 -0.502986203507E-01
 -0.489570509238E-01
 -0.164466616684E-01
 -0.153115987706E-01
  0.276942788546E-01
  0.286001392353E-01
  0.135613904194E+00
  0.136248247866E+00
  0.137213645546E+00
  0.136492044521E+00
  0.298787667042E-01
  0.287782309365E-01
 -0.137669236264E-01
 -0.152064759015E-01
 -0.471819054828E-01
 -0.489329258787E-01
 -0.755739327968E-01
 -0.776010318668E-01
 -0.101547577473E+00
 -0.103810572674E+00
 -0.126452426766E+00
 -0.128908852245E+00
 -0.151074123527E+00
 -0.153676779860E+00
 -0.178278415445E+00
 -0.176290884366E+00
 -0.203815508269E+00
 -0.201823736861E+00
 -0.230071251626E+00
 -0.228131514922E+00
 -0.257273141621E+00
 -0.255447602635E+00
 -0.285986608142E+00
 -0.284342407017E+00
 -0.319703847723E+00
 -0.318305669878E+00
 -0.390474657940E+00
 -0.389346026364E+00
  0.180751814095E+00
  0.181181237781E+00
  0.181180908538E+00
  0.180751477221E+00
 -0.389346309519E+00
 -0.390474947732E+00
 -0.318305895846E+00
 -0.319704078646E+00
 -0.284342618284E+00
 -0.285986823578E+00
 -0.255447812633E+00
 -0.257273355181E+00
 -0.228131731414E+00
 -0.230071471087E+00
 -0.201823965994E+00
 -0.203815739708E+00
 -0.176291132177E+00
 -0.178278664786E+00
 -0.153677054019E+00
 -0.151074396799E+00
 -0.128909159788E+00
 -0.126452734417E+00
 -0.103810925806E+00
 -0.101547931759E+00
 -0.776014492370E-01
 -0.755743521726E-01
 -0.489334387047E-01
 -0.471824204006E-01
 -0.152071421339E-01
 -0.137675921058E-01
  0.287772972216E-01
  0.298777974446E-01
  0.136490725672E+00
  0.137211784688E+00
  0.138387808451E+00
  0.137605443898E+00
  0.315087095920E-01
  0.301843089287E-01
 -0.117241640728E-01
 -0.135636410680E-01
 -0.447749142667E-01
 -0.470957696503E-01
 -0.728653391048E-01
 -0.756171371693E-01
 -0.986068304126E-01
 -0.101730024212E+00
 -0.123351104645E+00
 -0.126782250327E+00
 -0.147889036461E+00
 -0.151557247344E+00
 -0.176087538203E+00
 -0.173271285184E+00
 -0.201765524786E+00
 -0.198934466731E+00
 -0.228226721575E+00
 -0.225469640232E+00
 -0.255702032164E+00
 -0.253119772454E+00
 -0.284758550969E+00
 -0.282462903887E+00
 -0.318880644497E+00
 -0.316982282820E+00
 -0.390065438305E+00
 -0.388615956656E+00
  0.180292249630E+00
  0.180796746584E+00
  0.180796432682E+00
  0.180291923979E+00
 -0.388616225242E+00
 -0.390065717924E+00
 -0.316982495805E+00
 -0.318880866525E+00
 -0.282463102076E+00
 -0.284758757689E+00
 -0.253119968774E+00
 -0.255702236902E+00
 -0.225469842153E+00
 -0.228226931989E+00
 -0.198934680163E+00
 -0.201765746894E+00
 -0.173271515897E+00
 -0.176087777877E+00
 -0.151557512747E+00
 -0.147889289263E+00
 -0.126782548486E+00
 -0.123351388952E+00
 -0.101730367052E+00
 -0.986071577238E-01
 -0.756175427452E-01
 -0.728657270246E-01
 -0.470962680145E-01
 -0.447753927061E-01
 -0.135642897454E-01
 -0.117247923362E-01
  0.301833686076E-01
  0.315077880052E-01
  0.137603717463E+00
  0.138386259224E+00
  0.139797808729E+00
  0.139033673035E+00
  0.336070397414E-01
  0.320394869606E-01
 -0.896261501566E-02
 -0.113417123632E-01
 -0.414236807640E-01
 -0.445680412233E-01
 -0.690251703832E-01
 -0.728554507691E-01
 -0.943879099742E-01
 -0.988110465640E-01
 -0.118863682859E+00
 -0.123783806482E+00
 -0.143249018644E+00
 -0.148561613071E+00
 -0.172971511307E+00
 -0.168864863565E+00
 -0.198860274747E+00
 -0.194708067236E+00
 -0.225637894408E+00
 -0.221579895377E+00
 -0.253543991737E+00
 -0.249747481551E+00
 -0.283151065570E+00
 -0.279812067997E+00
 -0.317931855801E+00
 -0.315256141615E+00
 -0.389801898214E+00
 -0.387910038455E+00
  0.179368999111E+00
  0.179934502342E+00
  0.179934209462E+00
  0.179368690190E+00
 -0.387910286731E+00
 -0.389802162178E+00
 -0.315256336275E+00
 -0.317932063816E+00
 -0.279812247464E+00
 -0.283151258137E+00
 -0.249747657977E+00
 -0.253544181640E+00
 -0.221580075723E+00
 -0.225638088978E+00
 -0.194708256949E+00
 -0.198860479730E+00
 -0.168865067899E+00
 -0.172971732266E+00
 -0.148561859127E+00
 -0.143249240055E+00
 -0.123784082719E+00
 -0.118863930827E+00