# vtk DataFile Version 3.0
MFTran results file. Generated by MFTran, USU AeroLab (c) 2021.
ASCII
DATASET POLYDATA
POINTS                 704 float
      0.000003882633      0.000000000000     -0.000000877801
      0.000003650019      0.421052634716     -0.000000825211
      0.000003650019      0.842105269432     -0.000000825211
      0.000003650020      1.263157844540     -0.000000825211
      0.000003650020      1.684210538860     -0.000000825211
      0.000003650019      2.105263233180     -0.000000825211
      0.000003650019      2.526315689090     -0.000000825211
      0.000003650020      2.947368383410     -0.000000825211
      0.000003650020      3.368421077730     -0.000000825211
      0.000003650020      3.789473772050     -0.000000825211
      0.000003650019      4.210526466370     -0.000000825211
      0.000003650018      4.631578922270     -0.000000825211
      0.000003650020      5.052631378170     -0.000000825211
      0.000003650019      5.473684310910     -0.000000825211
      0.000003650020      5.894736766820     -0.000000825211
      0.000003650019      6.315789699550     -0.000000825211
      0.000003650018      6.736842155460     -0.000000825211
      0.000003650020      7.157894611360     -0.000000825211
      0.000003650019      7.578947544100     -0.000000825211
      0.000002312425      7.999997913647      0.000000000000
      0.257793307257      0.000000000000     -0.131796066699
      0.257793307257      0.000000000000      0.131796066699
      0.257793523822      0.421052634716     -0.131796121309
      0.257793523822      0.421052634716      0.131796121309
      0.257793523822      0.842105269432     -0.131796121309
      0.257793523822      0.842105269432      0.131796121309
      0.257793523822      1.263157844540     -0.131796121309
      0.257793523822      1.263157844540      0.131796121309
      0.257793523822      1.684210538860     -0.131796121309
      0.257793523822      1.684210538860      0.131796121309
      0.257793523822      2.105263233180     -0.131796121309
      0.257793523822      2.105263233180      0.131796121309
      0.257793523822      2.526315689090     -0.131796121309
      0.257793523822      2.526315689090      0.131796121309
      0.257793523822      2.947368383410     -0.131796121309
      0.257793523822      2.947368383410      0.131796121309
      0.257793523822      3.368421077730     -0.131796121309
      0.257793523822      3.368421077730      0.131796121309
      0.257793523822      3.789473772050     -0.131796121309
      0.257793523822      3.789473772050      0.131796121309
      0.257793523822      4.210526466370     -0.131796121309
      0.257793523822      4.210526466370      0.131796121309
      0.257793523822      4.631578922270     -0.131796121310
      0.257793523822      4.631578922270      0.131796121310
      0.257793523822      5.052631378170     -0.131796121309
      0.257793523822      5.052631378170      0.131796121309
      0.257793523822      5.473684310910     -0.131796121309
      0.257793523822      5.473684310910      0.131796121309
      0.257793523822      5.894736766820     -0.131796121309
      0.257793523822      5.894736766820      0.131796121309
      0.257793523822      6.315789699550     -0.131796121309
      0.257793523822      6.315789699550      0.131796121309
      0.257793523822      6.736842155460     -0.131796121310
      0.257793523822      6.736842155460      0.131796121310
      0.257793523822      7.157894611360     -0.131796121309
      0.257793523822      7.157894611360      0.131796121309
      0.257793523822      7.578947544100     -0.131796121309
      0.257793523822      7.578947544100      0.131796121309
      0.257793249352      7.999999396118     -0.131797008523
      0.257793249352      7.999999396118      0.131797008523
      0.257792879867      8.093195283395     -0.093195332947
      0.257792879867      8.093195283395      0.093195332947
      0.257792882617      8.131797857920     -0.000000000000
      0.536311052970      0.000000000000     -0.172265750745
      0.536311052970      0.000000000000      0.172265750745
      0.536311102423      0.421052634716     -0.172265740001
      0.536311102423      0.421052634716      0.172265740001
      0.536311102423      0.842105269432     -0.172265740001
      0.536311102423      0.842105269432      0.172265740001
      0.536311102423      1.263157844540     -0.172265740001
      0.536311102423      1.263157844540      0.172265740001
      0.536311102423      1.684210538860     -0.172265740000
      0.536311102423      1.684210538860      0.172265740000
      0.536311102423      2.105263233180     -0.172265740001
      0.536311102423      2.105263233180      0.172265740001
      0.536311102423      2.526315689090     -0.172265740001
      0.536311102423      2.526315689090      0.172265740001
      0.536311102423      2.947368383410     -0.172265740000
      0.536311102423      2.947368383410      0.172265740000
      0.536311102423      3.368421077730     -0.172265740000
      0.536311102423      3.368421077730      0.172265740000
      0.536311102423      3.789473772050     -0.172265740000
      0.536311102423      3.789473772050      0.172265740000
      0.536311102423      4.210526466370     -0.172265740001
      0.536311102423      4.210526466370      0.172265740001
      0.536311102423      4.631578922270     -0.172265740002
      0.536311102423      4.631578922270      0.172265740002
      0.536311102423      5.052631378170     -0.172265740000
      0.536311102423      5.052631378170      0.172265740000
      0.536311102423      5.473684310910     -0.172265740000
      0.536311102423      5.473684310910      0.172265740000
      0.536311102423      5.894736766820     -0.172265740000
      0.536311102423      5.894736766820      0.172265740000
      0.536311102423      6.315789699550     -0.172265740000
      0.536311102423      6.315789699550      0.172265740000
      0.536311102423      6.736842155460     -0.172265740002
      0.536311102423      6.736842155460      0.172265740002
      0.536311102423      7.157894611360     -0.172265740000
      0.536311102423      7.157894611360      0.172265740000
      0.536311102423      7.578947544100     -0.172265740000
      0.536311102423      7.578947544100      0.172265740000
      0.536311009739      7.999999383609     -0.172266608585
      0.536311009739      7.999999383609      0.172266608585
      0.536310926493      8.121811165564     -0.121811427876
      0.536310926493      8.121811165564      0.121811427876
      0.536310955910      8.172267475626      0.000000000000
      0.799721175867      0.000000000000     -0.191199673456
      0.799721175867      0.000000000000      0.191199673456
      0.799721202971      0.421052634716     -0.191199663068
      0.799721202971      0.421052634716      0.191199663068
      0.799721202971      0.842105269432     -0.191199663068
      0.799721202971      0.842105269432      0.191199663068
      0.799721202971      1.263157844540     -0.191199663068
      0.799721202971      1.263157844540      0.191199663068
      0.799721202971      1.684210538860     -0.191199663067
      0.799721202971      1.684210538860      0.191199663067
      0.799721202971      2.105263233180     -0.191199663068
      0.799721202971      2.105263233180      0.191199663068
      0.799721202971      2.526315689090     -0.191199663068
      0.799721202971      2.526315689090      0.191199663068
      0.799721202971      2.947368383410     -0.191199663067
      0.799721202971      2.947368383410      0.191199663067
      0.799721202971      3.368421077730     -0.191199663067
      0.799721202971      3.368421077730      0.191199663067
      0.799721202971      3.789473772050     -0.191199663067
      0.799721202971      3.789473772050      0.191199663067
      0.799721202971      4.210526466370     -0.191199663068
      0.799721202971      4.210526466370      0.191199663068
      0.799721202971      4.631578922270     -0.191199663069
      0.799721202971      4.631578922270      0.191199663069
      0.799721202971      5.052631378170     -0.191199663067
      0.799721202971      5.052631378170      0.191199663067
      0.799721202971      5.473684310910     -0.191199663067
      0.799721202971      5.473684310910      0.191199663067
      0.799721202971      5.894736766820     -0.191199663067
      0.799721202971      5.894736766820      0.191199663067
      0.799721202971      6.315789699550     -0.191199663067
      0.799721202971      6.315789699550      0.191199663067
      0.799721202971      6.736842155460     -0.191199663069
      0.799721202971      6.736842155460      0.191199663069
      0.799721202971      7.157894611360     -0.191199663067
      0.799721202971      7.157894611360      0.191199663067
      0.799721202971      7.578947544100     -0.191199663067
      0.799721202971      7.578947544100      0.191199663067
      0.799721160290      7.999999392190     -0.191200510118
      0.799721160290      7.999999392190      0.191200510118
      0.799721122073      8.135199809079     -0.135199690285
      0.799721122073      8.135199809079      0.135199690285
      0.799721138560      8.191200780965     -0.000000000000
      1.050259518183      0.000000000000     -0.198939612723
      1.050259518183      0.000000000000      0.198939612723
      1.050259536151      0.421052634716     -0.198939604501
      1.050259536151      0.421052634716      0.198939604501
      1.050259536151      0.842105269432     -0.198939604501
      1.050259536151      0.842105269432      0.198939604501
      1.050259536151      1.263157844540     -0.198939604501
      1.050259536151      1.263157844540      0.198939604501
      1.050259536151      1.684210538860     -0.198939604501
      1.050259536151      1.684210538860      0.198939604501
      1.050259536151      2.105263233180     -0.198939604502
      1.050259536151      2.105263233180      0.198939604502
[...]
POINT_DATA                 704
SCALARS phi float 1
LOOKUP_TABLE default
      0.000000000000
     -0.000000000000
     -0.000000000000
      0.000000000000
     -0.000000000000
      0.000000000000
      0.000000000000
      0.000000000000
      0.000000000000
     -0.000000000000
     -0.000000000000
      0.000000000000
     -0.000000000000
     -0.000000000000
      0.000000000000
     -0.000000000000
      0.000000000000
     -0.000000000000
     -0.000000000000
     -0.000000000000
     -0.000000000000
     -0.000000000000
      0.000000000000
     -0.000000000000
      0.000000000000
      0.000000000000
     -0.000000000000
      0.000000000000
     -0.000000000000
     -0.000000000000
     -0.000000000000
      0.000000000000
      0.000000000000
     -0.000000000000
      0.000000000000
      0.000000000000
      0.000000000000
      0.000000000000
      0.000000000000
     -0.000000000000
      0.000000000000
     -0.000000000000
     -0.000000000000
     -0.000000000000
      0.000000000000
     -0.000000000000
     -0.000000000000
     -0.000000000000
      0.000000000000
      0.000000000000
     -0.000000000000
     -0.000000000000
     -0.000000000000
      0.000000000000
      0.000000000000
      0.000000000000
      0.000000000000
     -0.000000000000
     -0.000000000000
      0.000000000000
      0.000000000000
     -0.000000000000
      0.000000000000
     -0.000000000000
      0.000000000000
      0.000000000000
     -0.000000000000
      0.000000000000
      0.000000000000
      0.000000000000
      0.000000000000
     -0.000000000000
     -0.000000000000
      0.000000000000
     -0.000000000000
     -0.000000000000
      0.000000000000
     -0.000000000000
     -0.000000000000
      0.000000000000
     -0.000000000000
      0.000000000000
      0.000000000000
     -0.000000000000
      0.000000000000
      0.000000000000
     -0.000000000000
     -0.000000000000
     -0.000000000000
      0.000000000000
     -0.000000000000
     -0.000000000000
     -0.000000000000
     -0.000000000000
     -0.000000000000
      0.000000000000
      0.000000000000
      0.000000000000
      0.000000000000
     -0.000000000000
     -0.000000000000
     -0.000000000000
     -0.000000000000
     -0.000000000000
     -0.000000000000
     -0.000000000000
     -0.000000000000
     -0.000000000000
     -0.000000000000
      0.000000000000
      0.000000000000
     -0.000000000000
      0.000000000000
      0.000000000000
     -0.000000000000
     -0.000000000000
      0.000000000000
      0.000000000000
      0.000000000000
     -0.000000000000
     -0.000000000000
      0.000000000000
      0.000000000000
     -0.000000000000
      0.000000000000
      0.000000000000
     -0.000000000000
      0.000000000000
     -0.000000000000
      0.000000000000
     -0.000000000000
     -0.000000000000
     -0.000000000000
     -0.000000000000
     -0.000000000000
     -0.000000000000
     -0.000000000000
      0.000000000000
     -0.000000000000
     -0.000000000000
      0.000000000000
     -0.000000000000
     -0.000000000000
      0.000000000000
     -0.000000000000
     -0.000000000000
      0.000000000000
      0.000000000000
     -0.000000000000
      0.000000000000
     -0.000000000000
      0.000000000000
     -0.000000000000
     -0.000000000000
      0.000000000000
     -0.000000000000
     -0.000000000000
      0.000000000000
     -0.000000000000
     -0.000000000000
     -0.000000000000
     -0.000000000000
      0.000000000000
      0.000000000000
     -0.000000000000
     -0.000000000000
     -0.000000000000
     -0.000000000000
      0.000000000000
      0.000000000000
      0.000000000000
     -0.000000000000
      0.000000000000
     -0.000000000000
     -0.000000000000
      0.000000000000
     -0.000000000000
      0.000000000000
      0.000000000000
      0.000000000000
      0.000000000000
     -0.000000000000
      0.000000000000
      0.000000000000
      0.000000000000
     -0.000000000000
      0.000000000000
     -0.000000000000
      0.000000000000
     -0.000000000000
      0.000000000000
     -0.000000000000
      0.000000000000
      0.000000000000
     -0.000000000000
      0.000000000000
      0.000000000000
     -0.000000000000
     -0.000000000000
      0.000000000000
     -0.000000000000
      0.000000000000
      0.000000000000
      0.000000000000
      0.000000000000
     -0.000000000000
      0.000000000000
      0.000000000000
     -0.000000000000
      0.000000000000
      0.000000000000
      0.000000000000
     -0.000000000000
     -0.000000000000
      0.000000000000
      0.000000000000
     -0.000000000000
      0.000000000000
      0.000000000000
      0.000000000000
      0.000000000000
      0.000000000000
      0.000000000000
     -0.000000000000
     -0.000000000000
     -0.000000000000
      0.000000000000
      0.000000000000
     -0.000000000000
      0.000000000000
     -0.000000000000
     -0.000000000000
      0.000000000000
     -0.000000000000
      0.000000000000
      0.000000000000
      0.000000000000
      0.000000000000
      0.000000000000
     -0.000000000000
      0.000000000000
      0.000000000000
     -0.000000000000
      0.000000000000
     -0.000000000000
      0.000000000000
      0.000000000000
      0.000000000000
     -0.000000000000
     -0.000000000000
      0.000000000000
     -0.000000000000
      0.000000000000
     -0.000000000000
      0.000000000000
      0.000000000000
      0.000000000000
     -0.000000000000
     -0.000000000000
      0.000000000000
     -0.000000000000
      0.000000000000
     -0.000000000000
     -0.000000000000
      0.000000000000
     -0.000000000000
     -0.000000000000
      0.000000000000
     -0.000000000000
     -0.000000000000
      0.000000000000
     -0.000000000000
      0.000000000000
      0.000000000000
     -0.000000000000
      0.000000000000
      0.000000000000
     -0.000000000000
      0.000000000000
      0.000000000000
     -0.000000000000
      0.000000000000
     -0.000000000000
     -0.000000000000
     -0.000000000000
      0.000000000000
     -0.000000000000
      0.000000000000
     -0.000000000000
     -0.000000000000
     -0.000000000000
      0.000000000000
      0.000000000000
     -0.000000000000
     -0.000000000000
      0.000000000000
      0.000000000000
     -0.000000000000
     -0.000000000000
      0.000000000000
      0.000000000000
      0.000000000000
     -0.000000000000
      0.000000000000
      0.000000000000
     -0.000000000000
      0.000000000000
      0.000000000000
      0.000000000000
     -0.000000000000
     -0.000000000000
      0.000000000000
     -0.000000000000
     -0.000000000000
     -0.000000000000
      0.000000000000
     -0.000000000000
      0.000000000000
      0.000000000000
      0.000000000000
     -0.000000000000
     -0.000000000000
     -0.000000000000
      0.000000000000
     -0.000000000000
     -0.000000000000
      0.000000000000
      0.000000000000
     -0.000000000000
      0.000000000000
      0.000000000000
      0.000000000000
      0.000000000000
     -0.000000000000
      0.000000000000
      0.000000000000
      0.000000000000
      0.000000000000
     -0.000000000000
     -0.000000000000
     -0.000000000000
      0.000000000000
     -0.000000000000
     -0.000000000000
     -0.000000000000
      0.000000000000
      0.000000000000
     -0.000000000000
     -0.000000000000
     -0.000000000000
     -0.000000000000
      0.000000000000
     -0.000000000000
      0.000000000000
     -0.000000000000
     -0.000000000000
      0.000000000000
     -0.000000000000
     -0.000000000000
     -0.000000000000
     -0.000000000000
      0.000000000000
      0.000000000000
     -0.000000000000
      0.000000000000
     -0.000000000000
      0.000000000000
     -0.000000000000
     -0.000000000000
     -0.000000000000
      0.000000000000
     -0.000000000000
     -0.000000000000
      0.000000000000
     -0.000000000000
      0.000000000000
      0.000000000000
     -0.000000000000
     -0.000000000000
     -0.000000000000
      0.000000000000
      0.000000000000
      0.000000000000
     -0.000000000000
     -0.000000000000
      0.000000000000
     -0.000000000000
      0.000000000000
     -0.000000000000
      0.000000000000
     -0.000000000000
     -0.000000000000
      0.000000000000
     -0.000000000000
     -0.000000000000
     -0.000000000000
     -0.000000000000
     -0.000000000000
     -0.000000000000
     -0.000000000000
     -0.000000000000
      0.000000000000
     -0.000000000000
     -0.000000000000
     -0.000000000000
     -0.000000000000
     -0.000000000000
      0.000000000000
     -0.000000000000
      0.000000000000
     -0.000000000000
     -0.000000000000
      0.000000000000
      0.000000000000
      0.000000000000
     -0.000000000000
      0.000000000000
      0.000000000000
     -0.000000000000
      0.000000000000
     -0.000000000000
      0.000000000000
      0.000000000000
      0.000000000000
      0.000000000000
      0.000000000000
     -0.000000000000
     -0.000000000000
     -0.000000000000
     -0.000000000000
     -0.000000000000
     -0.000000000000
      0.000000000000
      0.000000000000
      0.000000000000
     -0.000000000000
      0.000000000000
      0.000000000000
     -0.000000000000
      0.000000000000
     -0.000000000000
     -0.000000000000
     -0.000000000000
     -0.000000000000
     -0.000000000000
     -0.000000000000
     -0.000000000000
     -0.000000000000
     -0.000000000000
     -0.000000000000
      0.000000000000
     -0.000000000000
     -0.000000000000
     -0.000000000000
     -0.000000000000
     -0.000000000000
     -0.000000000000
      0.000000000000
      0.000000000000
     -0.000000000000
     -0.000000000000
     -0.000000000000
     -0.000000000000
      0.000000000000
     -0.000000000000
      0.000000000000
      0.000000000000
     -0.000000000000
     -0.000000000000
      0.000000000000
      0.000000000000
     -0.000000000000
      0.000000000000
     -0.000000000000
     -0.000000000000
      0.000000000000
      0.000000000000
      0.000000000000
     -0.000000000000
     -0.000000000000
      0.000000000000
      0.000000000000
     -0.000000000000
     -0.000000000000
      0.000000000000
     -0.000000000000
      0.000000000000
     -0.000000000000
     -0.000000000000
     -0.000000000000
     -0.000000000000
      0.000000000000
      0.000000000000
      0.000000000000
      0.000000000000
     -0.000000000000
      0.000000000000
     -0.000000000000
     -0.000000000000
      0.000000000000
     -0.000000000000
     -0.000000000000
     -0.000000000000
      0.000000000000
     -0.000000000000
     -0.000000000000
     -0.000000000000
      0.000000000000
      0.000000000000
      0.000000000000
     -0.000000000000
     -0.000000000000
      0.000000000000
      0.000000000000
     -0.000000000000
     -0.000000000000
      0.000000000000
      0.000000000000
      0.000000000000
     -0.000000000000
      0.000000000000
      0.000000000000
     -0.000000000000
      0.000000000000
     -0.000000000000
      0.000000000000
     -0.000000000000
      0.000000000000
      0.000000000000
     -0.000000000000
     -0.000000000000
      0.000000000000
     -0.000000000000
      0.000000000000
     -0.000000000000
     -0.000000000000
     -0.000000000000
      0.000000000000
      0.000000000000
      0.000000000000
      0.000000000000
     -0.000000000000
      0.000000000000
     -0.000000000000
     -0.000000000000
     -0.000000000000
      0.000000000000
     -0.000000000000
      0.000000000000
      0.000000000000
      0.000000000000
     -0.000000000000
     -0.000000000000
      0.000000000000
      0.000000000000
      0.000000000000
      0.000000000000
      0.000000000000
      0.000000000000
      0.000000000000
     -0.000000000000
     -0.000000000000
     -0.000000000000
      0.000000000000
     -0.000000000000
      0.000000000000
      0.000000000000
      0.000000000000
     -0.000000000000
     -0.000000000000
     -0.000000000000
      0.000000000000
     -0.000000000000
      0.000000000000
      0.000000000000
      0.000000000000
     -0.000000000000
      0.000000000000
      0.000000000000
      0.000000000000
     -0.000000000000
     -0.000000000000
      0.000000000000
     -0.000000000000
      0.000000000000
     -0.000000000000
      0.000000000000
     -0.000000000000
     -0.000000000000
      0.000000000000
      0.000000000000
     -0.000000000000
      0.000000000000
     -0.000000000000
      0.000000000000
      0.000000000000
      0.000000000000
     -0.000000000000
     -0.000000000000
      0.000000000000
     -0.000000000000
      0.000000000000
     -0.000000000000
      0.000000000000
     -0.000000000000
      0.000000000000
     -0.000000000000
      0.000000000000
      0.000000000000
     -0.000000000000
     -0.000000000000
     -0.000000000000
      0.000000000000
     -0.000000000000
     -0.000000000000
     -0.000000000000
     -0.000000000000
      0.000000000000
     -0.000000000000
     -0.000000000000
      0.000000000000
      0.000000000000
     -0.000000000000
     -0.000000000000
     -0.000000000000
      0.000000000000
      0.000000000000
      0.000000000000
     -0.000000000000
     -0.000000000000
      0.000000000000
      0.000000000000
      0.000000000000
      0.000000000000
     -0.000000000000
      0.000000000000
      0.000000000000
      0.000000000000
      0.000000000000
      0.000000000000
      0.000000000000
     -0.000000000000
      0.000000000000
     -0.000000000000
     -0.000000000000
     -0.000000000000
      0.000000000000
     -0.000000000000
     -0.000000000000
      0.000000000000
     -0.000000000000
      0.000000000000
      0.000000000000
      0.000000000000
      0.000000000000
      0.000000000000
      0.000000000000
      0.000000000000
     -0.000000000000
     -0.000000000000
      0.000000000000
      0.000000000000
      0.000000000000
     -0.000000000000
      0.000000000000
      0.000000000000
     -0.000000000000
     -0.000000000000
     -0.000000000000
      0.000000000000
      0.000000000000
      0.000000000000
      0.000000000000
     -0.000000000000
     -0.000000000000
      0.000000000000
     -0.000000000000
     -0.000000000000
      0.000000000000
     -0.000000000000
     -0.000000000000
      0.000000000000
      0.000000000000
     -0.000000000000
      0.000000000000
     -0.000000000000
      0.000000000000
     -0.000000000000
      0.000000000000
      0.000000000000
      0.000000000000
     -0.000000000000
     -0.000000000000
     -0.000000000000
     -0.000000000000
     -0.000000000000
     -0.000000000000
     -0.000000000000
      0.000000000000
      0.000000000000
      0.000000000000
     -0.000000000000
     -0.000000000000
     -0.000000000000
SCALARS phi_mu float 1
LOOKUP_TABLE default
     -0.164222889681
     -0.164497178611
     -0.164747131399
     -0.164974641187
     -0.165180768366
     -0.165365331803
     -0.165526652639
     -0.165661092786
     -0.165762282150
     -0.165819852274
     -0.165817348304
     -0.165728722854
     -0.165512273494
     -0.165099729752
     -0.164375510024
     -0.163134154788
     -0.160982695085
     -0.157073597631
     -0.149101234750
     -0.121837888118
     -0.165002324937
     -0.144819610169
     -0.165283209805
     -0.145100717454
     -0.165543280912
     -0.145361513827
     -0.165785027887
     -0.145604509751
     -0.166010115685
     -0.145831434816
     -0.166219198790
     -0.146043043559
     -0.166411736233
     -0.146238942152
     -0.166585632776
     -0.146417248304
     -0.166736614768
     -0.146573997140
     -0.166857182025
     -0.146702142239
     -0.166934845066
     -0.146789875792
     -0.166949115276
     -0.146817764384
     -0.166866225758
     -0.146753739015
     -0.166629518907
     -0.146544013310
     -0.166141043955
     -0.146095818399
     -0.165223796115
     -0.145242370766
     -0.163536239059
     -0.143665069211
     -0.160348278672
     -0.140697044753
     -0.153808577022
     -0.134743240431
     -0.137640043629
     -0.122410813522
     -0.132814085139
     -0.123333759986
     -0.129036744108
     -0.127369285731
     -0.099458033965
     -0.127656722273
     -0.099745790169
     -0.127927714790
     -0.100017753963
     -0.128185349758
     -0.100277062858
     -0.128432015137
     -0.100526193707
     -0.128669393481
     -0.100766967091
     -0.128898376039
     -0.101000478092
     -0.129118852484
     -0.101226912958
     -0.129329311028
     -0.101445192814
     -0.129526135405
     -0.101652342799
     -0.129702386328
     -0.101842396744
     -0.129845680292
     -0.102004495529
     -0.129934431975
     -0.102119542088
     -0.129931022145
     -0.102154198218
     -0.129768962780
     -0.102049864563
     -0.129327826619
     -0.101702067067
     -0.128382358777
     -0.100922400131
     -0.126499282371
     -0.099382089797
     -0.122891994677
     -0.096714502800
     -0.117687694408
     -0.096477553645
     -0.116874480546
     -0.103666568311
     -0.113269339791
     -0.094878600418
     -0.063354092202
     -0.095171503251
     -0.063647356419
     -0.095452475678
     -0.063929426858
     -0.095725073035
     -0.064203917716
     -0.095992400120
     -0.064474036307
     -0.096257180762
     -0.064742666010
     -0.096521780332
     -0.065012408549
     -0.096788161745
     -0.065285572111
     -0.097057742104
     -0.065564080302
     -0.097331093435
     -0.065849260118
     -0.097607376159
     -0.066141425660
     -0.097883308682
     -0.066439118023
     -0.098151320444
     -0.066737771568
     -0.098396272112
     -0.067027476386
     -0.098589767834
     -0.067289596384
     -0.098681046151
     -0.067493369154
     -0.098586710732
     -0.067602098644
     -0.098207277790
     -0.067648717341
     -0.097663711122
     -0.068265271832
     -0.099588605779
     -0.075665086305
     -0.101509600808
     -0.086622829806
     -0.098301636241
     -0.065698571304
     -0.032491602870
     -0.065996027372
     -0.032789439536
     -0.066286038570
     -0.033080608383
     -0.066572595317
     -0.033369162354
     -0.066859495741
     -0.033659009213
     -0.067150488363
     -0.033954068385
     -0.067449406515
     -0.034258426944
     -0.067760298336
     -0.034576504752
     -0.068087555092
     -0.034913240294
     -0.068436044062
     -0.035274319924
     -0.068811246529
     -0.035666482779
     -0.069219414038
     -0.036097979062
     -0.069667802944
     -0.036579381507
     -0.070165231522
     -0.037125320359
     -0.070723911623
     -0.037758930630
     -0.071366204617
     -0.038525084782
     -0.072150509556
     -0.039534826711
     -0.073274117578
     -0.041133372953
     -0.075489414248
     -0.044626181544
     -0.082648378642
     -0.057487206549
     -0.086645517233
     -0.070988380652
     -0.083878025401
     -0.039294050550
     -0.005604672705
     -0.039595231651
     -0.005906238744
     -0.039893393443
     -0.006205572560
     -0.040192926676
     -0.006507128408
     -0.040498289122
     -0.006815476092
     -0.040814218703
     -0.007135528358
     -0.041145978910
     -0.007472808635
     -0.041499662848
     -0.007833791521
     -0.041882594894
     -0.008226364242
     -0.042303900112
     -0.008660496558
     -0.042775355030
     -0.009149266157
     -0.043312741894
     -0.009710529876
     -0.043938166376
     -0.010369848520
     -0.044684378842
     -0.011166050029
     -0.045603702169
     -0.012162915217
     -0.046788749853
     -0.013476703708
     -0.048426513591
     -0.015349579201
     -0.050956057958
     -0.018374279333
     -0.055565399516
     -0.024303916914
     -0.066850738864
     -0.041364060893
     -0.072423867016
     -0.056558521424
     -0.070092368187
     -0.015284139935
      0.018046502594
     -0.015588284536
      0.017741979570
     -0.015893761311
      0.017435349619
     -0.016205324552