# vtk DataFile Version 3.0
TriPan results file. Generated by TriPan, USU AeroLab (c) 2021.
ASCII
DATASET POLYDATA
POINTS                  40 float
  0.400000000000E+01  0.000000000000E+00  0.000000000000E+00
  0.100000000000E+03  0.000000000000E+00  0.000000000000E+00
  0.400000000000E+01  0.421052634716E+00  0.000000000000E+00
  0.100000000000E+03  0.421052634716E+00  0.000000000000E+00
  0.400000000000E+01  0.842105269432E+00  0.000000000000E+00
  0.100000000000E+03  0.842105269432E+00  0.000000000000E+00
  0.400000000000E+01  0.126315784454E+01  0.000000000000E+00
  0.100000000000E+03  0.126315784454E+01  0.000000000000E+00
  0.400000000000E+01  0.168421053886E+01  0.000000000000E+00
  0.100000000000E+03  0.168421053886E+01  0.000000000000E+00
  0.400000000000E+01  0.210526323318E+01  0.000000000000E+00
  0.100000000000E+03  0.210526323318E+01  0.000000000000E+00
  0.400000000000E+01  0.252631568909E+01  0.000000000000E+00
  0.100000000000E+03  0.252631568909E+01  0.000000000000E+00
  0.400000000000E+01  0.294736838341E+01  0.000000000000E+00
  0.100000000000E+03  0.294736838341E+01  0.000000000000E+00
  0.400000000000E+01  0.336842107773E+01  0.000000000000E+00
  0.100000000000E+03  0.336842107773E+01  0.000000000000E+00
  0.400000000000E+01  0.378947377205E+01  0.000000000000E+00
  0.100000000000E+03  0.378947377205E+01  0.000000000000E+00
  0.400000000000E+01  0.421052646637E+01  0.000000000000E+00
  0.100000000000E+03  0.421052646637E+01  0.000000000000E+00
  0.400000000000E+01  0.463157892227E+01  0.000000000000E+00
  0.100000000000E+03  0.463157892227E+01  0.000000000000E+00
  0.400000000000E+01  0.505263137817E+01  0.000000000000E+00
  0.100000000000E+03  0.505263137817E+01  0.000000000000E+00
  0.400000000000E+01  0.547368431091E+01  0.000000000000E+00
  0.100000000000E+03  0.547368431091E+01  0.000000000000E+00
  0.400000000000E+01  0.589473676682E+01  0.000000000000E+00
  0.100000000000E+03  0.589473676682E+01  0.000000000000E+00
  0.400000000000E+01  0.631578969955E+01  0.000000000000E+00
  0.100000000000E+03  0.631578969955E+01  0.000000000000E+00
  0.400000000000E+01  0.673684215546E+01  0.000000000000E+00
  0.100000000000E+03  0.673684215546E+01  0.000000000000E+00
  0.400000000000E+01  0.715789461136E+01  0.000000000000E+00
  0.100000000000E+03  0.715789461136E+01  0.000000000000E+00
  0.400000000000E+01  0.757894754410E+01  0.000000000000E+00
  0.100000000000E+03  0.757894754410E+01  0.000000000000E+00
  0.400000000000E+01  0.800000000000E+01  0.000000000000E+00
  0.100000000000E+03  0.800000000000E+01  0.000000000000E+00
POLYGONS                  38                 152
3                   0                   1                   3
3                   0                   3                   2
3                   2                   3                   5
3                   2                   5                   4
3                   4                   5                   7
3                   4                   7                   6
3                   6                   7                   9
3                   6                   9                   8
3                   8                   9                  11
3                   8                  11                  10
3                  10                  11                  13
3                  10                  13                  12
3                  12                  13                  15
3                  12                  15                  14
3                  14                  15                  17
3                  14                  17                  16
3                  16                  17                  19
3                  16                  19                  18
3                  18                  19                  21
3                  18                  21                  20
3                  20                  21                  23
3                  20                  23                  22
3                  22                  23                  25
3                  22                  25                  24
3                  24                  25                  27
3                  24                  27                  26
3                  26                  27                  29
3                  26                  29                  28
3                  28                  29                  31
3                  28                  31                  30
3                  30                  31                  33
3                  30                  33                  32
3                  32                  33                  35
3                  32                  35                  34
3                  34                  35                  37
3                  34                  37                  36
3                  36                  37                  39
3                  36                  39                  38
POINT_DATA                  40
SCALARS mu float 1
LOOKUP_TABLE default
  0.363739908055E-06
  0.363739908055E-06
  0.969427602665E-06
  0.969427602665E-06
  0.969299900594E-06
  0.969299900594E-06
  0.969322792380E-06
  0.969322792380E-06
  0.969298847603E-06
  0.969298847603E-06
  0.969217334987E-06
  0.969217334987E-06
  0.969097217529E-06
  0.969097217529E-06
  0.969050910515E-06
  0.969050910515E-06
  0.968930101583E-06
  0.968930101583E-06
  0.968803129428E-06
  0.968803129428E-06
  0.968618950409E-06
  0.968618950409E-06
  0.968511841420E-06
  0.968511841420E-06
  0.968343209520E-06
  0.968343209520E-06
  0.968211999061E-06
  0.968211999061E-06
  0.968247797314E-06
  0.968247797314E-06
  0.968536724530E-06
  0.968536724530E-06
  0.969415810764E-06
  0.969415810764E-06
  0.971931943483E-06
  0.971931943483E-06
  0.984632922391E-06
  0.984632922391E-06
  0.000000000000E+00
  0.000000000000E+00
