# vtk DataFile Version 3.0
MFTran results file. Generated by MFTran, USU AeroLab (c) 2021.
ASCII
DATASET POLYDATA
POINTS                  22 float
     -0.750000000000       0.000000000000       0.000000000000
    -95.414440742741     -28.399332222822      -9.466444074274
     -0.750000000000       0.048943482339       0.000000000000
    -95.427788965197     -28.354393207220      -9.467778896520
     -0.750000000000       0.190983012319       0.000000000000
    -95.466527018828     -28.223975093329      -9.471652701883
     -0.750000000000       0.412214756012       0.000000000000
    -95.526862948926     -28.020844128666      -9.477686294893
     -0.750000000000       0.690982997417       0.000000000000
    -95.602890651127     -27.764884197921      -9.485289065113
     -0.750000000000       1.000000000000       0.000000000000
    -95.687168015468     -27.481150404640      -9.493716801547
     -0.750000000000       1.309016942980       0.000000000000
    -95.771445363554     -27.197416666086      -9.502144536355
     -0.750000000000       1.587785243990       0.000000000000
    -95.847473082011     -26.941456680613      -9.509747308201
     -0.750000000000       1.809016942980       0.000000000000
    -95.907808999917     -26.738325756995      -9.515780899992
     -0.750000000000       1.951056480410       0.000000000000
    -95.946547055580     -26.607907636264      -9.519654705558
     -0.750000000000       2.000000000000       0.000000000000
    -95.959895288196     -26.562968586459      -9.520989528820
POLYGONS                  20                  80
3                   0                   1                   3
3                   0                   3                   2
3                   2                   3                   5
3                   2                   5                   4
3                   4                   5                   7
3                   4                   7                   6
3                   6                   7                   9
3                   6                   9                   8
3                   8                   9                  11
3                   8                  11                  10
3                  10                  11                  13
3                  10                  13                  12
3                  12                  13                  15
3                  12                  15                  14
3                  14                  15                  17
3                  14                  17                  16
3                  16                  17                  19
3                  16                  19                  18
3                  18                  19                  21
3                  18                  21                  20
CELL_DATA                  20
NORMALS panel_normals float
      0.099503719021      -0.000000000000      -0.995037190210
      0.099503719021       0.000000000000      -0.995037190210
      0.099503719021       0.000000000000      -0.995037190210
      0.099503719021       0.000000000000      -0.995037190210
      0.099503719021       0.000000000000      -0.995037190210
      0.099503719021       0.000000000000      -0.995037190210
      0.099503719021       0.000000000000      -0.995037190210
      0.099503719021       0.000000000000      -0.995037190210
      0.099503719021      -0.000000000000      -0.995037190210
      0.099503719021       0.000000000000      -0.995037190210
      0.099503719021       0.000000000000      -0.995037190210
      0.099503719021       0.000000000000      -0.995037190210
      0.099503719021       0.000000000000      -0.995037190210
      0.099503719021       0.000000000000      -0.995037190210
      0.099503719021      -0.000000000000      -0.995037190210
      0.099503719021       0.000000000000      -0.995037190210
      0.099503719021       0.000000000000      -0.995037190210
      0.099503719021       0.000000000000      -0.995037190210
      0.099503719021       0.000000000000      -0.995037190210
      0.099503719021       0.000000000000      -0.995037190210
SCALARS index integer 1
LOOKUP_TABLE default
                   1
                   2
                   3
                   4
                   5
                   6
                   7
                   8
                   9
                  10
                  11
                  12
                  13
                  14
                  15
                  16
                  17
                  18
                  19
                  20
SCALARS sigma float 1
LOOKUP_TABLE default
      0.000000000000
      0.000000000000
      0.000000000000
      0.000000000000
      0.000000000000
      0.000000000000
      0.000000000000
      0.000000000000
      0.000000000000
      0.000000000000
      0.000000000000
      0.000000000000
      0.000000000000
      0.000000000000
      0.000000000000
      0.000000000000
      0.000000000000
      0.000000000000
      0.000000000000
      0.000000000000
POINT_DATA                  22
SCALARS mu float 1
LOOKUP_TABLE default
     -0.007884468117
     -0.007884468117
      0.053676036561
      0.053676036561
      0.101073373328
      0.101073373328
      0.125630297140
      0.125630297140
      0.133850186375
      0.133850186375
      0.129209189762
      0.129209189762
      0.112588047481
      0.112588047481
      0.084703418298
      0.084703418298
      0.047031185783
      0.047031185783
      0.002744779456
      0.002744779456
     -0.075340662995
     -0.075340662995
