# vtk DataFile Version 3.0
MachLine results file. Generated by MachLine, USU AeroLab (c) 2022.
ASCII
DATASET POLYDATA
POINTS                 704 float
  0.476456375309E-05  0.000000000000E+00  0.000000000000E+00
  0.447911218842E-05  0.421052634716E+00  0.000000000000E+00
  0.447911189904E-05  0.842105269432E+00  0.182066632791E-21
  0.447911236849E-05  0.126315784454E+01  0.000000000000E+00
  0.447911258705E-05  0.168421053886E+01  0.000000000000E+00
  0.447911142965E-05  0.210526323318E+01  0.000000000000E+00
  0.447911214996E-05  0.252631568909E+01  0.000000000000E+00
  0.447911258705E-05  0.294736838341E+01  0.000000000000E+00
  0.447911258705E-05  0.336842107773E+01  0.000000000000E+00
  0.447911258705E-05  0.378947377205E+01  0.000000000000E+00
  0.447911142961E-05  0.421052646637E+01  0.000000000000E+00
  0.447911099250E-05  0.463157892227E+01  0.000000000000E+00
  0.447911330738E-05  0.505263137817E+01  0.000000000000E+00
  0.447911186676E-05  0.547368431091E+01  0.000000000000E+00
  0.447911330735E-05  0.589473676682E+01  0.000000000000E+00
  0.447911186674E-05  0.631578969955E+01  0.000000000000E+00
  0.447911099252E-05  0.673684215546E+01  0.000000000000E+00
  0.447911330738E-05  0.715789461136E+01  0.000000000000E+00
  0.447911186671E-05  0.757894754410E+01  0.000000000000E+00
  0.254366756317E-05  0.799999770501E+01  0.808768670280E-21
  0.257793408580E+00  0.000000000000E+00 -0.131795675270E+00
  0.257793408580E+00  0.000000000000E+00  0.131795675270E+00
  0.257793646802E+00  0.421052634716E+00 -0.131795735340E+00
  0.257793646802E+00  0.421052634716E+00  0.131795735340E+00
  0.257793646802E+00  0.842105269432E+00 -0.131795735340E+00
  0.257793646802E+00  0.842105269432E+00  0.131795735340E+00
  0.257793646802E+00  0.126315784454E+01 -0.131795735340E+00
  0.257793646802E+00  0.126315784454E+01  0.131795735340E+00
  0.257793646802E+00  0.168421053886E+01 -0.131795735340E+00
  0.257793646802E+00  0.168421053886E+01  0.131795735340E+00
  0.257793646802E+00  0.210526323318E+01 -0.131795735341E+00
  0.257793646802E+00  0.210526323318E+01  0.131795735341E+00
  0.257793646802E+00  0.252631568909E+01 -0.131795735341E+00
  0.257793646802E+00  0.252631568909E+01  0.131795735341E+00
  0.257793646802E+00  0.294736838341E+01 -0.131795735340E+00
  0.257793646802E+00  0.294736838341E+01  0.131795735340E+00
  0.257793646802E+00  0.336842107773E+01 -0.131795735340E+00
  0.257793646802E+00  0.336842107773E+01  0.131795735340E+00
  0.257793646802E+00  0.378947377205E+01 -0.131795735340E+00
  0.257793646802E+00  0.378947377205E+01  0.131795735340E+00
  0.257793646802E+00  0.421052646637E+01 -0.131795735341E+00
  0.257793646802E+00  0.421052646637E+01  0.131795735341E+00
  0.257793646801E+00  0.463157892227E+01 -0.131795735341E+00
  0.257793646801E+00  0.463157892227E+01  0.131795735341E+00
  0.257793646802E+00  0.505263137817E+01 -0.131795735340E+00
  0.257793646802E+00  0.505263137817E+01  0.131795735340E+00
  0.257793646802E+00  0.547368431091E+01 -0.131795735340E+00
  0.257793646802E+00  0.547368431091E+01  0.131795735340E+00
  0.257793646802E+00  0.589473676682E+01 -0.131795735340E+00
  0.257793646802E+00  0.589473676682E+01  0.131795735340E+00
  0.257793646802E+00  0.631578969955E+01 -0.131795735340E+00
  0.257793646802E+00  0.631578969955E+01  0.131795735340E+00
  0.257793646801E+00  0.673684215546E+01 -0.131795735341E+00
  0.257793646801E+00  0.673684215546E+01  0.131795735341E+00
  0.257793646802E+00  0.715789461136E+01 -0.131795735340E+00
  0.257793646802E+00  0.715789461136E+01  0.131795735340E+00
  0.257793646802E+00  0.757894754410E+01 -0.131795735340E+00
  0.257793646802E+00  0.757894754410E+01  0.131795735340E+00
  0.257793344885E+00  0.799999933573E+01 -0.131796711276E+00
  0.257793344885E+00  0.799999933573E+01  0.131796711276E+00
  0.257792938451E+00  0.809319512484E+01 -0.931951994684E-01
  0.257792938451E+00  0.809319512484E+01  0.931951994684E-01
  0.257792941477E+00  0.813179767392E+01 -0.140524563986E-15
  0.536311090991E+00  0.000000000000E+00 -0.172265355624E+00
  0.536311090991E+00  0.000000000000E+00  0.172265355624E+00
  0.536311145390E+00  0.421052634716E+00 -0.172265343805E+00
  0.536311145390E+00  0.421052634716E+00  0.172265343805E+00
  0.536311145389E+00  0.842105269432E+00 -0.172265343805E+00
  0.536311145389E+00  0.842105269432E+00  0.172265343805E+00
  0.536311145390E+00  0.126315784454E+01 -0.172265343805E+00
  0.536311145390E+00  0.126315784454E+01  0.172265343805E+00
  0.536311145390E+00  0.168421053886E+01 -0.172265343804E+00
  0.536311145390E+00  0.168421053886E+01  0.172265343804E+00
  0.536311145389E+00  0.210526323318E+01 -0.172265343805E+00
  0.536311145389E+00  0.210526323318E+01  0.172265343805E+00
  0.536311145389E+00  0.252631568909E+01 -0.172265343805E+00
  0.536311145389E+00  0.252631568909E+01  0.172265343805E+00
  0.536311145390E+00  0.294736838341E+01 -0.172265343804E+00
  0.536311145390E+00  0.294736838341E+01  0.172265343804E+00
  0.536311145390E+00  0.336842107773E+01 -0.172265343804E+00
  0.536311145390E+00  0.336842107773E+01  0.172265343804E+00
  0.536311145390E+00  0.378947377205E+01 -0.172265343804E+00
  0.536311145390E+00  0.378947377205E+01  0.172265343804E+00
  0.536311145389E+00  0.421052646637E+01 -0.172265343805E+00
  0.536311145389E+00  0.421052646637E+01  0.172265343805E+00
  0.536311145389E+00  0.463157892227E+01 -0.172265343806E+00
  0.536311145389E+00  0.463157892227E+01  0.172265343806E+00
  0.536311145390E+00  0.505263137817E+01 -0.172265343804E+00
  0.536311145390E+00  0.505263137817E+01  0.172265343804E+00
  0.536311145390E+00  0.547368431091E+01 -0.172265343804E+00
  0.536311145390E+00  0.547368431091E+01  0.172265343804E+00
  0.536311145390E+00  0.589473676682E+01 -0.172265343804E+00
  0.536311145390E+00  0.589473676682E+01  0.172265343804E+00
  0.536311145390E+00  0.631578969955E+01 -0.172265343804E+00
  0.536311145390E+00  0.631578969955E+01  0.172265343804E+00
  0.536311145389E+00  0.673684215546E+01 -0.172265343806E+00
  0.536311145389E+00  0.673684215546E+01  0.172265343806E+00
  0.536311145390E+00  0.715789461136E+01 -0.172265343804E+00
  0.536311145390E+00  0.715789461136E+01  0.172265343804E+00
  0.536311145390E+00  0.757894754410E+01 -0.172265343804E+00
  0.536311145390E+00  0.757894754410E+01  0.172265343804E+00
  0.536311043437E+00  0.799999932197E+01 -0.172266299248E+00
  0.536311043437E+00  0.799999932197E+01  0.172266299248E+00
  0.536310951866E+00  0.812181100008E+01 -0.121811262543E+00
  0.536310951866E+00  0.812181100008E+01  0.121811262543E+00
  0.536310984225E+00  0.817226724107E+01  0.124536798326E-17
  0.799721193196E+00  0.000000000000E+00 -0.191199284362E+00
  0.799721193196E+00  0.000000000000E+00  0.191199284362E+00
  0.799721223010E+00  0.421052634716E+00 -0.191199272934E+00
  0.799721223010E+00  0.421052634716E+00  0.191199272934E+00
  0.799721223010E+00  0.842105269432E+00 -0.191199272934E+00
  0.799721223010E+00  0.842105269432E+00  0.191199272934E+00
  0.799721223010E+00  0.126315784454E+01 -0.191199272934E+00
  0.799721223010E+00  0.126315784454E+01  0.191199272934E+00
  0.799721223010E+00  0.168421053886E+01 -0.191199272934E+00
  0.799721223010E+00  0.168421053886E+01  0.191199272934E+00
  0.799721223010E+00  0.210526323318E+01 -0.191199272935E+00
  0.799721223010E+00  0.210526323318E+01  0.191199272935E+00
  0.799721223010E+00  0.252631568909E+01 -0.191199272935E+00
  0.799721223010E+00  0.252631568909E+01  0.191199272935E+00
  0.799721223010E+00  0.294736838341E+01 -0.191199272934E+00
  0.799721223010E+00  0.294736838341E+01  0.191199272934E+00
  0.799721223010E+00  0.336842107773E+01 -0.191199272934E+00
  0.799721223010E+00  0.336842107773E+01  0.191199272934E+00
  0.799721223010E+00  0.378947377205E+01 -0.191199272934E+00
  0.799721223010E+00  0.378947377205E+01  0.191199272934E+00
  0.799721223010E+00  0.421052646637E+01 -0.191199272935E+00
  0.799721223010E+00  0.421052646637E+01  0.191199272935E+00
  0.799721223010E+00  0.463157892227E+01 -0.191199272935E+00
  0.799721223010E+00  0.463157892227E+01  0.191199272935E+00
  0.799721223010E+00  0.505263137817E+01 -0.191199272934E+00
  0.799721223010E+00  0.505263137817E+01  0.191199272934E+00
  0.799721223010E+00  0.547368431091E+01 -0.191199272934E+00
  0.799721223010E+00  0.547368431091E+01  0.191199272934E+00
  0.799721223010E+00  0.589473676682E+01 -0.191199272934E+00
  0.799721223010E+00  0.589473676682E+01  0.191199272934E+00
  0.799721223010E+00  0.631578969955E+01 -0.191199272934E+00
  0.799721223010E+00  0.631578969955E+01  0.191199272934E+00
  0.799721223010E+00  0.673684215546E+01 -0.191199272935E+00
  0.799721223010E+00  0.673684215546E+01  0.191199272935E+00
  0.799721223010E+00  0.715789461136E+01 -0.191199272934E+00
  0.799721223010E+00  0.715789461136E+01  0.191199272934E+00
  0.799721223010E+00  0.757894754410E+01 -0.191199272934E+00
  0.799721223010E+00  0.757894754410E+01  0.191199272934E+00
  0.799721176061E+00  0.799999933141E+01 -0.191200204690E+00
  0.799721176061E+00  0.799999933141E+01  0.191200204690E+00
  0.799721134022E+00  0.813519964457E+01 -0.135199525819E+00
  0.799721134022E+00  0.813519964457E+01  0.135199525819E+00
  0.799721152158E+00  0.819120054732E+01 -0.320712640167E-17
  0.105025952291E+01  0.000000000000E+00 -0.198939228890E+00
  0.105025952291E+01  0.000000000000E+00  0.198939228890E+00
  0.105025954267E+01  0.421052634716E+00 -0.198939219847E+00
  0.105025954267E+01  0.421052634716E+00  0.198939219847E+00
  0.105025954267E+01  0.842105269432E+00 -0.198939219847E+00
  0.105025954267E+01  0.842105269432E+00  0.198939219847E+00
  0.105025954267E+01  0.126315784454E+01 -0.198939219847E+00
  0.105025954267E+01  0.126315784454E+01  0.198939219847E+00
  0.105025954267E+01  0.168421053886E+01 -0.198939219846E+00
  0.105025954267E+01  0.168421053886E+01  0.198939219846E+00
  0.105025954267E+01  0.210526323318E+01 -0.198939219847E+00
  0.105025954267E+01  0.210526323318E+01  0.198939219847E+00
[...]
POINT_DATA                 704
SCALARS phi float 1
LOOKUP_TABLE default
 -0.277555756156E-16
 -0.277555756156E-16
 -0.832667268469E-16
  0.582867087928E-15
  0.249800180541E-15
 -0.499600361081E-15
  0.277555756156E-15
 -0.333066907388E-15
 -0.222044604925E-15
  0.277555756156E-15
  0.166533453694E-15
  0.111022302463E-15
 -0.360822483003E-15
  0.194289029309E-15
 -0.222044604925E-15
 -0.166533453694E-15
  0.000000000000E+00
  0.138777878078E-15
  0.555111512313E-15
 -0.277555756156E-16
  0.277555756156E-15
  0.610622663544E-15
  0.277555756156E-16
  0.555111512313E-16
 -0.222044604925E-15
 -0.555111512313E-16
  0.638378239159E-15
  0.000000000000E+00
 -0.111022302463E-15
  0.166533453694E-15
  0.277555756156E-15
  0.249800180541E-15
 -0.166533453694E-15
  0.555111512313E-16
 -0.555111512313E-16
 -0.360822483003E-15
  0.000000000000E+00
 -0.222044604925E-15
 -0.333066907388E-15
  0.555111512313E-16
 -0.555111512313E-16
 -0.194289029309E-15
  0.249800180541E-15
  0.222044604925E-15
  0.444089209850E-15
  0.166533453694E-15
  0.832667268469E-16
  0.000000000000E+00
 -0.555111512313E-16
  0.277555756156E-15
  0.832667268469E-16
 -0.333066907388E-15
 -0.222044604925E-15
 -0.111022302463E-15
  0.333066907388E-15
 -0.499600361081E-15
  0.194289029309E-15
  0.111022302463E-15
 -0.138777878078E-16
 -0.693889390391E-16
  0.249800180541E-15
  0.180411241502E-15
 -0.832667268469E-16
 -0.360822483003E-15
 -0.555111512313E-16
 -0.832667268469E-16
  0.388578058619E-15
  0.832667268469E-16
  0.194289029309E-15
 -0.499600361081E-15
 -0.111022302463E-15
 -0.416333634234E-15
 -0.555111512313E-16
 -0.832667268469E-16
  0.000000000000E+00
  0.527355936697E-15
  0.138777878078E-15
 -0.471844785466E-15
 -0.832667268469E-16
 -0.277555756156E-16
 -0.555111512313E-16
 -0.499600361081E-15
  0.166533453694E-15
 -0.832667268469E-16
 -0.111022302463E-15
 -0.277555756156E-16
 -0.333066907388E-15
  0.832667268469E-16
 -0.333066907388E-15
  0.166533453694E-15
 -0.277555756156E-16
  0.333066907388E-15
  0.333066907388E-15
  0.832667268469E-16
 -0.832667268469E-16
 -0.222044604925E-15
 -0.111022302463E-15
  0.693889390391E-16
 -0.374700270811E-15
 -0.194289029309E-15
  0.152655665886E-15
 -0.180411241502E-15
  0.693889390391E-16
  0.555111512313E-16
  0.152655665886E-15
  0.235922392733E-15
  0.208166817117E-15
  0.152655665886E-15
  0.166533453694E-15
  0.416333634234E-16
  0.111022302463E-15
  0.416333634234E-16
 -0.693889390391E-16
  0.346944695195E-15
  0.832667268469E-16
 -0.138777878078E-16
  0.555111512313E-16
  0.111022302463E-15
 -0.138777878078E-15
 -0.971445146547E-16
  0.693889390391E-16
 -0.971445146547E-16
  0.971445146547E-16
  0.416333634234E-16
  0.124900090270E-15
 -0.555111512313E-16
  0.000000000000E+00
  0.693889390391E-16
  0.124900090270E-15
 -0.138777878078E-16
  0.180411241502E-15
  0.277555756156E-16
  0.124900090270E-15
  0.832667268469E-16
  0.416333634234E-16
  0.124900090270E-15
  0.832667268469E-16
  0.416333634234E-16
  0.124900090270E-15
  0.416333634234E-16
  0.832667268469E-16
  0.693889390391E-16
  0.000000000000E+00
  0.971445146547E-16
  0.117961196366E-15
  0.693889390391E-16
 -0.117961196366E-15
  0.902056207508E-16
  0.111022302463E-15
 -0.208166817117E-16
  0.693889390391E-16
 -0.485722573274E-16
 -0.971445146547E-16
  0.693889390391E-16
  0.485722573274E-16
 -0.138777878078E-16
 -0.902056207508E-16
  0.208166817117E-16
  0.000000000000E+00
 -0.208166817117E-16
  0.693889390391E-17
  0.208166817117E-16
  0.117961196366E-15
  0.208166817117E-16
 -0.624500451352E-16
 -0.208166817117E-16
 -0.555111512313E-16
  0.693889390391E-17
 -0.277555756156E-16
  0.624500451352E-16
  0.693889390391E-16
  0.902056207508E-16
  0.277555756156E-16
 -0.277555756156E-16
  0.208166817117E-16
 -0.693889390391E-17
 -0.208166817117E-16
  0.693889390391E-17
  0.555111512313E-16
  0.971445146547E-16
  0.138777878078E-16
 -0.485722573274E-16
  0.763278329430E-16
  0.693889390391E-17
  0.138777878078E-16
  0.693889390391E-16
  0.111022302463E-15
  0.173472347598E-16
 -0.138777878078E-16
 -0.312250225676E-16
  0.381639164715E-16
 -0.693889390391E-17
  0.381639164715E-16
 -0.242861286637E-16
 -0.416333634234E-16
 -0.225514051877E-16
  0.260208521397E-16
  0.346944695195E-17
  0.121430643318E-16
 -0.867361737988E-17
  0.173472347598E-16
  0.312250225676E-16
 -0.104083408559E-16
  0.277555756156E-16
  0.277555756156E-16
 -0.416333634234E-16
 -0.173472347598E-16
  0.000000000000E+00
  0.208166817117E-16
 -0.242861286637E-16
 -0.104083408559E-16
 -0.104083408559E-16
  0.242861286637E-16
  0.312250225676E-16
  0.173472347598E-16
 -0.138777878078E-16
  0.346944695195E-17
  0.121430643318E-16
 -0.364291929955E-16
  0.000000000000E+00
  0.346944695195E-16
  0.867361737988E-17
 -0.277555756156E-16
  0.398986399475E-16
  0.433680868994E-16
 -0.138777878078E-16
  0.121430643318E-16
 -0.156125112838E-16
 -0.381639164715E-16
 -0.780625564190E-17
 -0.889045781438E-17
  0.117093834628E-16
  0.142301535139E-16
  0.460785923306E-17
  0.110588621594E-16
  0.000000000000E+00
 -0.346944695195E-16
 -0.277555756156E-16
  0.312250225676E-16
  0.832667268469E-16
 -0.451028103754E-16
  0.104083408559E-16
 -0.555111512313E-16
 -0.693889390391E-17
 -0.728583859910E-16
 -0.346944695195E-17
 -0.381639164715E-16
  0.208166817117E-16
  0.000000000000E+00
  0.138777878078E-16
  0.693889390391E-17
 -0.902056207508E-16
 -0.312250225676E-16
  0.381639164715E-16
 -0.659194920871E-16
  0.000000000000E+00
 -0.312250225676E-16
 -0.138777878078E-16
 -0.451028103754E-16
 -0.312250225676E-16
  0.312250225676E-16
 -0.173472347598E-16
  0.451028103754E-16
 -0.138777878078E-16
  0.000000000000E+00
  0.277555756156E-16
  0.104083408559E-16
  0.138777878078E-16
 -0.693889390391E-17
 -0.451028103754E-16
  0.312250225676E-16
 -0.346944695195E-16
  0.104083408559E-16
  0.000000000000E+00
  0.173472347598E-16
 -0.277555756156E-16
  0.312250225676E-16
  0.138777878078E-16
 -0.485722573274E-16
 -0.138777878078E-16
  0.416333634234E-16
  0.277555756156E-16
 -0.124900090270E-15
  0.416333634234E-16
  0.208166817117E-16
 -0.902056207508E-16
  0.485722573274E-16
 -0.208166817117E-16
  0.693889390391E-16
  0.624500451352E-16
  0.624500451352E-16
  0.624500451352E-16
  0.555111512313E-16
  0.346944695195E-16
 -0.138777878078E-16
 -0.832667268469E-16
  0.693889390391E-17
 -0.902056207508E-16
  0.138777878078E-16
  0.555111512313E-16
  0.693889390391E-16
 -0.763278329430E-16
  0.416333634234E-16
  0.138777878078E-16
  0.194289029309E-15
  0.208166817117E-16
  0.693889390391E-17
  0.173472347598E-15
 -0.138777878078E-16
  0.187350135405E-15
  0.000000000000E+00
 -0.485722573274E-16
 -0.416333634234E-16
  0.624500451352E-16
  0.832667268469E-16
 -0.138777878078E-16
  0.277555756156E-16
 -0.208166817117E-16
 -0.124900090270E-15
 -0.346944695195E-16
  0.693889390391E-17
  0.235922392733E-15
  0.416333634234E-16
  0.971445146547E-16
 -0.152655665886E-15
 -0.194289029309E-15
  0.194289029309E-15
  0.138777878078E-16
 -0.693889390391E-16
 -0.222044604925E-15
 -0.111022302463E-15
  0.416333634234E-16
 -0.277555756156E-16
  0.180411241502E-15
 -0.832667268469E-16
  0.180411241502E-15
 -0.971445146547E-16
 -0.832667268469E-16
  0.555111512313E-16
 -0.291433543964E-15
 -0.152655665886E-15
  0.138777878078E-16
  0.000000000000E+00
  0.416333634234E-16
  0.138777878078E-15
  0.235922392733E-15
  0.555111512313E-16
 -0.180411241502E-15
 -0.138777878078E-16
  0.194289029309E-15
 -0.138777878078E-16
 -0.111022302463E-15
 -0.416333634234E-16
 -0.693889390391E-16
 -0.111022302463E-15
  0.277555756156E-16
  0.138777878078E-16
  0.277555756156E-16
 -0.117961196366E-15
 -0.124900090270E-15
 -0.208166817117E-16
  0.124900090270E-15
 -0.693889390391E-17
 -0.693889390391E-16
  0.277555756156E-15
  0.208166817117E-15
 -0.555111512313E-16
  0.416333634234E-16
  0.263677968348E-15
  0.263677968348E-15
  0.305311331772E-15
  0.124900090270E-15
  0.971445146547E-16
 -0.166533453694E-15
 -0.277555756156E-16
 -0.555111512313E-16
 -0.166533453694E-15
 -0.249800180541E-15
 -0.111022302463E-15
 -0.263677968348E-15
  0.416333634234E-16
 -0.416333634234E-16
  0.138777878078E-15
  0.000000000000E+00
  0.249800180541E-15
 -0.124900090270E-15
  0.152655665886E-15
  0.000000000000E+00
  0.832667268469E-16
 -0.166533453694E-15
  0.000000000000E+00
 -0.235922392733E-15
  0.277555756156E-15
 -0.555111512313E-16
 -0.832667268469E-16
 -0.693889390391E-16
  0.138777878078E-16
 -0.555111512313E-16
  0.166533453694E-15
  0.138777878078E-15
  0.277555756156E-16
 -0.360822483003E-15
 -0.124900090270E-15
 -0.138777878078E-16
 -0.208166817117E-15
  0.832667268469E-16
  0.693889390391E-16
  0.305311331772E-15
 -0.138777878078E-15
  0.249800180541E-15
 -0.111022302463E-15
  0.249800180541E-15
 -0.333066907388E-15
 -0.138777878078E-15
  0.166533453694E-15
  0.249800180541E-15
  0.360822483003E-15
  0.249800180541E-15
  0.138777878078E-15
 -0.138777878078E-15
  0.111022302463E-15
 -0.277555756156E-15
  0.111022302463E-15
 -0.277555756156E-15
 -0.111022302463E-15
  0.111022302463E-15
 -0.194289029309E-15
  0.111022302463E-15
  0.832667268469E-16
 -0.222044604925E-15
 -0.305311331772E-15
 -0.374700270811E-15
  0.971445146547E-16
 -0.208166817117E-15
 -0.832667268469E-16
  0.249800180541E-15
  0.555111512313E-16
  0.124900090270E-15
 -0.194289029309E-15
  0.249800180541E-15
  0.971445146547E-16
 -0.416333634234E-16
  0.152655665886E-15
 -0.152655665886E-15
 -0.416333634234E-16
  0.124900090270E-15
 -0.249800180541E-15
  0.693889390391E-16
 -0.111022302463E-15
 -0.555111512313E-16
  0.360822483003E-15
  0.138777878078E-15
 -0.249800180541E-15
 -0.138777878078E-15
  0.166533453694E-15
  0.111022302463E-15
  0.194289029309E-15
  0.416333634234E-15
 -0.138777878078E-15
  0.555111512313E-16
 -0.388578058619E-15
 -0.194289029309E-15
 -0.249800180541E-15
 -0.138777878078E-15
 -0.138777878078E-15
 -0.249800180541E-15
  0.194289029309E-15
 -0.111022302463E-15
  0.555111512313E-16
  0.111022302463E-15
  0.555111512313E-16
 -0.305311331772E-15
  0.111022302463E-15
  0.277555756156E-16
  0.194289029309E-15
  0.166533453694E-15
  0.000000000000E+00
 -0.138777878078E-15
  0.111022302463E-15
 -0.138777878078E-15
  0.194289029309E-15
  0.555111512313E-16
  0.277555756156E-16
  0.194289029309E-15
 -0.416333634234E-16
 -0.291433543964E-15
  0.416333634234E-16
  0.208166817117E-15
 -0.152655665886E-15
  0.555111512313E-16
  0.416333634234E-16
 -0.124900090270E-15
  0.277555756156E-16
 -0.222044604925E-15
  0.249800180541E-15
 -0.166533453694E-15
  0.000000000000E+00
  0.360822483003E-15
 -0.555111512313E-16
  0.222044604925E-15
 -0.527355936697E-15
  0.166533453694E-15
  0.194289029309E-15
  0.166533453694E-15
  0.166533453694E-15
  0.471844785466E-15
 -0.277555756156E-15
 -0.555111512313E-15
 -0.277555756156E-15
 -0.111022302463E-15
  0.832667268469E-16
 -0.388578058619E-15
 -0.305311331772E-15
  0.555111512313E-16
  0.555111512313E-15
  0.249800180541E-15
 -0.832667268469E-16
  0.388578058619E-15
  0.111022302463E-15
 -0.194289029309E-15
  0.832667268469E-16
 -0.249800180541E-15
 -0.194289029309E-15
 -0.222044604925E-15
  0.111022302463E-15
  0.277555756156E-16
 -0.444089209850E-15
 -0.111022302463E-15
  0.832667268469E-16
  0.305311331772E-15
  0.166533453694E-15
  0.832667268469E-16
 -0.832667268469E-16
 -0.693889390391E-16
  0.555111512313E-16
 -0.138777878078E-15
 -0.194289029309E-15
 -0.832667268469E-16
 -0.194289029309E-15
 -0.333066907388E-15
  0.249800180541E-15
  0.277555756156E-16
 -0.249800180541E-15
  0.000000000000E+00
 -0.333066907388E-15
  0.277555756156E-16
  0.388578058619E-15
 -0.277555756156E-15
  0.194289029309E-15
  0.000000000000E+00
  0.111022302463E-15
  0.166533453694E-15
 -0.222044604925E-15
  0.471844785466E-15
 -0.832667268469E-16
 -0.138777878078E-15
  0.000000000000E+00
  0.832667268469E-16
 -0.444089209850E-15
 -0.222044604925E-15
  0.832667268469E-16
 -0.555111512313E-16
 -0.555111512313E-15
 -0.749400541622E-15
 -0.277555756156E-16
 -0.832667268469E-16
 -0.305311331772E-15
 -0.305311331772E-15
 -0.194289029309E-15
 -0.277555756156E-16
 -0.555111512313E-16
  0.333066907388E-15
  0.305311331772E-15
  0.000000000000E+00
  0.555111512313E-16
 -0.555111512313E-16
  0.832667268469E-16
  0.693889390391E-16
 -0.693889390391E-16
 -0.277555756156E-16
 -0.832667268469E-16
  0.249800180541E-15
  0.277555756156E-16
 -0.194289029309E-15
  0.832667268469E-16
  0.138777878078E-15
 -0.555111512313E-16
  0.166533453694E-15
 -0.166533453694E-15
 -0.138777878078E-15
  0.832667268469E-16
 -0.222044604925E-15
 -0.222044604925E-15
  0.166533453694E-15
  0.555111512313E-16
 -0.360822483003E-15
 -0.222044604925E-15
  0.555111512313E-15
  0.527355936697E-15
 -0.832667268469E-16
  0.499600361081E-15
  0.249800180541E-15
 -0.305311331772E-15
 -0.555111512313E-16
 -0.416333634234E-15
  0.388578058619E-15
  0.832667268469E-16
 -0.277555756156E-16
  0.555111512313E-16
 -0.305311331772E-15
 -0.499600361081E-15
  0.305311331772E-15
  0.832667268469E-16
  0.555111512313E-15
 -0.555111512313E-16
 -0.277555756156E-16
  0.610622663544E-15
  0.555111512313E-16
 -0.555111512313E-16
  0.693889390391E-16
 -0.416333634234E-16
  0.277555756156E-16
 -0.888178419700E-15
  0.111022302463E-15
  0.721644966006E-15
 -0.832667268469E-15
  0.666133814775E-15
  0.166533453694E-15
  0.127675647832E-14
  0.000000000000E+00
 -0.943689570931E-15
 -0.832667268469E-15
 -0.555111512313E-16
 -0.222044604925E-15
 -0.277555756156E-15
  0.610622663544E-15
 -0.999200722163E-15
 -0.222044604925E-15
 -0.166533453694E-15
  0.000000000000E+00
 -0.166533453694E-15
  0.333066907388E-15
 -0.999200722163E-15
 -0.832667268469E-15
 -0.105471187339E-14
  0.277555756156E-15
  0.888178419700E-15
  0.943689570931E-15
 -0.111022302463E-15
 -0.333066907388E-15
  0.277555756156E-16
 -0.832667268469E-16
  0.277555756156E-16
  0.360822483003E-15
  0.555111512313E-16
 -0.249800180541E-15
  0.277555756156E-16
  0.194289029309E-15
  0.222044604925E-15
 -0.444089209850E-15
  0.277555756156E-15
  0.166533453694E-15
  0.000000000000E+00
  0.832667268469E-16
 -0.832667268469E-16
  0.111022302463E-15
  0.333066907388E-15
  0.000000000000E+00
  0.388578058619E-15
  0.333066907388E-15
 -0.166533453694E-15
 -0.111022302463E-15
 -0.333066907388E-15
  0.333066907388E-15
  0.000000000000E+00
  0.777156117238E-15
  0.499600361081E-15
  0.499600361081E-15
 -0.555111512313E-16
 -0.333066907388E-15
 -0.555111512313E-15
 -0.610622663544E-15
  0.832667268469E-16
 -0.277555756156E-16
 -0.388578058619E-15
 -0.277555756156E-16
  0.444089209850E-15
  0.277555756156E-15
  0.666133814775E-15
  0.166533453694E-15
 -0.555111512313E-15
 -0.444089209850E-15
  0.111022302463E-15
 -0.222044604925E-15
  0.277555756156E-15
 -0.666133814775E-15
 -0.721644966006E-15
 -0.111022302463E-15
 -0.555111512313E-16
  0.222044604925E-15
  0.277555756156E-15
  0.388578058619E-15
  0.499600361081E-15
  0.111022302463E-15
SCALARS phi_mu float 1
LOOKUP_TABLE default
  0.238335389458E+00
  0.239630248261E+00
  0.240543291092E+00
  0.240961936297E+00
  0.241163309806E+00
  0.241244350963E+00
  0.241236084727E+00
  0.241142168932E+00
  0.240949764585E+00
  0.240631293442E+00
  0.240141621040E+00
  0.239411110114E+00
  0.238332864828E+00
  0.236739825828E+00
  0.234361768970E+00
  0.230737367099E+00
  0.225008878538E+00
  0.215324801392E+00
  0.195952254046E+00
  0.129409324416E+00
  0.197486143543E+00
  0.197486143543E+00
  0.201232465599E+00
  0.201232465599E+00
  0.202685442162E+00
  0.202685442162E+00
  0.203201464983E+00
  0.203201464983E+00
  0.203453546162E+00
  0.203453546162E+00
  0.203580518330E+00
  0.203580518330E+00
  0.203623925594E+00
  0.203623925594E+00
  0.203592121549E+00
  0.203592121549E+00
  0.203475724441E+00
  0.203475724441E+00
  0.203250652470E+00
  0.203250652470E+00
  0.202875823472E+00
  0.202875823472E+00
  0.202286502077E+00
  0.202286502077E+00
  0.201381743108E+00
  0.201381743108E+00
  0.200001599501E+00
  0.200001599501E+00
  0.197884133253E+00
  0.197884133253E+00
  0.194577628678E+00
  0.194577628678E+00
  0.189238159464E+00
  0.189238159464E+00
  0.180066545041E+00
  0.180066545041E+00
  0.162237770603E+00
  0.162237770603E+00
  0.120086262505E+00
  0.120086262505E+00
  0.107727569489E+00
  0.107727569489E+00
  0.104465014581E+00
  0.136421283851E+00
  0.136421283851E+00
  0.138379411964E+00
  0.138379411964E+00
  0.139694052206E+00
  0.139694052206E+00
  0.140227680889E+00
  0.140227680889E+00
  0.140512899262E+00
  0.140512899262E+00
  0.140683669563E+00
  0.140683669563E+00
  0.140783374853E+00
  0.140783374853E+00
  0.140823120386E+00
  0.140823120386E+00
  0.140797039695E+00
  0.140797039695E+00
  0.140685662924E+00
  0.140685662924E+00
  0.140454091630E+00
  0.140454091630E+00
  0.140046037019E+00
  0.140046037019E+00
  0.139372383435E+00
  0.139372383435E+00
  0.138290465892E+00
  0.138290465892E+00
  0.136565599580E+00
  0.136565599580E+00
  0.133795358485E+00
  0.133795358485E+00
  0.129247836432E+00
  0.129247836432E+00
  0.121483099608E+00
  0.121483099608E+00
  0.107477884966E+00
  0.107477884966E+00
  0.816774330604E-01
  0.816774330604E-01
  0.732384024010E-01
  0.732384024010E-01
  0.707389011024E-01
  0.874800760888E-01
  0.874800760888E-01
  0.885361092814E-01
  0.885361092814E-01
  0.894299688512E-01
  0.894299688512E-01
  0.899106754820E-01
  0.899106754820E-01
  0.902069457803E-01
  0.902069457803E-01
  0.904130064745E-01
  0.904130064745E-01
  0.905657041213E-01
  0.905657041213E-01
  0.906765262574E-01
  0.906765262574E-01
  0.907426477975E-01
  0.907426477975E-01
  0.907496712075E-01
  0.907496712075E-01
  0.906701598541E-01
  0.906701598541E-01
  0.904586526272E-01
  0.904586526272E-01
  0.900420587121E-01
  0.900420587121E-01
  0.893024614093E-01
  0.893024614093E-01
  0.880461984652E-01
  0.880461984652E-01
  0.859467849341E-01
  0.859467849341E-01
  0.824371656066E-01
  0.824371656066E-01
  0.765135891270E-01
  0.765135891270E-01
  0.664917506352E-01
  0.664917506352E-01
  0.502247233316E-01
  0.502247233316E-01
  0.446547995633E-01
  0.446547995633E-01
  0.429618035370E-01
  0.459474798550E-01
  0.459474798550E-01
  0.466311925216E-01
  0.466311925216E-01
  0.472654687969E-01
  0.472654687969E-01
  0.476784261675E-01
  0.476784261675E-01
  0.479739414677E-01
  0.479739414677E-01
  0.482092433217E-01
  0.482092433217E-01
  0.484119576304E-01
  0.484119576304E-01
  0.485927365383E-01
  0.485927365383E-01
  0.487515192725E-01
  0.487515192725E-01
  0.488793075418E-01
  0.488793075418E-01
  0.489570336720E-01
  0.489570336720E-01
  0.489517543769E-01
  0.489517543769E-01
  0.488093236811E-01
  0.488093236811E-01
  0.484415070290E-01
  0.484415070290E-01
  0.477037992922E-01
  0.477037992922E-01
  0.463579047006E-01
  0.463579047006E-01
  0.440121390434E-01
  0.440121390434E-01
  0.400482089709E-01
  0.400482089709E-01
  0.336336686750E-01
  0.336336686750E-01
  0.240882470084E-01
  0.240882470084E-01
  0.208185124422E-01
  0.208185124422E-01
  0.198178420466E-01
  0.938395955522E-02
  0.938395955522E-02
  0.987204154329E-02
  0.987204154329E-02
  0.103449206377E-01
  0.103449206377E-01
  0.106990299971E-01
  0.106990299971E-01
  0.109901683358E-01
  0.109901683358E-01
  0.112512793194E-01
  0.112512793194E-01
  0.115017627990E-01
  0.115017627990E-01
  0.117512403702E-01
  0.117512403702E-01
  0.120023705244E-01
  0.120023705244E-01
  0.122518039789E-01
  0.122518039789E-01
  0.124894542739E-01
  0.124894542739E-01
  0.126960123759E-01
  0.126960123759E-01
  0.128381353382E-01
  0.128381353382E-01
  0.128601500977E-01
  0.128601500977E-01
  0.126705577473E-01
  0.126705577473E-01
  0.121219149715E-01
  0.121219149715E-01
  0.109873788364E-01
  0.109873788364E-01
  0.895815656874E-02
  0.895815656873E-02
  0.574836937904E-02
  0.574836937903E-02
  0.145967113630E-02
  0.145967113628E-02
  0.988369297289E-04
  0.988369297204E-04
 -0.300321546420E-03
 -0.234777085477E-01
 -0.234777085477E-01
 -0.231131825501E-01
 -0.231131825501E-01
 -0.227505702641E-01
 -0.227505702641E-01
 -0.224430279040E-01