# vtk DataFile Version 3.0
TriPan results file. Generated by TriPan, USU AeroLab (c) 2021.
ASCII
DATASET POLYDATA
POINTS                  40 float
  0.400000000000E+01  0.000000000000E+00  0.000000000000E+00
  0.792475247525E+02  0.000000000000E+00  0.752475247525E+01
  0.400000000000E+01  0.421052634716E+00  0.000000000000E+00
  0.792475247525E+02  0.421052634716E+00  0.752475247525E+01
  0.400000000000E+01  0.842105269432E+00  0.000000000000E+00
  0.792475247525E+02  0.842105269432E+00  0.752475247525E+01
  0.400000000000E+01  0.126315784454E+01  0.000000000000E+00
  0.792475247525E+02  0.126315784454E+01  0.752475247525E+01
  0.400000000000E+01  0.168421053886E+01  0.000000000000E+00
  0.792475247525E+02  0.168421053886E+01  0.752475247525E+01
  0.400000000000E+01  0.210526323318E+01  0.000000000000E+00
  0.792475247525E+02  0.210526323318E+01  0.752475247525E+01
  0.400000000000E+01  0.252631568909E+01  0.000000000000E+00
  0.792475247525E+02  0.252631568909E+01  0.752475247525E+01
  0.400000000000E+01  0.294736838341E+01  0.000000000000E+00
  0.792475247525E+02  0.294736838341E+01  0.752475247525E+01
  0.400000000000E+01  0.336842107773E+01  0.000000000000E+00
  0.792475247525E+02  0.336842107773E+01  0.752475247525E+01
  0.400000000000E+01  0.378947377205E+01  0.000000000000E+00
  0.792475247525E+02  0.378947377205E+01  0.752475247525E+01
  0.400000000000E+01  0.421052646637E+01  0.000000000000E+00
  0.792475247525E+02  0.421052646637E+01  0.752475247525E+01
  0.400000000000E+01  0.463157892227E+01  0.000000000000E+00
  0.792475247525E+02  0.463157892227E+01  0.752475247525E+01
  0.400000000000E+01  0.505263137817E+01  0.000000000000E+00
  0.792475247525E+02  0.505263137817E+01  0.752475247525E+01
  0.400000000000E+01  0.547368431091E+01  0.000000000000E+00
  0.792475247525E+02  0.547368431091E+01  0.752475247525E+01
  0.400000000000E+01  0.589473676682E+01  0.000000000000E+00
  0.792475247525E+02  0.589473676682E+01  0.752475247525E+01
  0.400000000000E+01  0.631578969955E+01  0.000000000000E+00
  0.792475247525E+02  0.631578969955E+01  0.752475247525E+01
  0.400000000000E+01  0.673684215546E+01  0.000000000000E+00
  0.792475247525E+02  0.673684215546E+01  0.752475247525E+01
  0.400000000000E+01  0.715789461136E+01  0.000000000000E+00
  0.792475247525E+02  0.715789461136E+01  0.752475247525E+01
  0.400000000000E+01  0.757894754410E+01  0.000000000000E+00
  0.792475247525E+02  0.757894754410E+01  0.752475247525E+01
  0.400000000000E+01  0.800000000000E+01  0.000000000000E+00
  0.792475247525E+02  0.800000000000E+01  0.752475247525E+01
POLYGONS                  38                 152
3                   0                   1                   3
3                   0                   3                   2
3                   2                   3                   5
3                   2                   5                   4
3                   4                   5                   7
3                   4                   7                   6
3                   6                   7                   9
3                   6                   9                   8
3                   8                   9                  11
3                   8                  11                  10
3                  10                  11                  13
3                  10                  13                  12
3                  12                  13                  15
3                  12                  15                  14
3                  14                  15                  17
3                  14                  17                  16
3                  16                  17                  19
3                  16                  19                  18
3                  18                  19                  21
3                  18                  21                  20
3                  20                  21                  23
3                  20                  23                  22
3                  22                  23                  25
3                  22                  25                  24
3                  24                  25                  27
3                  24                  27                  26
3                  26                  27                  29
3                  26                  29                  28
3                  28                  29                  31
3                  28                  31                  30
3                  30                  31                  33
3                  30                  33                  32
3                  32                  33                  35
3                  32                  35                  34
3                  34                  35                  37
3                  34                  37                  36
3                  36                  37                  39
3                  36                  39                  38
POINT_DATA                  40
SCALARS mu float 1
LOOKUP_TABLE default
 -0.103533291472E-04
 -0.103533291472E-04
 -0.140820094664E-04
 -0.140820094664E-04
 -0.140697305521E-04
 -0.140697305521E-04
 -0.140502917325E-04
 -0.140502917325E-04
 -0.140228849215E-04
 -0.140228849215E-04
 -0.139861888882E-04
 -0.139861888882E-04
 -0.139383141622E-04
 -0.139383141622E-04
 -0.138765045779E-04
 -0.138765045779E-04
 -0.137973359458E-04
 -0.137973359458E-04
 -0.136957673555E-04
 -0.136957673555E-04
 -0.135649076225E-04
 -0.135649076225E-04
 -0.133947513563E-04
 -0.133947513563E-04
 -0.131710097797E-04
 -0.131710097797E-04
 -0.128716775786E-04
 -0.128716775786E-04
 -0.124616536375E-04
 -0.124616536375E-04
 -0.118802193378E-04
 -0.118802193378E-04
 -0.110085068346E-04
 -0.110085068346E-04
 -0.956419600952E-05
 -0.956419600952E-05
 -0.662258290762E-05
 -0.662258290762E-05
  0.000000000000E+00
  0.000000000000E+00
