# vtk DataFile Version 3.0
MachLine results file. Generated by MachLine, USU AeroLab (c) 2022.
ASCII
DATASET POLYDATA
POINTS                 704 float
  0.000000000000E+00  0.000000000000E+00  0.000000000000E+00
  0.000000000000E+00  0.421052634716E+00  0.000000000000E+00
  0.000000000000E+00  0.842105269432E+00  0.000000000000E+00
  0.000000000000E+00  0.126315784454E+01  0.000000000000E+00
  0.000000000000E+00  0.168421053886E+01  0.000000000000E+00
  0.000000000000E+00  0.210526323318E+01  0.000000000000E+00
  0.000000000000E+00  0.252631568909E+01  0.000000000000E+00
  0.000000000000E+00  0.294736838341E+01  0.000000000000E+00
  0.000000000000E+00  0.336842107773E+01  0.000000000000E+00
  0.000000000000E+00  0.378947377205E+01  0.000000000000E+00
  0.000000000000E+00  0.421052646637E+01  0.000000000000E+00
  0.000000000000E+00  0.463157892227E+01  0.000000000000E+00
  0.000000000000E+00  0.505263137817E+01  0.000000000000E+00
  0.000000000000E+00  0.547368431091E+01  0.000000000000E+00
  0.000000000000E+00  0.589473676682E+01  0.000000000000E+00
  0.000000000000E+00  0.631578969955E+01  0.000000000000E+00
  0.000000000000E+00  0.673684215546E+01  0.000000000000E+00
  0.000000000000E+00  0.715789461136E+01  0.000000000000E+00
  0.000000000000E+00  0.757894754410E+01  0.000000000000E+00
  0.000000000000E+00  0.800000000000E+01  0.000000000000E+00
  0.257792294025E+00  0.000000000000E+00 -0.131799980998E+00
  0.257792294025E+00  0.000000000000E+00  0.131799980998E+00
  0.257792294025E+00  0.421052634716E+00 -0.131799980998E+00
  0.257792294025E+00  0.421052634716E+00  0.131799980998E+00
  0.257792294025E+00  0.842105269432E+00 -0.131799980998E+00
  0.257792294025E+00  0.842105269432E+00  0.131799980998E+00
  0.257792294025E+00  0.126315784454E+01 -0.131799980998E+00
  0.257792294025E+00  0.126315784454E+01  0.131799980998E+00
  0.257792294025E+00  0.168421053886E+01 -0.131799980998E+00
  0.257792294025E+00  0.168421053886E+01  0.131799980998E+00
  0.257792294025E+00  0.210526323318E+01 -0.131799980998E+00
  0.257792294025E+00  0.210526323318E+01  0.131799980998E+00
  0.257792294025E+00  0.252631568909E+01 -0.131799980998E+00
  0.257792294025E+00  0.252631568909E+01  0.131799980998E+00
  0.257792294025E+00  0.294736838341E+01 -0.131799980998E+00
  0.257792294025E+00  0.294736838341E+01  0.131799980998E+00
  0.257792294025E+00  0.336842107773E+01 -0.131799980998E+00
  0.257792294025E+00  0.336842107773E+01  0.131799980998E+00
  0.257792294025E+00  0.378947377205E+01 -0.131799980998E+00
  0.257792294025E+00  0.378947377205E+01  0.131799980998E+00
  0.257792294025E+00  0.421052646637E+01 -0.131799980998E+00
  0.257792294025E+00  0.421052646637E+01  0.131799980998E+00
  0.257792294025E+00  0.463157892227E+01 -0.131799980998E+00
  0.257792294025E+00  0.463157892227E+01  0.131799980998E+00
  0.257792294025E+00  0.505263137817E+01 -0.131799980998E+00
  0.257792294025E+00  0.505263137817E+01  0.131799980998E+00
  0.257792294025E+00  0.547368431091E+01 -0.131799980998E+00
  0.257792294025E+00  0.547368431091E+01  0.131799980998E+00
  0.257792294025E+00  0.589473676682E+01 -0.131799980998E+00
  0.257792294025E+00  0.589473676682E+01  0.131799980998E+00
  0.257792294025E+00  0.631578969955E+01 -0.131799980998E+00
  0.257792294025E+00  0.631578969955E+01  0.131799980998E+00
  0.257792294025E+00  0.673684215546E+01 -0.131799980998E+00
  0.257792294025E+00  0.673684215546E+01  0.131799980998E+00
  0.257792294025E+00  0.715789461136E+01 -0.131799980998E+00
  0.257792294025E+00  0.715789461136E+01  0.131799980998E+00
  0.257792294025E+00  0.757894754410E+01 -0.131799980998E+00
  0.257792294025E+00  0.757894754410E+01  0.131799980998E+00
  0.257792294025E+00  0.800000000000E+01 -0.131799980998E+00
  0.257792294025E+00  0.800000000000E+01  0.131799980998E+00
  0.257792294025E+00  0.809319686890E+01 -0.931966677308E-01
  0.257792294025E+00  0.809319686890E+01  0.931966677308E-01
  0.257792294025E+00  0.813179969788E+01 -0.140525558511E-15
  0.536310672760E+00  0.000000000000E+00 -0.172269701958E+00
  0.536310672760E+00  0.000000000000E+00  0.172269701958E+00
  0.536310672760E+00  0.421052634716E+00 -0.172269701958E+00
  0.536310672760E+00  0.421052634716E+00  0.172269701958E+00
  0.536310672760E+00  0.842105269432E+00 -0.172269701958E+00
  0.536310672760E+00  0.842105269432E+00  0.172269701958E+00
  0.536310672760E+00  0.126315784454E+01 -0.172269701958E+00
  0.536310672760E+00  0.126315784454E+01  0.172269701958E+00
  0.536310672760E+00  0.168421053886E+01 -0.172269701958E+00
  0.536310672760E+00  0.168421053886E+01  0.172269701958E+00
  0.536310672760E+00  0.210526323318E+01 -0.172269701958E+00
  0.536310672760E+00  0.210526323318E+01  0.172269701958E+00
  0.536310672760E+00  0.252631568909E+01 -0.172269701958E+00
  0.536310672760E+00  0.252631568909E+01  0.172269701958E+00
  0.536310672760E+00  0.294736838341E+01 -0.172269701958E+00
  0.536310672760E+00  0.294736838341E+01  0.172269701958E+00
  0.536310672760E+00  0.336842107773E+01 -0.172269701958E+00
  0.536310672760E+00  0.336842107773E+01  0.172269701958E+00
  0.536310672760E+00  0.378947377205E+01 -0.172269701958E+00
  0.536310672760E+00  0.378947377205E+01  0.172269701958E+00
  0.536310672760E+00  0.421052646637E+01 -0.172269701958E+00
  0.536310672760E+00  0.421052646637E+01  0.172269701958E+00
  0.536310672760E+00  0.463157892227E+01 -0.172269701958E+00
  0.536310672760E+00  0.463157892227E+01  0.172269701958E+00
  0.536310672760E+00  0.505263137817E+01 -0.172269701958E+00
  0.536310672760E+00  0.505263137817E+01  0.172269701958E+00
  0.536310672760E+00  0.547368431091E+01 -0.172269701958E+00
  0.536310672760E+00  0.547368431091E+01  0.172269701958E+00
  0.536310672760E+00  0.589473676682E+01 -0.172269701958E+00
  0.536310672760E+00  0.589473676682E+01  0.172269701958E+00
  0.536310672760E+00  0.631578969955E+01 -0.172269701958E+00
  0.536310672760E+00  0.631578969955E+01  0.172269701958E+00
  0.536310672760E+00  0.673684215546E+01 -0.172269701958E+00
  0.536310672760E+00  0.673684215546E+01  0.172269701958E+00
  0.536310672760E+00  0.715789461136E+01 -0.172269701958E+00
  0.536310672760E+00  0.715789461136E+01  0.172269701958E+00
  0.536310672760E+00  0.757894754410E+01 -0.172269701958E+00
  0.536310672760E+00  0.757894754410E+01  0.172269701958E+00
  0.536310672760E+00  0.800000000000E+01 -0.172269701958E+00
  0.536310672760E+00  0.800000000000E+01  0.172269701958E+00
  0.536310672760E+00  0.812181282043E+01 -0.121813081205E+00
  0.536310672760E+00  0.812181282043E+01  0.121813081205E+00
  0.536310672760E+00  0.817226982117E+01  0.124489979086E-17
  0.799721002579E+00  0.000000000000E+00 -0.191203564405E+00
  0.799721002579E+00  0.000000000000E+00  0.191203564405E+00
  0.799721002579E+00  0.421052634716E+00 -0.191203564405E+00
  0.799721002579E+00  0.421052634716E+00  0.191203564405E+00
  0.799721002579E+00  0.842105269432E+00 -0.191203564405E+00
  0.799721002579E+00  0.842105269432E+00  0.191203564405E+00
  0.799721002579E+00  0.126315784454E+01 -0.191203564405E+00
  0.799721002579E+00  0.126315784454E+01  0.191203564405E+00
  0.799721002579E+00  0.168421053886E+01 -0.191203564405E+00
  0.799721002579E+00  0.168421053886E+01  0.191203564405E+00
  0.799721002579E+00  0.210526323318E+01 -0.191203564405E+00
  0.799721002579E+00  0.210526323318E+01  0.191203564405E+00
  0.799721002579E+00  0.252631568909E+01 -0.191203564405E+00
  0.799721002579E+00  0.252631568909E+01  0.191203564405E+00
  0.799721002579E+00  0.294736838341E+01 -0.191203564405E+00
  0.799721002579E+00  0.294736838341E+01  0.191203564405E+00
  0.799721002579E+00  0.336842107773E+01 -0.191203564405E+00
  0.799721002579E+00  0.336842107773E+01  0.191203564405E+00
  0.799721002579E+00  0.378947377205E+01 -0.191203564405E+00
  0.799721002579E+00  0.378947377205E+01  0.191203564405E+00
  0.799721002579E+00  0.421052646637E+01 -0.191203564405E+00
  0.799721002579E+00  0.421052646637E+01  0.191203564405E+00
  0.799721002579E+00  0.463157892227E+01 -0.191203564405E+00
  0.799721002579E+00  0.463157892227E+01  0.191203564405E+00
  0.799721002579E+00  0.505263137817E+01 -0.191203564405E+00
  0.799721002579E+00  0.505263137817E+01  0.191203564405E+00
  0.799721002579E+00  0.547368431091E+01 -0.191203564405E+00
  0.799721002579E+00  0.547368431091E+01  0.191203564405E+00
  0.799721002579E+00  0.589473676682E+01 -0.191203564405E+00
  0.799721002579E+00  0.589473676682E+01  0.191203564405E+00
  0.799721002579E+00  0.631578969955E+01 -0.191203564405E+00
  0.799721002579E+00  0.631578969955E+01  0.191203564405E+00
  0.799721002579E+00  0.673684215546E+01 -0.191203564405E+00
  0.799721002579E+00  0.673684215546E+01  0.191203564405E+00
  0.799721002579E+00  0.715789461136E+01 -0.191203564405E+00
  0.799721002579E+00  0.715789461136E+01  0.191203564405E+00
  0.799721002579E+00  0.757894754410E+01 -0.191203564405E+00
  0.799721002579E+00  0.757894754410E+01  0.191203564405E+00
  0.799721002579E+00  0.800000000000E+01 -0.191203564405E+00
  0.799721002579E+00  0.800000000000E+01  0.191203564405E+00
  0.799721002579E+00  0.813520145416E+01 -0.135201334953E+00
  0.799721002579E+00  0.813520145416E+01  0.135201334953E+00
  0.799721002579E+00  0.819120311737E+01 -0.320710062362E-17
  0.105025947094E+01  0.000000000000E+00 -0.198943451047E+00
  0.105025947094E+01  0.000000000000E+00  0.198943451047E+00
  0.105025947094E+01  0.421052634716E+00 -0.198943451047E+00
  0.105025947094E+01  0.421052634716E+00  0.198943451047E+00
  0.105025947094E+01  0.842105269432E+00 -0.198943451047E+00
  0.105025947094E+01  0.842105269432E+00  0.198943451047E+00
  0.105025947094E+01  0.126315784454E+01 -0.198943451047E+00
  0.105025947094E+01  0.126315784454E+01  0.198943451047E+00
  0.105025947094E+01  0.168421053886E+01 -0.198943451047E+00
  0.105025947094E+01  0.168421053886E+01  0.198943451047E+00
  0.105025947094E+01  0.210526323318E+01 -0.198943451047E+00
  0.105025947094E+01  0.210526323318E+01  0.198943451047E+00
[...]
CELL_DATA                1336
SCALARS C_p_inc float 1
LOOKUP_TABLE default
 -0.501465216249E+00
 -0.239343879922E+00
 -0.329561474844E+00
 -0.329755475921E+00
 -0.187412464126E+00
 -0.187408891694E+00
 -0.183160450998E+00
 -0.183187113232E+00
 -0.193256763050E+00
 -0.193321967825E+00
 -0.209661438047E+00
 -0.209685214187E+00
 -0.229524155591E+00
 -0.229165211621E+00
 -0.251864280247E+00
 -0.249613058100E+00
 -0.274065667809E+00
 -0.277044992824E+00
 -0.303797018689E+00
 -0.305474905128E+00
 -0.335450443526E+00
 -0.337289339659E+00
 -0.371393723080E+00
 -0.374246700723E+00
 -0.415951505146E+00
 -0.421324242790E+00
 -0.485330237138E+00
 -0.498877476445E+00
 -0.620660286372E+00
 -0.651616435758E+00
 -0.525804954201E-01
 -0.115347979282E+00
 -0.115347951901E+00
 -0.525804673783E-01
 -0.651616412579E+00
 -0.620660263155E+00
 -0.498877457676E+00
 -0.485330218248E+00
 -0.421324224991E+00
 -0.415951487152E+00
 -0.374246682709E+00
 -0.371393704815E+00
 -0.337289320762E+00
 -0.335450424308E+00
 -0.305474884784E+00
 -0.303796997937E+00
 -0.277044970446E+00
 -0.274065644900E+00
 -0.249613032214E+00
 -0.251864255102E+00
 -0.229165181595E+00
 -0.229524126686E+00
 -0.209685178233E+00
 -0.209661403834E+00
 -0.193321922719E+00
 -0.193256720937E+00
 -0.183187052572E+00
 -0.183160396177E+00
 -0.187408799975E+00
 -0.187412386254E+00
 -0.329755298347E+00
 -0.329561343049E+00
 -0.239343470941E+00
 -0.501464995778E+00
 -0.501149484811E+00
 -0.238487952533E+00
 -0.329314115271E+00
 -0.329561439265E+00
 -0.187315727877E+00
 -0.187412834364E+00
 -0.183109429248E+00
 -0.183161130432E+00
 -0.193258293465E+00
 -0.193257875100E+00
 -0.209776670963E+00
 -0.209663002203E+00
 -0.229888778120E+00
 -0.229526628323E+00
 -0.252731263165E+00
 -0.251868095791E+00
 -0.277043104875E+00
 -0.278167555359E+00
 -0.305471015524E+00
 -0.306539657218E+00
 -0.337281705237E+00
 -0.338569981251E+00
 -0.374228892297E+00
 -0.376108680104E+00
 -0.421273923930E+00
 -0.424394701526E+00
 -0.498657384727E+00
 -0.504315861227E+00
 -0.646389266043E+00
 -0.655274860772E+00
 -0.240886676063E-01
 -0.109877676497E+00
 -0.109877649885E+00
 -0.240886402228E-01
 -0.655274838224E+00
 -0.646389242863E+00
 -0.504315843024E+00
 -0.498657365956E+00
 -0.424394684357E+00
 -0.421273906130E+00
 -0.376108662847E+00
 -0.374228874282E+00
 -0.338569963278E+00
 -0.337281686338E+00
 -0.306539638040E+00
 -0.305470995179E+00
 -0.278167534479E+00
 -0.277043082496E+00
 -0.251868070645E+00
 -0.252731240052E+00
 -0.229526599416E+00
 -0.229888752096E+00
 -0.209662967988E+00
 -0.209776641033E+00
 -0.193257832985E+00
 -0.193258258226E+00
 -0.183161075607E+00
 -0.183109386715E+00
 -0.187412756484E+00
 -0.187315676101E+00
 -0.329561307451E+00
 -0.329314059025E+00
 -0.238487732052E+00
 -0.501149525430E+00
 -0.501012652098E+00
 -0.238172460812E+00
 -0.329163607038E+00
 -0.329313341109E+00
 -0.187188461185E+00
 -0.187315683568E+00
 -0.183007692453E+00
 -0.183109785122E+00
 -0.193195411912E+00
 -0.193259108129E+00
 -0.209771470457E+00
 -0.209777877682E+00
 -0.229960191515E+00
 -0.229890771930E+00
 -0.252887875884E+00
 -0.252734161520E+00
 -0.278162961460E+00
 -0.278409374281E+00
 -0.306531476689E+00
 -0.306865021684E+00
 -0.338555095283E+00
 -0.338987472963E+00
 -0.376077326883E+00
 -0.376631647377E+00
 -0.424315043360E+00
 -0.424984122070E+00
 -0.504005900461E+00
 -0.504738798896E+00
 -0.647179770562E+00
 -0.655011176647E+00
 -0.186093772730E-01
 -0.109293575422E+00
 -0.109293549909E+00
 -0.186093506604E-01
 -0.655011155109E+00
 -0.647179748014E+00
 -0.504738781620E+00
 -0.504005882258E+00
 -0.424984105901E+00
 -0.424315026191E+00
 -0.376631631269E+00
 -0.376077309626E+00
 -0.338987456360E+00
 -0.338555077310E+00
 -0.306865004182E+00
 -0.306531457511E+00
 -0.278409355511E+00
 -0.278162940579E+00
 -0.252734138404E+00
 -0.252887855496E+00
 -0.229890745904E+00
 -0.229960169113E+00
 -0.209777847748E+00
 -0.209771445521E+00
 -0.193259072885E+00
 -0.193195383741E+00
 -0.183109742584E+00
 -0.183007660085E+00
 -0.187315631787E+00
 -0.187188422785E+00
 -0.329313284866E+00
 -0.329163551870E+00
 -0.238172501503E+00
 -0.501012505652E+00
 -0.500867008826E+00
 -0.238035836309E+00
 -0.328981142088E+00
 -0.329162991004E+00
 -0.187006532144E+00
 -0.187188546195E+00
 -0.182826395114E+00
 -0.183008156689E+00
 -0.193022467147E+00
 -0.193196305417E+00
 -0.209614343807E+00
 -0.209772713517E+00
 -0.229824253027E+00
 -0.229962163683E+00
 -0.252775727331E+00
 -0.252890690653E+00
 -0.278405051063E+00
 -0.278324848125E+00
 -0.306857339905E+00
 -0.306809103449E+00
 -0.338973501087E+00
 -0.338953213744E+00
 -0.376602180405E+00
 -0.376602116832E+00
 -0.424909028194E+00
 -0.424921309311E+00
 -0.504441542590E+00
 -0.504571493767E+00
 -0.646930297626E+00
 -0.654646373471E+00
 -0.180282241347E-01
 -0.108982014301E+00
 -0.108981990221E+00
 -0.180281986216E-01
 -0.654646353230E+00
 -0.646930276088E+00
 -0.504571477676E+00
 -0.504441525315E+00
 -0.424921294396E+00
 -0.424909012025E+00
 -0.376602102125E+00
 -0.376602164297E+00
 -0.338953198764E+00
 -0.338973484484E+00
 -0.306809087871E+00
 -0.306857322403E+00
 -0.278324831680E+00
 -0.278405032291E+00
 -0.252890670264E+00
 -0.252775709798E+00
 -0.229962141280E+00
 -0.229824234232E+00
 -0.209772688579E+00
 -0.209614323477E+00
 -0.193196277245E+00
 -0.193022444965E+00
 -0.183008124320E+00
 -0.182826370650E+00
 -0.187188507794E+00
 -0.187006504409E+00
 -0.329162935831E+00
 -0.328981107644E+00
 -0.238035689757E+00
 -0.500866989520E+00
 -0.500683827344E+00
 -0.237890430523E+00
 -0.328737476305E+00
 -0.328980717425E+00
 -0.186745620559E+00
 -0.187006764825E+00
 -0.182543801545E+00
 -0.182826964677E+00
 -0.192723721219E+00
 -0.193023424129E+00
 -0.209304479047E+00
 -0.209615609795E+00
 -0.229506811342E+00
 -0.229826211803E+00
 -0.252452870328E+00
 -0.252778501637E+00
 -0.278320663211E+00
 -0.278000515845E+00
 -0.306801589608E+00
 -0.306485074187E+00
 -0.338939483422E+00
 -0.338625204993E+00
 -0.376573038067E+00
 -0.376261397126E+00
 -0.424846844130E+00
 -0.424553179116E+00
 -0.504275110103E+00
 -0.504153042037E+00
 -0.646566293261E+00
 -0.654146737268E+00
 -0.177171830799E-01
 -0.108667781547E+00
 -0.108667759139E+00
 -0.177171589995E-01
 -0.654146718578E+00
 -0.646566273020E+00
 -0.504153027303E+00
 -0.504275094013E+00
 -0.424553165601E+00
 -0.424846829214E+00
 -0.376261383951E+00
 -0.376573023360E+00
 -0.338625191735E+00
 -0.338939468441E+00
 -0.306485060578E+00
 -0.306801574028E+00
 -0.278000501674E+00
 -0.278320646764E+00
 -0.252778484104E+00
 -0.252452855478E+00
 -0.229826193007E+00
 -0.229506795709E+00
 -0.209615589465E+00
 -0.209304462528E+00
 -0.193023401947E+00
 -0.192723703770E+00
 -0.182826940214E+00
 -0.182543783347E+00
 -0.187006737093E+00
 -0.186745602628E+00
 -0.328980682988E+00
 -0.328737463007E+00
 -0.237890411297E+00
 -0.500683840648E+00
 -0.500449249023E+00
 -0.237707565678E+00
 -0.328414400964E+00
 -0.328737305916E+00
 -0.186387750919E+00
 -0.186746047552E+00
 -0.182142931254E+00
 -0.182544508493E+00
 -0.192285188233E+00
 -0.192724763114E+00
 -0.208833548493E+00
 -0.209305783488E+00
 -0.229007767685E+00
 -0.229508770011E+00
 -0.251929292939E+00
 -0.252455616026E+00
 -0.277996490815E+00
 -0.277458521893E+00
 -0.306477699876E+00
 -0.305929732452E+00
 -0.338611607734E+00
 -0.338057358177E+00
 -0.376232458820E+00
 -0.375680524383E+00
 -0.424478869284E+00
 -0.423957151962E+00
 -0.503856818736E+00
 -0.503535102457E+00
 -0.646066791885E+00
 -0.653489839473E+00
 -0.174030689333E-01
 -0.108292055749E+00
 -0.108292035214E+00
 -0.174030465254E-01
 -0.653489822447E+00
 -0.646066773194E+00
 -0.503535089204E+00
 -0.503856804001E+00
 -0.423957139933E+00
 -0.424478855769E+00
 -0.375680512794E+00
 -0.376232445645E+00
 -0.338057346650E+00
 -0.338611594474E+00
 -0.305929720752E+00
 -0.306477686264E+00
 -0.277458509856E+00
 -0.277996476641E+00
 -0.252455601176E+00
 -0.251929280448E+00
 -0.229508754379E+00
 -0.229007754667E+00
 -0.209305766969E+00
 -0.208833534826E+00
 -0.192724745666E+00
 -0.192285173798E+00
 -0.182544490298E+00
 -0.182142916093E+00
 -0.186746029629E+00
 -0.186387735591E+00
 -0.328737292640E+00
 -0.328414389473E+00
 -0.237707579034E+00
 -0.500449272377E+00
 -0.500154132059E+00
 -0.237473451128E+00
 -0.327996790247E+00
 -0.328414605060E+00
 -0.185915004684E+00
 -0.186388466440E+00
 -0.181603662702E+00
 -0.182143845241E+00
 -0.191685902394E+00
 -0.192286362743E+00
 -0.208181173561E+00
 -0.208834920471E+00
 -0.228308640519E+00
 -0.229009740172E+00
 -0.251189542000E+00
 -0.251932012077E+00
 -0.277454706762E+00
 -0.276687777979E+00
 -0.305922512555E+00
 -0.305137373713E+00
 -0.338043870402E+00
 -0.337249188279E+00
 -0.375651660861E+00
 -0.374862305106E+00
 -0.423882891037E+00
 -0.423134318671E+00
 -0.503238909079E+00
 -0.502708277356E+00
 -0.645409910987E+00
 -0.652645672607E+00
 -0.170273849688E-01
 -0.107826891082E+00
 -0.107826872524E+00
 -0.170273644345E-01
 -0.652645657380E+00
 -0.645409893961E+00
 -0.502708265623E+00
 -0.503238895826E+00
 -0.423134308169E+00
 -0.423882879008E+00
 -0.374862295118E+00
 -0.375651649272E+00
 -0.337249178464E+00
 -0.338043858874E+00
 -0.305137363864E+00
 -0.305922500853E+00
 -0.276687767937E+00
 -0.277454694722E+00
 -0.251931999587E+00
 -0.251189531654E+00
 -0.229009727154E+00
 -0.228308629754E+00
 -0.208834906805E+00
 -0.208181162146E+00
 -0.192286348309E+00
 -0.191685889918E+00
 -0.182143830080E+00
 -0.181603648193E+00
 -0.186388451116E+00
 -0.185914985022E+00
 -0.328414593579E+00
 -0.327996748627E+00
 -0.237473474543E+00
 -0.500153976339E+00
 -0.499790670102E+00
 -0.237179056180E+00
 -0.327468535211E+00
 -0.327997581732E+00
 -0.185305442153E+00
 -0.185916176023E+00
 -0.180898511668E+00
 -0.181604906721E+00
 -0.190893952597E+00
 -0.191687291527E+00
 -0.207312199743E+00
 -0.208182658962E+00
 -0.227372140819E+00
 -0.228310642588E+00
 -0.250195219728E+00
 -0.251192227184E+00
 -0.276684255024E+00
 -0.275650061965E+00
 -0.305130349046E+00
 -0.304071032973E+00
 -0.337235815477E+00
 -0.336165275789E+00
 -0.374833494351E+00
 -0.373772539393E+00
 -0.423060067431E+00
 -0.422050608870E+00
 -0.502412070767E+00
 -0.501636697494E+00
 -0.644565728381E+00
 -0.651574179812E+00
 -0.165622640912E-01
 -0.107248491140E+00
 -0.107248474624E+00
 -0.165622455333E-01
 -0.651574166400E+00
 -0.644565713154E+00
 -0.501636687327E+00
 -0.502412059034E+00
 -0.422050599902E+00
 -0.423060056928E+00
 -0.373772531000E+00
 -0.374833484361E+00
 -0.336165267669E+00
 -0.337235805659E+00
 -0.304071024946E+00
 -0.305130339194E+00
 -0.275650053886E+00
 -0.276684244979E+00
 -0.251192216838E+00
 -0.250195211494E+00
 -0.228310631823E+00
 -0.227372132313E+00
 -0.208182647547E+00
 -0.207312190728E+00
 -0.191687279051E+00
 -0.190893942640E+00
 -0.181604892209E+00
 -0.180898499917E+00
 -0.185916156348E+00
 -0.185305426582E+00
 -0.327997540052E+00
 -0.327468511114E+00
 -0.237178900091E+00
 -0.499790660901E+00
 -0.499352670702E+00
 -0.236816767834E+00
 -0.326810621680E+00
 -0.327470290021E+00
 -0.184530012298E+00
 -0.185307365098E+00
 -0.179988655618E+00
 -0.180900302010E+00
 -0.189862019414E+00
 -0.190895698245E+00
 -0.206172220308E+00
 -0.207313874694E+00
 -0.226138167960E+00
 -0.227374194248E+00
 -0.248881931524E+00
 -0.250197852235E+00
 -0.275646963211E+00
 -0.274278531796E+00
 -0.304064272416E+00
 -0.302663278964E+00
 -0.336152037661E+00
 -0.334738899442E+00
 -0.373743767957E+00
 -0.372346421259E+00
 -0.421976338407E+00
 -0.420644240762E+00
 -0.501340451889E+00
 -0.500262366629E+00
 -0.643494214275E+00
 -0.650221162740E+00
 -0.159839620987E-01
 -0.106529895727E+00
 -0.106529881259E+00
 -0.159839455839E-01
 -0.650221151145E+00
 -0.643494200863E+00
 -0.500262358007E+00
 -0.501340441722E+00
 -0.420644233317E+00
 -0.421976329438E+00
 -0.372346414446E+00
 -0.373743759562E+00
 -0.334738893005E+00
 -0.336152029539E+00
 -0.302663272754E+00
 -0.304064264385E+00
 -0.274278525700E+00
 -0.275646955127E+00
 -0.250197844002E+00
 -0.248881925472E+00
 -0.227374185743E+00
 -0.226138161890E+00
 -0.207313865679E+00
 -0.206172214074E+00
 -0.190895688287E+00
 -0.189862012819E+00
 -0.180900290256E+00
 -0.179988648441E+00
 -0.185307349522E+00
 -0.184530004704E+00
 -0.327470265931E+00
 -0.326810617027E+00
 -0.236816758887E+00
 -0.499352689229E+00
 -0.498835778495E+00
 -0.236380752368E+00
 -0.325999798940E+00
 -0.326814019360E+00
 -0.183549222128E+00
 -0.184533222981E+00
 -0.178818825271E+00
 -0.179991383692E+00
 -0.188520887336E+00
 -0.189864376613E+00
 -0.204680134021E+00
 -0.206174219483E+00
 -0.224515816985E+00
 -0.226140309046E+00
 -0.247151126881E+00
 -0.248884476339E+00
 -0.274276071112E+00
 -0.272469855759E+00
 -0.302656889830E+00
 -0.300809079759E+00
 -0.334725823970E+00
 -0.332865874024E+00
 -0.372317668357E+00
 -0.370483356748E+00
 -0.420569914254E+00
 -0.418821161893E+00
 -0.499966062342E+00
 -0.498500463347E+00
 -0.642141203073E+00
 -0.648512579594E+00
 -0.152656073758E-01
 -0.105637376129E+00
 -0.105637363654E+00
 -0.152655929099E-01
 -0.648512569785E+00
 -0.642141191479E+00
 -0.498500456226E+00
 -0.499966053719E+00
 -0.418821155924E+00
 -0.420569906808E+00
 -0.370483351471E+00
 -0.372317661542E+00
 -0.332865869237E+00
 -0.334725817530E+00
 -0.300809075351E+00
 -0.302656883616E+00
 -0.272469851657E+00
 -0.274276065011E+00
 -0.248884470289E+00
 -0.247151123075E+00
 -0.226140302978E+00
 -0.224515813470E+00
 -0.206174213251E+00
 -0.204680130740E+00
 -0.189864370019E+00
 -0.188520884223E+00
 -0.179991376518E+00
 -0.178818822159E+00
 -0.184533215394E+00
 -0.183549218715E+00
 -0.326814014743E+00
 -0.325999793622E+00
 -0.236380771000E+00
 -0.498835760730E+00
 -0.498240497389E+00
 -0.235867345453E+00
 -0.325007614771E+00
 -0.326006111529E+00
 -0.182308452437E+00
 -0.183554728203E+00
 -0.177309443858E+00
 -0.178823227058E+00
 -0.186769051232E+00
 -0.188524334565E+00
 -0.202715815676E+00
 -0.204682709166E+00
 -0.222369601292E+00
 -0.224518114081E+00
 -0.244855278078E+00
 -0.247153522649E+00
 -0.272468388129E+00
 -0.270068817239E+00
 -0.300803227727E+00
 -0.298350350544E+00
 -0.332852991802E+00
 -0.330389432573E+00
 -0.370454578465E+00
 -0.368032630724E+00
 -0.418746725268E+00
 -0.416442031916E+00
 -0.498204100505E+00
 -0.496228215626E+00
 -0.640432736122E+00
 -0.646345846072E+00
 -0.143736695641E-01
 -0.104527258364E+00
 -0.104527247787E+00
 -0.143736570912E-01
 -0.646345837941E+00
 -0.640432726314E+00
 -0.496228209929E+00
 -0.498204093385E+00
 -0.416442027347E+00
 -0.418746719298E+00
 -0.368032626903E+00
 -0.370454573186E+00
 -0.330389429357E+00
 -0.332852987012E+00
 -0.298350347872E+00
 -0.300803223315E+00
 -0.270068815093E+00
 -0.272468384021E+00
 -0.247153518847E+00
 -0.244855276505E+00
 -0.224518110569E+00
 -0.222369600381E+00
 -0.204682705888E+00
 -0.202715815500E+00
 -0.188524331455E+00
 -0.186769051848E+00
 -0.178823223948E+00
 -0.177309445186E+00
 -0.183554724790E+00
 -0.182308453632E+00
 -0.326006106193E+00
 -0.325007610212E+00
 -0.235867327557E+00
 -0.498240454066E+00
 -0.497577973218E+00
 -0.235278455648E+00
 -0.323799243291E+00
 -0.325019329020E+00
 -0.180729966646E+00
 -0.182318230893E+00
 -0.175343186241E+00
 -0.177316963632E+00
 -0.184455216727E+00
 -0.186774526359E+00
 -0.200099642132E+00
 -0.202719460873E+00
 -0.219496699541E+00
 -0.222372193557E+00
 -0.241773259080E+00
 -0.244857418680E+00
 -0.270068951982E+00
 -0.266842258279E+00
 -0.298345294983E+00
 -0.295049047932E+00
 -0.330376764799E+00
 -0.327073027339E+00
 -0.368003735053E+00
 -0.364766860416E+00
 -0.416367412641E+00
 -0.413297789098E+00
 -0.495931872649E+00
 -0.493264477850E+00
 -0.638266459069E+00
 -0.643575371672E+00
 -0.132649499358E-01
 -0.103141931933E+00
 -0.103141923116E+00
 -0.132649393625E-01
 -0.643575365094E+00
 -0.638266450940E+00
 -0.493264473446E+00
 -0.495931866952E+00
 -0.413297785793E+00
 -0.416367408071E+00
 -0.364766857915E+00
 -0.368003731230E+00
 -0.327073025549E+00
 -0.330376761580E+00
 -0.295049046845E+00
 -0.298345292306E+00
 -0.266842257939E+00
 -0.270068949829E+00
 -0.244857417113E+00
 -0.241773259613E+00
 -0.222372192652E+00
 -0.219496701157E+00
 -0.202719460703E+00
 -0.200099645120E+00
 -0.186774526980E+00
 -0.184455221529E+00
 -0.177316964963E+00
 -0.175343193661E+00
 -0.182318232085E+00
 -0.180729978617E+00
 -0.325019324418E+00
 -0.323799268308E+00
 -0.235278412064E+00
 -0.497578055060E+00
 -0.496881521890E+00
 -0.234628257617E+00
 -0.322330226536E+00
 -0.323821479999E+00
 -0.178696643196E+00
 -0.180748090912E+00
 -0.172739640603E+00
 -0.175356791701E+00
 -0.181347355252E+00
 -0.184464641547E+00
 -0.196558115810E+00
 -0.200105372674E+00
 -0.215590031743E+00
 -0.219499887698E+00
 -0.237570874317E+00
 -0.241774962388E+00
 -0.266845085487E+00
 -0.262436865587E+00
 -0.295045206086E+00
 -0.290542382074E+00
 -0.327060556325E+00
 -0.322553338352E+00
 -0.364737662739E+00
 -0.360334287167E+00
 -0.413222923140E+00
 -0.409064244277E+00
 -0.492968496627E+00
 -0.489331157198E+00
 -0.635497423098E+00
 -0.639985949158E+00
 -0.118830322077E-01
 -0.101403727760E+00
 -0.101403720518E+00
 -0.118830233949E-01
 -0.639985943955E+00
 -0.635497416522E+00
 -0.489331153936E+00
 -0.492968492224E+00
 -0.409064242063E+00
 -0.413222919835E+00
 -0.360334285791E+00
 -0.364737660236E+00
 -0.322553337764E+00
 -0.327060554532E+00
 -0.290542382315E+00
 -0.295045204994E+00
 -0.262436866758E+00
 -0.266845085139E+00
 -0.241774962929E+00
 -0.237570876615E+00
 -0.219499889322E+00
 -0.215590035500E+00
 -0.200105375672E+00
 -0.196558121509E+00
 -0.184464646362E+00
 -0.181347363713E+00
 -0.175356799140E+00
 -0.172739653493E+00
 -0.180748102919E+00
 -0.178696664429E+00
 -0.323821505124E+00
 -0.322330270171E+00
 -0.234628340069E+00
 -0.496881623465E+00
 -0.496227711012E+00
 -0.233957115571E+00
 -0.320533063193E+00
 -0.322374219384E+00
 -0.176012394133E+00
 -0.178731987175E+00
 -0.169201902944E+00
 -0.172765733834E+00
 -0.177074694540E+00
 -0.181364845598E+00
 -0.191665452405E+00
 -0.196568112745E+00
 -0.210179633456E+00
 -0.215594502985E+00
 -0.231739839408E+00
 -0.237571838755E+00
 -0.262444436176E+00
 -0.256312841881E+00
 -0.290540455812E+00
 -0.284269153762E+00
 -0.322540935782E+00
 -0.316258058987E+00
 -0.360304426589E+00
 -0.354169645226E+00
 -0.408989200238E+00
 -0.403211984660E+00
 -0.489036709175E+00
 -0.483973135972E+00
 -0.631912260254E+00
 -0.635236850966E+00
 -0.101534398360E-01
 -0.992035713378E-01
 -0.992035654715E-01
 -0.101534325994E-01
 -0.635236846932E+00
 -0.631912255054E+00
 -0.483973133652E+00
 -0.489036705914E+00
 -0.403211983330E+00
 -0.408989198023E+00
 -0.354169644728E+00
 -0.360304425211E+00
 -0.316258059311E+00
 -0.322540935191E+00
 -0.284269154974E+00
 -0.290540456047E+00
 -0.256312844128E+00
 -0.262444437339E+00
 -0.237571841063E+00
 -0.231739842917E+00
 -0.215594506753E+00
 -0.210179638610E+00
 -0.196568118459E+00
 -0.191665459781E+00
 -0.181364854081E+00
 -0.177074705111E+00
 -0.172765746759E+00
 -0.169201918510E+00
 -0.178732008473E+00
 -0.176012418347E+00
 -0.322374263162E+00
 -0.320533105487E+00
 -0.233957217418E+00
 -0.496227772513E+00
 -0.495775307440E+00
 -0.233359779843E+00
 -0.318258190479E+00
 -0.320625511060E+00
 -0.172287992574E+00
 -0.176085559713E+00
 -0.164190036548E+00
 -0.169254996933E+00
 -0.171012737367E+00
 -0.177109441636E+00
 -0.184744980868E+00
 -0.191684609283E+00
 -0.202544509391E+00
 -0.210187060643E+00
 -0.223509753795E+00
 -0.231739635615E+00
 -0.256329266491E+00
 -0.247644599074E+00
 -0.284270419442E+00
 -0.275350034471E+00
 -0.316245309914E+00
 -0.307258241320E+00
 -0.354138400103E+00
 -0.345317102838E+00
 -0.403137381575E+00
 -0.394809845300E+00
 -0.483683972763E+00
 -0.476369234199E+00
 -0.627175811712E+00
 -0.628722837581E+00
 -0.797643079942E-02
 -0.963741333425E-01
 -0.963741286308E-01
 -0.797642494033E-02
 -0.628722834517E+00
 -0.627175807682E+00
 -0.476369232616E+00
 -0.483683970445E+00
 -0.394809844625E+00
 -0.403137380245E+00
 -0.345317102951E+00
 -0.354138399603E+00
 -0.307258242227E+00
 -0.316245310235E+00
 -0.275350036256E+00
 -0.284270420650E+00
 -0.247644601879E+00
 -0.256329268731E+00
 -0.231739639135E+00
 -0.223509757855E+00
 -0.210187065811E+00
 -0.202544515068E+00