# vtk DataFile Version 3.0
MFTran results file. Generated by MFTran, USU AeroLab (c) 2021.
ASCII
DATASET POLYDATA
POINTS                 545 float
     -0.749999508877       0.000000000000      -0.000000014786
     -0.749999188700       0.048943482339      -0.000000024425
     -0.749998638738       0.190983012319      -0.000000040982
     -0.749998219888       0.412214756012      -0.000000053592
     -0.749997973220       0.690982997417      -0.000000061018
     -0.749997922897       1.000000000000      -0.000000062533
     -0.749998073844       1.309016942980      -0.000000057988
     -0.749998411270       1.587785243990      -0.000000047830
     -0.749998902074       1.809016942980      -0.000000033054
     -0.749999497615       1.951056480410      -0.000000015125
     -0.749999986091       1.999999885702       0.000000000000
     -0.743844121342       0.000000000000      -0.000370822486
     -0.743844121342       0.000000000000       0.000370822486
     -0.743844110867       0.048943482339      -0.000370648787
     -0.743844110867       0.048943482339       0.000370648787
     -0.743844076624       0.190983012319      -0.000370076640
     -0.743844076624       0.190983012319       0.000370076640
     -0.743844049416       0.412214756012      -0.000369622031
     -0.743844049416       0.412214756012       0.000369622031
     -0.743844031942       0.690982997417      -0.000369330064
     -0.743844031942       0.690982997417       0.000369330064
     -0.743844025918       1.000000000000      -0.000369229426
     -0.743844025918       1.000000000000       0.000369229426
     -0.743844031936       1.309016942980      -0.000369329977
     -0.743844031936       1.309016942980       0.000369329977
     -0.743844049402       1.587785243990      -0.000369621800
     -0.743844049402       1.587785243990       0.000369621800
     -0.743844076587       1.809016942980      -0.000370076020
     -0.743844076587       1.809016942980       0.000370076020
     -0.743844110678       1.951056480410      -0.000370645638
     -0.743844110678       1.951056480410       0.000370645638
     -0.743844137544       1.999999969314      -0.000371094521
     -0.743844137544       1.999999969314       0.000371094521
     -0.743844146344       2.000185680953      -0.000321506803
     -0.743844146344       2.000185680953       0.000321506803
     -0.743844146344       2.000321549663      -0.000185624741
     -0.743844146344       2.000321549663       0.000185624741
     -0.743844147778       2.000371155592       0.000000000000
     -0.725528209307       0.000000000000      -0.001458369935
     -0.725528209307       0.000000000000       0.001458369935
     -0.725528197696       0.048943482339      -0.001458174116
     -0.725528197696       0.048943482339       0.001458174116
     -0.725528164485       0.190983012319      -0.001457606225
     -0.725528164485       0.190983012319       0.001457606225
     -0.725528137959       0.412214756012      -0.001457152634
     -0.725528137959       0.412214756012       0.001457152634
     -0.725528120906       0.690982997417      -0.001456861038
     -0.725528120906       0.690982997417       0.001456861038
     -0.725528115025       1.000000000000      -0.001456760479
     -0.725528115025       1.000000000000       0.001456760479
     -0.725528120897       1.309016942980      -0.001456860874
     -0.725528120897       1.309016942980       0.001456860874
     -0.725528137934       1.587785243990      -0.001457152200
     -0.725528137934       1.587785243990       0.001457152200
     -0.725528164418       1.809016942980      -0.001457605071
     -0.725528164418       1.809016942980       0.001457605071
     -0.725528197384       1.951056480410      -0.001458168780
     -0.725528197384       1.951056480410       0.001458168780
     -0.725528222685       1.999999968658      -0.001458602349
     -0.725528222791       1.999999960802       0.001458603243
     -0.725528230669       2.000729491936      -0.001263296766
     -0.725528232218       2.000729499093       0.001263323695
     -0.725528229521       2.001263224989      -0.000729352879
     -0.725528229521       2.001263224989       0.000729352879
     -0.725528231731       2.001458739143      -0.000000000000
     -0.695503203365       0.000000000000      -0.003187279178
     -0.695503203365       0.000000000000       0.003187279178
     -0.695503191045       0.048943482339      -0.003187064644
     -0.695503191045       0.048943482339       0.003187064644
     -0.695503159435       0.190983012319      -0.003186503556
     -0.695503159435       0.190983012319       0.003186503556
     -0.695503133977       0.412214756012      -0.003186051651
     -0.695503133977       0.412214756012       0.003186051651
     -0.695503117584       0.690982997417      -0.003185760676
     -0.695503117584       0.690982997417       0.003185760676
     -0.695503111928       1.000000000000      -0.003185660269
     -0.695503111928       1.000000000000       0.003185660269
     -0.695503117572       1.309016942980      -0.003185760453
     -0.695503117572       1.309016942980       0.003185760453
     -0.695503133944       1.587785243990      -0.003186051063
     -0.695503133944       1.587785243990       0.003186051063
     -0.695503159349       1.809016942980      -0.003186502020
     -0.695503159349       1.809016942980       0.003186502020
     -0.695503190691       1.951056480410      -0.003187058366
     -0.695503190691       1.951056480410       0.003187058366
     -0.695503215270       1.999999954545      -0.003187497188
     -0.695503214727       1.999999962649       0.003187486614
     -0.695503221210       2.001593707019      -0.002760542691
     -0.695503219617       2.001593692879       0.002760518197
     -0.695503221940       2.002760455377      -0.001593795318
     -0.695503221941       2.002760443028       0.001593816705
     -0.695503220707       2.003187644351       0.000000009587
     -0.654508439782       0.000000000000      -0.005445629876
     -0.654508439782       0.000000000000       0.005445629876
     -0.654508427094       0.048943482339      -0.005445398666
     -0.654508427094       0.048943482339       0.005445398666
     -0.654508397456       0.190983012319      -0.005444845506
     -0.654508397456       0.190983012319       0.005444845506
     -0.654508373358       0.412214756012      -0.005444395745
     -0.654508373358       0.412214756012       0.005444395745
     -0.654508357811       0.690982997417      -0.005444105572
     -0.654508357811       0.690982997417       0.005444105572
     -0.654508352443       1.000000000000      -0.005444005373
     -0.654508352443       1.000000000000       0.005444005373
     -0.654508357797       1.309016942980      -0.005444105314
     -0.654508357797       1.309016942980       0.005444105314
     -0.654508373322       1.587785243990      -0.005444395069
     -0.654508373322       1.587785243990       0.005444395069
     -0.654508397363       1.809016942980      -0.005444843773
     -0.654508397363       1.809016942980       0.005444843773
     -0.654508426759       1.951056480410      -0.005445392429
     -0.654508426759       1.951056480410       0.005445392429
     -0.654508449283       1.999999945942      -0.005445816670
     -0.654508448724       1.999999936172       0.005445804115
     -0.654508453147       2.002723033763      -0.004716280340
     -0.654508455672       2.002723054795       0.004716322277
     -0.654508456571       2.004716387558      -0.002722988048
     -0.654508456571       2.004716402391       0.002722962355
     -0.654508453148       2.005445851894      -0.000000013160
     -0.603553382975       0.000000000000      -0.008098734999
     -0.603553382975       0.000000000000       0.008098734999
     -0.603553370208       0.048943482339      -0.008098488610
     -0.603553370208       0.048943482339       0.008098488610
     -0.603553342748       0.190983012319      -0.008097943339
     -0.603553342748       0.190983012319       0.008097943339
     -0.603553320217       0.412214756012      -0.008097495932
     -0.603553320217       0.412214756012       0.008097495932
     -0.603553305649       0.690982997417      -0.008097206655
     -0.603553305649       0.690982997417       0.008097206655
     -0.603553300615       1.000000000000      -0.008097106698
     -0.603553300615       1.000000000000       0.008097106698
     -0.603553305636       1.309016942980      -0.008097206388
     -0.603553305636       1.309016942980       0.008097206388
     -0.603553320182       1.587785243990      -0.008097495237
     -0.603553320182       1.587785243990       0.008097495237
     -0.603553342661       1.809016942980      -0.008097941595
     -0.603553342661       1.809016942980       0.008097941595
     -0.603553369926       1.951056480410      -0.008098483021
     -0.603553369926       1.951056480410       0.008098483021
     -0.603553390329       1.999999937918      -0.008098893499
     -0.603553389862       1.999999936004       0.008098878978
     -0.603553396479       2.004049615965      -0.007013937069
     -0.603553395047       2.004049586377       0.007013924112
     -0.603553394047       2.007013934892      -0.004049468669
     -0.603553395575       2.007013955418       0.004049498252
     -0.603553394537       2.008098919706       0.000000000000
     -0.543892591602       0.000000000000      -0.011001278354
     -0.543892591602       0.000000000000       0.011001278354
     -0.543892579021       0.048943482339      -0.011001018204
     -0.543892579021       0.048943482339       0.011001018204
     -0.543892553853       0.190983012319      -0.011000480018
     -0.543892553853       0.190983012319       0.011000480018
     -0.543892533037       0.412214756012      -0.011000034924
     -0.543892533037       0.412214756012       0.011000034924
     -0.543892519551       0.690982997417      -0.010999746541
     -0.543892519551       0.690982997417       0.010999746541
[...]
POINT_DATA                 545
SCALARS phi float 1
LOOKUP_TABLE default
     -0.000000000000
     -0.000000000001
      0.000000000000
      0.000000000000
     -0.000000000000
     -0.000000000001
      0.000000000000
     -0.000000000002
     -0.000000000003
     -0.000000000001
      0.000000000000
      0.000000000000
      0.000000000000
     -0.000000000000
     -0.000000000000
     -0.000000000000
     -0.000000000000
      0.000000000000
     -0.000000000000
      0.000000000000
      0.000000000000
     -0.000000000000
     -0.000000000001
      0.000000000000
      0.000000000001
      0.000000000000
      0.000000000001
     -0.000000000002
     -0.000000000002
      0.000000000001
      0.000000000001
      0.000000000000
      0.000000000000
      0.000000000000
      0.000000000000
      0.000000000000
      0.000000000000
      0.000000000000
     -0.000000000000
      0.000000000000
      0.000000000000
     -0.000000000000
     -0.000000000000
     -0.000000000000
      0.000000000000
      0.000000000000
     -0.000000000001
     -0.000000000001
      0.000000000001
      0.000000000000
      0.000000000001
      0.000000000001
      0.000000000002
      0.000000000001
      0.000000000002
      0.000000000001
      0.000000000000
     -0.000000000000
     -0.000000000000
      0.000000000000
      0.000000000000
     -0.000000000000
      0.000000000000
      0.000000000000
      0.000000000000
      0.000000000000
     -0.000000000000
     -0.000000000000
     -0.000000000000
      0.000000000000
      0.000000000000
     -0.000000000000
     -0.000000000000
     -0.000000000000
     -0.000000000000
      0.000000000001
      0.000000000001
      0.000000000002
      0.000000000001
      0.000000000003
      0.000000000001
      0.000000000002
      0.000000000001
      0.000000000000
      0.000000000000
      0.000000000000
     -0.000000000000
     -0.000000000000
      0.000000000000
      0.000000000000
      0.000000000000
      0.000000000000
     -0.000000000000
     -0.000000000000
     -0.000000000000
      0.000000000000
     -0.000000000000
     -0.000000000000
     -0.000000000000
      0.000000000000
     -0.000000000000
      0.000000000000
      0.000000000000
      0.000000000001
     -0.000000000001
     -0.000000000001
     -0.000000000000
      0.000000000001
     -0.000000000001
     -0.000000000000
      0.000000000000
      0.000000000000
     -0.000000000000
     -0.000000000000
     -0.000000000000
      0.000000000000
     -0.000000000000
     -0.000000000000
     -0.000000000000
      0.000000000000
     -0.000000000000
      0.000000000000
      0.000000000000
      0.000000000000
      0.000000000000
     -0.000000000000
     -0.000000000000
     -0.000000000000
     -0.000000000000
     -0.000000000002
     -0.000000000000
      0.000000000001
     -0.000000000001
     -0.000000000000
     -0.000000000001
     -0.000000000001
     -0.000000000000
      0.000000000000
     -0.000000000000
     -0.000000000000
     -0.000000000000
      0.000000000000
      0.000000000000
     -0.000000000000
      0.000000000000
      0.000000000000
     -0.000000000000
      0.000000000000
      0.000000000000
      0.000000000000
      0.000000000000
      0.000000000000
     -0.000000000000
     -0.000000000000
      0.000000000000
     -0.000000000001
      0.000000000000
      0.000000000000
      0.000000000002
      0.000000000001
     -0.000000000001
     -0.000000000001
      0.000000000001
      0.000000000000
     -0.000000000000
     -0.000000000000
     -0.000000000000
     -0.000000000000
      0.000000000000
      0.000000000000
     -0.000000000000
      0.000000000000
     -0.000000000000
     -0.000000000001
      0.000000000000
     -0.000000000000
      0.000000000000
     -0.000000000000
     -0.000000000000
     -0.000000000000
      0.000000000000
      0.000000000000
      0.000000000000
      0.000000000000
     -0.000000000000
     -0.000000000000
      0.000000000000
      0.000000000000
      0.000000000001
      0.000000000000
      0.000000000000
      0.000000000000
     -0.000000000000
     -0.000000000000
     -0.000000000000
      0.000000000000
      0.000000000000
     -0.000000000000
     -0.000000000000
     -0.000000000000
     -0.000000000000
      0.000000000000
     -0.000000000000
     -0.000000000000
      0.000000000000
     -0.000000000000
     -0.000000000000
     -0.000000000000
      0.000000000000
      0.000000000001
      0.000000000001
      0.000000000000
     -0.000000000000
     -0.000000000000
      0.000000000000
     -0.000000000000
     -0.000000000000
     -0.000000000001
      0.000000000000
     -0.000000000000
      0.000000000000
      0.000000000000
     -0.000000000000
      0.000000000000
     -0.000000000000
      0.000000000000
     -0.000000000000
     -0.000000000000
      0.000000000000
      0.000000000000
      0.000000000000
      0.000000000000
     -0.000000000000
      0.000000000000
     -0.000000000000
      0.000000000001
      0.000000000000
     -0.000000000000
      0.000000000000
      0.000000000000
      0.000000000000
      0.000000000000
      0.000000000000
      0.000000000000
      0.000000000000
     -0.000000000000
     -0.000000000000
      0.000000000000
      0.000000000000
     -0.000000000000
     -0.000000000000
      0.000000000000
     -0.000000000000
     -0.000000000000
      0.000000000000
     -0.000000000000
     -0.000000000000
     -0.000000000000
      0.000000000000
      0.000000000000
     -0.000000000000
     -0.000000000000
      0.000000000000
     -0.000000000000
      0.000000000000
      0.000000000000
      0.000000000000
     -0.000000000000
     -0.000000000000
     -0.000000000000
     -0.000000000000
     -0.000000000000
      0.000000000000
     -0.000000000000
     -0.000000000000
      0.000000000000
      0.000000000000
      0.000000000000
     -0.000000000000
     -0.000000000000
     -0.000000000000
      0.000000000001
      0.000000000000
      0.000000000000
     -0.000000000000
     -0.000000000000
     -0.000000000000
     -0.000000000000
     -0.000000000000
      0.000000000000
      0.000000000000
     -0.000000000000
      0.000000000000
      0.000000000001
     -0.000000000000
     -0.000000000000
     -0.000000000000
     -0.000000000000
      0.000000000000
     -0.000000000000
     -0.000000000000
      0.000000000000
     -0.000000000000
     -0.000000000000
     -0.000000000000
     -0.000000000000
      0.000000000000
      0.000000000000
      0.000000000001
     -0.000000000000
      0.000000000000
      0.000000000000
     -0.000000000000
     -0.000000000000
     -0.000000000000
     -0.000000000000
      0.000000000000
      0.000000000000
      0.000000000000
      0.000000000000
      0.000000000000
      0.000000000000
      0.000000000000
      0.000000000000
      0.000000000000
      0.000000000000
     -0.000000000000
      0.000000000000
      0.000000000000
      0.000000000000
     -0.000000000000
      0.000000000000
      0.000000000000
     -0.000000000000
     -0.000000000000
      0.000000000000
      0.000000000000
      0.000000000000
      0.000000000000
      0.000000000000
      0.000000000000
     -0.000000000000
      0.000000000000
      0.000000000000
      0.000000000000
      0.000000000000
      0.000000000000
      0.000000000000
     -0.000000000000
      0.000000000000
      0.000000000000
     -0.000000000000
     -0.000000000000
     -0.000000000000
     -0.000000000000
      0.000000000000
      0.000000000000
     -0.000000000000
      0.000000000000
     -0.000000000000
     -0.000000000000
      0.000000000000
      0.000000000000
      0.000000000001
      0.000000000000
      0.000000000000
      0.000000000000
     -0.000000000000
      0.000000000000
      0.000000000000
      0.000000000000
     -0.000000000000
      0.000000000000
      0.000000000000
     -0.000000000001
     -0.000000000000
      0.000000000000
     -0.000000000000
      0.000000000000
      0.000000000000
     -0.000000000000
     -0.000000000000
     -0.000000000000
     -0.000000000000
      0.000000000000
     -0.000000000000
     -0.000000000000
     -0.000000000000
      0.000000000000
     -0.000000000000
     -0.000000000000
     -0.000000000000
      0.000000000000
      0.000000000000
      0.000000000000
     -0.000000000000
     -0.000000000000
     -0.000000000000
     -0.000000000000
     -0.000000000000
      0.000000000000
     -0.000000000000
      0.000000000000
      0.000000000000
     -0.000000000000
      0.000000000000
     -0.000000000000
     -0.000000000000
      0.000000000000
     -0.000000000000
     -0.000000000000
     -0.000000000000
      0.000000000000
     -0.000000000000
     -0.000000000000
     -0.000000000000
      0.000000000000
     -0.000000000000
      0.000000000000
      0.000000000000
     -0.000000000000
      0.000000000000
      0.000000000000
      0.000000000000
      0.000000000000
     -0.000000000000
      0.000000000000
      0.000000000000
     -0.000000000000
     -0.000000000000
      0.000000000000
     -0.000000000000
     -0.000000000000
      0.000000000000
      0.000000000000
      0.000000000000
     -0.000000000000
      0.000000000000
      0.000000000000
     -0.000000000000
     -0.000000000000
      0.000000000000
      0.000000000000
     -0.000000000000
     -0.000000000001
     -0.000000000000
      0.000000000000
     -0.000000000000
      0.000000000000
      0.000000000000
      0.000000000000
      0.000000000000
      0.000000000000
      0.000000000000
      0.000000000000
     -0.000000000000
      0.000000000000
     -0.000000000000
      0.000000000000
     -0.000000000000
      0.000000000000
      0.000000000000
      0.000000000000
      0.000000000000
      0.000000000000
     -0.000000000000
      0.000000000000
      0.000000000000
     -0.000000000000
      0.000000000000
     -0.000000000000
     -0.000000000000
     -0.000000000000
      0.000000000000
      0.000000000000
     -0.000000000000
     -0.000000000000
      0.000000000000
      0.000000000000
      0.000000000000
      0.000000000000
      0.000000000000
      0.000000000000
      0.000000000000
     -0.000000000000
     -0.000000000000
      0.000000000000
      0.000000000000
     -0.000000000000
      0.000000000000
      0.000000000000
      0.000000000000
      0.000000000000
     -0.000000000000
      0.000000000000
      0.000000000000
      0.000000000000
     -0.000000000000
     -0.000000000000
      0.000000000000
      0.000000000000
      0.000000000000
     -0.000000000000
      0.000000000000
     -0.000000000000
      0.000000000000
      0.000000000000
      0.000000000000
     -0.000000000000
      0.000000000000
      0.000000000000
     -0.000000000000
     -0.000000000000
     -0.000000000000
     -0.000000000000
      0.000000000000
     -0.000000000000
     -0.000000000000
      0.000000000000
      0.000000000000
     -0.000000000000
      0.000000000000
      0.000000000000
      0.000000000000
     -0.000000000000
      0.000000000000
     -0.000000000000
     -0.000000000000
      0.000000000000
      0.000000000000
      0.000000000000
      0.000000000000
      0.000000000000
      0.000000000000
     -0.000000000000
      0.000000000000
     -0.000000000001
      0.000000000001
     -0.000000000001
     -0.000000000000
     -0.000000000001
      0.000000000001
      0.000000000002
     -0.000000000002
     -0.000000000001
SCALARS phi_mu float 1
LOOKUP_TABLE default
     -0.011463183601
     -0.011462413802
     -0.011450419832
     -0.011401011402
     -0.011273192002
     -0.011001316916
     -0.010471286438
     -0.009504058758
     -0.007929483448
     -0.005866230112
     -0.004366193853
     -0.011983975165
     -0.011908935886
     -0.011983115954
     -0.011908111869
     -0.011970969242
     -0.011896081832
     -0.011921524269
     -0.011846732807
     -0.011793823965
     -0.011719102287
     -0.011522085433
     -0.011447408723
     -0.010991329259
     -0.010916686849
     -0.010019129115
     -0.009944550625
     -0.008425282956
     -0.008350896917
     -0.006299105535
     -0.006225345641
     -0.004523304913
     -0.004468288919
     -0.004486925417
     -0.004443001981
     -0.004452487138
     -0.004428067555
     -0.004431105223
     -0.012891896567
     -0.012604622980
     -0.012891041173
     -0.012603806360
     -0.012878977323
     -0.012591858050
     -0.012829846655
     -0.012542832573
     -0.012702801168
     -0.012415887365
     -0.012431676859
     -0.012144881702
     -0.011898975804
     -0.011612382130
     -0.010912346906
     -0.010626201676
     -0.009261629126
     -0.008976607321
     -0.006949096635
     -0.006667588132
     -0.004734167794
     -0.004522114300
     -0.004601783884
     -0.004432810332
     -0.004474728524
     -0.004380841335
     -0.004394434056
     -0.013781562246
     -0.013164197000
     -0.013780715743
     -0.013163392534
     -0.013768802924
     -0.013151596691
     -0.013720254516
     -0.013103171182
     -0.013594475312
     -0.012977544099
     -0.013324844894
     -0.012708155460
     -0.012790111121
     -0.012173906755
     -0.011782252321
     -0.011167175975
     -0.010042709684
     -0.009430554762
     -0.007447759786
     -0.006846325704
     -0.004837044096
     -0.004379267666
     -0.004562956848
     -0.004198563655
     -0.004296867649
     -0.004094506552
     -0.004126629063
     -0.014421542538
     -0.013379898507
     -0.014420711175
     -0.013379112251
     -0.014409036175
     -0.013367557684
     -0.014361419063
     -0.013320088574
     -0.014237762395
     -0.013196655686
     -0.013971183006
     -0.012930489523
     -0.013436163936
     -0.012396361565
     -0.012404983097
     -0.011367337737
     -0.010557232451
     -0.009525541485
     -0.007647384051
     -0.006641182873
     -0.004741931597
     -0.003966943609
     -0.004294273101
     -0.003677883943
     -0.003855201928
     -0.003513028521
     -0.003571263748
     -0.014655744170
     -0.013122313038
     -0.014654935673
     -0.013121552579
     -0.014643607427
     -0.013110350012
     -0.014597368185
     -0.013064290268
     -0.014476992174
     -0.012944227382
     -0.014215894019
     -0.012683759330
     -0.013684868623
     -0.012154156653
     -0.012635452636
     -0.011108333095
     -0.010681565468
     -0.009165097305
     -0.007491371876
     -0.006025159267
     -0.004392787494
     -0.003248790221
     -0.003753794817
     -0.002844517614
     -0.003120634066
     -0.002616024716
     -0.002707019945
     -0.014378171770
     -0.012313380405
     -0.014377395350
     -0.012312654783
     -0.014366544485
     -0.012301936334
     -0.014322226550
     -0.012257834443
     -0.014206600238
     -0.012142625009
     -0.013954369694
     -0.011891280753
     -0.013434631417
     -0.011373616466
     -0.012381435821
     -0.010325886905
     -0.010351027337
     -0.008312793563
     -0.006960158929
     -0.005007091857
     -0.003757330863
     -0.002213324409
     -0.002922827545
     -0.001696280094
     -0.002087157423
     -0.001406650757
     -0.001535806447
     -0.013518995201
     -0.010911606436
     -0.013518261191
     -0.010910925731
     -0.013508034517
     -0.010900839257
     -0.013466255679
     -0.010859316231
     -0.013357103135
     -0.010750693831
     -0.013117990570
     -0.010512751988
     -0.012619870658
     -0.010017454577
     -0.011587607446
     -0.008992936609
     -0.009537339257
     -0.006968565995
     -0.006050283982
     -0.003609487013
     -0.002820103450
     -0.000866290642
     -0.001798883982
     -0.000247580781
     -0.000764700243
      0.000095805748
     -0.000075431472
     -0.012036484899
     -0.008904078143
     -0.012035804020
     -0.008903452720
     -0.012026353776
     -0.008894150912
     -0.011987760535
     -0.008855854037
     -0.011886931925
     -0.008755671539
     -0.011665737865
     -0.008535943577
     -0.011201929477
     -0.008075757746
     -0.010224206421
     -0.007108330640
     -0.008231530189
     -0.005151513586
     -0.004766355422
     -0.001861091515
     -0.001577793503
      0.000773953754
     -0.000391397628
      0.001474999784
      0.000825111058
      0.001860191256
      0.001644613141
     -0.009915201683
     -0.006305145052
     -0.009914584021
     -0.006304584531
     -0.009906052950
     -0.006296209849
     -0.009871256013
     -0.006261747611
     -0.009780535202
     -0.006171782863
     -0.009582080367
     -0.005975076790
     -0.009166178270
     -0.005563577960
     -0.008281623316
     -0.004691890908
     -0.006435946723
     -0.002892382108
     -0.003119389568
      0.000203467544
     -0.000037829815
      0.002677453127
      0.001279589952
      0.003433502452
      0.002649833631
      0.003844168135
      0.003583820203
     -0.007170192411
     -0.003160720045
     -0.007169646280
     -0.003160232164
     -0.007162151039
     -0.003152900166
     -0.007131652786
     -0.003122769317
     -0.007052533466
     -0.003044499988
     -0.006880996615
     -0.002874953826
     -0.006525451008
     -0.002524483615
     -0.005771917764
     -0.001786070619
     -0.004165093601
     -0.000234671707
     -0.001129982059
      0.002539610120
      0.001779177349
      0.004800069199
      0.003181003347
      0.005576314138
      0.004664309409
      0.005992265975
      0.005688938199
     -0.003854731405
      0.000444954668
     -0.003854262318
      0.000445365047
     -0.003847878648
      0.000451580531
     -0.003822007808
      0.000477060308
     -0.003755487334
      0.000542662919
     -0.003613765539
      0.000682220978
     -0.003327740414
      0.000962698073
     -0.002735798873
      0.001537947991
     -0.001451998095
      0.002759644097
      0.001165714446
      0.005087017912
      0.003834421807
      0.007079220504
      0.005263179432
      0.007834975104
      0.006807389253
      0.008232993881
      0.007890907322
     -0.000067261814
      0.004384663126
     -0.000066871811
      0.004384994683
     -0.000061624781
      0.004390071192
     -0.000040493276
      0.004410799919
      0.000013065283
      0.004463407163
      0.000123799829
      0.004571896479
      0.000336035259
      0.004778381142
      0.000748800439
      0.005173846826
      0.001644314193
      0.006004475033
      0.003710480984
      0.007765564474
      0.006065811320
      0.009430504546
      0.007455942713
      0.010121808100
      0.008999786397
      0.010477370733
      0.010103592545
      0.004047049236
      0.008489916952
      0.004047361783
      0.008490172079
      0.004051500473
      0.008494140990
      0.004068009356
      0.008510249212
      0.004108914987
      0.008550209613
      0.004189342300
      0.008628414063
      0.004328986503
      0.008762405775
      0.004561250791
      0.008977837826
      0.005034038186
      0.009387582459
      0.006424624762
      0.010476221619
      0.008386180880
      0.011748507605
      0.009669059516
      0.012332266783
      0.011145742747
      0.012621783586
      0.012226277797
      0.008303127571
      0.012561127066
      0.008303367671
      0.012561311588
      0.008306475333
      0.012564253495
      0.008318687535
      0.012576081548
      0.008347858299
      0.012604353693
      0.008400311841
      0.012654710329
      0.008473435073
      0.012722565949
      0.008539724080
      0.012773467957
      0.008596222013
      0.012773190272
      0.009211394807
      0.013108884523
      0.010687300827
      0.013913420630
      0.011797082230
      0.014352014437
      0.013139491278
      0.014555562586
      0.014151209033
      0.012491277364
      0.016385273914
      0.012491452763
      0.016385396495
      0.012493646225
      0.016387431509
      0.012502054830
      0.016395486160
      0.012520883122
      0.016413500009
      0.012548922702
      0.016439660788