# vtk DataFile Version 3.0
MachLine results file. Generated by MachLine, USU AeroLab (c) 2022.
ASCII
DATASET POLYDATA
POINTS                  40 float
  0.400000000000E+01  0.800000000000E+01  0.000000000000E+00
  0.800000000000E+02  0.800000000000E+01  0.000000000000E+00
  0.400000000000E+01  0.757894754410E+01  0.000000000000E+00
  0.800000000000E+02  0.757894754410E+01  0.000000000000E+00
  0.400000000000E+01  0.421052634716E+00  0.000000000000E+00
  0.800000000000E+02  0.421052634716E+00  0.000000000000E+00
  0.400000000000E+01  0.000000000000E+00  0.000000000000E+00
  0.800000000000E+02  0.000000000000E+00  0.000000000000E+00
  0.400000000000E+01  0.252631568909E+01  0.000000000000E+00
  0.800000000000E+02  0.252631568909E+01  0.000000000000E+00
  0.400000000000E+01  0.210526323318E+01  0.000000000000E+00
  0.800000000000E+02  0.210526323318E+01  0.000000000000E+00
  0.400000000000E+01  0.589473676682E+01  0.000000000000E+00
  0.800000000000E+02  0.589473676682E+01  0.000000000000E+00
  0.400000000000E+01  0.547368431091E+01  0.000000000000E+00
  0.800000000000E+02  0.547368431091E+01  0.000000000000E+00
  0.400000000000E+01  0.378947377205E+01  0.000000000000E+00
  0.800000000000E+02  0.378947377205E+01  0.000000000000E+00
  0.400000000000E+01  0.336842107773E+01  0.000000000000E+00
  0.800000000000E+02  0.336842107773E+01  0.000000000000E+00
  0.400000000000E+01  0.715789461136E+01  0.000000000000E+00
  0.800000000000E+02  0.715789461136E+01  0.000000000000E+00
  0.400000000000E+01  0.673684215546E+01  0.000000000000E+00
  0.800000000000E+02  0.673684215546E+01  0.000000000000E+00
  0.400000000000E+01  0.168421053886E+01  0.000000000000E+00
  0.800000000000E+02  0.168421053886E+01  0.000000000000E+00
  0.400000000000E+01  0.126315784454E+01  0.000000000000E+00
  0.800000000000E+02  0.126315784454E+01  0.000000000000E+00
  0.400000000000E+01  0.505263137817E+01  0.000000000000E+00
  0.800000000000E+02  0.505263137817E+01  0.000000000000E+00
  0.400000000000E+01  0.463157892227E+01  0.000000000000E+00
  0.800000000000E+02  0.463157892227E+01  0.000000000000E+00
  0.400000000000E+01  0.294736838341E+01  0.000000000000E+00
  0.800000000000E+02  0.294736838341E+01  0.000000000000E+00
  0.400000000000E+01  0.631578969955E+01  0.000000000000E+00
  0.800000000000E+02  0.631578969955E+01  0.000000000000E+00
  0.400000000000E+01  0.421052646637E+01  0.000000000000E+00
  0.800000000000E+02  0.421052646637E+01  0.000000000000E+00
  0.400000000000E+01  0.842105269432E+00  0.000000000000E+00
  0.800000000000E+02  0.842105269432E+00  0.000000000000E+00
POLYGONS                  38                 152
3                   4                   5                   7
3                   4                   7                   6
3                  38                  39                   5
3                  38                   5                   4
3                  26                  27                  39
3                  26                  39                  38
3                  24                  25                  27
3                  24                  27                  26
3                  10                  11                  25
3                  10                  25                  24
3                   8                   9                  11
3                   8                  11                  10
3                  32                  33                   9
3                  32                   9                   8
3                  18                  19                  33
3                  18                  33                  32
3                  16                  17                  19
3                  16                  19                  18
3                  36                  37                  17
3                  36                  17                  16
3                  30                  31                  37
3                  30                  37                  36
3                  28                  29                  31
3                  28                  31                  30
3                  14                  15                  29
3                  14                  29                  28
3                  12                  13                  15
3                  12                  15                  14
3                  34                  35                  13
3                  34                  13                  12
3                  22                  23                  35
3                  22                  35                  34
3                  20                  21                  23
3                  20                  23                  22
3                   2                   3                  21
3                   2                  21                  20
3                   0                   1                   3
3                   0                   3                   2
CELL_DATA                  38
NORMALS normals float
 -0.000000000000E+00 -0.000000000000E+00 -0.100000000000E+01
 -0.000000000000E+00 -0.000000000000E+00 -0.100000000000E+01
 -0.000000000000E+00 -0.000000000000E+00 -0.100000000000E+01
 -0.000000000000E+00 -0.000000000000E+00 -0.100000000000E+01
 -0.000000000000E+00 -0.000000000000E+00 -0.100000000000E+01
 -0.000000000000E+00 -0.000000000000E+00 -0.100000000000E+01
 -0.000000000000E+00 -0.000000000000E+00 -0.100000000000E+01
 -0.000000000000E+00 -0.000000000000E+00 -0.100000000000E+01
 -0.000000000000E+00 -0.000000000000E+00 -0.100000000000E+01
 -0.000000000000E+00 -0.000000000000E+00 -0.100000000000E+01
 -0.000000000000E+00 -0.000000000000E+00 -0.100000000000E+01
 -0.000000000000E+00 -0.000000000000E+00 -0.100000000000E+01
 -0.000000000000E+00 -0.000000000000E+00 -0.100000000000E+01
 -0.000000000000E+00 -0.000000000000E+00 -0.100000000000E+01
 -0.000000000000E+00 -0.000000000000E+00 -0.100000000000E+01
 -0.000000000000E+00 -0.000000000000E+00 -0.100000000000E+01
 -0.000000000000E+00 -0.000000000000E+00 -0.100000000000E+01
 -0.000000000000E+00 -0.000000000000E+00 -0.100000000000E+01
 -0.000000000000E+00 -0.000000000000E+00 -0.100000000000E+01
 -0.000000000000E+00 -0.000000000000E+00 -0.100000000000E+01
 -0.000000000000E+00 -0.000000000000E+00 -0.100000000000E+01
 -0.000000000000E+00 -0.000000000000E+00 -0.100000000000E+01
 -0.000000000000E+00 -0.000000000000E+00 -0.100000000000E+01
 -0.000000000000E+00 -0.000000000000E+00 -0.100000000000E+01
 -0.000000000000E+00 -0.000000000000E+00 -0.100000000000E+01
 -0.000000000000E+00 -0.000000000000E+00 -0.100000000000E+01
 -0.000000000000E+00 -0.000000000000E+00 -0.100000000000E+01
 -0.000000000000E+00 -0.000000000000E+00 -0.100000000000E+01
 -0.000000000000E+00 -0.000000000000E+00 -0.100000000000E+01
 -0.000000000000E+00 -0.000000000000E+00 -0.100000000000E+01
 -0.000000000000E+00 -0.000000000000E+00 -0.100000000000E+01
 -0.000000000000E+00 -0.000000000000E+00 -0.100000000000E+01
 -0.000000000000E+00 -0.000000000000E+00 -0.100000000000E+01
 -0.000000000000E+00 -0.000000000000E+00 -0.100000000000E+01
 -0.000000000000E+00 -0.000000000000E+00 -0.100000000000E+01
 -0.000000000000E+00 -0.000000000000E+00 -0.100000000000E+01
 -0.000000000000E+00 -0.000000000000E+00 -0.100000000000E+01
 -0.000000000000E+00 -0.000000000000E+00 -0.100000000000E+01
POINT_DATA                  40
SCALARS mu float 1
LOOKUP_TABLE default
  0.000000000000E+00
  0.000000000000E+00
 -0.108420558642E-07
 -0.108420558642E-07
  0.859288897814E-07
  0.859288897814E-07
  0.118874689481E-06
  0.118874689481E-06
  0.164430949412E-07
  0.164430949412E-07
  0.221059900940E-07
  0.221059900940E-07
 -0.242931250671E-07
 -0.242931250671E-07
 -0.281055159146E-07
 -0.281055159146E-07
  0.815913575591E-08
  0.815913575591E-08
  0.184823834570E-07
  0.184823834570E-07
 -0.200209606671E-07
 -0.200209606671E-07
 -0.110155900512E-07
 -0.110155900512E-07
  0.326600441691E-07
  0.326600441691E-07
  0.574718567181E-07
  0.574718567181E-07
 -0.181355674922E-07
 -0.181355674922E-07
  0.884381962107E-08
  0.884381962107E-08
  0.421835591458E-07
  0.421835591458E-07
 -0.310832744543E-07
 -0.310832744543E-07
  0.925705728738E-08
  0.925705728738E-08
  0.370932038418E-07
  0.370932038418E-07
