# vtk DataFile Version 3.0
TriPan results file. Generated by TriPan, USU AeroLab (c) 2021.
ASCII
DATASET POLYDATA
POINTS                  80 float
  0.400000000000E+01  0.000000000000E+00  0.000000000000E+00
  0.957098952882E+02 -0.275129685865E+02  0.917098952882E+01
  0.400000000000E+01  0.421052634716E+00  0.000000000000E+00
  0.958247278249E+02 -0.271263657128E+02  0.918247278249E+01
  0.400000000000E+01  0.842105269432E+00  0.000000000000E+00
  0.959395603617E+02 -0.267397628391E+02  0.919395603617E+01
  0.400000000000E+01  0.126315784454E+01  0.000000000000E+00
  0.960543928822E+02 -0.263531600201E+02  0.920543928822E+01
  0.400000000000E+01  0.168421053886E+01  0.000000000000E+00
  0.961692254352E+02 -0.259665570917E+02  0.921692254352E+01
  0.400000000000E+01  0.210526323318E+01  0.000000000000E+00
  0.962840579882E+02 -0.255799541633E+02  0.922840579882E+01
  0.400000000000E+01  0.252631568909E+01  0.000000000000E+00
  0.963988904761E+02 -0.251933514537E+02  0.923988904761E+01
  0.400000000000E+01  0.294736838341E+01  0.000000000000E+00
  0.965137230291E+02 -0.248067485253E+02  0.925137230291E+01
  0.400000000000E+01  0.336842107773E+01  0.000000000000E+00
  0.966285555821E+02 -0.244201455969E+02  0.926285555821E+01
  0.400000000000E+01  0.378947377205E+01  0.000000000000E+00
  0.967433881351E+02 -0.240335426685E+02  0.927433881351E+01
  0.400000000000E+01  0.421052646637E+01  0.000000000000E+00
  0.968582206881E+02 -0.236469397401E+02  0.928582206881E+01
  0.400000000000E+01  0.463157892227E+01  0.000000000000E+00
  0.969730531761E+02 -0.232603370306E+02  0.929730531761E+01
  0.400000000000E+01  0.505263137817E+01  0.000000000000E+00
  0.970878856641E+02 -0.228737343210E+02  0.930878856641E+01
  0.400000000000E+01  0.547368431091E+01  0.000000000000E+00
  0.972027182821E+02 -0.224871311737E+02  0.932027182821E+01
  0.400000000000E+01  0.589473676682E+01  0.000000000000E+00
  0.973175507701E+02 -0.221005284642E+02  0.933175507701E+01
  0.400000000000E+01  0.631578969955E+01  0.000000000000E+00
  0.974323833881E+02 -0.217139253169E+02  0.934323833881E+01
  0.400000000000E+01  0.673684215546E+01  0.000000000000E+00
  0.975472158760E+02 -0.213273226074E+02  0.935472158760E+01
  0.400000000000E+01  0.715789461136E+01  0.000000000000E+00
  0.976620483640E+02 -0.209407198978E+02  0.936620483640E+01
  0.400000000000E+01  0.757894754410E+01  0.000000000000E+00
  0.977768809820E+02 -0.205541167505E+02  0.937768809820E+01
  0.400000000000E+01  0.800000000000E+01  0.000000000000E+00
  0.978917134700E+02 -0.201675140410E+02  0.938917134700E+01
  0.400000000000E+01 -0.000000000000E+00  0.000000000000E+00
  0.957098952882E+02 -0.275129685865E+02  0.917098952882E+01
  0.400000000000E+01 -0.421052634716E+00  0.000000000000E+00
  0.955950627515E+02 -0.278995714602E+02  0.915950627515E+01
  0.400000000000E+01 -0.842105269432E+00  0.000000000000E+00
  0.954802302147E+02 -0.282861743338E+02  0.914802302147E+01
  0.400000000000E+01 -0.126315784454E+01  0.000000000000E+00
  0.953653976942E+02 -0.286727771528E+02  0.913653976942E+01
  0.400000000000E+01 -0.168421053886E+01  0.000000000000E+00
  0.952505651412E+02 -0.290593800812E+02  0.912505651412E+01
  0.400000000000E+01 -0.210526323318E+01  0.000000000000E+00
  0.951357325882E+02 -0.294459830097E+02  0.911357325882E+01
  0.400000000000E+01 -0.252631568909E+01  0.000000000000E+00
  0.950209001003E+02 -0.298325857192E+02  0.910209001003E+01
  0.400000000000E+01 -0.294736838341E+01  0.000000000000E+00
  0.949060675473E+02 -0.302191886476E+02  0.909060675473E+01
  0.400000000000E+01 -0.336842107773E+01  0.000000000000E+00
  0.947912349943E+02 -0.306057915760E+02  0.907912349943E+01
  0.400000000000E+01 -0.378947377205E+01  0.000000000000E+00
  0.946764024413E+02 -0.309923945044E+02  0.906764024413E+01
  0.400000000000E+01 -0.421052646637E+01  0.000000000000E+00
  0.945615698883E+02 -0.313789974329E+02  0.905615698883E+01
  0.400000000000E+01 -0.463157892227E+01  0.000000000000E+00
  0.944467374003E+02 -0.317656001424E+02  0.904467374003E+01
  0.400000000000E+01 -0.505263137817E+01  0.000000000000E+00
  0.943319049123E+02 -0.321522028519E+02  0.903319049123E+01
  0.400000000000E+01 -0.547368431091E+01  0.000000000000E+00
  0.942170722943E+02 -0.325388059992E+02  0.902170722943E+01
  0.400000000000E+01 -0.589473676682E+01  0.000000000000E+00
  0.941022398063E+02 -0.329254087087E+02  0.901022398063E+01
  0.400000000000E+01 -0.631578969955E+01  0.000000000000E+00
  0.939874071883E+02 -0.333120118560E+02  0.899874071883E+01
  0.400000000000E+01 -0.673684215546E+01  0.000000000000E+00
  0.938725747003E+02 -0.336986145656E+02  0.898725747003E+01
  0.400000000000E+01 -0.715789461136E+01  0.000000000000E+00
  0.937577422124E+02 -0.340852172751E+02  0.897577422124E+01
  0.400000000000E+01 -0.757894754410E+01  0.000000000000E+00
  0.936429095944E+02 -0.344718204224E+02  0.896429095944E+01
  0.400000000000E+01 -0.800000000000E+01  0.000000000000E+00
  0.935280771064E+02 -0.348584231319E+02  0.895280771064E+01
POLYGONS                  76                 304
3                   0                   1                   3
3                   0                   3                   2
3                   2                   3                   5
3                   2                   5                   4
3                   4                   5                   7
3                   4                   7                   6
3                   6                   7                   9
3                   6                   9                   8
3                   8                   9                  11
3                   8                  11                  10
3                  10                  11                  13
3                  10                  13                  12
3                  12                  13                  15
3                  12                  15                  14
3                  14                  15                  17
3                  14                  17                  16
3                  16                  17                  19
3                  16                  19                  18
3                  18                  19                  21
3                  18                  21                  20
3                  20                  21                  23
3                  20                  23                  22
3                  22                  23                  25
3                  22                  25                  24
3                  24                  25                  27
3                  24                  27                  26
3                  26                  27                  29
3                  26                  29                  28
3                  28                  29                  31
3                  28                  31                  30
3                  30                  31                  33
3                  30                  33                  32
3                  32                  33                  35
3                  32                  35                  34
3                  34                  35                  37
3                  34                  37                  36
3                  36                  37                  39
3                  36                  39                  38
3                  43                  41                  40
3                  42                  43                  40
3                  45                  43                  42
3                  44                  45                  42
3                  47                  45                  44
3                  46                  47                  44
3                  49                  47                  46
3                  48                  49                  46
3                  51                  49                  48
3                  50                  51                  48
3                  53                  51                  50
3                  52                  53                  50
3                  55                  53                  52
3                  54                  55                  52
3                  57                  55                  54
3                  56                  57                  54
3                  59                  57                  56
3                  58                  59                  56
3                  61                  59                  58
3                  60                  61                  58
3                  63                  61                  60
3                  62                  63                  60
3                  65                  63                  62
3                  64                  65                  62
3                  67                  65                  64
3                  66                  67                  64
3                  69                  67                  66
3                  68                  69                  66
3                  71                  69                  68
3                  70                  71                  68
3                  73                  71                  70
3                  72                  73                  70
3                  75                  73                  72
3                  74                  75                  72
3                  77                  75                  74
3                  76                  77                  74
3                  79                  77                  76
3                  78                  79                  76
POINT_DATA                  80
SCALARS mu float 1
LOOKUP_TABLE default
 -0.992087893857E-05
 -0.992087893857E-05
 -0.134941002052E-04
 -0.134941002052E-04
 -0.134816289414E-04
 -0.134816289414E-04
 -0.134636360963E-04
 -0.134636360963E-04
 -0.134372137577E-04
 -0.134372137577E-04
 -0.134017070430E-04
 -0.134017070430E-04
 -0.133558247092E-04
 -0.133558247092E-04
 -0.132969459155E-04
 -0.132969459155E-04
 -0.132203451833E-04
 -0.132203451833E-04
 -0.131230338431E-04
 -0.131230338431E-04
 -0.129975510125E-04
 -0.129975510125E-04
 -0.128341309380E-04
 -0.128341309380E-04
 -0.126199854264E-04
 -0.126199854264E-04
 -0.123332198176E-04
 -0.123332198176E-04
 -0.119397762944E-04
 -0.119397762944E-04
 -0.113813916150E-04
 -0.113813916150E-04
 -0.105458103671E-04
 -0.105458103671E-04
 -0.915972102539E-05
 -0.915972102539E-05
 -0.633306037926E-05
 -0.633306037926E-05
  0.000000000000E+00
  0.000000000000E+00
 -0.992087893857E-05
 -0.992087893857E-05
 -0.134940910950E-04
 -0.134940910950E-04
 -0.134817448479E-04
 -0.134817448479E-04
 -0.134637730626E-04
 -0.134637730626E-04
 -0.134376201587E-04
 -0.134376201587E-04
 -0.134020265588E-04
 -0.134020265588E-04
 -0.133564328192E-04
 -0.133564328192E-04
 -0.132974319456E-04
 -0.132974319456E-04
 -0.132209285132E-04
 -0.132209285132E-04
 -0.131236818343E-04
 -0.131236818343E-04
 -0.129985867638E-04
 -0.129985867638E-04
 -0.128354612495E-04
 -0.128354612495E-04
 -0.126214199891E-04
 -0.126214199891E-04
 -0.123351119846E-04
 -0.123351119846E-04
 -0.119428750856E-04
 -0.119428750856E-04
 -0.113854373104E-04
 -0.113854373104E-04
 -0.105519354319E-04
 -0.105519354319E-04
 -0.916984958950E-05
 -0.916984958950E-05
 -0.635893713462E-05
 -0.635893713462E-05
  0.000000000000E+00
  0.000000000000E+00
