# vtk DataFile Version 3.0
MFTran results file. Generated by MFTran, USU AeroLab (c) 2021.
ASCII
DATASET POLYDATA
POINTS                 545 float
     -0.749999986091     -1.999999885702      0.000000000000
     -0.749999497615     -1.951056480410     -0.000000015125
     -0.749998902074     -1.809016942980     -0.000000033054
     -0.749998411270     -1.587785243990     -0.000000047830
     -0.749998073844     -1.309016942980     -0.000000057988
     -0.749997922897     -1.000000000000     -0.000000062533
     -0.749997973220     -0.690982997417     -0.000000061018
     -0.749998219888     -0.412214756012     -0.000000053592
     -0.749998638738     -0.190983012319     -0.000000040982
     -0.749999188700     -0.048943482339     -0.000000024425
     -0.749999616268      0.000000000000     -0.000000011553
     -0.743844147778     -2.000371155592      0.000000000000
     -0.743844146344     -2.000321549663     -0.000185624741
     -0.743844146344     -2.000321549663      0.000185624741
     -0.743844146344     -2.000185680953     -0.000321506803
     -0.743844146344     -2.000185680953      0.000321506803
     -0.743844137544     -1.999999969314     -0.000371094521
     -0.743844137544     -1.999999969314      0.000371094521
     -0.743844110678     -1.951056480410     -0.000370645638
     -0.743844110678     -1.951056480410      0.000370645638
     -0.743844076587     -1.809016942980     -0.000370076020
     -0.743844076587     -1.809016942980      0.000370076020
     -0.743844049402     -1.587785243990     -0.000369621800
     -0.743844049402     -1.587785243990      0.000369621800
     -0.743844031936     -1.309016942980     -0.000369329977
     -0.743844031936     -1.309016942980      0.000369329977
     -0.743844025918     -1.000000000000     -0.000369229426
     -0.743844025918     -1.000000000000      0.000369229426
     -0.743844031942     -0.690982997417     -0.000369330064
     -0.743844031942     -0.690982997417      0.000369330064
     -0.743844049416     -0.412214756012     -0.000369622031
     -0.743844049416     -0.412214756012      0.000369622031
     -0.743844076624     -0.190983012319     -0.000370076640
     -0.743844076624     -0.190983012319      0.000370076640
     -0.743844110867     -0.048943482339     -0.000370648787
     -0.743844110867     -0.048943482339      0.000370648787
     -0.743844128959      0.000000000000     -0.000370950089
     -0.743844128959      0.000000000000      0.000370950089
     -0.725528231731     -2.001458739143     -0.000000000000
     -0.725528229521     -2.001263224989     -0.000729352879
     -0.725528229521     -2.001263224989      0.000729352879
     -0.725528232218     -2.000729499093     -0.001263323695
     -0.725528230669     -2.000729491936      0.001263296766
     -0.725528222791     -1.999999960802     -0.001458603243
     -0.725528222685     -1.999999968658      0.001458602349
     -0.725528197384     -1.951056480410     -0.001458168780
     -0.725528197384     -1.951056480410      0.001458168780
     -0.725528164418     -1.809016942980     -0.001457605071
     -0.725528164418     -1.809016942980      0.001457605071
     -0.725528137934     -1.587785243990     -0.001457152200
     -0.725528137934     -1.587785243990      0.001457152200
     -0.725528120897     -1.309016942980     -0.001456860874
     -0.725528120897     -1.309016942980      0.001456860874
     -0.725528115025     -1.000000000000     -0.001456760479
     -0.725528115025     -1.000000000000      0.001456760479
     -0.725528120906     -0.690982997417     -0.001456861038
     -0.725528120906     -0.690982997417      0.001456861038
     -0.725528137959     -0.412214756012     -0.001457152634
     -0.725528137959     -0.412214756012      0.001457152634
     -0.725528164485     -0.190983012319     -0.001457606225
     -0.725528164485     -0.190983012319      0.001457606225
     -0.725528197696     -0.048943482339     -0.001458174116
     -0.725528197696     -0.048943482339      0.001458174116
     -0.725528214918      0.000000000000     -0.001458466382
     -0.725528214918      0.000000000000      0.001458466382
     -0.695503220707     -2.003187644351     -0.000000009587
     -0.695503221941     -2.002760443028     -0.001593816705
     -0.695503221940     -2.002760455377      0.001593795318
     -0.695503219617     -2.001593692879     -0.002760518197
     -0.695503221210     -2.001593707019      0.002760542691
     -0.695503214727     -1.999999962649     -0.003187486614
     -0.695503215270     -1.999999954545      0.003187497188
     -0.695503190691     -1.951056480410     -0.003187058366
     -0.695503190691     -1.951056480410      0.003187058366
     -0.695503159349     -1.809016942980     -0.003186502020
     -0.695503159349     -1.809016942980      0.003186502020
     -0.695503133944     -1.587785243990     -0.003186051063
     -0.695503133944     -1.587785243990      0.003186051063
     -0.695503117572     -1.309016942980     -0.003185760453
     -0.695503117572     -1.309016942980      0.003185760453
     -0.695503111928     -1.000000000000     -0.003185660269
     -0.695503111928     -1.000000000000      0.003185660269
     -0.695503117584     -0.690982997417     -0.003185760676
     -0.695503117584     -0.690982997417      0.003185760676
     -0.695503133977     -0.412214756012     -0.003186051651
     -0.695503133977     -0.412214756012      0.003186051651
     -0.695503159435     -0.190983012319     -0.003186503556
     -0.695503159435     -0.190983012319      0.003186503556
     -0.695503191045     -0.048943482339     -0.003187064644
     -0.695503191045     -0.048943482339      0.003187064644
     -0.695503207245      0.000000000000     -0.003187348562
     -0.695503207245      0.000000000000      0.003187348562
     -0.654508453148     -2.005445851894      0.000000013160
     -0.654508456571     -2.004716402391     -0.002722962355
     -0.654508456571     -2.004716387558      0.002722988048
     -0.654508455672     -2.002723054795     -0.004716322277
     -0.654508453147     -2.002723033763      0.004716280340
     -0.654508448724     -1.999999936172     -0.005445804115
     -0.654508449283     -1.999999945942      0.005445816670
     -0.654508426759     -1.951056480410     -0.005445392429
     -0.654508426759     -1.951056480410      0.005445392429
     -0.654508397363     -1.809016942980     -0.005444843773
     -0.654508397363     -1.809016942980      0.005444843773
     -0.654508373322     -1.587785243990     -0.005444395069
     -0.654508373322     -1.587785243990      0.005444395069
     -0.654508357797     -1.309016942980     -0.005444105314
     -0.654508357797     -1.309016942980      0.005444105314
     -0.654508352443     -1.000000000000     -0.005444005373
     -0.654508352443     -1.000000000000      0.005444005373
     -0.654508357811     -0.690982997417     -0.005444105572
     -0.654508357811     -0.690982997417      0.005444105572
     -0.654508373358     -0.412214756012     -0.005444395745
     -0.654508373358     -0.412214756012      0.005444395745
     -0.654508397456     -0.190983012319     -0.005444845506
     -0.654508397456     -0.190983012319      0.005444845506
     -0.654508427094     -0.048943482339     -0.005445398666
     -0.654508427094     -0.048943482339      0.005445398666
     -0.654508442217      0.000000000000     -0.005445675754
     -0.654508442217      0.000000000000      0.005445675754
     -0.603553394537     -2.008098919706      0.000000000000
     -0.603553395575     -2.007013955418     -0.004049498252
     -0.603553394047     -2.007013934892      0.004049468669
     -0.603553395047     -2.004049586377     -0.007013924112
     -0.603553396479     -2.004049615965      0.007013937069
     -0.603553389862     -1.999999936004     -0.008098878978
     -0.603553390329     -1.999999937918      0.008098893499
     -0.603553369926     -1.951056480410     -0.008098483021
     -0.603553369926     -1.951056480410      0.008098483021
     -0.603553342661     -1.809016942980     -0.008097941595
     -0.603553342661     -1.809016942980      0.008097941595
     -0.603553320182     -1.587785243990     -0.008097495237
     -0.603553320182     -1.587785243990      0.008097495237
     -0.603553305636     -1.309016942980     -0.008097206388
     -0.603553305636     -1.309016942980      0.008097206388
     -0.603553300615     -1.000000000000     -0.008097106698
     -0.603553300615     -1.000000000000      0.008097106698
     -0.603553305649     -0.690982997417     -0.008097206655
     -0.603553305649     -0.690982997417      0.008097206655
     -0.603553320217     -0.412214756012     -0.008097495932
     -0.603553320217     -0.412214756012      0.008097495932
     -0.603553342748     -0.190983012319     -0.008097943339
     -0.603553342748     -0.190983012319      0.008097943339
     -0.603553370208     -0.048943482339     -0.008098488610
     -0.603553370208     -0.048943482339      0.008098488610
     -0.603553384252      0.000000000000     -0.008098760651
     -0.603553384252      0.000000000000      0.008098760651
     -0.543892602989     -2.011001415641     -0.000000021955
     -0.543892599075     -2.009527497256     -0.005500723510
     -0.543892601339     -2.009527539186      0.005500747714
     -0.543892603371     -2.005500852697     -0.009527604378
     -0.543892603371     -2.005500816031      0.009527625547
     -0.543892596836     -1.999999929190     -0.011001399267
     -0.543892596388     -1.999999917893      0.011001392758
     -0.543892578805     -1.951056480410     -0.011001013582
     -0.543892578805     -1.951056480410      0.011001013582
     -0.543892553778     -1.809016942980     -0.011000478429
     -0.543892553778     -1.809016942980      0.011000478429
     -0.543892533007     -1.587785243990     -0.011000034277
     -0.543892533007     -1.587785243990      0.011000034277
     -0.543892519539     -1.309016942980     -0.010999746291
     -0.543892519539     -1.309016942980      0.010999746291
[...]
POINT_DATA                 545
SCALARS phi float 1
LOOKUP_TABLE default
      0.000000000000
      0.000000000000
      0.000000000000
      0.000000000000
     -0.000000000000
     -0.000000000000
     -0.000000000000
      0.000000000000
     -0.000000000000
      0.000000000000
      0.000000000000
      0.000000000000
     -0.000000000000
     -0.000000000000
     -0.000000000000
     -0.000000000000
      0.000000000000
     -0.000000000000
      0.000000000000
     -0.000000000000
      0.000000000000
      0.000000000000
     -0.000000000000
     -0.000000000000
     -0.000000000000
     -0.000000000000
      0.000000000000
      0.000000000000
      0.000000000000
      0.000000000000
      0.000000000000
      0.000000000000
      0.000000000000
      0.000000000000
     -0.000000000000
     -0.000000000000
      0.000000000000
      0.000000000000
      0.000000000000
      0.000000000000
     -0.000000000000
      0.000000000000
      0.000000000000
     -0.000000000000
     -0.000000000000
      0.000000000000
     -0.000000000000
      0.000000000000
      0.000000000000
      0.000000000000
      0.000000000000
      0.000000000000
     -0.000000000000
     -0.000000000000
     -0.000000000000
     -0.000000000000
     -0.000000000000
      0.000000000000
     -0.000000000000
     -0.000000000000
     -0.000000000000
      0.000000000000
     -0.000000000000
      0.000000000000
     -0.000000000000
      0.000000000000
      0.000000000000
     -0.000000000000
     -0.000000000000
      0.000000000000
     -0.000000000000
      0.000000000000
      0.000000000000
      0.000000000000
      0.000000000000
      0.000000000000
      0.000000000000
      0.000000000000
      0.000000000000
      0.000000000000
      0.000000000000
      0.000000000000
      0.000000000000
      0.000000000000
      0.000000000000
      0.000000000000
      0.000000000000
      0.000000000000
      0.000000000000
     -0.000000000000
      0.000000000000
     -0.000000000000
     -0.000000000000
      0.000000000000
     -0.000000000000
      0.000000000000
     -0.000000000000
     -0.000000000000
     -0.000000000000
      0.000000000000
      0.000000000000
     -0.000000000000
      0.000000000000
     -0.000000000000
     -0.000000000000
      0.000000000000
      0.000000000000
      0.000000000000
      0.000000000000
     -0.000000000000
     -0.000000000000
      0.000000000000
      0.000000000000
      0.000000000000
      0.000000000000
     -0.000000000000
     -0.000000000000
      0.000000000000
      0.000000000000
      0.000000000000
     -0.000000000000
      0.000000000000
      0.000000000000
      0.000000000000
     -0.000000000000
     -0.000000000000
     -0.000000000000
      0.000000000000
      0.000000000000
     -0.000000000000
      0.000000000000
     -0.000000000000
     -0.000000000000
     -0.000000000000
      0.000000000000
      0.000000000000
      0.000000000000
      0.000000000000
      0.000000000000
      0.000000000000
      0.000000000000
      0.000000000000
      0.000000000000
      0.000000000000
      0.000000000000
      0.000000000000
     -0.000000000000
     -0.000000000000
      0.000000000000
      0.000000000000
      0.000000000000
      0.000000000000
      0.000000000000
      0.000000000000
     -0.000000000000
     -0.000000000000
      0.000000000000
     -0.000000000000
     -0.000000000000
     -0.000000000000
     -0.000000000000
     -0.000000000000
     -0.000000000000
      0.000000000000
     -0.000000000000
      0.000000000000
      0.000000000000
     -0.000000000000
      0.000000000000
      0.000000000000
     -0.000000000000
     -0.000000000000
      0.000000000000
     -0.000000000000
      0.000000000000
      0.000000000000
      0.000000000000
      0.000000000000
     -0.000000000000
      0.000000000000
      0.000000000000
      0.000000000000
      0.000000000000
     -0.000000000000
     -0.000000000000
     -0.000000000000
      0.000000000000
     -0.000000000000
     -0.000000000000
     -0.000000000000
     -0.000000000000
      0.000000000000
      0.000000000000
      0.000000000000
      0.000000000000
      0.000000000000
      0.000000000000
      0.000000000000
     -0.000000000000
     -0.000000000000
      0.000000000000
     -0.000000000000
      0.000000000000
     -0.000000000000
      0.000000000000
     -0.000000000000
     -0.000000000000
      0.000000000000
     -0.000000000000
      0.000000000000
     -0.000000000000
     -0.000000000000
     -0.000000000000
      0.000000000000
     -0.000000000000
      0.000000000000
     -0.000000000000
     -0.000000000000
     -0.000000000000
      0.000000000000
     -0.000000000000
     -0.000000000000
      0.000000000000
      0.000000000000
     -0.000000000000
      0.000000000000
      0.000000000000
     -0.000000000000
      0.000000000000
     -0.000000000000
      0.000000000000
     -0.000000000000
      0.000000000000
     -0.000000000000
      0.000000000000
      0.000000000000
      0.000000000000
      0.000000000000
     -0.000000000000
      0.000000000000
     -0.000000000000
     -0.000000000000
      0.000000000000
     -0.000000000000
      0.000000000000
     -0.000000000000
     -0.000000000000
     -0.000000000000
      0.000000000000
     -0.000000000000
      0.000000000000
     -0.000000000000
     -0.000000000000
      0.000000000000
      0.000000000000
      0.000000000000
      0.000000000000
      0.000000000000
     -0.000000000000
     -0.000000000000
     -0.000000000000
      0.000000000000
      0.000000000000
      0.000000000000
     -0.000000000000
     -0.000000000000
      0.000000000000
     -0.000000000000
      0.000000000000
     -0.000000000000
     -0.000000000000
     -0.000000000000
     -0.000000000000
      0.000000000000
     -0.000000000000
      0.000000000000
      0.000000000000
      0.000000000000
      0.000000000000
      0.000000000000
      0.000000000000
      0.000000000000
     -0.000000000000
      0.000000000000
      0.000000000000
      0.000000000000
     -0.000000000000
      0.000000000000
      0.000000000000
      0.000000000000
     -0.000000000000
     -0.000000000000
     -0.000000000000
     -0.000000000000
     -0.000000000000
      0.000000000000
      0.000000000000
      0.000000000000
     -0.000000000000
     -0.000000000000
      0.000000000000
      0.000000000000
      0.000000000000
     -0.000000000000
      0.000000000000
      0.000000000000
      0.000000000000
      0.000000000000
     -0.000000000000
     -0.000000000000
     -0.000000000000
      0.000000000000
     -0.000000000000
     -0.000000000000
     -0.000000000000
     -0.000000000000
      0.000000000000
      0.000000000000
     -0.000000000000
     -0.000000000000
      0.000000000000
     -0.000000000000
      0.000000000000
      0.000000000000
     -0.000000000000
     -0.000000000000
     -0.000000000000
     -0.000000000000
     -0.000000000000
      0.000000000000
     -0.000000000000
      0.000000000000
     -0.000000000000
     -0.000000000000
      0.000000000000
     -0.000000000000
     -0.000000000000
     -0.000000000000
     -0.000000000000
     -0.000000000000
     -0.000000000000
     -0.000000000000
     -0.000000000000
     -0.000000000000
      0.000000000000
     -0.000000000000
      0.000000000000
      0.000000000000
     -0.000000000000
     -0.000000000000
      0.000000000000
     -0.000000000000
     -0.000000000000
      0.000000000000
     -0.000000000000
     -0.000000000000
     -0.000000000000
     -0.000000000000
      0.000000000000
      0.000000000000
     -0.000000000000
      0.000000000000
     -0.000000000000
     -0.000000000000
     -0.000000000000
      0.000000000000
      0.000000000000
      0.000000000000
     -0.000000000000
      0.000000000000
      0.000000000000
      0.000000000000
     -0.000000000000
      0.000000000000
      0.000000000000
     -0.000000000000
     -0.000000000000
      0.000000000000
     -0.000000000000
      0.000000000000
     -0.000000000000
     -0.000000000000
      0.000000000000
     -0.000000000000
     -0.000000000000
     -0.000000000000
      0.000000000000
     -0.000000000000
     -0.000000000000
     -0.000000000000
      0.000000000000
     -0.000000000000
     -0.000000000000
     -0.000000000000
      0.000000000000
     -0.000000000000
      0.000000000000
      0.000000000000
     -0.000000000000
     -0.000000000000
      0.000000000000
      0.000000000000
     -0.000000000000
     -0.000000000000
      0.000000000000
      0.000000000000
      0.000000000000
     -0.000000000000
      0.000000000000
     -0.000000000000
      0.000000000000
      0.000000000000
     -0.000000000000
     -0.000000000000
      0.000000000000
      0.000000000000
     -0.000000000000
     -0.000000000000
      0.000000000000
      0.000000000000
     -0.000000000000
      0.000000000000
      0.000000000000
     -0.000000000000
      0.000000000000
     -0.000000000000
      0.000000000000
     -0.000000000000
      0.000000000000
      0.000000000000
     -0.000000000000
      0.000000000000
      0.000000000000
     -0.000000000000
     -0.000000000000
     -0.000000000000
      0.000000000000
     -0.000000000000
     -0.000000000000
     -0.000000000000
      0.000000000000
      0.000000000000
      0.000000000000
      0.000000000000
      0.000000000000
      0.000000000000
     -0.000000000000
      0.000000000000
     -0.000000000000
     -0.000000000000
      0.000000000000
     -0.000000000000
      0.000000000000
      0.000000000000
      0.000000000000
      0.000000000000
      0.000000000000
      0.000000000000
     -0.000000000000
      0.000000000000
     -0.000000000000
     -0.000000000000
      0.000000000000
      0.000000000000
      0.000000000000
     -0.000000000000
     -0.000000000000
     -0.000000000000
      0.000000000000
      0.000000000000
     -0.000000000000
      0.000000000000
     -0.000000000000
      0.000000000000
      0.000000000000
     -0.000000000000
     -0.000000000000
      0.000000000000
     -0.000000000000
      0.000000000000
      0.000000000000
     -0.000000000000
     -0.000000000000
      0.000000000000
      0.000000000000
      0.000000000000
      0.000000000000
      0.000000000000
     -0.000000000000
     -0.000000000000
      0.000000000000
      0.000000000000
      0.000000000000
      0.000000000000
      0.000000000000
      0.000000000000
      0.000000000000
     -0.000000000000
     -0.000000000000
     -0.000000000000
     -0.000000000000
      0.000000000000
      0.000000000000
     -0.000000000000
     -0.000000000000
      0.000000000000
      0.000000000000
      0.000000000000
      0.000000000000
     -0.000000000000
     -0.000000000000
      0.000000000000
      0.000000000000
     -0.000000000000
      0.000000000000
      0.000000000000
      0.000000000000
      0.000000000000
      0.000000000000
      0.000000000000
      0.000000000000
     -0.000000000000
      0.000000000000
      0.000000000000
      0.000000000000
      0.000000000000
     -0.000000000000
     -0.000000000000
     -0.000000000000
      0.000000000000
     -0.000000000000
     -0.000000000000
     -0.000000000000
     -0.000000000000
      0.000000000000
      0.000000000000
     -0.000000000000
     -0.000000000000
     -0.000000000000
      0.000000000000
      0.000000000000
     -0.000000000000
      0.000000000000
     -0.000000000000
     -0.000000000000
SCALARS phi_mu float 1
LOOKUP_TABLE default
     -0.004746062673
     -0.006250675181
     -0.008327848030
     -0.009926200763
     -0.010927687770
     -0.011502693977
     -0.011829139714
     -0.012017156580
     -0.012124134898
     -0.012178888890
     -0.012195600682
     -0.004811020862
     -0.004832407363
     -0.004807987780
     -0.004866858202
     -0.004822934766
     -0.004903254868
     -0.004848238874
     -0.006683634692
     -0.006609874797
     -0.008823741021
     -0.008749354982
     -0.010441382219
     -0.010366803729
     -0.011447870726
     -0.011373228316
     -0.012023647784
     -0.011948971074
     -0.012350023425
     -0.012275301747
     -0.012538010744
     -0.012463219282
     -0.012645128621
     -0.012570241212
     -0.012700123698
     -0.012625119613
     -0.012716998827
     -0.012641933746
     -0.004774485573
     -0.004854798038
     -0.004760911039
     -0.004981905012
     -0.004812928588
     -0.005114355824
     -0.004902299733
     -0.007333870994
     -0.007052362492
     -0.009660359849
     -0.009375338042
     -0.011334924120
     -0.011048778890
     -0.012355926213
     -0.012069332539
     -0.012933780133
     -0.012646984974
     -0.013259735901
     -0.012972822098
     -0.013447330477
     -0.013160316394
     -0.013554435759
     -0.013267316487
     -0.013609606849
     -0.013322372036
     -0.013626579628
     -0.013339287076
     -0.004506894434
     -0.004677175420
     -0.004474808971
     -0.004943367196
     -0.004578974414
     -0.005217600000
     -0.004759827871
     -0.007832919815
     -0.007231485735
     -0.010441869327
     -0.009829714405
     -0.012205339564
     -0.011590263216
     -0.013247705365
     -0.012631500998
     -0.013827800370
     -0.013211110936
     -0.014152569491
     -0.013535638278
     -0.014339312754
     -0.013722229420
     -0.014446314368
     -0.013829108135
     -0.014501745733
     -0.013884422523
     -0.014518873367
     -0.013901494720
     -0.003951788856
     -0.004235790944
     -0.003893624812
     -0.004675056013
     -0.004058664114
     -0.005122967695
     -0.004347976548
     -0.008033037707
     -0.007026836530
     -0.010956941210
     -0.009925250244
     -0.012828723577
     -0.011791078217
     -0.013894583349
     -0.012854780979
     -0.014475231752
     -0.013434538269
     -0.014797345885
     -0.013756239176
     -0.014982502730
     -0.013941172241
     -0.015089192915
     -0.014047714424
     -0.015144920391
     -0.014103321467
     -0.015162246941
     -0.014120594167
     -0.003087838856
     -0.003501558588
     -0.002996943310
     -0.004134997597
     -0.003225710273
     -0.004774361723
     -0.003630364959
     -0.007877585479
     -0.006411372872
     -0.011081897305
     -0.009565429143
     -0.013059934730
     -0.011532815188
     -0.014144225605
     -0.012613513633
     -0.014721186375
     -0.013189051688
     -0.015038272366
     -0.013505507574
     -0.015220763591
     -0.013687685674
     -0.015326789187
     -0.013793531772
     -0.015382785991
     -0.013849402896
     -0.015400337780
     -0.013866901813
     -0.001916915044
     -0.002468397114
     -0.001787892748
     -0.003304430244
     -0.002077906273
     -0.004139462754
     -0.002595460065
     -0.007346951690
     -0.005393884620
     -0.010752003838
     -0.008713770064
     -0.012806685657
     -0.010751136741
     -0.013894959854
     -0.011833944902
     -0.014460952230
     -0.012397863289
     -0.014769643600
     -0.012705668370
     -0.014948029111
     -0.012883637005
     -0.015052882747
     -0.012988274596
     -0.015109051361
     -0.013044310794
     -0.015126833429
     -0.013062040451
     -0.000456774134
     -0.001146227233
     -0.000285715829
     -0.002180894257
     -0.000629582627
     -0.003202767482
     -0.001248955067
     -0.006437626803
     -0.003996829845
     -0.009938928230
     -0.007370154968
     -0.012013587109
     -0.009418916273
     -0.013081123381
     -0.010478707302
     -0.013625802187
     -0.011020563605
     -0.013921828988
     -0.011315419684
     -0.014094359928
     -0.011487420479
     -0.014197397399
     -0.011590202139
     -0.014253570049
     -0.011646234590
     -0.014271564342
     -0.011664176520
      0.001263086482
      0.000443380706
      0.001478447921
     -0.000773714575
      0.001092675009
     -0.001960916936
      0.000390830554
     -0.005154174292
     -0.002248910380
     -0.008633649370
     -0.005553632766
     -0.010650818216
     -0.007534942435
     -0.011663983417
     -0.008537811686
     -0.012174616148
     -0.009044821861
     -0.012453120212
     -0.009321859826
     -0.012617869229
     -0.009485962731
     -0.012718355924
     -0.009586153060
     -0.012774305393
     -0.009641954093
     -0.012792471374
     -0.009660067448
      0.003202202241
      0.002267968380
      0.003462302897
      0.000897046768
      0.003050959289
     -0.000421304977
      0.002293977987
     -0.003507573303
     -0.000184716179
     -0.006838472385
     -0.003294907769
     -0.008708719948
     -0.005118987539
     -0.009628847158
     -0.006026246848
     -0.010091778149
     -0.006484774572
     -0.010347848557
     -0.006739096217
     -0.010502909292
     -0.006893400889
     -0.010600092396
     -0.006990249294
     -0.010655553185
     -0.007045553694
     -0.010673831285
     -0.007063778699
      0.005307323097
      0.004282406309
      0.005610379847
      0.002798345405
      0.005193666660
      0.001395481842
      0.004416374693
     -0.001518393823
      0.002151198417
     -0.004567873327
     -0.000637451432
     -0.006199317543
     -0.002213470398
     -0.006988504613
     -0.002987537220
     -0.007391207504
     -0.003385164714
     -0.007620552038
     -0.003612518560
     -0.007764275594
     -0.003755392125
     -0.007857471197
     -0.003848220325
     -0.007912168656
     -0.003902754541
     -0.007930486490
     -0.003921018701
      0.007509376769
      0.006425572190
      0.007851162004
      0.004880544737
      0.007452327381
      0.003450650550
      0.006695448452
      0.000777223232
      0.004698526665
     -0.001854866422
      0.002356775769
     -0.003163304417
      0.001110442446
     -0.003790928340
      0.000499510148
     -0.004124155772
      0.000171830744
     -0.004323752792
     -0.000025602539
     -0.004454970736
     -0.000155902620
     -0.004543649130
     -0.000244189950
     -0.004597331884
     -0.000297704519
     -0.004615612491
     -0.000315930856
      0.009722230586
      0.008618108413
      0.010095698781
      0.007073410108
      0.009739275801
      0.005682102904
      0.009046796223
      0.003322055384
      0.007377138867
      0.001241518976
      0.005601679816
      0.000321382086
      0.004746428473
     -0.000127042110
      0.004315303773
     -0.000386443163
      0.004061653487
     -0.000554998239
      0.003895343641
     -0.000673179400
      0.003778113796
     -0.000757030849
      0.003694665124
     -0.000809500705
      0.003642365790
     -0.000827671551
      0.003624249754
      0.011845104317
      0.010764257087
      0.012240297931
      0.009286717051
      0.011949924324
      0.008002658598
      0.011364985329
      0.006036392138
      0.010087988995
      0.004631457972
      0.008985002245
      0.004134088905
      0.008550675940
      0.003866234455
      0.008299653727
      0.003679532867
      0.008118604630
      0.003541446679
      0.007982741306
      0.003436140298
      0.007878380154
      0.003357171877
      0.007799812394
      0.003306037742
      0.007748848039
      0.003288036507
      0.007730902032
      0.013770227869
      0.012758209488
      0.014174280796
      0.011414975527
      0.013969907734
      0.010304058580
      0.013530178383
      0.008823452578
      0.012720942294
      0.008193965301
      0.012370933560
      0.008112948019
      0.012346691897
      0.008011172303
      0.012260303179
      0.007891154245
      0.012145552733
      0.007781284479
      0.012037779874
      0.007688045751
      0.011945439764
      0.007613764381
      0.011871542542
      0.007564001946
      0.011821945864
      0.007546211260
      0.011804210622
      0.015394897876
      0.014495960664
      0.015792408399
      0.013348889194
      0.015687680691
      0.012467445976
      0.015420545508
      0.011582116809
      0.015169071673
      0.011779950337
      0.015605534672
      0.012065206800