# vtk DataFile Version 3.0
MFTran results file. Generated by MFTran, USU AeroLab (c) 2021.
ASCII
DATASET POLYDATA
POINTS                  80 float
      4.000000000000      0.421052634716      0.000000000000
     95.824727824936    -27.126365712765      9.182472782494
      4.000000000000      0.000000000000      0.000000000000
     95.709895288196    -27.512968586459      9.170989528820
      4.000000000000      0.842105269432      0.000000000000
     95.939560361677    -26.739762839071      9.193956036168
      4.000000000000      1.263157844540      0.000000000000
     96.054392882161    -26.353160020108      9.205439288216
      4.000000000000      1.684210538860      0.000000000000
     96.169225435157    -25.966557091687      9.216922543516
      4.000000000000      2.105263233180      0.000000000000
     96.284057988154    -25.579954163266      9.228405798815
      4.000000000000      2.526315689090      0.000000000000
     96.398890476129    -25.193351453749      9.239889047613
      4.000000000000      2.947368383410      0.000000000000
     96.513723029126    -24.806748525328      9.251372302913
      4.000000000000      3.368421077730      0.000000000000
     96.628555582122    -24.420145596907      9.262855558212
      4.000000000000      3.789473772050      0.000000000000
     96.743388135118    -24.033542668485      9.274338813512
      4.000000000000      4.210526466370      0.000000000000
     96.858220688115    -23.646939740064      9.285822068811
      4.000000000000      4.631578922270      0.000000000000
     96.973053176087    -23.260337030556      9.297305317609
      4.000000000000      5.052631378170      0.000000000000
     97.087885664060    -22.873734321048      9.308788566406
      4.000000000000      5.473684310910      0.000000000000
     97.202718282080    -22.487131173714      9.320271828208
      4.000000000000      5.894736766820      0.000000000000
     97.317550770056    -22.100528464197      9.331755077006
      4.000000000000      6.315789699550      0.000000000000
     97.432383388073    -21.713925316872      9.343238338807
      4.000000000000      6.736842155460      0.000000000000
     97.547215876048    -21.327322607354      9.354721587605
      4.000000000000      7.157894611360      0.000000000000
     97.662048364021    -20.940719897846      9.366204836402
      4.000000000000      7.578947544100      0.000000000000
     97.776880982041    -20.554116750512      9.377688098204
      4.000000000000      8.000000000000      0.000000000000
     97.891713470014    -20.167514041004      9.389171347001
      4.000000000000     -0.421052634716      0.000000000000
     95.595062751455    -27.899571460152      9.159506275145
      4.000000000000     -0.000000000000      0.000000000000
     95.709895288196    -27.512968586459      9.170989528820
      4.000000000000     -0.842105269432      0.000000000000
     95.480230214714    -28.286174333846      9.148023021471
      4.000000000000     -1.263157844540      0.000000000000
     95.365397694230    -28.672777152809      9.136539769423
      4.000000000000     -1.684210538860      0.000000000000
     95.250565141234    -29.059380081230      9.125056514123
      4.000000000000     -2.105263233180      0.000000000000
     95.135732588237    -29.445983009651      9.113573258824
      4.000000000000     -2.526315689090      0.000000000000
     95.020900100262    -29.832585719169      9.102090010026
      4.000000000000     -2.947368383410      0.000000000000
     94.906067547266    -30.219188647590      9.090606754727
      4.000000000000     -3.368421077730      0.000000000000
     94.791234994269    -30.605791576011      9.079123499427
      4.000000000000     -3.789473772050      0.000000000000
     94.676402441273    -30.992394504432      9.067640244127
      4.000000000000     -4.210526466370      0.000000000000
     94.561569888277    -31.378997432853      9.056156988828
      4.000000000000     -4.631578922270      0.000000000000
     94.446737400304    -31.765600142361      9.044673740030
      4.000000000000     -5.052631378170      0.000000000000
     94.331904912331    -32.152202851869      9.033190491233
      4.000000000000     -5.473684310910      0.000000000000
     94.217072294311    -32.538805999203      9.021707229431
      4.000000000000     -5.894736766820      0.000000000000
     94.102239806336    -32.925408708721      9.010223980634
      4.000000000000     -6.315789699550      0.000000000000
     93.987407188318    -33.312011856045      8.998740718832
      4.000000000000     -6.736842155460      0.000000000000
     93.872574700343    -33.698614565563      8.987257470034
      4.000000000000     -7.157894611360      0.000000000000
     93.757742212370    -34.085217275071      8.975774221237
      4.000000000000     -7.578947544100      0.000000000000
     93.642909594350    -34.471820422405      8.964290959435
      4.000000000000     -8.000000000000      0.000000000000
     93.528077106377    -34.858423131913      8.952807710638
POLYGONS                  76                 304
3                   0                   1                   3
3                   0                   3                   2
3                   4                   5                   1
3                   4                   1                   0
3                   6                   7                   5
3                   6                   5                   4
3                   8                   9                   7
3                   8                   7                   6
3                  10                  11                   9
3                  10                   9                   8
3                  12                  13                  11
3                  12                  11                  10
3                  14                  15                  13
3                  14                  13                  12
3                  16                  17                  15
3                  16                  15                  14
3                  18                  19                  17
3                  18                  17                  16
3                  20                  21                  19
3                  20                  19                  18
3                  22                  23                  21
3                  22                  21                  20
3                  24                  25                  23
3                  24                  23                  22
3                  26                  27                  25
3                  26                  25                  24
3                  28                  29                  27
3                  28                  27                  26
3                  30                  31                  29
3                  30                  29                  28
3                  32                  33                  31
3                  32                  31                  30
3                  34                  35                  33
3                  34                  33                  32
3                  36                  37                  35
3                  36                  35                  34
3                  38                  39                  37
3                  38                  37                  36
3                  43                  41                  40
3                  42                  43                  40
3                  41                  45                  44
3                  40                  41                  44
3                  45                  47                  46
3                  44                  45                  46
3                  47                  49                  48
3                  46                  47                  48
3                  49                  51                  50
3                  48                  49                  50
3                  51                  53                  52
3                  50                  51                  52
3                  53                  55                  54
3                  52                  53                  54
3                  55                  57                  56
3                  54                  55                  56
3                  57                  59                  58
3                  56                  57                  58
3                  59                  61                  60
3                  58                  59                  60
3                  61                  63                  62
3                  60                  61                  62
3                  63                  65                  64
3                  62                  63                  64
3                  65                  67                  66
3                  64                  65                  66
3                  67                  69                  68
3                  66                  67                  68
3                  69                  71                  70
3                  68                  69                  70
3                  71                  73                  72
3                  70                  71                  72
3                  73                  75                  74
3                  72                  73                  74
3                  75                  77                  76
3                  74                  75                  76
3                  77                  79                  78
3                  76                  77                  78
POINT_DATA                  80
SCALARS mu float 1
LOOKUP_TABLE default
     -0.806761437572
     -0.806761437572
     -0.813574134747
     -0.813574134747
     -0.802522838898
     -0.802522838898
     -0.792758321497
     -0.792758321497
     -0.783266266333
     -0.783266266333
     -0.774428751148
     -0.774428751148
     -0.761733460391
     -0.761733460391
     -0.744165670284
     -0.744165670284
     -0.725310027762
     -0.725310027762
     -0.704580218461
     -0.704580218461
     -0.678953259660
     -0.678953259660
     -0.649559227859
     -0.649559227859
     -0.616902066242
     -0.616902066242
     -0.583472501163
     -0.583472501163
     -0.541207879207
     -0.541207879207
     -0.478653319817
     -0.478653319817
     -0.407785331173
     -0.407785331173
     -0.310500205090
     -0.310500205090
     -0.184084128697
     -0.184084128697
      0.000000000000
      0.000000000000
     -0.817850038543
     -0.817850038543
     -0.813574134747
     -0.813574134747
     -0.823127610086
     -0.823127610086
     -0.822631938691
     -0.822631938691
     -0.817732412596
     -0.817732412596
     -0.815117327171
     -0.815117327171
     -0.811719659017
     -0.811719659017
     -0.806614756727
     -0.806614756727
     -0.795818404776
     -0.795818404776
     -0.783568293684
     -0.783568293684
     -0.764375219479
     -0.764375219479
     -0.749279861848
     -0.749279861848
     -0.727519813712
     -0.727519813712
     -0.697380450951
     -0.697380450951
     -0.652460518583
     -0.652460518583
     -0.601076390202
     -0.601076390202
     -0.526793863221
     -0.526793863221
     -0.434940503016
     -0.434940503016
     -0.282982437991
     -0.282982437991
      0.000000000000
      0.000000000000
