# vtk DataFile Version 3.0
MachLine results file. Generated by MachLine, USU AeroLab (c) 2022.
ASCII
DATASET POLYDATA
POINTS                 704 float
  0.476456375309E-05 -0.000000000000E+00  0.000000000000E+00
  0.447911218842E-05 -0.421052634716E+00  0.000000000000E+00
  0.447911189904E-05 -0.842105269432E+00  0.182066632791E-21
  0.447911236849E-05 -0.126315784454E+01  0.000000000000E+00
  0.447911258705E-05 -0.168421053886E+01  0.000000000000E+00
  0.447911142965E-05 -0.210526323318E+01  0.000000000000E+00
  0.447911214996E-05 -0.252631568909E+01  0.000000000000E+00
  0.447911258705E-05 -0.294736838341E+01  0.000000000000E+00
  0.447911258705E-05 -0.336842107773E+01  0.000000000000E+00
  0.447911258705E-05 -0.378947377205E+01  0.000000000000E+00
  0.447911142961E-05 -0.421052646637E+01  0.000000000000E+00
  0.447911099250E-05 -0.463157892227E+01  0.000000000000E+00
  0.447911330738E-05 -0.505263137817E+01  0.000000000000E+00
  0.447911186676E-05 -0.547368431091E+01  0.000000000000E+00
  0.447911330735E-05 -0.589473676682E+01  0.000000000000E+00
  0.447911186674E-05 -0.631578969955E+01  0.000000000000E+00
  0.447911099252E-05 -0.673684215546E+01  0.000000000000E+00
  0.447911330738E-05 -0.715789461136E+01  0.000000000000E+00
  0.447911186671E-05 -0.757894754410E+01  0.000000000000E+00
  0.254366756317E-05 -0.799999770501E+01  0.808768670280E-21
  0.257793408580E+00 -0.000000000000E+00 -0.131795675270E+00
  0.257793408580E+00 -0.000000000000E+00  0.131795675270E+00
  0.257793646802E+00 -0.421052634716E+00 -0.131795735340E+00
  0.257793646802E+00 -0.421052634716E+00  0.131795735340E+00
  0.257793646802E+00 -0.842105269432E+00 -0.131795735340E+00
  0.257793646802E+00 -0.842105269432E+00  0.131795735340E+00
  0.257793646802E+00 -0.126315784454E+01 -0.131795735340E+00
  0.257793646802E+00 -0.126315784454E+01  0.131795735340E+00
  0.257793646802E+00 -0.168421053886E+01 -0.131795735340E+00
  0.257793646802E+00 -0.168421053886E+01  0.131795735340E+00
  0.257793646802E+00 -0.210526323318E+01 -0.131795735341E+00
  0.257793646802E+00 -0.210526323318E+01  0.131795735341E+00
  0.257793646802E+00 -0.252631568909E+01 -0.131795735341E+00
  0.257793646802E+00 -0.252631568909E+01  0.131795735341E+00
  0.257793646802E+00 -0.294736838341E+01 -0.131795735340E+00
  0.257793646802E+00 -0.294736838341E+01  0.131795735340E+00
  0.257793646802E+00 -0.336842107773E+01 -0.131795735340E+00
  0.257793646802E+00 -0.336842107773E+01  0.131795735340E+00
  0.257793646802E+00 -0.378947377205E+01 -0.131795735340E+00
  0.257793646802E+00 -0.378947377205E+01  0.131795735340E+00
  0.257793646802E+00 -0.421052646637E+01 -0.131795735341E+00
  0.257793646802E+00 -0.421052646637E+01  0.131795735341E+00
  0.257793646801E+00 -0.463157892227E+01 -0.131795735341E+00
  0.257793646801E+00 -0.463157892227E+01  0.131795735341E+00
  0.257793646802E+00 -0.505263137817E+01 -0.131795735340E+00
  0.257793646802E+00 -0.505263137817E+01  0.131795735340E+00
  0.257793646802E+00 -0.547368431091E+01 -0.131795735340E+00
  0.257793646802E+00 -0.547368431091E+01  0.131795735340E+00
  0.257793646802E+00 -0.589473676682E+01 -0.131795735340E+00
  0.257793646802E+00 -0.589473676682E+01  0.131795735340E+00
  0.257793646802E+00 -0.631578969955E+01 -0.131795735340E+00
  0.257793646802E+00 -0.631578969955E+01  0.131795735340E+00
  0.257793646801E+00 -0.673684215546E+01 -0.131795735341E+00
  0.257793646801E+00 -0.673684215546E+01  0.131795735341E+00
  0.257793646802E+00 -0.715789461136E+01 -0.131795735340E+00
  0.257793646802E+00 -0.715789461136E+01  0.131795735340E+00
  0.257793646802E+00 -0.757894754410E+01 -0.131795735340E+00
  0.257793646802E+00 -0.757894754410E+01  0.131795735340E+00
  0.257793344885E+00 -0.799999933573E+01 -0.131796711276E+00
  0.257793344885E+00 -0.799999933573E+01  0.131796711276E+00
  0.257792938451E+00 -0.809319512484E+01 -0.931951994684E-01
  0.257792938451E+00 -0.809319512484E+01  0.931951994684E-01
  0.257792941477E+00 -0.813179767392E+01 -0.140524563986E-15
  0.536311090991E+00 -0.000000000000E+00 -0.172265355624E+00
  0.536311090991E+00 -0.000000000000E+00  0.172265355624E+00
  0.536311145390E+00 -0.421052634716E+00 -0.172265343805E+00
  0.536311145390E+00 -0.421052634716E+00  0.172265343805E+00
  0.536311145389E+00 -0.842105269432E+00 -0.172265343805E+00
  0.536311145389E+00 -0.842105269432E+00  0.172265343805E+00
  0.536311145390E+00 -0.126315784454E+01 -0.172265343805E+00
  0.536311145390E+00 -0.126315784454E+01  0.172265343805E+00
  0.536311145390E+00 -0.168421053886E+01 -0.172265343804E+00
  0.536311145390E+00 -0.168421053886E+01  0.172265343804E+00
  0.536311145389E+00 -0.210526323318E+01 -0.172265343805E+00
  0.536311145389E+00 -0.210526323318E+01  0.172265343805E+00
  0.536311145389E+00 -0.252631568909E+01 -0.172265343805E+00
  0.536311145389E+00 -0.252631568909E+01  0.172265343805E+00
  0.536311145390E+00 -0.294736838341E+01 -0.172265343804E+00
  0.536311145390E+00 -0.294736838341E+01  0.172265343804E+00
  0.536311145390E+00 -0.336842107773E+01 -0.172265343804E+00
  0.536311145390E+00 -0.336842107773E+01  0.172265343804E+00
  0.536311145390E+00 -0.378947377205E+01 -0.172265343804E+00
  0.536311145390E+00 -0.378947377205E+01  0.172265343804E+00
  0.536311145389E+00 -0.421052646637E+01 -0.172265343805E+00
  0.536311145389E+00 -0.421052646637E+01  0.172265343805E+00
  0.536311145389E+00 -0.463157892227E+01 -0.172265343806E+00
  0.536311145389E+00 -0.463157892227E+01  0.172265343806E+00
  0.536311145390E+00 -0.505263137817E+01 -0.172265343804E+00
  0.536311145390E+00 -0.505263137817E+01  0.172265343804E+00
  0.536311145390E+00 -0.547368431091E+01 -0.172265343804E+00
  0.536311145390E+00 -0.547368431091E+01  0.172265343804E+00
  0.536311145390E+00 -0.589473676682E+01 -0.172265343804E+00
  0.536311145390E+00 -0.589473676682E+01  0.172265343804E+00
  0.536311145390E+00 -0.631578969955E+01 -0.172265343804E+00
  0.536311145390E+00 -0.631578969955E+01  0.172265343804E+00
  0.536311145389E+00 -0.673684215546E+01 -0.172265343806E+00
  0.536311145389E+00 -0.673684215546E+01  0.172265343806E+00
  0.536311145390E+00 -0.715789461136E+01 -0.172265343804E+00
  0.536311145390E+00 -0.715789461136E+01  0.172265343804E+00
  0.536311145390E+00 -0.757894754410E+01 -0.172265343804E+00
  0.536311145390E+00 -0.757894754410E+01  0.172265343804E+00
  0.536311043437E+00 -0.799999932197E+01 -0.172266299248E+00
  0.536311043437E+00 -0.799999932197E+01  0.172266299248E+00
  0.536310951866E+00 -0.812181100008E+01 -0.121811262543E+00
  0.536310951866E+00 -0.812181100008E+01  0.121811262543E+00
  0.536310984225E+00 -0.817226724107E+01  0.124536798326E-17
  0.799721193196E+00 -0.000000000000E+00 -0.191199284362E+00
  0.799721193196E+00 -0.000000000000E+00  0.191199284362E+00
  0.799721223010E+00 -0.421052634716E+00 -0.191199272934E+00
  0.799721223010E+00 -0.421052634716E+00  0.191199272934E+00
  0.799721223010E+00 -0.842105269432E+00 -0.191199272934E+00
  0.799721223010E+00 -0.842105269432E+00  0.191199272934E+00
  0.799721223010E+00 -0.126315784454E+01 -0.191199272934E+00
  0.799721223010E+00 -0.126315784454E+01  0.191199272934E+00
  0.799721223010E+00 -0.168421053886E+01 -0.191199272934E+00
  0.799721223010E+00 -0.168421053886E+01  0.191199272934E+00
  0.799721223010E+00 -0.210526323318E+01 -0.191199272935E+00
  0.799721223010E+00 -0.210526323318E+01  0.191199272935E+00
  0.799721223010E+00 -0.252631568909E+01 -0.191199272935E+00
  0.799721223010E+00 -0.252631568909E+01  0.191199272935E+00
  0.799721223010E+00 -0.294736838341E+01 -0.191199272934E+00
  0.799721223010E+00 -0.294736838341E+01  0.191199272934E+00
  0.799721223010E+00 -0.336842107773E+01 -0.191199272934E+00
  0.799721223010E+00 -0.336842107773E+01  0.191199272934E+00
  0.799721223010E+00 -0.378947377205E+01 -0.191199272934E+00
  0.799721223010E+00 -0.378947377205E+01  0.191199272934E+00
  0.799721223010E+00 -0.421052646637E+01 -0.191199272935E+00
  0.799721223010E+00 -0.421052646637E+01  0.191199272935E+00
  0.799721223010E+00 -0.463157892227E+01 -0.191199272935E+00
  0.799721223010E+00 -0.463157892227E+01  0.191199272935E+00
  0.799721223010E+00 -0.505263137817E+01 -0.191199272934E+00
  0.799721223010E+00 -0.505263137817E+01  0.191199272934E+00
  0.799721223010E+00 -0.547368431091E+01 -0.191199272934E+00
  0.799721223010E+00 -0.547368431091E+01  0.191199272934E+00
  0.799721223010E+00 -0.589473676682E+01 -0.191199272934E+00
  0.799721223010E+00 -0.589473676682E+01  0.191199272934E+00
  0.799721223010E+00 -0.631578969955E+01 -0.191199272934E+00
  0.799721223010E+00 -0.631578969955E+01  0.191199272934E+00
  0.799721223010E+00 -0.673684215546E+01 -0.191199272935E+00
  0.799721223010E+00 -0.673684215546E+01  0.191199272935E+00
  0.799721223010E+00 -0.715789461136E+01 -0.191199272934E+00
  0.799721223010E+00 -0.715789461136E+01  0.191199272934E+00
  0.799721223010E+00 -0.757894754410E+01 -0.191199272934E+00
  0.799721223010E+00 -0.757894754410E+01  0.191199272934E+00
  0.799721176061E+00 -0.799999933141E+01 -0.191200204690E+00
  0.799721176061E+00 -0.799999933141E+01  0.191200204690E+00
  0.799721134022E+00 -0.813519964457E+01 -0.135199525819E+00
  0.799721134022E+00 -0.813519964457E+01  0.135199525819E+00
  0.799721152158E+00 -0.819120054732E+01 -0.320712640167E-17
  0.105025952291E+01 -0.000000000000E+00 -0.198939228890E+00
  0.105025952291E+01 -0.000000000000E+00  0.198939228890E+00
  0.105025954267E+01 -0.421052634716E+00 -0.198939219847E+00
  0.105025954267E+01 -0.421052634716E+00  0.198939219847E+00
  0.105025954267E+01 -0.842105269432E+00 -0.198939219847E+00
  0.105025954267E+01 -0.842105269432E+00  0.198939219847E+00
  0.105025954267E+01 -0.126315784454E+01 -0.198939219847E+00
  0.105025954267E+01 -0.126315784454E+01  0.198939219847E+00
  0.105025954267E+01 -0.168421053886E+01 -0.198939219846E+00
  0.105025954267E+01 -0.168421053886E+01  0.198939219846E+00
  0.105025954267E+01 -0.210526323318E+01 -0.198939219847E+00
  0.105025954267E+01 -0.210526323318E+01  0.198939219847E+00
[...]
POINT_DATA                 704
SCALARS phi float 1
LOOKUP_TABLE default
  0.000000000000E+00
  0.120433132001E+00
  0.240870512367E+00
  0.361307875373E+00
  0.481745272209E+00
  0.602182668834E+00
  0.722619997119E+00
  0.843057393520E+00
  0.963494789900E+00
  0.108393218630E+01
  0.120436958276E+01
  0.132480691109E+01
  0.144524423950E+01
  0.156568170440E+01
  0.168611903299E+01
  0.180655649805E+01
  0.192699382679E+01
  0.204743115560E+01
  0.216786862087E+01
  0.228830713872E+01
  0.000000000000E+00
  0.000000000000E+00
 -0.112792973623E+00
 -0.137925414294E+00
  0.764440676113E-02
 -0.174880339974E-01
  0.128081769924E+00
  0.102949328682E+00
  0.248519167045E+00
  0.223386724967E+00
  0.368956564059E+00
  0.343824120877E+00
  0.489393892805E+00
  0.464261448353E+00
  0.609831289706E+00
  0.584698843913E+00
  0.730268686597E+00
  0.705136239469E+00
  0.850706083500E+00
  0.825573635098E+00
  0.971143480434E+00
  0.946011030849E+00
  0.109158080921E+01
  0.106644835855E+01
  0.121201813804E+01
  0.118688568641E+01
  0.133245560331E+01
  0.130732315082E+01
  0.145289293224E+01
  0.142776047898E+01
  0.157333039761E+01
  0.154819794367E+01
  0.169376772663E+01
  0.166863527210E+01
  0.181420505569E+01
  0.178907260063E+01
  0.193464252119E+01
  0.190951006565E+01
  0.205508004123E+01
  0.202994739917E+01
  0.207805752914E+01
  0.206028590513E+01
  0.208021354012E+01
  0.000000000000E+00
  0.000000000000E+00
 -0.374490366886E+00
 -0.407340048449E+00
 -0.254052986524E+00
 -0.286902668197E+00
 -0.133615623309E+00
 -0.166465305803E+00
 -0.131782260632E-01
 -0.460279100029E-01
  0.107259171132E+00
  0.744094852912E-01
  0.227696500094E+00
  0.194846812095E+00
  0.348133897225E+00
  0.315284206989E+00
  0.468571294346E+00
  0.435721601928E+00
  0.589008691470E+00
  0.556158997009E+00
  0.709446088610E+00
  0.676596392288E+00
  0.829883417578E+00
  0.797033719592E+00
  0.950320746578E+00
  0.917471047119E+00
  0.107075821201E+01
  0.103790851125E+01
  0.119119554108E+01
  0.115834583919E+01
  0.131163300658E+01
  0.127878330369E+01
  0.143207033572E+01
  0.139922063196E+01
  0.155250766488E+01
  0.151965796036E+01
  0.167294513047E+01
  0.164009542528E+01
  0.179338245405E+01
  0.176053256607E+01
  0.182341470661E+01
  0.180018621465E+01
  0.182623287117E+01
  0.000000000000E+00
  0.000000000000E+00
 -0.623836745147E+00
 -0.660296975921E+00
 -0.503399364831E+00
 -0.539859595703E+00
 -0.382962001570E+00
 -0.419422233637E+00
 -0.262524604195E+00
 -0.298984838400E+00
 -0.142087206811E+00
 -0.178547443809E+00
 -0.216498776302E-01
 -0.581101177490E-01
  0.987875197223E-01
  0.623272764364E-01
  0.219224917052E+00
  0.182764670745E+00
  0.339662314366E+00
  0.303202065292E+00
  0.460099711676E+00
  0.423639460132E+00
  0.580537040795E+00
  0.544076787082E+00
  0.700974369929E+00
  0.664514114327E+00
  0.821411835477E+00
  0.784951578237E+00
  0.941849164655E+00
  0.905388905997E+00
  0.106228663024E+01
  0.102582637036E+01
  0.118272395947E+01
  0.114626369851E+01
  0.130316128871E+01
  0.126670102683E+01
  0.142359875436E+01
  0.138713849167E+01
  0.154403602600E+01
  0.150757558492E+01
  0.157736914405E+01
  0.155158761112E+01
  0.158049678995E+01
  0.000000000000E+00
  0.000000000000E+00
 -0.861977687859E+00
 -0.899913859300E+00
 -0.741540307616E+00
 -0.779476479104E+00
 -0.621102944305E+00
 -0.659039117437E+00
 -0.500665546764E+00
 -0.538601722891E+00
 -0.380228149142E+00
 -0.418164329144E+00
 -0.259790819702E+00
 -0.297727003947E+00
 -0.139353422103E+00
 -0.177289610551E+00
 -0.189160245564E-01
 -0.568522169139E-01
  0.101521372944E+00
  0.635851770897E-01
  0.221958770413E+00
  0.184022571503E+00
  0.342396099667E+00
  0.304459898124E+00
  0.462833428916E+00
  0.424897225118E+00
  0.583270894564E+00
  0.545334688838E+00
  0.703708223829E+00
  0.665772016453E+00
  0.824145689494E+00
  0.786209480705E+00
  0.944583018784E+00
  0.906646808777E+00
  0.106502034808E+01
  0.102708413703E+01
  0.118545781379E+01
  0.114752160182E+01
  0.130589505743E+01
  0.126795866841E+01
  0.134057753584E+01
  0.131375235104E+01
  0.134383178161E+01
  0.000000000000E+00
  0.000000000000E+00
 -0.109126810456E+01
 -0.112934281166E+01
 -0.970830724435E+00
 -0.100890543146E+01
 -0.850393361056E+00
 -0.888468070299E+00
 -0.729955963281E+00
 -0.768030676626E+00
 -0.609518565338E+00
 -0.647593283920E+00
 -0.489081235569E+00
 -0.527155959748E+00
 -0.368643837680E+00
 -0.406718567247E+00
 -0.248206439894E+00
 -0.286281174335E+00
 -0.127769042202E+00
 -0.165843780890E+00
 -0.733164457840E-02
 -0.454063868935E-01
  0.113105684802E+00
  0.750309394205E-01
  0.233543014155E+00
  0.195468266192E+00
  0.353980479891E+00
  0.315905729750E+00
  0.474417809230E+00
  0.436343057250E+00
  0.594855274960E+00
  0.556780521418E+00
  0.715292604305E+00
  0.677217849431E+00
  0.835729933653E+00
  0.797655177637E+00
  0.956167399402E+00
  0.918092642402E+00
  0.107660462512E+01
  0.103852969025E+01
  0.111141356326E+01
  0.108449041210E+01
  0.111467993821E+01
  0.000000000000E+00
  0.000000000000E+00
 -0.131409955680E+01
 -0.135138793159E+01
 -0.119366217686E+01
 -0.123095055137E+01
 -0.107322481338E+01
 -0.111051319086E+01
 -0.952787415256E+00
 -0.990075798324E+00
 -0.832350016859E+00
 -0.869638406931E+00
 -0.711912686659E+00
 -0.749201083993E+00
 -0.591475288417E+00
 -0.628763692515E+00
 -0.471037890363E+00
 -0.508326300386E+00
 -0.350600492469E+00
 -0.387888907513E+00
 -0.230163094693E+00
 -0.267451513922E+00
 -0.109725765193E+00
 -0.147014187889E+00
  0.107115642558E-01
 -0.265768613114E-01
  0.131149030069E+00
  0.938606021161E-01
  0.251586359474E+00
  0.214297929528E+00
  0.372023825258E+00
  0.334735393638E+00
  0.492461154650E+00
  0.455172721613E+00
  0.612898484039E+00
  0.575610049797E+00
  0.733335949824E+00
  0.696047514548E+00
  0.853773162799E+00
  0.816484547296E+00
  0.887863339138E+00
  0.861496195694E+00
  0.891062102918E+00
  0.000000000000E+00
  0.000000000000E+00
 -0.153274779924E+01
 -0.156855814441E+01
 -0.141231041960E+01
 -0.144812076411E+01
 -0.129187305597E+01
 -0.132768340448E+01
 -0.117143565731E+01
 -0.120724601347E+01
 -0.105099825825E+01
 -0.108680862376E+01
 -0.930560927467E+00
 -0.966371302328E+00
 -0.810123528795E+00
 -0.845933912022E+00
 -0.689686130438E+00
 -0.725496520736E+00
 -0.569248732334E+00
 -0.605059128440E+00
 -0.448811334406E+00
 -0.484621735232E+00
 -0.328374004794E+00
 -0.364184409449E+00
 -0.207936675258E+00
 -0.243747083029E+00
 -0.874992093754E-01
 -0.123309619700E+00
  0.329381200858E-01
 -0.287229234690E-02
  0.153375585918E+00
  0.117565171731E+00
  0.273812915350E+00
  0.238002499691E+00
  0.394250244773E+00
  0.358439827871E+00
  0.514687710588E+00
  0.478877292626E+00
  0.635124913721E+00
  0.599314312069E+00
  0.667863825983E+00
  0.642541795954E+00
  0.670935918046E+00
  0.000000000000E+00
  0.000000000000E+00
 -0.174938292098E+01
 -0.178316457268E+01
 -0.162894554187E+01
 -0.166272719220E+01
 -0.150850817797E+01
 -0.154228983380E+01
 -0.138807077843E+01
 -0.142185244490E+01
 -0.126763337837E+01
 -0.130141505742E+01
 -0.114719604681E+01
 -0.118097773783E+01
 -0.102675864761E+01
 -0.106054034886E+01
 -0.906321248915E+00
 -0.940102958467E+00
 -0.785883850593E+00
 -0.819665566737E+00
 -0.665446452519E+00
 -0.699228173877E+00
 -0.545009122802E+00
 -0.578790848299E+00
 -0.424571793188E+00
 -0.458353521996E+00
 -0.304134327245E+00
 -0.337916058727E+00
 -0.183696997734E+00
 -0.217478731400E+00
 -0.632595318621E-01
 -0.970412673263E-01
  0.571777976039E-01
  0.233960606423E-01
  0.177615127056E+00
  0.143833388837E+00
  0.298052592895E+00
  0.264270853612E+00
  0.418489813772E+00
  0.384707968131E+00
  0.449374088811E+00
  0.425486585280E+00
  0.452272156034E+00
  0.000000000000E+00
  0.000000000000E+00
 -0.196612972165E+01
 -0.199741246172E+01
 -0.184569234349E+01
 -0.187697508087E+01
 -0.172525497911E+01
 -0.175653772428E+01
 -0.160481757805E+01
 -0.163610033841E+01
 -0.148438017645E+01
 -0.151566295392E+01
 -0.136394284381E+01
 -0.139522563661E+01
 -0.124350544398E+01
 -0.127478824915E+01
 -0.112306804492E+01
 -0.115435085967E+01
 -0.100263064638E+01
 -0.103391346847E+01
 -0.882193248166E+00
 -0.913476075896E+00
 -0.761755918356E+00
 -0.793038750464E+00
 -0.641318588675E+00
 -0.672601424224E+00
 -0.520881122679E+00
 -0.552163960970E+00
 -0.400443793128E+00
 -0.431726633630E+00
 -0.280006327223E+00
 -0.311289169531E+00
 -0.159568997729E+00
 -0.190851841528E+00
 -0.391316682534E-01
 -0.704145132966E-01
  0.813057976060E-01
  0.500229515154E-01
  0.201742984843E+00
  0.170459947487E+00
  0.230342787300E+00
  0.208222220843E+00
  0.233026463191E+00
  0.000000000000E+00
  0.000000000000E+00
 -0.218513781618E+01
 -0.221348951822E+01
 -0.206470043985E+01
 -0.209305213662E+01
 -0.194426307455E+01
 -0.197261478285E+01
 -0.182382567071E+01
 -0.185217740154E+01
 -0.170338826665E+01
 -0.173174002115E+01
 -0.158295093256E+01
 -0.161130270664E+01
 -0.146251353197E+01
 -0.149086532082E+01
 -0.134207613253E+01
 -0.137042793223E+01
 -0.122163873379E+01
 -0.124999054147E+01
 -0.110120133546E+01
 -0.112955314909E+01
 -0.980764005572E+00
 -0.100911582372E+01
 -0.860326675836E+00
 -0.888678497479E+00
 -0.739889209800E+00
 -0.768241034184E+00
 -0.619451880216E+00
 -0.647803706789E+00
 -0.499014414284E+00
 -0.527366242627E+00
 -0.378577084769E+00
 -0.406928914562E+00
 -0.258139755275E+00
 -0.286491586270E+00
 -0.137702289400E+00
 -0.166054121402E+00
 -0.172651090778E-01
 -0.456171377645E-01
  0.865496737895E-02
 -0.113930680011E-01
  0.110873523318E-01
  0.000000000000E+00
  0.000000000000E+00
 -0.240865700908E+01
 -0.243365557110E+01
 -0.228821963676E+01
 -0.231321818790E+01
 -0.216778226945E+01
 -0.219278083888E+01
 -0.204734486007E+01
 -0.207234346479E+01
 -0.192690745197E+01
 -0.195190609012E+01
 -0.180647011593E+01
 -0.183146877897E+01
 -0.168603271453E+01
 -0.171103139485E+01
 -0.156559531474E+01
 -0.159059400701E+01
 -0.144515791583E+01
 -0.147015661653E+01
 -0.132472051741E+01
 -0.134971922421E+01
 -0.120428318746E+01
 -0.122928189879E+01
 -0.108384585769E+01
 -0.110884457245E+01
 -0.963408391626E+00
 -0.988407109049E+00
 -0.842971062020E+00
 -0.867969781543E+00
 -0.722533596070E+00
 -0.747532317277E+00
 -0.602096266539E+00
 -0.627094989117E+00
 -0.481658937033E+00
 -0.506657660738E+00
 -0.361221471146E+00
 -0.386220195792E+00
 -0.240784297873E+00
 -0.265783224978E+00
 -0.217929507592E+00
 -0.235606545134E+00
 -0.215784949593E+00
  0.000000000000E+00
  0.000000000000E+00
 -0.263913326579E+01
 -0.266033482333E+01
 -0.251869590356E+01
 -0.253989743646E+01
 -0.239825853115E+01
 -0.241946009629E+01
 -0.227782110945E+01
 -0.229902273440E+01
 -0.215738369463E+01
 -0.217858536774E+01
 -0.203694635622E+01
 -0.205814806037E+01
 -0.191650895405E+01
 -0.193771067772E+01
 -0.179607155400E+01
 -0.181727329032E+01
 -0.167563415499E+01
 -0.169683589985E+01
 -0.155519675652E+01
 -0.157639850737E+01
 -0.143475942655E+01
 -0.145596118175E+01
 -0.131432209676E+01
 -0.133552385520E+01
 -0.119388463069E+01
 -0.121508639160E+01
 -0.107344730107E+01
 -0.109464906392E+01
 -0.953009835113E+00
 -0.974211599498E+00
 -0.832572505574E+00
 -0.853774271203E+00
 -0.712135176061E+00
 -0.733336942706E+00
 -0.591697710168E+00
 -0.612899477657E+00
 -0.471260544549E+00
 -0.492462520508E+00
 -0.451877146344E+00
 -0.466869337645E+00
 -0.450058262857E+00
  0.000000000000E+00
  0.000000000000E+00
 -0.287931539196E+01
 -0.289622831234E+01
 -0.275887806140E+01
 -0.277579091572E+01
 -0.263844067264E+01
 -0.265535359457E+01
 -0.251800321903E+01
 -0.253491625483E+01
 -0.239756579346E+01
 -0.241447889892E+01
 -0.227712845270E+01
 -0.229404159507E+01
 -0.215669105006E+01
 -0.217360421315E+01
 -0.203625364994E+01
 -0.205316682556E+01
 -0.191581625095E+01
 -0.193272943465E+01
 -0.179537885251E+01
 -0.181229204171E+01
 -0.167494152256E+01
 -0.169185471567E+01
 -0.155450419278E+01
 -0.157141738875E+01
 -0.143406672671E+01
 -0.145097992485E+01
 -0.131362939710E+01
 -0.133054259691E+01
 -0.119319193115E+01
 -0.121010513227E+01
 -0.107275460161E+01
 -0.108966780379E+01
 -0.952317272098E+00
 -0.969230475143E+00
 -0.831879806205E+00
 -0.848793009961E+00
 -0.711442649347E+00
 -0.728356067721E+00
 -0.695979676287E+00
 -0.707939403617E+00
 -0.694528980739E+00
  0.000000000000E+00
  0.000000000000E+00
 -0.313239577922E+01
 -0.314444367795E+01
 -0.301195859255E+01
 -0.302400624914E+01
 -0.289152112428E+01
 -0.290356897878E+01
 -0.277108356613E+01
 -0.278313168186E+01
 -0.265064612710E+01
 -0.266269433762E+01
 -0.253020878546E+01
 -0.254225703495E+01
 -0.240977138312E+01
 -0.242181965196E+01
 -0.228933398329E+01
 -0.230138226307E+01
 -0.216889658449E+01
 -0.218094487104E+01
 -0.204845918617E+01
 -0.206050747720E+01
 -0.192802185630E+01
 -0.194007015045E+01
 -0.180758452658E+01
 -0.181963282297E+01
 -0.168714706054E+01
 -0.169919535862E+01
 -0.156670973096E+01
 -0.157875803032E+01
 -0.144627226502E+01
 -0.145832056539E+01
 -0.132583493549E+01
 -0.133788323667E+01
 -0.120539760599E+01
 -0.121744590782E+01
 -0.108496014011E+01
 -0.109700844246E+01
 -0.964522993748E+00
 -0.976571516946E+00
 -0.953507637060E+00
 -0.962027368255E+00
 -0.952473966853E+00
  0.000000000000E+00
  0.000000000000E+00
 -0.340219487505E+01
 -0.340867167260E+01
 -0.328175960363E+01
 -0.328823408539E+01
 -0.316132081620E+01
 -0.316779701052E+01
 -0.304088258013E+01
 -0.304735979354E+01
 -0.292044514170E+01
 -0.292692244917E+01
 -0.280000780338E+01
 -0.280648514049E+01
 -0.267957040262E+01
 -0.268604775295E+01
 -0.255913300358E+01
 -0.256561036098E+01
 -0.243869560521E+01
 -0.244517296682E+01
 -0.231825820714E+01
 -0.232473557148E+01
 -0.219782087743E+01
 -0.220429824363E+01
 -0.207738354781E+01
 -0.208386091534E+01
 -0.195694608185E+01
 -0.196342345036E+01
 -0.183650875232E+01
 -0.184298612157E+01
 -0.171607128642E+01
 -0.172254865625E+01
 -0.159563395692E+01
 -0.160211132721E+01
 -0.147519662744E+01
 -0.148167399810E+01
 -0.135475916157E+01
 -0.136123653253E+01
 -0.123432202831E+01
 -0.124079962638E+01
 -0.122839968708E+01
 -0.123298023488E+01
 -0.122784405004E+01
  0.000000000000E+00
 -0.369340862935E+01
 -0.357299882164E+01
 -0.345253388533E+01
 -0.333209648758E+01
 -0.321165908994E+01
 -0.309122176049E+01
 -0.297078436285E+01
 -0.285034696521E+01
 -0.272990956757E+01
 -0.260947216993E+01
 -0.248903484048E+01
 -0.236859751104E+01
 -0.224816004520E+01
 -0.212772271576E+01
 -0.200728524992E+01
 -0.188684792048E+01
 -0.176641059103E+01
 -0.164597312519E+01
 -0.152554032377E+01
 -0.309122180881E+01
 -0.321165913825E+01
 -0.369340867756E+01
  0.000000000000E+00
 -0.212772276407E+01
 -0.224816009352E+01
 -0.272990961588E+01
 -0.285034701352E+01
 -0.176641063935E+01
 -0.188684796879E+01
 -0.236859755936E+01
 -0.248903488880E+01
 -0.333209653589E+01
 -0.345253393352E+01
 -0.297078441117E+01
 -0.200728529824E+01
 -0.260947221824E+01
 -0.164597317351E+01
 -0.357297129707E+01
SCALARS phi_mu float 1
LOOKUP_TABLE default
  0.000000000000E+00
  0.120433132001E+00
  0.240870512367E+00
  0.361307875373E+00
  0.481745272209E+00
  0.602182668834E+00
  0.722619997119E+00
  0.843057393520E+00
  0.963494789900E+00
  0.108393218630E+01
  0.120436958276E+01
  0.132480691109E+01
  0.144524423950E+01
  0.156568170440E+01
  0.168611903299E+01
  0.180655649805E+01
  0.192699382679E+01
  0.204743115560E+01
  0.216786862087E+01
  0.228830713872E+01
  0.000000000000E+00
  0.000000000000E+00
 -0.112792973623E+00
 -0.137925414294E+00
  0.764440676113E-02
 -0.174880339974E-01
  0.128081769924E+00
  0.102949328682E+00
  0.248519167045E+00
  0.223386724967E+00
  0.368956564059E+00
  0.343824120877E+00
  0.489393892805E+00
  0.464261448353E+00
  0.609831289706E+00
  0.584698843913E+00
  0.730268686597E+00
  0.705136239469E+00
  0.850706083500E+00
  0.825573635098E+00
  0.971143480434E+00
  0.946011030849E+00
  0.109158080921E+01
  0.106644835855E+01
  0.121201813804E+01
  0.118688568641E+01
  0.133245560331E+01
  0.130732315082E+01
  0.145289293224E+01
  0.142776047898E+01
  0.157333039761E+01
  0.154819794367E+01
  0.169376772663E+01
  0.166863527210E+01
  0.181420505569E+01
  0.178907260063E+01
  0.193464252119E+01
  0.190951006565E+01
  0.205508004123E+01
  0.202994739917E+01
  0.207805752914E+01
  0.206028590513E+01
  0.208021354012E+01
  0.000000000000E+00
  0.000000000000E+00
 -0.374490366886E+00
 -0.407340048449E+00
 -0.254052986524E+00
 -0.286902668197E+00
 -0.133615623309E+00
 -0.166465305803E+00
 -0.131782260632E-01
 -0.460279100029E-01
  0.107259171132E+00
  0.744094852912E-01
  0.227696500094E+00
  0.194846812095E+00
  0.348133897225E+00
  0.315284206989E+00
  0.468571294346E+00
  0.435721601928E+00
  0.589008691470E+00
  0.556158997009E+00
  0.709446088610E+00
  0.676596392288E+00
  0.829883417578E+00
  0.797033719592E+00
  0.950320746578E+00
  0.917471047119E+00
  0.107075821201E+01
  0.103790851125E+01
  0.119119554108E+01
  0.115834583919E+01
  0.131163300658E+01
  0.127878330369E+01
  0.143207033572E+01
  0.139922063196E+01
  0.155250766488E+01
  0.151965796036E+01
  0.167294513047E+01
  0.164009542528E+01
  0.179338245405E+01
  0.176053256607E+01
  0.182341470661E+01
  0.180018621465E+01
  0.182623287117E+01
  0.000000000000E+00
  0.000000000000E+00
 -0.623836745147E+00
 -0.660296975921E+00
 -0.503399364831E+00
 -0.539859595703E+00
 -0.382962001570E+00
 -0.419422233637E+00
 -0.262524604195E+00
 -0.298984838400E+00
 -0.142087206811E+00
 -0.178547443809E+00
 -0.216498776302E-01
 -0.581101177490E-01
  0.987875197223E-01
  0.623272764364E-01
  0.219224917052E+00
  0.182764670745E+00
  0.339662314366E+00
  0.303202065292E+00
  0.460099711676E+00
  0.423639460132E+00
  0.580537040795E+00
  0.544076787082E+00
  0.700974369929E+00
  0.664514114327E+00
  0.821411835477E+00
  0.784951578237E+00
  0.941849164655E+00
  0.905388905997E+00
  0.106228663024E+01
  0.102582637036E+01
  0.118272395947E+01
  0.114626369851E+01
  0.130316128871E+01
  0.126670102683E+01
  0.142359875436E+01
  0.138713849167E+01
  0.154403602600E+01
  0.150757558492E+01
  0.157736914405E+01
  0.155158761112E+01
  0.158049678995E+01
  0.000000000000E+00
  0.000000000000E+00
 -0.861977687859E+00
 -0.899913859300E+00
 -0.741540307616E+00
 -0.779476479104E+00
 -0.621102944305E+00
 -0.659039117437E+00
 -0.500665546764E+00
 -0.538601722891E+00
 -0.380228149142E+00
 -0.418164329144E+00
 -0.259790819702E+00
 -0.297727003947E+00
 -0.139353422103E+00
 -0.177289610551E+00
 -0.189160245564E-01
 -0.568522169139E-01
  0.101521372944E+00
  0.635851770897E-01
  0.221958770413E+00
  0.184022571503E+00
  0.342396099667E+00
  0.304459898124E+00
  0.462833428916E+00
  0.424897225118E+00
  0.583270894564E+00
  0.545334688838E+00
  0.703708223829E+00
  0.665772016453E+00
  0.824145689494E+00
  0.786209480705E+00
  0.944583018784E+00
  0.906646808777E+00
  0.106502034808E+01
  0.102708413703E+01
  0.118545781379E+01
  0.114752160182E+01
  0.130589505743E+01
  0.126795866841E+01
  0.134057753584E+01
  0.131375235104E+01
  0.134383178161E+01
  0.000000000000E+00
  0.000000000000E+00
 -0.109126810456E+01
 -0.112934281166E+01
 -0.970830724435E+00
 -0.100890543146E+01
 -0.850393361056E+00
 -0.888468070299E+00
 -0.729955963281E+00
 -0.768030676626E+00
 -0.609518565338E+00
 -0.647593283920E+00
 -0.489081235569E+00
 -0.527155959748E+00
 -0.368643837680E+00
 -0.406718567247E+00
 -0.248206439894E+00
 -0.286281174335E+00
 -0.127769042202E+00
 -0.165843780890E+00
 -0.733164457840E-02
 -0.454063868935E-01
  0.113105684802E+00
  0.750309394205E-01
  0.233543014155E+00
  0.195468266192E+00
  0.353980479891E+00
  0.315905729750E+00
  0.474417809230E+00
  0.436343057250E+00
  0.594855274960E+00
  0.556780521418E+00
  0.715292604305E+00
  0.677217849431E+00
  0.835729933653E+00
  0.797655177637E+00
  0.956167399402E+00
  0.918092642402E+00
  0.107660462512E+01
  0.103852969025E+01
  0.111141356326E+01
  0.108449041210E+01
  0.111467993821E+01
  0.000000000000E+00
  0.000000000000E+00
 -0.131409955680E+01
 -0.135138793159E+01
 -0.119366217686E+01
 -0.123095055137E+01
 -0.107322481338E+01