# vtk DataFile Version 3.0
MachLine results file. Generated by MachLine, USU AeroLab (c) 2022.
ASCII
DATASET POLYDATA
POINTS                  40 float
  0.400000000000E+01  0.589473676682E+01  0.000000000000E+00
  0.800000000000E+02  0.589473676682E+01  0.000000000000E+00
  0.400000000000E+01  0.547368431091E+01  0.000000000000E+00
  0.800000000000E+02  0.547368431091E+01  0.000000000000E+00
  0.400000000000E+01  0.252631568909E+01  0.000000000000E+00
  0.800000000000E+02  0.252631568909E+01  0.000000000000E+00
  0.400000000000E+01  0.210526323318E+01  0.000000000000E+00
  0.800000000000E+02  0.210526323318E+01  0.000000000000E+00
  0.400000000000E+01  0.421052634716E+00  0.000000000000E+00
  0.800000000000E+02  0.421052634716E+00  0.000000000000E+00
  0.400000000000E+01  0.000000000000E+00  0.000000000000E+00
  0.800000000000E+02  0.000000000000E+00  0.000000000000E+00
  0.400000000000E+01  0.378947377205E+01  0.000000000000E+00
  0.800000000000E+02  0.378947377205E+01  0.000000000000E+00
  0.400000000000E+01  0.336842107773E+01  0.000000000000E+00
  0.800000000000E+02  0.336842107773E+01  0.000000000000E+00
  0.400000000000E+01  0.505263137817E+01  0.000000000000E+00
  0.800000000000E+02  0.505263137817E+01  0.000000000000E+00
  0.400000000000E+01  0.463157892227E+01  0.000000000000E+00
  0.800000000000E+02  0.463157892227E+01  0.000000000000E+00
  0.400000000000E+01  0.715789461136E+01  0.000000000000E+00
  0.800000000000E+02  0.715789461136E+01  0.000000000000E+00
  0.400000000000E+01  0.673684215546E+01  0.000000000000E+00
  0.800000000000E+02  0.673684215546E+01  0.000000000000E+00
  0.400000000000E+01  0.168421053886E+01  0.000000000000E+00
  0.800000000000E+02  0.168421053886E+01  0.000000000000E+00
  0.400000000000E+01  0.126315784454E+01  0.000000000000E+00
  0.800000000000E+02  0.126315784454E+01  0.000000000000E+00
  0.400000000000E+01  0.631578969955E+01  0.000000000000E+00
  0.800000000000E+02  0.631578969955E+01  0.000000000000E+00
  0.400000000000E+01  0.294736838341E+01  0.000000000000E+00
  0.800000000000E+02  0.294736838341E+01  0.000000000000E+00
  0.400000000000E+01  0.421052646637E+01  0.000000000000E+00
  0.800000000000E+02  0.421052646637E+01  0.000000000000E+00
  0.400000000000E+01  0.757894754410E+01  0.000000000000E+00
  0.800000000000E+02  0.757894754410E+01  0.000000000000E+00
  0.400000000000E+01  0.842105269432E+00  0.000000000000E+00
  0.800000000000E+02  0.842105269432E+00  0.000000000000E+00
  0.400000000000E+01  0.800000000000E+01  0.000000000000E+00
  0.800000000000E+02  0.800000000000E+01  0.000000000000E+00
POLYGONS                  38                 152
3                   8                   9                  11
3                   8                  11                  10
3                  36                  37                   9
3                  36                   9                   8
3                  26                  27                  37
3                  26                  37                  36
3                  24                  25                  27
3                  24                  27                  26
3                   6                   7                  25
3                   6                  25                  24
3                   4                   5                   7
3                   4                   7                   6
3                  30                  31                   5
3                  30                   5                   4
3                  14                  15                  31
3                  14                  31                  30
3                  12                  13                  15
3                  12                  15                  14
3                  32                  33                  13
3                  32                  13                  12
3                  18                  19                  33
3                  18                  33                  32
3                  16                  17                  19
3                  16                  19                  18
3                   2                   3                  17
3                   2                  17                  16
3                   0                   1                   3
3                   0                   3                   2
3                  28                  29                   1
3                  28                   1                   0
3                  22                  23                  29
3                  22                  29                  28
3                  20                  21                  23
3                  20                  23                  22
3                  34                  35                  21
3                  34                  21                  20
3                  38                  39                  35
3                  38                  35                  34
CELL_DATA                  38
NORMALS normals float
 -0.000000000000E+00 -0.000000000000E+00 -0.100000000000E+01
 -0.000000000000E+00 -0.000000000000E+00 -0.100000000000E+01
 -0.000000000000E+00 -0.000000000000E+00 -0.100000000000E+01
 -0.000000000000E+00 -0.000000000000E+00 -0.100000000000E+01
 -0.000000000000E+00 -0.000000000000E+00 -0.100000000000E+01
 -0.000000000000E+00 -0.000000000000E+00 -0.100000000000E+01
 -0.000000000000E+00 -0.000000000000E+00 -0.100000000000E+01
 -0.000000000000E+00 -0.000000000000E+00 -0.100000000000E+01
 -0.000000000000E+00 -0.000000000000E+00 -0.100000000000E+01
 -0.000000000000E+00 -0.000000000000E+00 -0.100000000000E+01
 -0.000000000000E+00 -0.000000000000E+00 -0.100000000000E+01
 -0.000000000000E+00 -0.000000000000E+00 -0.100000000000E+01
 -0.000000000000E+00 -0.000000000000E+00 -0.100000000000E+01
 -0.000000000000E+00 -0.000000000000E+00 -0.100000000000E+01
 -0.000000000000E+00 -0.000000000000E+00 -0.100000000000E+01
 -0.000000000000E+00 -0.000000000000E+00 -0.100000000000E+01
 -0.000000000000E+00 -0.000000000000E+00 -0.100000000000E+01
 -0.000000000000E+00 -0.000000000000E+00 -0.100000000000E+01
 -0.000000000000E+00 -0.000000000000E+00 -0.100000000000E+01
 -0.000000000000E+00 -0.000000000000E+00 -0.100000000000E+01
 -0.000000000000E+00 -0.000000000000E+00 -0.100000000000E+01
 -0.000000000000E+00 -0.000000000000E+00 -0.100000000000E+01
 -0.000000000000E+00 -0.000000000000E+00 -0.100000000000E+01
 -0.000000000000E+00 -0.000000000000E+00 -0.100000000000E+01
 -0.000000000000E+00 -0.000000000000E+00 -0.100000000000E+01
 -0.000000000000E+00 -0.000000000000E+00 -0.100000000000E+01
 -0.000000000000E+00 -0.000000000000E+00 -0.100000000000E+01
 -0.000000000000E+00 -0.000000000000E+00 -0.100000000000E+01
 -0.000000000000E+00 -0.000000000000E+00 -0.100000000000E+01
 -0.000000000000E+00 -0.000000000000E+00 -0.100000000000E+01
 -0.000000000000E+00 -0.000000000000E+00 -0.100000000000E+01
 -0.000000000000E+00 -0.000000000000E+00 -0.100000000000E+01
 -0.000000000000E+00 -0.000000000000E+00 -0.100000000000E+01
 -0.000000000000E+00 -0.000000000000E+00 -0.100000000000E+01
 -0.000000000000E+00 -0.000000000000E+00 -0.100000000000E+01
 -0.000000000000E+00 -0.000000000000E+00 -0.100000000000E+01
 -0.000000000000E+00 -0.000000000000E+00 -0.100000000000E+01
 -0.000000000000E+00 -0.000000000000E+00 -0.100000000000E+01
POINT_DATA                  40
SCALARS mu float 1
LOOKUP_TABLE default
 -0.861544417752E-08
 -0.861544417752E-08
 -0.976651759466E-08
 -0.976651759466E-08
  0.620458261158E-08
  0.620458261158E-08
  0.831616758790E-08
  0.831616758790E-08
  0.323103273997E-07
  0.323103273997E-07
  0.447216948335E-07
  0.447216948335E-07
  0.318485268713E-08
  0.318485268713E-08
  0.703550373515E-08
  0.703550373515E-08
 -0.616842735224E-08
 -0.616842735224E-08
  0.340697420276E-08
  0.340697420276E-08
 -0.703677198455E-08
 -0.703677198455E-08
 -0.390816423668E-08
 -0.390816423668E-08
  0.121017453975E-07
  0.121017453975E-07
  0.213943292526E-07
  0.213943292526E-07
 -0.111171441358E-07
 -0.111171441358E-07
  0.155198590368E-07
  0.155198590368E-07
  0.348395373662E-08
  0.348395373662E-08
 -0.384944770504E-08
 -0.384944770504E-08
  0.140852180475E-07
  0.140852180475E-07
  0.000000000000E+00
  0.000000000000E+00
