# vtk DataFile Version 3.0
TriPan results file. Generated by TriPan, USU AeroLab (c) 2021.
ASCII
DATASET POLYDATA
POINTS                 331 float
      0.000000000000      0.000000000000      0.000000000000
      0.627342462540      0.000000000000      0.528038680553
      0.718943834305      0.000000000000     -0.556546747684
      2.251899719240      0.000000000000      0.908905863762
      2.524108648300      0.000000000000     -0.949768483639
      3.500000000000      3.500000000000      0.000000000000
      4.134259223940      3.500000000000      0.527145922184
      4.219317913060      3.500000000000     -0.553617775440
      5.066364765170      0.000000000000      1.176580429080
      5.652109622960      0.000000000000     -1.194623589520
      5.771846771240      3.500000000000      0.904397666454
      6.024611949920      3.500000000000     -0.942341506481
      7.000000000000      7.000000000000      0.000000000000
      7.641176223750      7.000000000000      0.526253223419
      7.719691753390      7.000000000000     -0.550688743591
      8.608763694760      3.500000000000      1.163909077640
      8.887207031250      0.000000000000      1.103347063060
      9.152669906620      3.500000000000     -1.180663347240
      9.291793823240      7.000000000000      0.899889409542
      9.525115013120      7.000000000000     -0.934914529324
      9.890516281130      0.000000000000     -1.032292366030
     10.500000000000     10.500000000000      0.000000000000
     11.148093223600     10.500000000000      0.525360524654
     11.220065116900     10.500000000000     -0.547759771347
     12.151162147500      7.000000000000      1.151237726210
     12.459120750400      3.500000000000      1.087806940080
     12.653229713400      7.000000000000     -1.166703224180
     12.696372032200      0.000000000000      0.779439866543
     12.811740875200     10.500000000000      0.895381212234
     13.025618553200     10.500000000000     -0.927487552166
     13.390765190100      3.500000000000     -1.021827578540
     14.000000000000     14.000000000000      0.000000000000
     14.114344596900      0.000000000000     -0.632013857365
     14.655010223400     14.000000000000      0.524467825890
     14.720438957200     14.000000000000     -0.544830739498
     15.508930206300      0.000000000000      0.482911854982
     15.693560600300     10.500000000000      1.138566255570
     16.031034469600      7.000000000000      1.072266817090
     16.153789520300     10.500000000000     -1.152742981910
     16.298038482700      3.500000000000      0.765960037708
     16.331687927200     14.000000000000      0.890873014927
     16.526123046900     14.000000000000     -0.920060575008
     16.891014099100      7.000000000000     -1.011362791060
     17.159523010300      0.000000000000      0.305015206337
     17.235124588000      0.000000000000     -0.296550959349
     17.500000000000     17.500000000000      0.000000000000
     17.614728927600      3.500000000000     -0.629064500332
     18.000000000000      0.000000000000      0.214000001550
     18.161926269500     17.500000000000      0.523575127125
     18.220813751200     17.500000000000     -0.541901767254
     18.500000000000      0.000000000000      0.160500004888
     19.000000000000      0.000000000000      0.107000000775
     19.067056655900      0.000000000000     -0.099576070905
     19.132579803500      3.500000000000      0.469899713993
     19.235960006700     14.000000000000      1.125894904140
     19.500000000000      0.000000000000      0.053500000387
     19.602947235100     10.500000000000      1.056726694110
     19.654348373400     14.000000000000     -1.138782858850
     19.851634979200     17.500000000000      0.886364758015
     19.899705886800      7.000000000000      0.752480268478
     20.000000000000      0.000000000000      0.000000000000
     20.026626586900     17.500000000000     -0.912633597851
     20.391262054400     10.500000000000     -1.000898003580
     20.735475540200      3.500000000000     -0.296850323677
     20.795934677100      3.500000000000      0.290817528963
     21.000000000000     21.000000000000      0.000000000000
     21.115112304700      7.000000000000     -0.626115143299
     21.642856597900      3.500000000000      0.198714300990
     21.668844223000     21.000000000000      0.522682368755
     21.721187591600     21.000000000000     -0.538972735405
     22.107143402100      3.500000000000      0.149035722017
     22.567216873200      3.500000000000     -0.100052610040
     22.571428299000      3.500000000000      0.099357150495
     22.756229400600      7.000000000000      0.456887573004
     22.778358459500     17.500000000000      1.113223552700
     23.035715103100      3.500000000000      0.049678575248
     23.154909133900     17.500000000000     -1.124822616580
     23.174861908000     14.000000000000      1.041186571120
     23.371582031200     21.000000000000      0.881856560707
     23.500000000000      3.500000000000      0.000000000000
     23.501373291000     10.500000000000      0.739000499249
     23.527130127000     21.000000000000     -0.905206620693
     23.891511917100     14.000000000000     -0.990433216095
     24.235824585000      7.000000000000     -0.297149658203
     24.432346344000      7.000000000000      0.276619851589
     24.500000000000     24.500000000000      0.000000000000
     24.615495681800     10.500000000000     -0.623165786266
     25.175760269200     24.500000000000      0.521789669991
     25.221561431900     24.500000000000     -0.536043763161
     25.285713195800      7.000000000000      0.183428585529
     25.714284896900      7.000000000000      0.137571439147
     26.067375183100      7.000000000000     -0.100529156625
     26.142856597900      7.000000000000      0.091714292765
     26.320756912200     21.000000000000      1.100552082060
     26.379878997800     10.500000000000      0.443875432014
     26.571428299000      7.000000000000      0.045857146382
     26.655467987100     21.000000000000     -1.110862493520
     26.746774673500     17.500000000000      1.025646448140
     26.891529083300     24.500000000000      0.877348303795
     27.000000000000      7.000000000000      0.000000000000
     27.027631759600     24.500000000000     -0.897779583931
     27.103040695200     14.000000000000      0.725520670414
     27.391759872400     17.500000000000     -0.979968428612
     27.736175537100     10.500000000000     -0.297448992729
     28.000000000000     28.000000000000      0.000000000000
     28.068758010900     10.500000000000      0.262422174215
     28.115879058800     14.000000000000     -0.620216429234
     28.682676315300     28.000000000000      0.520896971226
     28.721935272200     28.000000000000     -0.533114731312
     28.928571701000     10.500000000000      0.168142870069
     29.321428299000     10.500000000000      0.126107141376
     29.567535400400     10.500000000000     -0.101005695760
     29.714284896900     10.500000000000      0.084071435034
     29.863155365000     24.500000000000      1.087880730630
     30.003528595000     14.000000000000      0.430863291025
     30.107143402100     10.500000000000      0.042035717517
     30.156028747600     24.500000000000     -1.096902251240
     30.318689346300     21.000000000000      1.010106444360
     30.411474227900     28.000000000000      0.872840106487
     30.500000000000     10.500000000000      0.000000000000
     30.528135299700     28.000000000000     -0.890352606773
     30.704708099400     17.500000000000      0.712040901184
     30.892007827800     21.000000000000     -0.969503700733
     31.236524581900     14.000000000000     -0.297748357058
     31.500000000000     31.500000000000      0.000000000000
     31.616262435900     17.500000000000     -0.617267072201
     31.705169677700     14.000000000000      0.248224481940
     32.189594268800     31.500000000000      0.520004272461
     32.222309112500     31.500000000000     -0.530185699463
     32.571426391600     14.000000000000      0.152857154608
     32.928569793700     14.000000000000      0.114642858505
     33.067695617700     14.000000000000     -0.101482242346
     33.285713195800     14.000000000000      0.076428577304
     33.405555725100     28.000000000000      1.075209379200
     33.627178192100     17.500000000000      0.417851120234
     33.642856597900     14.000000000000      0.038214288652
     33.656589508100     28.000000000000     -1.082942128180
     33.890602111800     24.500000000000      0.994566261768
     33.931423187300     31.500000000000      0.868331849575
     34.000000000000     14.000000000000      0.000000000000
     34.028640747100     31.500000000000     -0.882925629616
     34.306373596200     21.000000000000      0.698561131954
     34.392257690400     24.500000000000     -0.959038913250
     34.736877441400     17.500000000000     -0.298047691584
     35.000000000000     35.000000000000      0.000000000000
     35.116645813000     21.000000000000     -0.614317715168
     35.341583252000     17.500000000000      0.234026804566
     35.696510314900     35.000000000000      0.519111573696
     35.722682952900     35.000000000000     -0.527256727219
     36.214286804200     17.500000000000      0.137571439147
     36.535713195800     17.500000000000      0.103178575635
     36.567852020300     17.500000000000     -0.101958788931
     36.857143402100     17.500000000000      0.068785719574
     36.947952270500     31.500000000000      1.062537908550
     37.157146453900     31.500000000000     -1.068981885910
     37.178569793700     17.500000000000      0.034392859787
     37.250827789300     21.000000000000      0.404838979244
     37.451370239300     35.000000000000      0.863823652267
     37.462516784700     28.000000000000      0.979026138783
     37.500000000000     17.500000000000      0.000000000000
     37.529144287100     35.000000000000     -0.875498652458
[...]
CELL_DATA                 612
SCALARS sigma float 1
LOOKUP_TABLE default
      0.000000000000
      0.000000000000
      0.000000000000
      0.000000000000
      0.000000000000
      0.000000000000
      0.000000000000
      0.000000000000
      0.000000000000
      0.000000000000
      0.000000000000
      0.000000000000
      0.000000000000
      0.000000000000
      0.000000000000
      0.000000000000
      0.000000000000
      0.000000000000
      0.000000000000
      0.000000000000
      0.000000000000
      0.000000000000
      0.000000000000
      0.000000000000
      0.000000000000
      0.000000000000
      0.000000000000
      0.000000000000
      0.000000000000
      0.000000000000
      0.000000000000
      0.000000000000
      0.000000000000
      0.000000000000
      0.000000000000
      0.000000000000
      0.000000000000
      0.000000000000
      0.000000000000
      0.000000000000
      0.000000000000
      0.000000000000
      0.000000000000
      0.000000000000
      0.000000000000
      0.000000000000
      0.000000000000
      0.000000000000
      0.000000000000
      0.000000000000
      0.000000000000
      0.000000000000
      0.000000000000
      0.000000000000
      0.000000000000
      0.000000000000
      0.000000000000
      0.000000000000
      0.000000000000
      0.000000000000
      0.000000000000
      0.000000000000
      0.000000000000
      0.000000000000
      0.000000000000
      0.000000000000
      0.000000000000
      0.000000000000
      0.000000000000
      0.000000000000
      0.000000000000
      0.000000000000
      0.000000000000
      0.000000000000
      0.000000000000
      0.000000000000
      0.000000000000
      0.000000000000
      0.000000000000
      0.000000000000
      0.000000000000
      0.000000000000
      0.000000000000
      0.000000000000
      0.000000000000
      0.000000000000
      0.000000000000
      0.000000000000
      0.000000000000
      0.000000000000
      0.000000000000
      0.000000000000
      0.000000000000
      0.000000000000
      0.000000000000
      0.000000000000
      0.000000000000
      0.000000000000
      0.000000000000
      0.000000000000
      0.000000000000
      0.000000000000
      0.000000000000
      0.000000000000
      0.000000000000
      0.000000000000
      0.000000000000
      0.000000000000
      0.000000000000
      0.000000000000
      0.000000000000
      0.000000000000
      0.000000000000
      0.000000000000
      0.000000000000
      0.000000000000
      0.000000000000
      0.000000000000
      0.000000000000
      0.000000000000
      0.000000000000
      0.000000000000
      0.000000000000
      0.000000000000
      0.000000000000
      0.000000000000
      0.000000000000
      0.000000000000
      0.000000000000
      0.000000000000
      0.000000000000
      0.000000000000
      0.000000000000
      0.000000000000
      0.000000000000
      0.000000000000
      0.000000000000
      0.000000000000
      0.000000000000
      0.000000000000
      0.000000000000
      0.000000000000
      0.000000000000
      0.000000000000
      0.000000000000
      0.000000000000
      0.000000000000
      0.000000000000
      0.000000000000
      0.000000000000
      0.000000000000
      0.000000000000
      0.000000000000
      0.000000000000
      0.000000000000
      0.000000000000
      0.000000000000
      0.000000000000
      0.000000000000
      0.000000000000
      0.000000000000
      0.000000000000
      0.000000000000
      0.000000000000
      0.000000000000
      0.000000000000
      0.000000000000
      0.000000000000
      0.000000000000
      0.000000000000
      0.000000000000
      0.000000000000
      0.000000000000
      0.000000000000
      0.000000000000
      0.000000000000
      0.000000000000
      0.000000000000
      0.000000000000
      0.000000000000
      0.000000000000
      0.000000000000
      0.000000000000
      0.000000000000
      0.000000000000
      0.000000000000
      0.000000000000
      0.000000000000
      0.000000000000
      0.000000000000
      0.000000000000
      0.000000000000
      0.000000000000
      0.000000000000
      0.000000000000
      0.000000000000
      0.000000000000
      0.000000000000
      0.000000000000
      0.000000000000
      0.000000000000
      0.000000000000
      0.000000000000
      0.000000000000
      0.000000000000
      0.000000000000
      0.000000000000
      0.000000000000
      0.000000000000
      0.000000000000
      0.000000000000
      0.000000000000
      0.000000000000
      0.000000000000
      0.000000000000
      0.000000000000
      0.000000000000
      0.000000000000
      0.000000000000
      0.000000000000
      0.000000000000
      0.000000000000
      0.000000000000
      0.000000000000
      0.000000000000
      0.000000000000
      0.000000000000
      0.000000000000
      0.000000000000
      0.000000000000
      0.000000000000
      0.000000000000
      0.000000000000
      0.000000000000
      0.000000000000
      0.000000000000
      0.000000000000
      0.000000000000
      0.000000000000
      0.000000000000
      0.000000000000
      0.000000000000
      0.000000000000
      0.000000000000
      0.000000000000
      0.000000000000
      0.000000000000
      0.000000000000
      0.000000000000
      0.000000000000
      0.000000000000
      0.000000000000
      0.000000000000
      0.000000000000
      0.000000000000
      0.000000000000
      0.000000000000
      0.000000000000
      0.000000000000
      0.000000000000
      0.000000000000
      0.000000000000
      0.000000000000
      0.000000000000
      0.000000000000
      0.000000000000
      0.000000000000
      0.000000000000
      0.000000000000
      0.000000000000
      0.000000000000
      0.000000000000
      0.000000000000
      0.000000000000
      0.000000000000
      0.000000000000
      0.000000000000
      0.000000000000
      0.000000000000
      0.000000000000
      0.000000000000
      0.000000000000
      0.000000000000
      0.000000000000
      0.000000000000
      0.000000000000
      0.000000000000
      0.000000000000
      0.000000000000
      0.000000000000
      0.000000000000
      0.000000000000
      0.000000000000
      0.000000000000
      0.000000000000
      0.000000000000
      0.000000000000
      0.000000000000
      0.000000000000
      0.000000000000
      0.000000000000
      0.000000000000
      0.000000000000
      0.000000000000
      0.000000000000
      0.000000000000
      0.000000000000
      0.000000000000
      0.000000000000
      0.000000000000
      0.000000000000
      0.000000000000
      0.000000000000
      0.000000000000
      0.000000000000
      0.000000000000
      0.000000000000
      0.000000000000
      0.000000000000
      0.000000000000
      0.000000000000
      0.000000000000
      0.000000000000
      0.000000000000
      0.000000000000
      0.000000000000
      0.000000000000
      0.000000000000
      0.000000000000
      0.000000000000
      0.000000000000
      0.000000000000
      0.000000000000
      0.000000000000
      0.000000000000
      0.000000000000
      0.000000000000
      0.000000000000
      0.000000000000
      0.000000000000
      0.000000000000
      0.000000000000
      0.000000000000
      0.000000000000
      0.000000000000
      0.000000000000
      0.000000000000
      0.000000000000
      0.000000000000
      0.000000000000
      0.000000000000
      0.000000000000
      0.000000000000
      0.000000000000
      0.000000000000
      0.000000000000
      0.000000000000
      0.000000000000
      0.000000000000
      0.000000000000
      0.000000000000
      0.000000000000
      0.000000000000
      0.000000000000
      0.000000000000
      0.000000000000
      0.000000000000
      0.000000000000
      0.000000000000
      0.000000000000
      0.000000000000
      0.000000000000
      0.000000000000
      0.000000000000
      0.000000000000
      0.000000000000
      0.000000000000
      0.000000000000
      0.000000000000
      0.000000000000
      0.000000000000
      0.000000000000
      0.000000000000
      0.000000000000
      0.000000000000
      0.000000000000
      0.000000000000
      0.000000000000
      0.000000000000
      0.000000000000
      0.000000000000
      0.000000000000
      0.000000000000
      0.000000000000
      0.000000000000
      0.000000000000
      0.000000000000
      0.000000000000
      0.000000000000
      0.000000000000
      0.000000000000
      0.000000000000
      0.000000000000
      0.000000000000
      0.000000000000
      0.000000000000
      0.000000000000
      0.000000000000
      0.000000000000
      0.000000000000
      0.000000000000
      0.000000000000
      0.000000000000
      0.000000000000
      0.000000000000
      0.000000000000
      0.000000000000
      0.000000000000
      0.000000000000
      0.000000000000
      0.000000000000
      0.000000000000
      0.000000000000
      0.000000000000
      0.000000000000
      0.000000000000
      0.000000000000
      0.000000000000
      0.000000000000
      0.000000000000
      0.000000000000
      0.000000000000
      0.000000000000
      0.000000000000
      0.000000000000
      0.000000000000
      0.000000000000
      0.000000000000
      0.000000000000
      0.000000000000
      0.000000000000
      0.000000000000
      0.000000000000
      0.000000000000
      0.000000000000
      0.000000000000
      0.000000000000
      0.000000000000
      0.000000000000
      0.000000000000
      0.000000000000
      0.000000000000
      0.000000000000
      0.000000000000
      0.000000000000
      0.000000000000
      0.000000000000
      0.000000000000
      0.000000000000
      0.000000000000
      0.000000000000
      0.000000000000
      0.000000000000
      0.000000000000
      0.000000000000
      0.000000000000
      0.000000000000
      0.000000000000
      0.000000000000
      0.000000000000
      0.000000000000
      0.000000000000
      0.000000000000
      0.000000000000
      0.000000000000
      0.000000000000
      0.000000000000
      0.000000000000
      0.000000000000
      0.000000000000
      0.000000000000
      0.000000000000
      0.000000000000
      0.000000000000
      0.000000000000
      0.000000000000
      0.000000000000
      0.000000000000
      0.000000000000
      0.000000000000
      0.000000000000
      0.000000000000
      0.000000000000
      0.000000000000
      0.000000000000
      0.000000000000
      0.000000000000
      0.000000000000
      0.000000000000
      0.000000000000
      0.000000000000
      0.000000000000
      0.000000000000
      0.000000000000
      0.000000000000
      0.000000000000
      0.000000000000
      0.000000000000
      0.000000000000
      0.000000000000
      0.000000000000
      0.000000000000
      0.000000000000
      0.000000000000
      0.000000000000
      0.000000000000
      0.000000000000
      0.000000000000
      0.000000000000
      0.000000000000
      0.000000000000
      0.000000000000
      0.000000000000
      0.000000000000
      0.000000000000
      0.000000000000
      0.000000000000
      0.000000000000
      0.000000000000
      0.000000000000
      0.000000000000
      0.000000000000
      0.000000000000
      0.000000000000
      0.000000000000
      0.000000000000
      0.000000000000
      0.000000000000
      0.000000000000
      0.000000000000
      0.000000000000
      0.000000000000
      0.000000000000
      0.000000000000
      0.000000000000
      0.000000000000
      0.000000000000
      0.000000000000
      0.000000000000
      0.000000000000
      0.000000000000
      0.000000000000
      0.000000000000
      0.000000000000
      0.000000000000
      0.000000000000
      0.000000000000
      0.000000000000
      0.000000000000
      0.000000000000
      0.000000000000
      0.000000000000
      0.000000000000
      0.000000000000
      0.000000000000
      0.000000000000
      0.000000000000
      0.000000000000
      0.000000000000
      0.000000000000
      0.000000000000
      0.000000000000
      0.000000000000
      0.000000000000
      0.000000000000
      0.000000000000
      0.000000000000
      0.000000000000
      0.000000000000
      0.000000000000
      0.000000000000
      0.000000000000
      0.000000000000
      0.000000000000
      0.000000000000
      0.000000000000
      0.000000000000
      0.000000000000
      0.000000000000
      0.000000000000
      0.000000000000
      0.000000000000
      0.000000000000
      0.000000000000
      0.000000000000
      0.000000000000
      0.000000000000
      0.000000000000
      0.000000000000
      0.000000000000
      0.000000000000
      0.000000000000
      0.000000000000
      0.000000000000
      0.000000000000
      0.000000000000
      0.000000000000
      0.000000000000
      0.000000000000
      0.000000000000
      0.000000000000
      0.000000000000
SCALARS C_p float 1
LOOKUP_TABLE default
      0.569785034407
   -453.856392066260
     -4.561198900972
  -1633.720929539035
    -58.139967942931
  -1382.893480236219
     -5.980960184211
    -12.365280349131
     -3.314339978823
     -2.616357353445
     -2.030697179554
     -1.575202641775
     -1.221867780287
     -1.551261887854
     -0.959565439916
     -1.432649675179
     -0.688460055169
     -1.609997337786
     -0.060778697126
     -1.630400755568
      0.346316274448
      0.613302798609
      0.561355896984
      0.520327313669
      0.484865643721
      0.419487893869
      0.544774165759
      0.436690461884
      0.585563877478
      0.769748761212
      0.816981782889
      0.947270680488
      0.931304899664
      0.815235323288
     -0.058990347170
      0.394130436095
     -3.688403347426
     -0.306339916212
    -15.554360024238
     -1.297328802496
     -0.795825678799
     -2.566611516326
     -1.008656745169
     -1.817659497040
     -1.961380284916
     -6.310876760498
     -2.436718837272
     -7.395558032102
     -2.179953748557
     -3.970748235690
     -1.921038929677
     -2.204608913610
     -1.575394276387
     -1.794007540382
     -1.424081106763
     -1.822669341908
     -1.554246553976
     -2.239016346676
     -1.574198007823
     -2.733884396479
     -0.182220690577
      0.328686427257
      0.550519377928
      0.550887362597
      0.540528359700
      0.488890610948
      0.592732391300
      0.553911501432
      0.695836315773
      0.685560476358
      0.598239081067
      0.503487799014
     -0.427590694861
      0.097141945714
     -2.069426236516
     -0.240428489858
     -3.874874767966
     -0.538257457182
     -5.025611510120
     -0.897317976101
     -0.017642336422
     -0.046761166621
     -0.035499899310
     -0.074038574775
     -0.488415159580
     -0.975534715226
     -0.897950276191
     -1.609915852610
     -1.248666308987
     -1.971644936531
     -1.542527006284
     -2.005408594928
     -1.917756027569
     -1.717192894566
     -1.833973563686
     -2.021906039950
     -2.203164121721
     -2.724568586642
     -2.695948279220
     -3.730073267020
     -0.659063071927
     -0.097759469597
      0.523595818131
      0.578465704866
      0.549839996060
      0.544312560223
      0.554042553764
      0.554117091586
      0.593951361772
      0.450290795211
      0.449708829196
      0.271299381708
      0.216527104904
      0.128664220160
      0.081017240826
      0.058681564726
      0.004480694958
      0.025254726968
     -0.019138368248
     -0.009767314651
      0.158430026330
      0.204085368160
      0.177589270899
      0.217997829068
     -0.119059616525
     -0.276735286558
     -0.487013661509
     -0.647513225682
     -0.819663148247
     -1.028095004832
     -1.212064562808
     -1.441619767311
     -1.861579415158
     -1.572982790440
     -2.071418182683
     -2.068508654694
     -2.714699249180
     -3.025072939635
     -3.697566329180
     -4.482282249850
     -1.047703833338
     -0.586215008944
      0.484312956424
      0.538516548733
      0.530595416753
      0.532055020342
      0.492445955745
      0.486388199718
      0.486545936070
      0.378115136909
      0.400327845155
      0.301148770376
      0.322865311265
      0.253042246614
      0.270699929550
      0.221471784975
      0.253864652241
      0.211276973596
      0.237606546224
      0.185301774852
      0.372006328192
      0.262399505594
      0.432639568627
      0.301429266352
     -0.286166115901
     -0.064134550196
     -0.446038515423
     -0.392295092293
     -0.702447640569
     -0.711309436364
     -1.059300305818
     -1.116228755091
     -1.630002450002
     -1.503836534867
     -2.103000926598
     -2.086283369429
     -3.022558686456
     -3.214447808466
     -4.457070185363
     -5.016925690840
     -1.330331771809
     -0.994698037757
      0.452429545605
      0.492146955405
      0.516087413151
      0.516827921281
      0.465331511772
      0.464786684782
      0.437533536482
      0.404567227579
      0.391541689169
      0.377559175246
      0.358901283099
      0.363030610098
      0.330369045188
      0.355730744767
      0.325306222474
      0.361359300062
      0.296466377897
      0.362410304796
      0.217186330545
      0.418660136931
      0.230249085223
      0.482630463750
     -0.000193232962
     -0.276616894724
     -0.441248312512
     -0.413819516305
     -0.740654055107
     -0.648798142197
     -1.065407264211
     -0.998547706397
     -1.473887315117
     -1.540780086320
     -2.069246018334
     -2.164638384763
     -3.189717506995
     -3.419835600213
     -4.990466225261
     -5.529386252970
     -1.607620167619
     -1.281495617582
      0.424127697655
      0.474881708226
      0.523651282343
      0.530488483347
      0.487257177581
      0.485201787589
      0.446215810127
      0.480348225249
      0.429471646480
      0.476113458221
      0.417938736856
      0.455471796448
      0.407925289398
      0.416565682510
      0.413376833370
      0.369912980215
      0.410624603219
      0.281023307352
      0.478215500037
      0.105797059815
      0.526635911015
      0.113753263294
     -0.456205529138
     -0.174762774336
     -0.755232157262
     -0.466866096866
     -0.985402800254
     -0.714955377994
     -1.238343557961
     -1.027690623439
     -1.443908960933
     -1.717862642401
     -2.085846001923
     -2.370803455294
     -3.352173370382
     -3.767464321738
     -5.487953406167
     -6.274872363540
     -2.033963101336
     -1.539081696463
      0.377555096740
      0.478753548904
      0.553016339962
      0.574775605287
      0.554516157701
      0.542907704760
      0.505866390491
      0.602995283943
      0.503617927987
      0.623767258593
      0.470988231944
      0.619521877533
      0.407164923358
      0.591188138596
      0.332308992150
      0.552594655415
      0.206676824092
      0.501001786945
      0.570236207464
      0.160893124108
      0.586050343470
      0.229378293382
     -1.123166177465
     -0.818525621844
     -1.514206995213
     -0.902582692186
     -1.629155826152
     -0.999293717201
     -1.689564151283
     -1.215322658987
     -1.557684790254
     -2.119515439424
     -2.217254208856
     -2.794327090496
     -3.635456899723
     -4.401918462332
     -6.200312457092
     -7.561860053073
     -2.818687637968
     -1.917780568107
      0.266984146585
      0.483223680723
      0.588782364295
      0.650805623890
      0.657715062365
      0.639964843452
      0.616809901814
      0.780354070320
      0.617617116688
      0.826691126450
      0.543071721640
      0.829654085290
      0.421833985971
      0.780576739185
      0.309264749369
      0.698363540635
      0.220954136185
      0.614302090542
      0.536330088428
     -0.878502290675
      0.494579028783
     -0.897821399301
     -3.405898132764
     -2.448376519441
     -3.748039349289
     -2.033944248446
     -3.297209005419
     -1.727097865737
     -2.729841655055
     -1.680812713213
     -1.887597696582
     -2.939678144078