# vtk DataFile Version 3.0
TriPan results file. Generated by TriPan, USU AeroLab (c) 2021.
ASCII
DATASET POLYDATA
POINTS                  80 float
  0.400000000000E+01  0.000000000000E+00  0.000000000000E+00
 -0.949826225609E+02  0.296947867683E+02 -0.989826225609E+01
  0.400000000000E+01  0.421052634716E+00  0.000000000000E+00
 -0.948677900242E+02  0.300813896420E+02 -0.988677900242E+01
  0.400000000000E+01  0.842105269432E+00  0.000000000000E+00
 -0.947529574874E+02  0.304679925157E+02 -0.987529574874E+01
  0.400000000000E+01  0.126315784454E+01  0.000000000000E+00
 -0.946381249670E+02  0.308545953346E+02 -0.986381249670E+01
  0.400000000000E+01  0.168421053886E+01  0.000000000000E+00
 -0.945232924140E+02  0.312411982630E+02 -0.985232924140E+01
  0.400000000000E+01  0.210526323318E+01  0.000000000000E+00
 -0.944084598610E+02  0.316278011915E+02 -0.984084598610E+01
  0.400000000000E+01  0.252631568909E+01  0.000000000000E+00
 -0.942936273730E+02  0.320144039010E+02 -0.982936273730E+01
  0.400000000000E+01  0.294736838341E+01  0.000000000000E+00
 -0.941787948200E+02  0.324010068294E+02 -0.981787948200E+01
  0.400000000000E+01  0.336842107773E+01  0.000000000000E+00
 -0.940639622670E+02  0.327876097578E+02 -0.980639622670E+01
  0.400000000000E+01  0.378947377205E+01  0.000000000000E+00
 -0.939491297140E+02  0.331742126863E+02 -0.979491297140E+01
  0.400000000000E+01  0.421052646637E+01  0.000000000000E+00
 -0.938342971610E+02  0.335608156147E+02 -0.978342971610E+01
  0.400000000000E+01  0.463157892227E+01  0.000000000000E+00
 -0.937194646730E+02  0.339474183242E+02 -0.977194646730E+01
  0.400000000000E+01  0.505263137817E+01  0.000000000000E+00
 -0.936046321851E+02  0.343340210337E+02 -0.976046321851E+01
  0.400000000000E+01  0.547368431091E+01  0.000000000000E+00
 -0.934897995670E+02  0.347206241810E+02 -0.974897995670E+01
  0.400000000000E+01  0.589473676682E+01  0.000000000000E+00
 -0.933749670791E+02  0.351072268905E+02 -0.973749670791E+01
  0.400000000000E+01  0.631578969955E+01  0.000000000000E+00
 -0.932601344610E+02  0.354938300379E+02 -0.972601344610E+01
  0.400000000000E+01  0.673684215546E+01  0.000000000000E+00
 -0.931453019731E+02  0.358804327474E+02 -0.971453019731E+01
  0.400000000000E+01  0.715789461136E+01  0.000000000000E+00
 -0.930304694851E+02  0.362670354569E+02 -0.970304694851E+01
  0.400000000000E+01  0.757894754410E+01  0.000000000000E+00
 -0.929156368671E+02  0.366536386042E+02 -0.969156368671E+01
  0.400000000000E+01  0.800000000000E+01  0.000000000000E+00
 -0.928008043791E+02  0.370402413137E+02 -0.968008043791E+01
  0.400000000000E+01  0.000000000000E+00  0.000000000000E+00
 -0.949826225609E+02  0.296947867683E+02 -0.989826225609E+01
  0.400000000000E+01 -0.421052634716E+00  0.000000000000E+00
 -0.950974550977E+02  0.293081838946E+02 -0.990974550977E+01
  0.400000000000E+01 -0.842105269432E+00  0.000000000000E+00
 -0.952122876344E+02  0.289215810209E+02 -0.992122876344E+01
  0.400000000000E+01 -0.126315784454E+01  0.000000000000E+00
 -0.953271201549E+02  0.285349782019E+02 -0.993271201549E+01
  0.400000000000E+01 -0.168421053886E+01  0.000000000000E+00
 -0.954419527079E+02  0.281483752735E+02 -0.994419527079E+01
  0.400000000000E+01 -0.210526323318E+01  0.000000000000E+00
 -0.955567852609E+02  0.277617723451E+02 -0.995567852609E+01
  0.400000000000E+01 -0.252631568909E+01  0.000000000000E+00
 -0.956716177489E+02  0.273751696356E+02 -0.996716177489E+01
  0.400000000000E+01 -0.294736838341E+01  0.000000000000E+00
 -0.957864503019E+02  0.269885667071E+02 -0.997864503019E+01
  0.400000000000E+01 -0.336842107773E+01  0.000000000000E+00
 -0.959012828548E+02  0.266019637787E+02 -0.999012828548E+01
  0.400000000000E+01 -0.378947377205E+01  0.000000000000E+00
 -0.960161154078E+02  0.262153608503E+02 -0.100016115408E+02
  0.400000000000E+01 -0.421052646637E+01  0.000000000000E+00
 -0.961309479608E+02  0.258287579219E+02 -0.100130947961E+02
  0.400000000000E+01 -0.463157892227E+01  0.000000000000E+00
 -0.962457804488E+02  0.254421552124E+02 -0.100245780449E+02
  0.400000000000E+01 -0.505263137817E+01  0.000000000000E+00
 -0.963606129368E+02  0.250555525029E+02 -0.100360612937E+02
  0.400000000000E+01 -0.547368431091E+01  0.000000000000E+00
 -0.964754455548E+02  0.246689493555E+02 -0.100475445555E+02
  0.400000000000E+01 -0.589473676682E+01  0.000000000000E+00
 -0.965902780428E+02  0.242823466460E+02 -0.100590278043E+02
  0.400000000000E+01 -0.631578969955E+01  0.000000000000E+00
 -0.967051106608E+02  0.238957434987E+02 -0.100705110661E+02
  0.400000000000E+01 -0.673684215546E+01  0.000000000000E+00
 -0.968199431488E+02  0.235091407892E+02 -0.100819943149E+02
  0.400000000000E+01 -0.715789461136E+01  0.000000000000E+00
 -0.969347756367E+02  0.231225380797E+02 -0.100934775637E+02
  0.400000000000E+01 -0.757894754410E+01  0.000000000000E+00
 -0.970496082548E+02  0.227359349323E+02 -0.101049608255E+02
  0.400000000000E+01 -0.800000000000E+01  0.000000000000E+00
 -0.971644407427E+02  0.223493322228E+02 -0.101164440743E+02
POLYGONS                  76                 304
3                   0                   1                   3
3                   0                   3                   2
3                   2                   3                   5
3                   2                   5                   4
3                   4                   5                   7
3                   4                   7                   6
3                   6                   7                   9
3                   6                   9                   8
3                   8                   9                  11
3                   8                  11                  10
3                  10                  11                  13
3                  10                  13                  12
3                  12                  13                  15
3                  12                  15                  14
3                  14                  15                  17
3                  14                  17                  16
3                  16                  17                  19
3                  16                  19                  18
3                  18                  19                  21
3                  18                  21                  20
3                  20                  21                  23
3                  20                  23                  22
3                  22                  23                  25
3                  22                  25                  24
3                  24                  25                  27
3                  24                  27                  26
3                  26                  27                  29
3                  26                  29                  28
3                  28                  29                  31
3                  28                  31                  30
3                  30                  31                  33
3                  30                  33                  32
3                  32                  33                  35
3                  32                  35                  34
3                  34                  35                  37
3                  34                  37                  36
3                  36                  37                  39
3                  36                  39                  38
3                  43                  41                  40
3                  42                  43                  40
3                  45                  43                  42
3                  44                  45                  42
3                  47                  45                  44
3                  46                  47                  44
3                  49                  47                  46
3                  48                  49                  46
3                  51                  49                  48
3                  50                  51                  48
3                  53                  51                  50
3                  52                  53                  50
3                  55                  53                  52
3                  54                  55                  52
3                  57                  55                  54
3                  56                  57                  54
3                  59                  57                  56
3                  58                  59                  56
3                  61                  59                  58
3                  60                  61                  58
3                  63                  61                  60
3                  62                  63                  60
3                  65                  63                  62
3                  64                  65                  62
3                  67                  65                  64
3                  66                  67                  64
3                  69                  67                  66
3                  68                  69                  66
3                  71                  69                  68
3                  70                  71                  68
3                  73                  71                  70
3                  72                  73                  70
3                  75                  73                  72
3                  74                  75                  72
3                  77                  75                  74
3                  76                  77                  74
3                  79                  77                  76
3                  78                  79                  76
POINT_DATA                  80
SCALARS mu float 1
LOOKUP_TABLE default
 -0.993597897381E-05
 -0.993597897381E-05
 -0.135110420696E-04
 -0.135110420696E-04
 -0.134864634651E-04
 -0.134864634651E-04
 -0.134852998759E-04
 -0.134852998759E-04
 -0.134445316169E-04
 -0.134445316169E-04
 -0.134196582220E-04
 -0.134196582220E-04
 -0.133783009137E-04
 -0.133783009137E-04
 -0.133076230711E-04
 -0.133076230711E-04
 -0.132222194225E-04
 -0.132222194225E-04
 -0.131274092499E-04
 -0.131274092499E-04
 -0.130005283161E-04
 -0.130005283161E-04
 -0.128370177825E-04
 -0.128370177825E-04
 -0.126304138472E-04
 -0.126304138472E-04
 -0.123456872911E-04
 -0.123456872911E-04
 -0.119472230797E-04
 -0.119472230797E-04
 -0.113865525826E-04
 -0.113865525826E-04
 -0.105451858419E-04
 -0.105451858419E-04
 -0.916761028180E-05
 -0.916761028180E-05
 -0.633607022027E-05
 -0.633607022027E-05
  0.000000000000E+00
  0.000000000000E+00
 -0.993597897381E-05
 -0.993597897381E-05
 -0.135116363875E-04
 -0.135116363875E-04
 -0.134858329179E-04
 -0.134858329179E-04
 -0.134877081681E-04
 -0.134877081681E-04
 -0.134439123860E-04
 -0.134439123860E-04
 -0.134226380410E-04
 -0.134226380410E-04
 -0.133842928136E-04
 -0.133842928136E-04
 -0.133080246352E-04
 -0.133080246352E-04
 -0.132168065941E-04
 -0.132168065941E-04
 -0.131230512697E-04
 -0.131230512697E-04
 -0.129946251146E-04
 -0.129946251146E-04
 -0.128303632057E-04
 -0.128303632057E-04
 -0.126323891418E-04
 -0.126323891418E-04
 -0.123513436732E-04
 -0.123513436732E-04
 -0.119473949294E-04
 -0.119473949294E-04
 -0.113842659815E-04
 -0.113842659815E-04
 -0.105343124739E-04
 -0.105343124739E-04
 -0.918172053943E-05
 -0.918172053943E-05
 -0.636107276630E-05
 -0.636107276630E-05
  0.000000000000E+00
  0.000000000000E+00
