# vtk DataFile Version 3.0
MachLine results file. Generated by MachLine, USU AeroLab (c) 2022.
ASCII
DATASET POLYDATA
POINTS                 704 float
  0.476456375309E-05  0.000000000000E+00  0.000000000000E+00
  0.447911218842E-05  0.421052634716E+00  0.000000000000E+00
  0.447911189904E-05  0.842105269432E+00  0.182066632791E-21
  0.447911236849E-05  0.126315784454E+01  0.000000000000E+00
  0.447911258705E-05  0.168421053886E+01  0.000000000000E+00
  0.447911142965E-05  0.210526323318E+01  0.000000000000E+00
  0.447911214996E-05  0.252631568909E+01  0.000000000000E+00
  0.447911258705E-05  0.294736838341E+01  0.000000000000E+00
  0.447911258705E-05  0.336842107773E+01  0.000000000000E+00
  0.447911258705E-05  0.378947377205E+01  0.000000000000E+00
  0.447911142961E-05  0.421052646637E+01  0.000000000000E+00
  0.447911099250E-05  0.463157892227E+01  0.000000000000E+00
  0.447911330738E-05  0.505263137817E+01  0.000000000000E+00
  0.447911186676E-05  0.547368431091E+01  0.000000000000E+00
  0.447911330735E-05  0.589473676682E+01  0.000000000000E+00
  0.447911186674E-05  0.631578969955E+01  0.000000000000E+00
  0.447911099252E-05  0.673684215546E+01  0.000000000000E+00
  0.447911330738E-05  0.715789461136E+01  0.000000000000E+00
  0.447911186671E-05  0.757894754410E+01  0.000000000000E+00
  0.254366756317E-05  0.799999770501E+01  0.808768670280E-21
  0.257793408580E+00  0.000000000000E+00 -0.131795675270E+00
  0.257793408580E+00  0.000000000000E+00  0.131795675270E+00
  0.257793646802E+00  0.421052634716E+00 -0.131795735340E+00
  0.257793646802E+00  0.421052634716E+00  0.131795735340E+00
  0.257793646802E+00  0.842105269432E+00 -0.131795735340E+00
  0.257793646802E+00  0.842105269432E+00  0.131795735340E+00
  0.257793646802E+00  0.126315784454E+01 -0.131795735340E+00
  0.257793646802E+00  0.126315784454E+01  0.131795735340E+00
  0.257793646802E+00  0.168421053886E+01 -0.131795735340E+00
  0.257793646802E+00  0.168421053886E+01  0.131795735340E+00
  0.257793646802E+00  0.210526323318E+01 -0.131795735341E+00
  0.257793646802E+00  0.210526323318E+01  0.131795735341E+00
  0.257793646802E+00  0.252631568909E+01 -0.131795735341E+00
  0.257793646802E+00  0.252631568909E+01  0.131795735341E+00
  0.257793646802E+00  0.294736838341E+01 -0.131795735340E+00
  0.257793646802E+00  0.294736838341E+01  0.131795735340E+00
  0.257793646802E+00  0.336842107773E+01 -0.131795735340E+00
  0.257793646802E+00  0.336842107773E+01  0.131795735340E+00
  0.257793646802E+00  0.378947377205E+01 -0.131795735340E+00
  0.257793646802E+00  0.378947377205E+01  0.131795735340E+00
  0.257793646802E+00  0.421052646637E+01 -0.131795735341E+00
  0.257793646802E+00  0.421052646637E+01  0.131795735341E+00
  0.257793646801E+00  0.463157892227E+01 -0.131795735341E+00
  0.257793646801E+00  0.463157892227E+01  0.131795735341E+00
  0.257793646802E+00  0.505263137817E+01 -0.131795735340E+00
  0.257793646802E+00  0.505263137817E+01  0.131795735340E+00
  0.257793646802E+00  0.547368431091E+01 -0.131795735340E+00
  0.257793646802E+00  0.547368431091E+01  0.131795735340E+00
  0.257793646802E+00  0.589473676682E+01 -0.131795735340E+00
  0.257793646802E+00  0.589473676682E+01  0.131795735340E+00
  0.257793646802E+00  0.631578969955E+01 -0.131795735340E+00
  0.257793646802E+00  0.631578969955E+01  0.131795735340E+00
  0.257793646801E+00  0.673684215546E+01 -0.131795735341E+00
  0.257793646801E+00  0.673684215546E+01  0.131795735341E+00
  0.257793646802E+00  0.715789461136E+01 -0.131795735340E+00
  0.257793646802E+00  0.715789461136E+01  0.131795735340E+00
  0.257793646802E+00  0.757894754410E+01 -0.131795735340E+00
  0.257793646802E+00  0.757894754410E+01  0.131795735340E+00
  0.257793344885E+00  0.799999933573E+01 -0.131796711276E+00
  0.257793344885E+00  0.799999933573E+01  0.131796711276E+00
  0.257792938451E+00  0.809319512484E+01 -0.931951994684E-01
  0.257792938451E+00  0.809319512484E+01  0.931951994684E-01
  0.257792941477E+00  0.813179767392E+01 -0.140524563986E-15
  0.536311090991E+00  0.000000000000E+00 -0.172265355624E+00
  0.536311090991E+00  0.000000000000E+00  0.172265355624E+00
  0.536311145390E+00  0.421052634716E+00 -0.172265343805E+00
  0.536311145390E+00  0.421052634716E+00  0.172265343805E+00
  0.536311145389E+00  0.842105269432E+00 -0.172265343805E+00
  0.536311145389E+00  0.842105269432E+00  0.172265343805E+00
  0.536311145390E+00  0.126315784454E+01 -0.172265343805E+00
  0.536311145390E+00  0.126315784454E+01  0.172265343805E+00
  0.536311145390E+00  0.168421053886E+01 -0.172265343804E+00
  0.536311145390E+00  0.168421053886E+01  0.172265343804E+00
  0.536311145389E+00  0.210526323318E+01 -0.172265343805E+00
  0.536311145389E+00  0.210526323318E+01  0.172265343805E+00
  0.536311145389E+00  0.252631568909E+01 -0.172265343805E+00
  0.536311145389E+00  0.252631568909E+01  0.172265343805E+00
  0.536311145390E+00  0.294736838341E+01 -0.172265343804E+00
  0.536311145390E+00  0.294736838341E+01  0.172265343804E+00
  0.536311145390E+00  0.336842107773E+01 -0.172265343804E+00
  0.536311145390E+00  0.336842107773E+01  0.172265343804E+00
  0.536311145390E+00  0.378947377205E+01 -0.172265343804E+00
  0.536311145390E+00  0.378947377205E+01  0.172265343804E+00
  0.536311145389E+00  0.421052646637E+01 -0.172265343805E+00
  0.536311145389E+00  0.421052646637E+01  0.172265343805E+00
  0.536311145389E+00  0.463157892227E+01 -0.172265343806E+00
  0.536311145389E+00  0.463157892227E+01  0.172265343806E+00
  0.536311145390E+00  0.505263137817E+01 -0.172265343804E+00
  0.536311145390E+00  0.505263137817E+01  0.172265343804E+00
  0.536311145390E+00  0.547368431091E+01 -0.172265343804E+00
  0.536311145390E+00  0.547368431091E+01  0.172265343804E+00
  0.536311145390E+00  0.589473676682E+01 -0.172265343804E+00
  0.536311145390E+00  0.589473676682E+01  0.172265343804E+00
  0.536311145390E+00  0.631578969955E+01 -0.172265343804E+00
  0.536311145390E+00  0.631578969955E+01  0.172265343804E+00
  0.536311145389E+00  0.673684215546E+01 -0.172265343806E+00
  0.536311145389E+00  0.673684215546E+01  0.172265343806E+00
  0.536311145390E+00  0.715789461136E+01 -0.172265343804E+00
  0.536311145390E+00  0.715789461136E+01  0.172265343804E+00
  0.536311145390E+00  0.757894754410E+01 -0.172265343804E+00
  0.536311145390E+00  0.757894754410E+01  0.172265343804E+00
  0.536311043437E+00  0.799999932197E+01 -0.172266299248E+00
  0.536311043437E+00  0.799999932197E+01  0.172266299248E+00
  0.536310951866E+00  0.812181100008E+01 -0.121811262543E+00
  0.536310951866E+00  0.812181100008E+01  0.121811262543E+00
  0.536310984225E+00  0.817226724107E+01  0.124536798326E-17
  0.799721193196E+00  0.000000000000E+00 -0.191199284362E+00
  0.799721193196E+00  0.000000000000E+00  0.191199284362E+00
  0.799721223010E+00  0.421052634716E+00 -0.191199272934E+00
  0.799721223010E+00  0.421052634716E+00  0.191199272934E+00
  0.799721223010E+00  0.842105269432E+00 -0.191199272934E+00
  0.799721223010E+00  0.842105269432E+00  0.191199272934E+00
  0.799721223010E+00  0.126315784454E+01 -0.191199272934E+00
  0.799721223010E+00  0.126315784454E+01  0.191199272934E+00
  0.799721223010E+00  0.168421053886E+01 -0.191199272934E+00
  0.799721223010E+00  0.168421053886E+01  0.191199272934E+00
  0.799721223010E+00  0.210526323318E+01 -0.191199272935E+00
  0.799721223010E+00  0.210526323318E+01  0.191199272935E+00
  0.799721223010E+00  0.252631568909E+01 -0.191199272935E+00
  0.799721223010E+00  0.252631568909E+01  0.191199272935E+00
  0.799721223010E+00  0.294736838341E+01 -0.191199272934E+00
  0.799721223010E+00  0.294736838341E+01  0.191199272934E+00
  0.799721223010E+00  0.336842107773E+01 -0.191199272934E+00
  0.799721223010E+00  0.336842107773E+01  0.191199272934E+00
  0.799721223010E+00  0.378947377205E+01 -0.191199272934E+00
  0.799721223010E+00  0.378947377205E+01  0.191199272934E+00
  0.799721223010E+00  0.421052646637E+01 -0.191199272935E+00
  0.799721223010E+00  0.421052646637E+01  0.191199272935E+00
  0.799721223010E+00  0.463157892227E+01 -0.191199272935E+00
  0.799721223010E+00  0.463157892227E+01  0.191199272935E+00
  0.799721223010E+00  0.505263137817E+01 -0.191199272934E+00
  0.799721223010E+00  0.505263137817E+01  0.191199272934E+00
  0.799721223010E+00  0.547368431091E+01 -0.191199272934E+00
  0.799721223010E+00  0.547368431091E+01  0.191199272934E+00
  0.799721223010E+00  0.589473676682E+01 -0.191199272934E+00
  0.799721223010E+00  0.589473676682E+01  0.191199272934E+00
  0.799721223010E+00  0.631578969955E+01 -0.191199272934E+00
  0.799721223010E+00  0.631578969955E+01  0.191199272934E+00
  0.799721223010E+00  0.673684215546E+01 -0.191199272935E+00
  0.799721223010E+00  0.673684215546E+01  0.191199272935E+00
  0.799721223010E+00  0.715789461136E+01 -0.191199272934E+00
  0.799721223010E+00  0.715789461136E+01  0.191199272934E+00
  0.799721223010E+00  0.757894754410E+01 -0.191199272934E+00
  0.799721223010E+00  0.757894754410E+01  0.191199272934E+00
  0.799721176061E+00  0.799999933141E+01 -0.191200204690E+00
  0.799721176061E+00  0.799999933141E+01  0.191200204690E+00
  0.799721134022E+00  0.813519964457E+01 -0.135199525819E+00
  0.799721134022E+00  0.813519964457E+01  0.135199525819E+00
  0.799721152158E+00  0.819120054732E+01 -0.320712640167E-17
  0.105025952291E+01  0.000000000000E+00 -0.198939228890E+00
  0.105025952291E+01  0.000000000000E+00  0.198939228890E+00
  0.105025954267E+01  0.421052634716E+00 -0.198939219847E+00
  0.105025954267E+01  0.421052634716E+00  0.198939219847E+00
  0.105025954267E+01  0.842105269432E+00 -0.198939219847E+00
  0.105025954267E+01  0.842105269432E+00  0.198939219847E+00
  0.105025954267E+01  0.126315784454E+01 -0.198939219847E+00
  0.105025954267E+01  0.126315784454E+01  0.198939219847E+00
  0.105025954267E+01  0.168421053886E+01 -0.198939219846E+00
  0.105025954267E+01  0.168421053886E+01  0.198939219846E+00
  0.105025954267E+01  0.210526323318E+01 -0.198939219847E+00
  0.105025954267E+01  0.210526323318E+01  0.198939219847E+00
[...]
POINT_DATA                 704
SCALARS index float 1
LOOKUP_TABLE default
  0.133226762955E-14
 -0.194289029309E-15
 -0.227595720048E-14
  0.199840144433E-14
  0.721644966006E-15
  0.388578058619E-14
  0.147104550763E-14
 -0.205391259556E-14
 -0.804911692853E-15
  0.777156117238E-15
 -0.197064586871E-14
  0.721644966006E-15
  0.169309011255E-14
 -0.202615701994E-14
  0.127675647832E-14
 -0.194289029309E-15
 -0.102695629778E-14
  0.111022302463E-14
  0.000000000000E+00
  0.235922392733E-15
 -0.499600361081E-15
 -0.249800180541E-15
  0.305311331772E-15
  0.360822483003E-15
 -0.305311331772E-15
 -0.555111512313E-15
 -0.194289029309E-15
 -0.416333634234E-15
  0.555111512313E-16
 -0.555111512313E-16
 -0.111022302463E-15
 -0.527355936697E-15
  0.111022302463E-15
 -0.111022302463E-15
  0.555111512313E-16
 -0.166533453694E-15
  0.444089209850E-15
 -0.277555756156E-15
  0.194289029309E-15
  0.305311331772E-15
 -0.721644966006E-15
 -0.444089209850E-15
 -0.360822483003E-15
  0.166533453694E-15
  0.360822483003E-15
 -0.111022302463E-15
  0.582867087928E-15
 -0.166533453694E-15
  0.277555756156E-15
  0.222044604925E-15
  0.555111512313E-16
  0.360822483003E-15
 -0.555111512313E-16
 -0.333066907388E-15
 -0.555111512313E-15
 -0.194289029309E-15
  0.194289029309E-15
  0.388578058619E-15
  0.235922392733E-15
  0.416333634234E-16
  0.124900090270E-15
 -0.277555756156E-16
 -0.140165656859E-14
  0.138777878078E-16
  0.194289029309E-15
 -0.138777878078E-16
 -0.693889390391E-16
 -0.138777878078E-16
  0.000000000000E+00
  0.832667268469E-16
 -0.152655665886E-15
 -0.971445146547E-16
  0.333066907388E-15
  0.319189119580E-15
  0.263677968348E-15
 -0.180411241502E-15
  0.971445146547E-16
  0.138777878078E-15
  0.138777878078E-15
 -0.208166817117E-15
 -0.277555756156E-15
 -0.277555756156E-16
  0.138777878078E-15
  0.319189119580E-15
 -0.138777878078E-15
 -0.971445146547E-16
  0.152655665886E-15
  0.291433543964E-15
  0.416333634234E-16
  0.291433543964E-15
  0.208166817117E-15
 -0.374700270811E-15
 -0.333066907388E-15
  0.416333634234E-16
 -0.111022302463E-15
  0.152655665886E-15
  0.208166817117E-15
  0.249800180541E-15
 -0.374700270811E-15
  0.208166817117E-15
 -0.277555756156E-16
 -0.416333634234E-16
 -0.124900090270E-15
 -0.124900090270E-15
 -0.208166817117E-15
  0.999200722163E-15
 -0.832667268469E-16
  0.138777878078E-16
  0.194289029309E-15
  0.305311331772E-15
 -0.832667268469E-16
  0.138777878078E-16
 -0.416333634234E-16
  0.832667268469E-16
  0.693889390391E-16
  0.555111512313E-16
  0.416333634234E-16
 -0.277555756156E-16
  0.555111512313E-16
  0.138777878078E-16
  0.277555756156E-15
  0.000000000000E+00
  0.277555756156E-16
 -0.111022302463E-15
 -0.180411241502E-15
 -0.152655665886E-15
  0.555111512313E-16
 -0.194289029309E-15
  0.000000000000E+00
 -0.111022302463E-15
  0.138777878078E-16
 -0.152655665886E-15
 -0.416333634234E-15
 -0.166533453694E-15
 -0.832667268469E-16
  0.208166817117E-15
 -0.416333634234E-16
  0.555111512313E-16
  0.222044604925E-15
  0.291433543964E-15
  0.180411241502E-15
 -0.971445146547E-16
 -0.971445146547E-16
 -0.416333634234E-16
  0.416333634234E-16
  0.693889390391E-16
 -0.104083408559E-15
 -0.693889390391E-17
 -0.250494069931E-14
  0.131838984174E-15
  0.902056207508E-16
  0.277555756156E-16
  0.902056207508E-16
  0.346944695195E-16
  0.145716771982E-15
  0.131838984174E-15
  0.693889390391E-17
  0.832667268469E-16
  0.000000000000E+00
  0.277555756156E-16
  0.832667268469E-16
 -0.104083408559E-15
  0.000000000000E+00
 -0.624500451352E-16
  0.693889390391E-16
  0.555111512313E-16
  0.555111512313E-16
  0.145716771982E-15
  0.693889390391E-17
 -0.111022302463E-15
 -0.693889390391E-16
  0.624500451352E-16
  0.555111512313E-16
 -0.832667268469E-16
  0.693889390391E-17
 -0.346944695195E-16
  0.277555756156E-16
 -0.208166817117E-16
 -0.971445146547E-16
 -0.138777878078E-16
 -0.693889390391E-17
 -0.124900090270E-15
 -0.624500451352E-16
  0.624500451352E-16
  0.416333634234E-16
 -0.138777878078E-16
 -0.763278329430E-16
  0.485722573274E-16
  0.000000000000E+00
  0.381639164715E-16
  0.138777878078E-16
 -0.353883589099E-15
  0.416333634234E-16
 -0.312250225676E-16
  0.346944695195E-17
 -0.104083408559E-16
  0.589805981832E-16
  0.138777878078E-16
  0.346944695195E-17
  0.589805981832E-16
  0.000000000000E+00
  0.000000000000E+00
  0.624500451352E-16
  0.346944695195E-17
  0.312250225676E-16
  0.104083408559E-16
 -0.693889390391E-17
 -0.451028103754E-16
 -0.242861286637E-16
 -0.173472347598E-16
  0.208166817117E-16
 -0.173472347598E-16
  0.659194920871E-16
 -0.728583859910E-16
 -0.173472347598E-16
 -0.242861286637E-16
 -0.312250225676E-16
  0.346944695195E-17
  0.589805981832E-16
  0.693889390391E-16
  0.555111512313E-16
 -0.693889390391E-17
 -0.346944695195E-16
  0.693889390391E-17
  0.173472347598E-16
  0.659194920871E-16
  0.589805981832E-16
 -0.104083408559E-16
 -0.104083408559E-16
  0.138777878078E-16
 -0.260208521397E-16
  0.242861286637E-16
  0.416333634234E-16
 -0.364291929955E-16
 -0.223605856053E-14
  0.195156391047E-17
  0.197324795392E-16
 -0.310081821331E-16
 -0.303576608296E-16
  0.381639164715E-16
  0.179977560633E-16
  0.238524477947E-16
 -0.171303943253E-16
  0.216840434497E-17
 -0.169135538908E-16
 -0.260208521397E-17
 -0.407660016855E-16
  0.320923843056E-16
 -0.171303943253E-16
 -0.520417042793E-17
 -0.683047368666E-16
  0.253703308362E-16
  0.127935856353E-16
  0.253703308362E-16
 -0.617995238317E-16
 -0.121430643318E-16
 -0.238524477947E-17
 -0.166967134563E-16
  0.470543742859E-16
 -0.971445146547E-16
  0.568121938382E-16
 -0.602816407902E-16
  0.247198095327E-16
 -0.264545330086E-16
 -0.433680868994E-18
 -0.208166817117E-16
  0.416333634234E-16
  0.125767452008E-16
 -0.108420217249E-16
 -0.433680868994E-18
 -0.477048955894E-17
 -0.303576608296E-17
 -0.320923843056E-16
  0.147451495458E-16
  0.823993651089E-17
  0.563785129692E-17
  0.225514051877E-16
  0.681746326059E-15
 -0.208166817117E-16
 -0.763278329430E-16
  0.100613961607E-15
 -0.138777878078E-16
 -0.659194920871E-16
  0.173472347598E-16
 -0.104083408559E-16
  0.659194920871E-16
 -0.346944695195E-16
 -0.451028103754E-16
 -0.624500451352E-16
  0.111022302463E-15
  0.520417042793E-16
 -0.346944695195E-17
  0.624500451352E-16
 -0.346944695195E-17
 -0.693889390391E-16
 -0.277555756156E-16
 -0.520417042793E-16
 -0.277555756156E-16
  0.485722573274E-16
  0.520417042793E-16
 -0.138777878078E-16
 -0.173472347598E-16
  0.277555756156E-16
  0.902056207508E-16
  0.135308431126E-15
 -0.312250225676E-16
 -0.163064006742E-15
  0.208166817117E-16
 -0.555111512313E-16
 -0.277555756156E-16
  0.173472347598E-16
  0.589805981832E-16
 -0.381639164715E-16
 -0.242861286637E-16
  0.104083408559E-16
 -0.277555756156E-16
  0.173472347598E-16
 -0.104083408559E-16
 -0.520417042793E-16
 -0.242861286637E-16
 -0.228463081786E-14
  0.902056207508E-16
 -0.277555756156E-16
  0.624500451352E-16
  0.000000000000E+00
  0.346944695195E-16
  0.693889390391E-16
  0.763278329430E-16
 -0.416333634234E-16
 -0.277555756156E-16
  0.138777878078E-16
 -0.277555756156E-16
  0.124900090270E-15
 -0.277555756156E-16
  0.693889390391E-17
  0.277555756156E-16
  0.346944695195E-16
 -0.624500451352E-16
 -0.832667268469E-16
  0.763278329430E-16
 -0.152655665886E-15
 -0.346944695195E-16
 -0.111022302463E-15
 -0.624500451352E-16
  0.000000000000E+00
 -0.555111512313E-16
  0.346944695195E-16
 -0.693889390391E-17
 -0.124900090270E-15
  0.555111512313E-16
  0.208166817117E-16
 -0.416333634234E-16
  0.485722573274E-16
  0.277555756156E-16
  0.277555756156E-16
  0.763278329430E-16
  0.000000000000E+00
 -0.277555756156E-16
 -0.346944695195E-16
 -0.520417042793E-16
  0.346944695195E-17
  0.555111512313E-16
  0.485722573274E-16
 -0.291433543964E-15
  0.346944695195E-16
 -0.346944695195E-16
  0.902056207508E-16
  0.000000000000E+00
 -0.555111512313E-16
  0.346944695195E-16
  0.346944695195E-16
  0.971445146547E-16
 -0.902056207508E-16
  0.416333634234E-16
  0.208166817117E-16
 -0.104083408559E-15
 -0.346944695195E-16
 -0.763278329430E-16
 -0.971445146547E-16
 -0.693889390391E-16
  0.208166817117E-16
 -0.187350135405E-15
  0.138777878078E-15
  0.000000000000E+00
  0.138777878078E-15
 -0.971445146547E-16
 -0.346944695195E-16
 -0.111022302463E-15
  0.152655665886E-15
  0.416333634234E-16
 -0.416333634234E-16
 -0.277555756156E-16
 -0.971445146547E-16
 -0.187350135405E-15
  0.693889390391E-16
  0.166533453694E-15
  0.693889390391E-17
 -0.902056207508E-16
  0.832667268469E-16
  0.624500451352E-16
 -0.208166817117E-16
 -0.624500451352E-16
  0.485722573274E-16
  0.208166817117E-16
 -0.971445146547E-16
  0.346944695195E-16
  0.374700270811E-15
 -0.111022302463E-15
  0.832667268469E-16
 -0.277555756156E-16
  0.555111512313E-16
 -0.138777878078E-15
 -0.416333634234E-16
 -0.124900090270E-15
  0.166533453694E-15
  0.124900090270E-15
  0.000000000000E+00
  0.277555756156E-16
  0.152655665886E-15
  0.000000000000E+00
  0.111022302463E-15
 -0.249800180541E-15
  0.374700270811E-15
  0.152655665886E-15
  0.416333634234E-16
  0.000000000000E+00
  0.138777878078E-15
 -0.971445146547E-16
  0.416333634234E-16
 -0.152655665886E-15
  0.180411241502E-15
 -0.277555756156E-16
  0.152655665886E-15
 -0.194289029309E-15
  0.000000000000E+00
  0.111022302463E-15
 -0.832667268469E-16
 -0.194289029309E-15
  0.152655665886E-15
  0.138777878078E-16
 -0.152655665886E-15
 -0.111022302463E-15
  0.000000000000E+00
  0.693889390391E-16
  0.485722573274E-16
  0.346944695195E-16
 -0.346944695195E-16
  0.624500451352E-16
 -0.277555756156E-16
 -0.315719672628E-14
  0.138777878078E-15
  0.111022302463E-15
 -0.693889390391E-16
 -0.693889390391E-16
 -0.555111512313E-16
 -0.416333634234E-16
 -0.138777878078E-16
  0.111022302463E-15
  0.971445146547E-16
 -0.555111512313E-16
 -0.277555756156E-16
 -0.277555756156E-16
  0.555111512313E-16
 -0.138777878078E-15
  0.416333634234E-16
 -0.138777878078E-16
  0.555111512313E-16
 -0.166533453694E-15
  0.000000000000E+00
  0.693889390391E-16
  0.971445146547E-16
 -0.277555756156E-16
  0.166533453694E-15
 -0.235922392733E-15
  0.180411241502E-15
  0.166533453694E-15
 -0.138777878078E-15
  0.416333634234E-16
  0.111022302463E-15
  0.277555756156E-16
 -0.971445146547E-16
 -0.194289029309E-15
 -0.416333634234E-16
 -0.971445146547E-16
  0.000000000000E+00
 -0.138777878078E-16
  0.124900090270E-15
  0.166533453694E-15
 -0.117961196366E-15
  0.104083408559E-15
  0.763278329430E-16
  0.693889390391E-16
 -0.558580959265E-14
  0.111022302463E-15
 -0.555111512313E-16
  0.277555756156E-16
  0.208166817117E-15
  0.124900090270E-15
  0.305311331772E-15
  0.194289029309E-15
 -0.194289029309E-15
  0.208166817117E-15
  0.138777878078E-15
  0.832667268469E-16
  0.832667268469E-16
 -0.416333634234E-16
 -0.180411241502E-15
 -0.194289029309E-15
  0.277555756156E-16
  0.180411241502E-15
 -0.555111512313E-16
 -0.263677968348E-15
 -0.555111512313E-16
  0.194289029309E-15
  0.555111512313E-16
  0.305311331772E-15
 -0.138777878078E-15
  0.416333634234E-16
  0.222044604925E-15
 -0.416333634234E-16
  0.832667268469E-16
  0.832667268469E-16
 -0.166533453694E-15
 -0.971445146547E-16
 -0.277555756156E-16
 -0.832667268469E-16
 -0.138777878078E-16
  0.111022302463E-15
  0.124900090270E-15
  0.152655665886E-15
 -0.277555756156E-16
 -0.138777878078E-16
 -0.693889390391E-16
 -0.693889390391E-17
  0.277555756156E-16
 -0.419109191796E-14
  0.152655665886E-15
  0.555111512313E-16
 -0.832667268469E-16
 -0.319189119580E-15
 -0.152655665886E-15
 -0.138777878078E-16
 -0.194289029309E-15
  0.693889390391E-16
 -0.152655665886E-15
 -0.277555756156E-15
 -0.166533453694E-15
 -0.194289029309E-15
  0.832667268469E-16
 -0.693889390391E-16
  0.111022302463E-15
 -0.277555756156E-16
 -0.416333634234E-16
  0.111022302463E-15
  0.138777878078E-16
 -0.138777878078E-16
 -0.555111512313E-16
  0.194289029309E-15
 -0.832667268469E-16
 -0.277555756156E-15
 -0.138777878078E-16
 -0.693889390391E-16
 -0.555111512313E-16
 -0.235922392733E-15
 -0.277555756156E-16
 -0.124900090270E-15
 -0.346944695195E-15
 -0.138777878078E-15
  0.000000000000E+00
  0.138777878078E-15
  0.138777878078E-16
  0.222044604925E-15
 -0.124900090270E-15
 -0.180411241502E-15
  0.832667268469E-16
 -0.138777878078E-16
 -0.555111512313E-16
 -0.152655665886E-15
 -0.473232564246E-14
 -0.971445146547E-16
 -0.111022302463E-15
 -0.555111512313E-16
  0.971445146547E-16
  0.416333634234E-16
 -0.416333634234E-16
  0.138777878078E-16
 -0.124900090270E-15
  0.971445146547E-16
 -0.305311331772E-15
  0.832667268469E-16
  0.235922392733E-15
 -0.277555756156E-16
  0.277555756156E-16
 -0.138777878078E-15
 -0.555111512313E-16
 -0.249800180541E-15
 -0.235922392733E-15
  0.208166817117E-15
  0.555111512313E-16
  0.194289029309E-15
  0.291433543964E-15
  0.416333634234E-15
 -0.208166817117E-15
  0.832667268469E-16
 -0.138777878078E-15
  0.138777878078E-16
  0.416333634234E-16
  0.000000000000E+00
 -0.832667268469E-16
 -0.277555756156E-16
 -0.555111512313E-16
  0.180411241502E-15
 -0.693889390391E-16
  0.360822483003E-15
  0.124900090270E-15
 -0.277555756156E-16
  0.277555756156E-16
  0.000000000000E+00
  0.000000000000E+00
 -0.555111512313E-16
 -0.416333634234E-16
 -0.602295990859E-14
 -0.291433543964E-15
  0.277555756156E-15
  0.277555756156E-16
 -0.291433543964E-15
  0.346944695195E-15
 -0.555111512313E-16
  0.527355936697E-15
  0.416333634234E-16
  0.832667268469E-16
 -0.138777878078E-15
 -0.263677968348E-15
 -0.152655665886E-15
 -0.124900090270E-15
  0.235922392733E-15
 -0.832667268469E-16
  0.138777878078E-16
 -0.152655665886E-15
  0.555111512313E-16
  0.693889390391E-16
 -0.180411241502E-15
  0.124900090270E-15
 -0.832667268469E-16
 -0.416333634234E-16
 -0.111022302463E-15
  0.971445146547E-16
  0.832667268469E-16
  0.693889390391E-16
 -0.555111512313E-16
 -0.249800180541E-15
 -0.152655665886E-15
  0.416333634234E-16
  0.000000000000E+00
  0.180411241502E-15
 -0.832667268469E-16
  0.152655665886E-15
  0.000000000000E+00
  0.249800180541E-15
 -0.208166817117E-15
  0.832667268469E-16
  0.000000000000E+00
  0.416333634234E-16
 -0.277555756156E-16
 -0.137390099297E-14
 -0.138777878078E-15
 -0.416333634234E-16
  0.263677968348E-15
 -0.166533453694E-15
  0.832667268469E-16
 -0.693889390391E-16
 -0.555111512313E-16
 -0.291433543964E-15
  0.111022302463E-15
 -0.235922392733E-15
  0.152655665886E-15
 -0.416333634234E-16
  0.249800180541E-15
 -0.138777878078E-15
  0.194289029309E-15
  0.152655665886E-15
 -0.138777878078E-16
 -0.138777878078E-16
  0.222044604925E-15
 -0.369843045078E-14
 -0.138777878078E-15
  0.000000000000E+00
  0.416333634234E-16
  0.000000000000E+00
  0.416333634234E-16
  0.222044604925E-15
 -0.971445146547E-16
  0.416333634234E-16
  0.138777878078E-16
  0.138777878078E-16
  0.000000000000E+00
 -0.138777878078E-16
  0.138777878078E-16
  0.138777878078E-16
 -0.971445146547E-16
  0.693889390391E-16
 -0.152655665886E-15
  0.000000000000E+00
  0.180411241502E-15
SCALARS phi_mu float 1
LOOKUP_TABLE default
  0.172239331942E+00
  0.172224305768E+00
  0.172179657512E+00
  0.172103001564E+00
  0.171990761341E+00
  0.171837470316E+00
  0.171635228325E+00
  0.171372859492E+00
  0.171034620138E+00
  0.170598195194E+00
  0.170031536166E+00
  0.169287737098E+00
  0.168296440719E+00
  0.166948784209E+00
  0.165069469315E+00
  0.162360654305E+00
  0.158275778953E+00
  0.151680858054E+00
  0.139608540478E+00
  0.103514706252E+00
  0.162472038937E+00
  0.162472038937E+00
  0.162459140795E+00
  0.162459140795E+00
  0.162420318604E+00
  0.162420318604E+00
  0.162353614750E+00
  0.162353614750E+00
  0.162255832405E+00
  0.162255832405E+00
  0.162122071668E+00
  0.162122071668E+00
  0.161945224289E+00
  0.161945224289E+00
  0.161715186087E+00
  0.161715186087E+00
  0.161417638894E+00
  0.161417638894E+00
  0.161032144732E+00
  0.161032144732E+00
  0.160529107330E+00
  0.160529107330E+00
  0.159864793388E+00
  0.159864793388E+00
  0.158972883993E+00
  0.158972883993E+00
  0.157749496726E+00
  0.157749496726E+00
  0.156025077304E+00
  0.156025077304E+00
  0.153507395002E+00
  0.153507395002E+00
  0.149652768153E+00
  0.149652768153E+00
  0.143323902227E+00
  0.143323902227E+00
  0.131617774386E+00
  0.131617774386E+00
  0.103304669340E+00
  0.103304669340E+00
  0.942052611791E-01
  0.942052611791E-01
  0.915080254544E-01
  0.118949252614E+00
  0.118949252614E+00
  0.118938735981E+00
  0.118938735981E+00
  0.118906733238E+00
  0.118906733238E+00
  0.118851709041E+00
  0.118851709041E+00
  0.118770963681E+00
  0.118770963681E+00
  0.118660349109E+00
  0.118660349109E+00
  0.118513828103E+00
  0.118513828103E+00
  0.118322783699E+00
  0.118322783699E+00
  0.118074944782E+00
  0.118074944782E+00
  0.117752694224E+00
  0.117752694224E+00
  0.117330353634E+00
  0.117330353634E+00
  0.116769707107E+00
  0.116769707107E+00
  0.116012371328E+00
  0.116012371328E+00
  0.114966255117E+00
  0.114966255117E+00
  0.113480294344E+00
  0.113480294344E+00
  0.111294172394E+00
  0.111294172394E+00
  0.107929797820E+00
  0.107929797820E+00
  0.102432283103E+00
  0.102432283103E+00
  0.927014247129E-01
  0.927014247129E-01
  0.737805815953E-01
  0.737805815953E-01
  0.671407846982E-01
  0.671407846982E-01
  0.650269339788E-01
  0.829779259107E-01
  0.829779259107E-01
  0.829696770503E-01
  0.829696770503E-01
  0.829445548067E-01
  0.829445548067E-01
  0.829013393758E-01
  0.829013393758E-01
  0.828378748992E-01
  0.828378748992E-01
  0.827508434394E-01
  0.827508434394E-01
  0.826354053591E-01
  0.826354053591E-01
  0.824846343507E-01
  0.824846343507E-01
  0.822886357227E-01
  0.822886357227E-01
  0.820331539995E-01
  0.820331539995E-01
  0.816973336507E-01
  0.816973336507E-01
  0.812500266267E-01
  0.812500266267E-01
  0.806435190047E-01
  0.806435190047E-01
  0.798025052722E-01
  0.798025052722E-01
  0.786039495106E-01
  0.786039495106E-01
  0.768386835134E-01
  0.768386835134E-01
  0.741352056347E-01
  0.741352056347E-01
  0.698064569596E-01
  0.698064569596E-01
  0.625814146466E-01
  0.625814146466E-01
  0.502815811393E-01
  0.502815811393E-01
  0.458084309211E-01
  0.458084309211E-01
  0.443384962977E-01
  0.514913642584E-01
  0.514913642584E-01
  0.514853688149E-01
  0.514853688149E-01
  0.514671039596E-01
  0.514671039596E-01
  0.514356750392E-01
  0.514356750392E-01
  0.513894982637E-01
  0.513894982637E-01
  0.513261340012E-01
  0.513261340012E-01
  0.512420197871E-01
  0.512420197871E-01
  0.511320506059E-01
  0.511320506059E-01
  0.509889236923E-01
  0.509889236923E-01
  0.508021045715E-01
  0.508021045715E-01
  0.505561682742E-01
  0.505561682742E-01
  0.502280791051E-01
  0.502280791051E-01
  0.497826189264E-01
  0.497826189264E-01
  0.491645121594E-01
  0.491645121594E-01
  0.482845578011E-01
  0.482845578011E-01
  0.469948863940E-01
  0.469948863940E-01
  0.450456448107E-01
  0.450456448107E-01
  0.420177278025E-01
  0.420177278025E-01
  0.372689121949E-01
  0.372689121949E-01
  0.300331094485E-01
  0.300331094485E-01
  0.274439075119E-01
  0.274439075119E-01
  0.265594929549E-01
  0.235450922830E-01
  0.235450922830E-01
  0.235413280185E-01
  0.235413280185E-01
  0.235298599982E-01
  0.235298599982E-01
  0.235101250453E-01
  0.235101250453E-01
  0.234811263100E-01
  0.234811263100E-01
  0.234413285287E-01
  0.234413285287E-01
  0.233884905998E-01
  0.233884905998E-01
  0.233194030589E-01
  0.233194030589E-01
  0.232294799053E-01
  0.232294799053E-01
  0.231121184472E-01
  0.231121184472E-01
  0.229576821548E-01
  0.229576821548E-01
  0.227518577441E-01
  0.227518577441E-01
  0.224729602949E-01
  0.224729602949E-01
  0.220874736636E-01
  0.220874736636E-01
  0.215427219396E-01
  0.215427219396E-01
  0.207553667272E-01
  0.207553667272E-01
  0.195961690378E-01
  0.195961690378E-01
  0.178820853043E-01
  0.178820853043E-01
  0.154269087965E-01
  0.154269087965E-01
  0.123155688523E-01
  0.123155688523E-01
  0.113327253030E-01
  0.113327253030E-01
  0.109616143265E-01
 -0.144859155376E-02
 -0.144859155376E-02
 -0.145015158499E-02
 -0.145015158499E-02
 -0.145490145443E-02
 -0.145490145443E-02
 -0.146307119504E-02