# vtk DataFile Version 3.0
TriPan results file. Generated by TriPan, USU AeroLab (c) 2021.
ASCII
DATASET POLYDATA
POINTS                  20 float
     20.000000000000      0.000000000000      0.000000000000
    100.000000000000      0.000000000000      0.000000000000
     25.444444656400      5.444444656370      0.000000000000
    100.000000000000      5.444444656370      0.000000000000
     30.888889312700     10.888889312700      0.000000000000
    100.000000000000     10.888889312700      0.000000000000
     36.333332061800     16.333333969100      0.000000000000
    100.000000000000     16.333333969100      0.000000000000
     41.777778625500     21.777778625500      0.000000000000
    100.000000000000     21.777778625500      0.000000000000
     47.222221374500     27.222221374500      0.000000000000
    100.000000000000     27.222221374500      0.000000000000
     52.666667938200     32.666667938200      0.000000000000
    100.000000000000     32.666667938200      0.000000000000
     58.111110687300     38.111110687300      0.000000000000
    100.000000000000     38.111110687300      0.000000000000
     63.555557251000     43.555557251000      0.000000000000
    100.000000000000     43.555557251000      0.000000000000
     69.000000000000     49.000000000000      0.000000000000
    100.000000000000     49.000000000000      0.000000000000
POLYGONS                  18                  72
3                   0                   1                   3
3                   0                   3                   2
3                   2                   3                   5
3                   2                   5                   4
3                   4                   5                   7
3                   4                   7                   6
3                   6                   7                   9
3                   6                   9                   8
3                   8                   9                  11
3                   8                  11                  10
3                  10                  11                  13
3                  10                  13                  12
3                  12                  13                  15
3                  12                  15                  14
3                  14                  15                  17
3                  14                  17                  16
3                  16                  17                  19
3                  16                  19                  18
POINT_DATA                  20
SCALARS mu float 1
LOOKUP_TABLE default
    -42.230897689667
    -42.230897689667
    -30.030960212315
    -30.030960212315
    -27.159821154856
    -27.159821154856
    -29.890511589660
    -29.890511589660
    -39.911058943190
    -39.911058943190
    -64.489139190316
    -64.489139190316
   -125.979000300224
   -125.979000300224
   -310.363400519551
   -310.363400519551
  -1128.922644991924
  -1128.922644991924
      0.000000000000
      0.000000000000
