# vtk DataFile Version 3.0
MachLine results file. Generated by MachLine, USU AeroLab (c) 2022.
ASCII
DATASET POLYDATA
POINTS                 704 float
  0.476456375309E-05  0.000000000000E+00  0.000000000000E+00
  0.447911218842E-05  0.421052634716E+00  0.000000000000E+00
  0.447911189904E-05  0.842105269432E+00  0.182066632791E-21
  0.447911236849E-05  0.126315784454E+01  0.000000000000E+00
  0.447911258705E-05  0.168421053886E+01  0.000000000000E+00
  0.447911142965E-05  0.210526323318E+01  0.000000000000E+00
  0.447911214996E-05  0.252631568909E+01  0.000000000000E+00
  0.447911258705E-05  0.294736838341E+01  0.000000000000E+00
  0.447911258705E-05  0.336842107773E+01  0.000000000000E+00
  0.447911258705E-05  0.378947377205E+01  0.000000000000E+00
  0.447911142961E-05  0.421052646637E+01  0.000000000000E+00
  0.447911099250E-05  0.463157892227E+01  0.000000000000E+00
  0.447911330738E-05  0.505263137817E+01  0.000000000000E+00
  0.447911186676E-05  0.547368431091E+01  0.000000000000E+00
  0.447911330735E-05  0.589473676682E+01  0.000000000000E+00
  0.447911186674E-05  0.631578969955E+01  0.000000000000E+00
  0.447911099252E-05  0.673684215546E+01  0.000000000000E+00
  0.447911330738E-05  0.715789461136E+01  0.000000000000E+00
  0.447911186671E-05  0.757894754410E+01  0.000000000000E+00
  0.254366756317E-05  0.799999770501E+01  0.808768670280E-21
  0.257793408580E+00  0.000000000000E+00 -0.131795675270E+00
  0.257793408580E+00  0.000000000000E+00  0.131795675270E+00
  0.257793646802E+00  0.421052634716E+00 -0.131795735340E+00
  0.257793646802E+00  0.421052634716E+00  0.131795735340E+00
  0.257793646802E+00  0.842105269432E+00 -0.131795735340E+00
  0.257793646802E+00  0.842105269432E+00  0.131795735340E+00
  0.257793646802E+00  0.126315784454E+01 -0.131795735340E+00
  0.257793646802E+00  0.126315784454E+01  0.131795735340E+00
  0.257793646802E+00  0.168421053886E+01 -0.131795735340E+00
  0.257793646802E+00  0.168421053886E+01  0.131795735340E+00
  0.257793646802E+00  0.210526323318E+01 -0.131795735341E+00
  0.257793646802E+00  0.210526323318E+01  0.131795735341E+00
  0.257793646802E+00  0.252631568909E+01 -0.131795735341E+00
  0.257793646802E+00  0.252631568909E+01  0.131795735341E+00
  0.257793646802E+00  0.294736838341E+01 -0.131795735340E+00
  0.257793646802E+00  0.294736838341E+01  0.131795735340E+00
  0.257793646802E+00  0.336842107773E+01 -0.131795735340E+00
  0.257793646802E+00  0.336842107773E+01  0.131795735340E+00
  0.257793646802E+00  0.378947377205E+01 -0.131795735340E+00
  0.257793646802E+00  0.378947377205E+01  0.131795735340E+00
  0.257793646802E+00  0.421052646637E+01 -0.131795735341E+00
  0.257793646802E+00  0.421052646637E+01  0.131795735341E+00
  0.257793646801E+00  0.463157892227E+01 -0.131795735341E+00
  0.257793646801E+00  0.463157892227E+01  0.131795735341E+00
  0.257793646802E+00  0.505263137817E+01 -0.131795735340E+00
  0.257793646802E+00  0.505263137817E+01  0.131795735340E+00
  0.257793646802E+00  0.547368431091E+01 -0.131795735340E+00
  0.257793646802E+00  0.547368431091E+01  0.131795735340E+00
  0.257793646802E+00  0.589473676682E+01 -0.131795735340E+00
  0.257793646802E+00  0.589473676682E+01  0.131795735340E+00
  0.257793646802E+00  0.631578969955E+01 -0.131795735340E+00
  0.257793646802E+00  0.631578969955E+01  0.131795735340E+00
  0.257793646801E+00  0.673684215546E+01 -0.131795735341E+00
  0.257793646801E+00  0.673684215546E+01  0.131795735341E+00
  0.257793646802E+00  0.715789461136E+01 -0.131795735340E+00
  0.257793646802E+00  0.715789461136E+01  0.131795735340E+00
  0.257793646802E+00  0.757894754410E+01 -0.131795735340E+00
  0.257793646802E+00  0.757894754410E+01  0.131795735340E+00
  0.257793344885E+00  0.799999933573E+01 -0.131796711276E+00
  0.257793344885E+00  0.799999933573E+01  0.131796711276E+00
  0.257792938451E+00  0.809319512484E+01 -0.931951994684E-01
  0.257792938451E+00  0.809319512484E+01  0.931951994684E-01
  0.257792941477E+00  0.813179767392E+01 -0.140524563986E-15
  0.536311090991E+00  0.000000000000E+00 -0.172265355624E+00
  0.536311090991E+00  0.000000000000E+00  0.172265355624E+00
  0.536311145390E+00  0.421052634716E+00 -0.172265343805E+00
  0.536311145390E+00  0.421052634716E+00  0.172265343805E+00
  0.536311145389E+00  0.842105269432E+00 -0.172265343805E+00
  0.536311145389E+00  0.842105269432E+00  0.172265343805E+00
  0.536311145390E+00  0.126315784454E+01 -0.172265343805E+00
  0.536311145390E+00  0.126315784454E+01  0.172265343805E+00
  0.536311145390E+00  0.168421053886E+01 -0.172265343804E+00
  0.536311145390E+00  0.168421053886E+01  0.172265343804E+00
  0.536311145389E+00  0.210526323318E+01 -0.172265343805E+00
  0.536311145389E+00  0.210526323318E+01  0.172265343805E+00
  0.536311145389E+00  0.252631568909E+01 -0.172265343805E+00
  0.536311145389E+00  0.252631568909E+01  0.172265343805E+00
  0.536311145390E+00  0.294736838341E+01 -0.172265343804E+00
  0.536311145390E+00  0.294736838341E+01  0.172265343804E+00
  0.536311145390E+00  0.336842107773E+01 -0.172265343804E+00
  0.536311145390E+00  0.336842107773E+01  0.172265343804E+00
  0.536311145390E+00  0.378947377205E+01 -0.172265343804E+00
  0.536311145390E+00  0.378947377205E+01  0.172265343804E+00
  0.536311145389E+00  0.421052646637E+01 -0.172265343805E+00
  0.536311145389E+00  0.421052646637E+01  0.172265343805E+00
  0.536311145389E+00  0.463157892227E+01 -0.172265343806E+00
  0.536311145389E+00  0.463157892227E+01  0.172265343806E+00
  0.536311145390E+00  0.505263137817E+01 -0.172265343804E+00
  0.536311145390E+00  0.505263137817E+01  0.172265343804E+00
  0.536311145390E+00  0.547368431091E+01 -0.172265343804E+00
  0.536311145390E+00  0.547368431091E+01  0.172265343804E+00
  0.536311145390E+00  0.589473676682E+01 -0.172265343804E+00
  0.536311145390E+00  0.589473676682E+01  0.172265343804E+00
  0.536311145390E+00  0.631578969955E+01 -0.172265343804E+00
  0.536311145390E+00  0.631578969955E+01  0.172265343804E+00
  0.536311145389E+00  0.673684215546E+01 -0.172265343806E+00
  0.536311145389E+00  0.673684215546E+01  0.172265343806E+00
  0.536311145390E+00  0.715789461136E+01 -0.172265343804E+00
  0.536311145390E+00  0.715789461136E+01  0.172265343804E+00
  0.536311145390E+00  0.757894754410E+01 -0.172265343804E+00
  0.536311145390E+00  0.757894754410E+01  0.172265343804E+00
  0.536311043437E+00  0.799999932197E+01 -0.172266299248E+00
  0.536311043437E+00  0.799999932197E+01  0.172266299248E+00
  0.536310951866E+00  0.812181100008E+01 -0.121811262543E+00
  0.536310951866E+00  0.812181100008E+01  0.121811262543E+00
  0.536310984225E+00  0.817226724107E+01  0.124536798326E-17
  0.799721193196E+00  0.000000000000E+00 -0.191199284362E+00
  0.799721193196E+00  0.000000000000E+00  0.191199284362E+00
  0.799721223010E+00  0.421052634716E+00 -0.191199272934E+00
  0.799721223010E+00  0.421052634716E+00  0.191199272934E+00
  0.799721223010E+00  0.842105269432E+00 -0.191199272934E+00
  0.799721223010E+00  0.842105269432E+00  0.191199272934E+00
  0.799721223010E+00  0.126315784454E+01 -0.191199272934E+00
  0.799721223010E+00  0.126315784454E+01  0.191199272934E+00
  0.799721223010E+00  0.168421053886E+01 -0.191199272934E+00
  0.799721223010E+00  0.168421053886E+01  0.191199272934E+00
  0.799721223010E+00  0.210526323318E+01 -0.191199272935E+00
  0.799721223010E+00  0.210526323318E+01  0.191199272935E+00
  0.799721223010E+00  0.252631568909E+01 -0.191199272935E+00
  0.799721223010E+00  0.252631568909E+01  0.191199272935E+00
  0.799721223010E+00  0.294736838341E+01 -0.191199272934E+00
  0.799721223010E+00  0.294736838341E+01  0.191199272934E+00
  0.799721223010E+00  0.336842107773E+01 -0.191199272934E+00
  0.799721223010E+00  0.336842107773E+01  0.191199272934E+00
  0.799721223010E+00  0.378947377205E+01 -0.191199272934E+00
  0.799721223010E+00  0.378947377205E+01  0.191199272934E+00
  0.799721223010E+00  0.421052646637E+01 -0.191199272935E+00
  0.799721223010E+00  0.421052646637E+01  0.191199272935E+00
  0.799721223010E+00  0.463157892227E+01 -0.191199272935E+00
  0.799721223010E+00  0.463157892227E+01  0.191199272935E+00
  0.799721223010E+00  0.505263137817E+01 -0.191199272934E+00
  0.799721223010E+00  0.505263137817E+01  0.191199272934E+00
  0.799721223010E+00  0.547368431091E+01 -0.191199272934E+00
  0.799721223010E+00  0.547368431091E+01  0.191199272934E+00
  0.799721223010E+00  0.589473676682E+01 -0.191199272934E+00
  0.799721223010E+00  0.589473676682E+01  0.191199272934E+00
  0.799721223010E+00  0.631578969955E+01 -0.191199272934E+00
  0.799721223010E+00  0.631578969955E+01  0.191199272934E+00
  0.799721223010E+00  0.673684215546E+01 -0.191199272935E+00
  0.799721223010E+00  0.673684215546E+01  0.191199272935E+00
  0.799721223010E+00  0.715789461136E+01 -0.191199272934E+00
  0.799721223010E+00  0.715789461136E+01  0.191199272934E+00
  0.799721223010E+00  0.757894754410E+01 -0.191199272934E+00
  0.799721223010E+00  0.757894754410E+01  0.191199272934E+00
  0.799721176061E+00  0.799999933141E+01 -0.191200204690E+00
  0.799721176061E+00  0.799999933141E+01  0.191200204690E+00
  0.799721134022E+00  0.813519964457E+01 -0.135199525819E+00
  0.799721134022E+00  0.813519964457E+01  0.135199525819E+00
  0.799721152158E+00  0.819120054732E+01 -0.320712640167E-17
  0.105025952291E+01  0.000000000000E+00 -0.198939228890E+00
  0.105025952291E+01  0.000000000000E+00  0.198939228890E+00
  0.105025954267E+01  0.421052634716E+00 -0.198939219847E+00
  0.105025954267E+01  0.421052634716E+00  0.198939219847E+00
  0.105025954267E+01  0.842105269432E+00 -0.198939219847E+00
  0.105025954267E+01  0.842105269432E+00  0.198939219847E+00
  0.105025954267E+01  0.126315784454E+01 -0.198939219847E+00
  0.105025954267E+01  0.126315784454E+01  0.198939219847E+00
  0.105025954267E+01  0.168421053886E+01 -0.198939219846E+00
  0.105025954267E+01  0.168421053886E+01  0.198939219846E+00
  0.105025954267E+01  0.210526323318E+01 -0.198939219847E+00
  0.105025954267E+01  0.210526323318E+01  0.198939219847E+00
[...]
POINT_DATA                 704
SCALARS phi float 1
LOOKUP_TABLE default
 -0.456482944052E-05
 -0.120441695583E+00
 -0.240879075838E+00
 -0.361316437452E+00
 -0.481753831949E+00
 -0.602191225539E+00
 -0.722628550340E+00
 -0.843065943027E+00
 -0.963503335665E+00
 -0.108394072848E+01
 -0.120437812164E+01
 -0.132481544709E+01
 -0.144525277311E+01
 -0.156569023614E+01
 -0.168612756339E+01
 -0.180656502761E+01
 -0.192700235601E+01
 -0.204743968502E+01
 -0.216787715071E+01
 -0.228831197774E+01
 -0.233230102414E+00
 -0.258362685944E+00
 -0.353667644271E+00
 -0.378800404623E+00
 -0.474105039809E+00
 -0.499237770672E+00
 -0.594542414435E+00
 -0.619675118925E+00
 -0.714979823998E+00
 -0.740112497573E+00
 -0.835417234334E+00
 -0.860549873452E+00
 -0.955854576578E+00
 -0.980987179788E+00
 -0.107629198648E+01
 -0.110142455427E+01
 -0.119672939535E+01
 -0.122186192979E+01
 -0.131716680283E+01
 -0.134229930717E+01
 -0.143760420867E+01
 -0.146273668704E+01
 -0.155804154452E+01
 -0.158317400165E+01
 -0.167847887854E+01
 -0.170361131940E+01
 -0.179891634721E+01
 -0.182404877670E+01
 -0.191935367789E+01
 -0.194448610057E+01
 -0.203979114361E+01
 -0.206492356348E+01
 -0.216022847199E+01
 -0.218536089225E+01
 -0.228066580068E+01
 -0.230579822282E+01
 -0.240110326587E+01
 -0.242623569084E+01
 -0.252154001953E+01
 -0.254667263805E+01
 -0.255187774622E+01
 -0.256964935486E+01
 -0.257180537932E+01
 -0.494927582974E+00
 -0.527777587165E+00
 -0.615364874900E+00
 -0.648215204786E+00
 -0.735802280718E+00
 -0.768652560793E+00
 -0.856239670148E+00
 -0.889089893893E+00
 -0.976677098187E+00
 -0.100952725344E+01
 -0.109711452904E+01
 -0.112996460811E+01
 -0.121755189233E+01
 -0.125040189274E+01
 -0.133798932264E+01
 -0.137083924624E+01
 -0.145842675045E+01
 -0.149127660237E+01
 -0.157886417476E+01
 -0.161171396259E+01
 -0.169930159487E+01
 -0.173215132802E+01
 -0.181973894215E+01
 -0.185258863116E+01
 -0.194017628463E+01
 -0.197302594056E+01
 -0.206061375885E+01
 -0.209346339252E+01
 -0.218105109243E+01
 -0.221390071380E+01
 -0.230148855876E+01
 -0.233433817650E+01
 -0.242192588590E+01
 -0.245477550700E+01
 -0.254236321218E+01
 -0.257521284086E+01
 -0.266280067473E+01
 -0.269565031967E+01
 -0.278323759930E+01
 -0.281608745644E+01
 -0.282289106785E+01
 -0.284611954012E+01
 -0.284893777632E+01
 -0.744273999961E+00
 -0.780734537034E+00
 -0.864711249338E+00
 -0.901172157928E+00
 -0.985148671194E+00
 -0.102160949799E+01
 -0.110558605655E+01
 -0.114204683231E+01
 -0.122602347272E+01
 -0.126248419933E+01
 -0.134646089853E+01
 -0.138292155528E+01
 -0.146689826257E+01
 -0.150335883616E+01
 -0.158733569540E+01
 -0.162379618457E+01
 -0.170777312597E+01
 -0.174423353571E+01
 -0.182821055279E+01
 -0.186467089155E+01
 -0.194864797494E+01
 -0.198510825344E+01
 -0.206908532368E+01
 -0.210554555403E+01
 -0.218952266699E+01
 -0.222598286191E+01
 -0.230996014144E+01
 -0.234642031332E+01
 -0.243039747470E+01
 -0.246685763491E+01
 -0.255083494025E+01
 -0.258729509853E+01
 -0.267127226596E+01
 -0.270773243040E+01
 -0.279170958854E+01
 -0.282816976589E+01
 -0.291214704481E+01
 -0.294860724061E+01
 -0.303258403975E+01
 -0.306904443310E+01
 -0.307659597716E+01
 -0.310237747999E+01
 -0.310550517564E+01
 -0.982414896713E+00
 -0.102035149566E+01
 -0.110285207883E+01
 -0.114078917081E+01
 -0.122328951088E+01
 -0.126122649982E+01
 -0.134372690115E+01
 -0.138166382660E+01
 -0.146416431571E+01
 -0.150210119110E+01
 -0.158460175584E+01
 -0.162253853012E+01
 -0.170503914144E+01
 -0.174297578779E+01
 -0.182547659560E+01
 -0.186341311355E+01
 -0.194591404556E+01
 -0.198385044419E+01
 -0.206635148922E+01
 -0.210428778229E+01
 -0.218678892524E+01
 -0.222472512965E+01
 -0.230722628453E+01
 -0.234516241926E+01
 -0.242766363498E+01
 -0.246559971983E+01
 -0.254810111330E+01
 -0.258603716743E+01
 -0.266853844758E+01
 -0.270647448826E+01
 -0.278897591180E+01
 -0.282691195362E+01
 -0.290941323440E+01
 -0.294734928911E+01
 -0.302985055275E+01
 -0.306778662966E+01
 -0.315028800396E+01
 -0.318822411067E+01
 -0.327072502626E+01
 -0.330866134263E+01
 -0.331651866840E+01
 -0.334334380832E+01
 -0.334659809950E+01
 -0.121170521531E+01
 -0.124978056370E+01
 -0.133214229858E+01
 -0.137021833127E+01
 -0.145257974227E+01
 -0.149065564718E+01
 -0.157301715307E+01
 -0.161109295142E+01
 -0.169345474783E+01
 -0.173153014967E+01
 -0.181389221328E+01
 -0.185196746174E+01
 -0.193432959701E+01
 -0.197240471688E+01
 -0.205476704262E+01
 -0.209284204644E+01
 -0.217520448299E+01
 -0.221327938224E+01
 -0.229564191828E+01
 -0.233371672488E+01
 -0.241607934930E+01
 -0.245415407431E+01
 -0.253651670733E+01
 -0.257459136334E+01
 -0.265695405695E+01
 -0.269502866365E+01
 -0.277739153397E+01
 -0.281546611210E+01
 -0.289782886676E+01
 -0.293590343451E+01
 -0.301826632952E+01
 -0.305634090181E+01
 -0.313870365094E+01
 -0.317677823933E+01
 -0.325914096860E+01
 -0.329721558173E+01
 -0.337957841969E+01
 -0.341765306408E+01
 -0.350001546567E+01
 -0.353809032134E+01
 -0.354597618317E+01
 -0.357289928485E+01
 -0.357616570083E+01
 -0.143453666142E+01
 -0.147182571451E+01
 -0.155497371182E+01
 -0.159226352085E+01
 -0.167541118259E+01
 -0.171270080915E+01
 -0.179584863433E+01
 -0.183313807199E+01
 -0.191628613073E+01
 -0.195357535345E+01
 -0.203672361470E+01
 -0.207401264341E+01
 -0.215716101645E+01
 -0.219444987751E+01
 -0.227759847788E+01
 -0.231488718863E+01
 -0.239803593202E+01
 -0.243532450839E+01
 -0.251847337929E+01
 -0.255576183717E+01
 -0.263891082206E+01
 -0.267619917358E+01
 -0.275934819271E+01
 -0.279663644956E+01
 -0.287978555008E+01
 -0.291707374209E+01
 -0.300022302985E+01
 -0.303751118802E+01
 -0.312066036165E+01
 -0.315794851188E+01
 -0.324109782071E+01
 -0.327838598354E+01
 -0.336153513653E+01
 -0.339882332737E+01
 -0.348197244728E+01
 -0.351926067739E+01
 -0.360240989032E+01
 -0.363969816851E+01
 -0.372284694542E+01
 -0.376013545530E+01
 -0.376785861266E+01
 -0.379422569132E+01
 -0.379742449962E+01
 -0.165318477958E+01
 -0.168899606733E+01
 -0.177362171789E+01
 -0.180943398890E+01
 -0.189405921114E+01
 -0.192987125209E+01
 -0.201449669763E+01
 -0.205030847652E+01
 -0.213493422692E+01
 -0.217074572090E+01
 -0.225537174739E+01
 -0.229118297141E+01
 -0.237580918532E+01
 -0.241162016744E+01
 -0.249624667913E+01
 -0.253205744480E+01
 -0.261668416189E+01
 -0.265249473483E+01
 -0.273712163395E+01
 -0.277293203795E+01
 -0.285755909779E+01
 -0.289336935279E+01
 -0.297799641636E+01
 -0.301380667358E+01
 -0.309843376360E+01
 -0.313424397440E+01
 -0.321887123807E+01
 -0.325468142514E+01
 -0.333930856784E+01
 -0.337511875158E+01
 -0.345974602763E+01
 -0.349555622375E+01
 -0.358018334691E+01
 -0.361599356585E+01
 -0.370062066456E+01
 -0.373643091114E+01
 -0.382105811746E+01
 -0.385686839477E+01
 -0.394149519360E+01
 -0.397730569442E+01
 -0.398472272243E+01
 -0.401004468916E+01
 -0.401311682219E+01
 -0.186981990144E+01
 -0.190360259842E+01
 -0.199025684000E+01
 -0.202404046557E+01
 -0.211069436115E+01
 -0.214447769694E+01
 -0.223113185411E+01
 -0.226491490636E+01
 -0.235156937821E+01
 -0.238535214637E+01
 -0.247200689142E+01
 -0.250578939596E+01
 -0.259244432319E+01
 -0.262622659163E+01
 -0.271288181132E+01
 -0.274666386921E+01
 -0.283331928904E+01
 -0.286710115950E+01
 -0.295375675573E+01
 -0.298753846371E+01
 -0.307419420792E+01
 -0.310797578609E+01
 -0.319463157331E+01
 -0.322841306320E+01
 -0.331506892353E+01
 -0.334885036065E+01
 -0.343550639710E+01
 -0.346928781263E+01
 -0.355594372321E+01
 -0.358972514362E+01
 -0.367638117772E+01
 -0.371016262229E+01
 -0.379681849124E+01
 -0.383059997154E+01
 -0.391725580494E+01
 -0.395103732242E+01
 -0.403769325732E+01
 -0.407147480872E+01
 -0.415813040088E+01
 -0.419191211637E+01
 -0.419890912387E+01
 -0.422279654651E+01
 -0.422569463723E+01
 -0.208656654380E+01
 -0.211785061916E+01
 -0.220700329456E+01
 -0.223828872959E+01
 -0.232744086510E+01
 -0.235872590577E+01
 -0.244787842931E+01
 -0.247916303736E+01
 -0.256831602019E+01
 -0.259960020511E+01
 -0.268875358696E+01
 -0.272003739735E+01
 -0.280919106102E+01
 -0.284047454821E+01
 -0.292962858472E+01
 -0.296091178833E+01
 -0.305006609436E+01
 -0.308134904504E+01
 -0.317050358991E+01
 -0.320178631891E+01
 -0.329094106681E+01
 -0.332222361553E+01
 -0.341137845144E+01
 -0.344266087321E+01
 -0.353181581132E+01
 -0.356309816147E+01
 -0.365225328532E+01
 -0.368353561400E+01
 -0.377269060510E+01
 -0.380397295262E+01
 -0.389312804907E+01
 -0.392441044324E+01
 -0.401356534998E+01
 -0.404484780643E+01
 -0.413400265229E+01
 -0.416528517020E+01
 -0.425444003790E+01
 -0.428572271656E+01
 -0.437487712608E+01
 -0.440616005588E+01
 -0.441263948624E+01
 -0.443475998520E+01
 -0.443744368932E+01
 -0.230557483660E+01
 -0.233392753254E+01
 -0.242601167553E+01
 -0.245436558909E+01
 -0.254644925752E+01
 -0.257480271971E+01
 -0.266688673747E+01
 -0.269523988113E+01
 -0.278732425963E+01
 -0.281567711917E+01
 -0.290776178534E+01
 -0.293611436467E+01
 -0.302819922665E+01
 -0.305655154593E+01
 -0.314863672318E+01
 -0.317698880758E+01
 -0.326907421098E+01
 -0.329742607977E+01
 -0.338951168976E+01
 -0.341786336414E+01
 -0.350994915444E+01
 -0.353830066782E+01
 -0.363038653046E+01
 -0.365873793100E+01
 -0.375082388352E+01
 -0.377917522525E+01
 -0.387126135218E+01
 -0.389961268420E+01
 -0.399169866859E+01
 -0.402005002859E+01
 -0.411213611117E+01
 -0.414048752357E+01
 -0.423257341148E+01
 -0.426092489024E+01
 -0.435301070662E+01
 -0.438136226263E+01
 -0.447344813436E+01
 -0.450179977464E+01
 -0.459388522637E+01
 -0.462223713347E+01
 -0.462810939905E+01
 -0.464815735798E+01
 -0.465058977621E+01
 -0.252909389396E+01
 -0.255409376643E+01
 -0.264953064044E+01
 -0.267453194634E+01
 -0.276996827373E+01
 -0.279496897746E+01
 -0.289040571634E+01
 -0.291540606233E+01
 -0.301084328454E+01
 -0.303584331067E+01
 -0.313128087462E+01
 -0.315628052471E+01
 -0.325171836244E+01
 -0.327671765964E+01
 -0.337215589875E+01
 -0.339715488007E+01
 -0.349259342648E+01
 -0.351759211034E+01
 -0.361303094597E+01
 -0.363802935155E+01
 -0.373346844628E+01
 -0.375846661755E+01
 -0.385390584443E+01
 -0.387890385786E+01
 -0.397434320355E+01
 -0.399934114682E+01
 -0.409478066489E+01
 -0.411977861500E+01
 -0.421521796522E+01
 -0.424021597796E+01
 -0.433565538809E+01
 -0.436065349518E+01
 -0.445609266859E+01
 -0.448109088392E+01
 -0.457652994624E+01
 -0.460152827589E+01
 -0.469696735830E+01
 -0.472196580566E+01
 -0.481740443451E+01
 -0.484240320116E+01
 -0.484758122707E+01
 -0.486525816515E+01
 -0.486740276787E+01
 -0.275956964758E+01
 -0.278077356182E+01
 -0.288000604535E+01
 -0.290121211421E+01
 -0.300044387195E+01
 -0.302164887650E+01
 -0.312088138476E+01
 -0.314208547690E+01
 -0.324131982839E+01
 -0.326252244617E+01
 -0.336175732877E+01
 -0.338295962820E+01
 -0.348219473270E+01
 -0.350339682149E+01
 -0.360263219627E+01
 -0.362383410163E+01
 -0.372306966080E+01
 -0.374427138536E+01
 -0.384350713507E+01
 -0.386470866963E+01
 -0.396394462011E+01
 -0.398514595870E+01
 -0.408438200684E+01
 -0.410558319372E+01
 -0.420481935425E+01
 -0.422602047973E+01
 -0.432525681074E+01
 -0.434645795266E+01
 -0.444569411309E+01
 -0.446689531853E+01
 -0.456613154403E+01
 -0.458733283390E+01
 -0.468656883691E+01
 -0.470777021628E+01
 -0.480700613005E+01
 -0.482820759824E+01
 -0.492744355941E+01
 -0.494864511552E+01
 -0.504788066013E+01
 -0.506908250906E+01
 -0.507347398105E+01
 -0.508846609159E+01
 -0.509028500984E+01
 -0.299975204970E+01
 -0.301666691990E+01
 -0.312018866491E+01
 -0.313710535687E+01
 -0.324062665044E+01
 -0.325754200117E+01
 -0.336106445252E+01
 -0.337797880826E+01
 -0.348150202195E+01
 -0.349841585592E+01
 -0.360193949394E+01
 -0.361885308341E+01
 -0.372237687520E+01
 -0.373929029840E+01
 -0.384281432413E+01
 -0.385972758975E+01
 -0.396325178442E+01
 -0.398016487158E+01
 -0.408368928346E+01
 -0.410060213750E+01
 -0.420412689155E+01
 -0.422103938441E+01
 -0.432456433124E+01
 -0.434147650174E+01
 -0.444500167665E+01
 -0.446191375968E+01
 -0.456543910791E+01
 -0.458235126177E+01
 -0.468587637141E+01
 -0.470278867253E+01
 -0.480631376422E+01
 -0.482322623132E+01
 -0.492675102515E+01
 -0.494366364966E+01
 -0.504718829147E+01
 -0.506410106147E+01
 -0.516762569610E+01
 -0.518453860585E+01
 -0.528806277413E+01
 -0.530497604036E+01
 -0.530847958874E+01
 -0.532043922069E+01
 -0.532188995685E+01
 -0.325283140191E+01
 -0.326488345187E+01
 -0.337326759965E+01
 -0.338532236940E+01
 -0.349370648449E+01
 -0.350575794432E+01
 -0.361414468669E+01
 -0.362619423593E+01
 -0.373458232144E+01
 -0.374663126739E+01
 -0.385501979699E+01
 -0.386706851492E+01
 -0.397545719219E+01
 -0.398750572617E+01
 -0.409589467439E+01
 -0.410794298830E+01
 -0.421633219404E+01
 -0.422838020820E+01
 -0.433676983943E+01
 -0.434881736289E+01
 -0.445720790699E+01
 -0.446925477390E+01
 -0.457764439292E+01
 -0.458969226540E+01
 -0.469808171398E+01
 -0.471012963186E+01
 -0.481851913588E+01
 -0.483056713233E+01
 -0.493895642449E+01
 -0.495100449906E+01
 -0.505939386835E+01
 -0.507144199386E+01
 -0.517983118032E+01
 -0.519187934605E+01
 -0.530026849347E+01
 -0.531231669489E+01
 -0.542070594268E+01
 -0.543275417906E+01
 -0.554114307231E+01
 -0.555319156502E+01
 -0.555568741217E+01
 -0.556420712407E+01
 -0.556524079414E+01
 -0.352263184394E+01
 -0.352910964457E+01
 -0.364306874696E+01
 -0.364954781948E+01
 -0.376350686315E+01
 -0.376998459425E+01
 -0.388394412961E+01
 -0.389042176181E+01
 -0.400438145541E+01
 -0.401085908385E+01
 -0.412481889190E+01
 -0.413129643042E+01
 -0.424525625467E+01
 -0.425173371892E+01
 -0.436569368533E+01
 -0.437217107642E+01
 -0.448613112116E+01
 -0.449260842541E+01
 -0.460656857231E+01
 -0.461304574397E+01
 -0.472700639026E+01
 -0.473348304766E+01
 -0.484744368197E+01
 -0.485392040146E+01
 -0.496788100942E+01
 -0.497435775565E+01
 -0.508831816836E+01
 -0.509479528931E+01
 -0.520875536591E+01
 -0.521523266471E+01
 -0.532919282223E+01
 -0.533567014912E+01
 -0.544963014763E+01
 -0.545610748811E+01
 -0.557006747406E+01
 -0.557654482366E+01
 -0.569050493712E+01
 -0.569698229403E+01
 -0.581094208640E+01
 -0.581741967630E+01
 -0.581876174335E+01
 -0.582334228556E+01
 -0.582389797716E+01
 -0.381384581291E+01
 -0.393428338882E+01
 -0.405472578276E+01
 -0.417515813346E+01
 -0.429559553129E+01
 -0.441603292911E+01
 -0.453647025871E+01
 -0.465690765650E+01
 -0.477734505425E+01
 -0.489778245192E+01
 -0.501822537124E+01
 -0.513866006798E+01
 -0.525909860019E+01
 -0.537953197473E+01
 -0.549996930421E+01
 -0.562040677008E+01
 -0.574084409955E+01
 -0.586128142899E+01
 -0.598171889480E+01
 -0.610215877522E+01
 -0.453647030703E+01
 -0.441603297742E+01
 -0.549996935253E+01
 -0.537953202303E+01
 -0.598171894312E+01
 -0.489778250022E+01
 -0.477734510257E+01
 -0.393428343713E+01
 -0.381384606188E+01
 -0.586128147731E+01
 -0.574084414786E+01
 -0.562040681840E+01
 -0.429559557960E+01
 -0.417515818175E+01
 -0.465690770481E+01
 -0.501821713743E+01
 -0.405471831282E+01
 -0.513865578333E+01
 -0.525909251146E+01
SCALARS phi_mu float 1
LOOKUP_TABLE default
 -0.456482944052E-05
 -0.120441695583E+00
 -0.240879075838E+00
 -0.361316437452E+00
 -0.481753831949E+00
 -0.602191225539E+00
 -0.722628550340E+00
 -0.843065943027E+00
 -0.963503335665E+00
 -0.108394072848E+01
 -0.120437812164E+01
 -0.132481544709E+01
 -0.144525277311E+01
 -0.156569023614E+01
 -0.168612756339E+01
 -0.180656502761E+01
 -0.192700235601E+01
 -0.204743968502E+01
 -0.216787715071E+01
 -0.228831197774E+01
 -0.233230102414E+00
 -0.258362685944E+00
 -0.353667644271E+00
 -0.378800404623E+00
 -0.474105039809E+00
 -0.499237770672E+00
 -0.594542414435E+00
 -0.619675118925E+00
 -0.714979823998E+00
 -0.740112497573E+00
 -0.835417234334E+00
 -0.860549873452E+00
 -0.955854576578E+00
 -0.980987179788E+00
 -0.107629198648E+01
 -0.110142455427E+01
 -0.119672939535E+01
 -0.122186192979E+01
 -0.131716680283E+01
 -0.134229930717E+01
 -0.143760420867E+01
 -0.146273668704E+01
 -0.155804154452E+01
 -0.158317400165E+01
 -0.167847887854E+01
 -0.170361131940E+01
 -0.179891634721E+01
 -0.182404877670E+01
 -0.191935367789E+01
 -0.194448610057E+01
 -0.203979114361E+01
 -0.206492356348E+01
 -0.216022847199E+01
 -0.218536089225E+01
 -0.228066580068E+01
 -0.230579822282E+01
 -0.240110326587E+01
 -0.242623569084E+01
 -0.252154001953E+01
 -0.254667263805E+01
 -0.255187774622E+01
 -0.256964935486E+01
 -0.257180537932E+01
 -0.494927582974E+00
 -0.527777587165E+00
 -0.615364874900E+00
 -0.648215204786E+00
 -0.735802280718E+00
 -0.768652560793E+00
 -0.856239670148E+00
 -0.889089893893E+00
 -0.976677098187E+00
 -0.100952725344E+01
 -0.109711452904E+01
 -0.112996460811E+01
 -0.121755189233E+01
 -0.125040189274E+01
 -0.133798932264E+01
 -0.137083924624E+01
 -0.145842675045E+01
 -0.149127660237E+01
 -0.157886417476E+01
 -0.161171396259E+01
 -0.169930159487E+01
 -0.173215132802E+01
 -0.181973894215E+01
 -0.185258863116E+01
 -0.194017628463E+01
 -0.197302594056E+01
 -0.206061375885E+01
 -0.209346339252E+01
 -0.218105109243E+01
 -0.221390071380E+01
 -0.230148855876E+01
 -0.233433817650E+01
 -0.242192588590E+01
 -0.245477550700E+01
 -0.254236321218E+01
 -0.257521284086E+01
 -0.266280067473E+01
 -0.269565031967E+01
 -0.278323759930E+01
 -0.281608745644E+01
 -0.282289106785E+01
 -0.284611954012E+01
 -0.284893777632E+01
 -0.744273999961E+00
 -0.780734537034E+00
 -0.864711249338E+00
 -0.901172157928E+00
 -0.985148671194E+00
 -0.102160949799E+01
 -0.110558605655E+01
 -0.114204683231E+01
 -0.122602347272E+01
 -0.126248419933E+01
 -0.134646089853E+01
 -0.138292155528E+01
 -0.146689826257E+01
 -0.150335883616E+01
 -0.158733569540E+01
 -0.162379618457E+01
 -0.170777312597E+01
 -0.174423353571E+01
 -0.182821055279E+01
 -0.186467089155E+01
 -0.194864797494E+01
 -0.198510825344E+01
 -0.206908532368E+01
 -0.210554555403E+01
 -0.218952266699E+01
 -0.222598286191E+01
 -0.230996014144E+01
 -0.234642031332E+01
 -0.243039747470E+01
 -0.246685763491E+01
 -0.255083494025E+01
 -0.258729509853E+01
 -0.267127226596E+01
 -0.270773243040E+01
 -0.279170958854E+01
 -0.282816976589E+01
 -0.291214704481E+01
 -0.294860724061E+01
 -0.303258403975E+01
 -0.306904443310E+01
 -0.307659597716E+01
 -0.310237747999E+01
 -0.310550517564E+01
 -0.982414896713E+00
 -0.102035149566E+01
 -0.110285207883E+01
 -0.114078917081E+01
 -0.122328951088E+01
 -0.126122649982E+01
 -0.134372690115E+01
 -0.138166382660E+01
 -0.146416431571E+01
 -0.150210119110E+01
 -0.158460175584E+01
 -0.162253853012E+01
 -0.170503914144E+01
 -0.174297578779E+01
 -0.182547659560E+01
 -0.186341311355E+01
 -0.194591404556E+01
 -0.198385044419E+01
 -0.206635148922E+01
 -0.210428778229E+01
 -0.218678892524E+01
 -0.222472512965E+01
 -0.230722628453E+01
 -0.234516241926E+01
 -0.242766363498E+01
 -0.246559971983E+01
 -0.254810111330E+01
 -0.258603716743E+01
 -0.266853844758E+01
 -0.270647448826E+01
 -0.278897591180E+01
 -0.282691195362E+01
 -0.290941323440E+01
 -0.294734928911E+01
 -0.302985055275E+01
 -0.306778662966E+01
 -0.315028800396E+01
 -0.318822411067E+01
 -0.327072502626E+01
 -0.330866134263E+01
 -0.331651866840E+01
 -0.334334380832E+01
 -0.334659809950E+01
 -0.121170521531E+01
 -0.124978056370E+01
 -0.133214229858E+01
 -0.137021833127E+01
 -0.145257974227E+01
 -0.149065564718E+01
 -0.157301715307E+01
 -0.161109295142E+01
 -0.169345474783E+01
 -0.173153014967E+01
 -0.181389221328E+01
 -0.185196746174E+01
 -0.193432959701E+01
 -0.197240471688E+01
 -0.205476704262E+01
 -0.209284204644E+01
 -0.217520448299E+01
 -0.221327938224E+01
 -0.229564191828E+01
 -0.233371672488E+01
 -0.241607934930E+01
 -0.245415407431E+01
 -0.253651670733E+01
 -0.257459136334E+01
 -0.265695405695E+01
 -0.269502866365E+01
 -0.277739153397E+01
 -0.281546611210E+01
 -0.289782886676E+01
 -0.293590343451E+01
 -0.301826632952E+01
 -0.305634090181E+01
 -0.313870365094E+01
 -0.317677823933E+01
 -0.325914096860E+01
 -0.329721558173E+01
 -0.337957841969E+01
 -0.341765306408E+01
 -0.350001546567E+01
 -0.353809032134E+01
 -0.354597618317E+01
 -0.357289928485E+01
 -0.357616570083E+01
 -0.143453666142E+01
 -0.147182571451E+01
 -0.155497371182E+01
 -0.159226352085E+01
 -0.167541118259E+01
 -0.171270080915E+01
 -0.179584863433E+01