# vtk DataFile Version 3.0
MachLine results file. Generated by MachLine, USU AeroLab (c) 2022.
ASCII
DATASET POLYDATA
POINTS                 704 float
  0.476456375309E-05  0.000000000000E+00  0.000000000000E+00
  0.447911218842E-05  0.421052634716E+00  0.000000000000E+00
  0.447911189904E-05  0.842105269432E+00  0.182066632791E-21
  0.447911236849E-05  0.126315784454E+01  0.000000000000E+00
  0.447911258705E-05  0.168421053886E+01  0.000000000000E+00
  0.447911142965E-05  0.210526323318E+01  0.000000000000E+00
  0.447911214996E-05  0.252631568909E+01  0.000000000000E+00
  0.447911258705E-05  0.294736838341E+01  0.000000000000E+00
  0.447911258705E-05  0.336842107773E+01  0.000000000000E+00
  0.447911258705E-05  0.378947377205E+01  0.000000000000E+00
  0.447911142961E-05  0.421052646637E+01  0.000000000000E+00
  0.447911099250E-05  0.463157892227E+01  0.000000000000E+00
  0.447911330738E-05  0.505263137817E+01  0.000000000000E+00
  0.447911186676E-05  0.547368431091E+01  0.000000000000E+00
  0.447911330735E-05  0.589473676682E+01  0.000000000000E+00
  0.447911186674E-05  0.631578969955E+01  0.000000000000E+00
  0.447911099252E-05  0.673684215546E+01  0.000000000000E+00
  0.447911330738E-05  0.715789461136E+01  0.000000000000E+00
  0.447911186671E-05  0.757894754410E+01  0.000000000000E+00
  0.254366756317E-05  0.799999770501E+01  0.808768670280E-21
  0.257793408580E+00  0.000000000000E+00 -0.131795675270E+00
  0.257793408580E+00  0.000000000000E+00  0.131795675270E+00
  0.257793646802E+00  0.421052634716E+00 -0.131795735340E+00
  0.257793646802E+00  0.421052634716E+00  0.131795735340E+00
  0.257793646802E+00  0.842105269432E+00 -0.131795735340E+00
  0.257793646802E+00  0.842105269432E+00  0.131795735340E+00
  0.257793646802E+00  0.126315784454E+01 -0.131795735340E+00
  0.257793646802E+00  0.126315784454E+01  0.131795735340E+00
  0.257793646802E+00  0.168421053886E+01 -0.131795735340E+00
  0.257793646802E+00  0.168421053886E+01  0.131795735340E+00
  0.257793646802E+00  0.210526323318E+01 -0.131795735341E+00
  0.257793646802E+00  0.210526323318E+01  0.131795735341E+00
  0.257793646802E+00  0.252631568909E+01 -0.131795735341E+00
  0.257793646802E+00  0.252631568909E+01  0.131795735341E+00
  0.257793646802E+00  0.294736838341E+01 -0.131795735340E+00
  0.257793646802E+00  0.294736838341E+01  0.131795735340E+00
  0.257793646802E+00  0.336842107773E+01 -0.131795735340E+00
  0.257793646802E+00  0.336842107773E+01  0.131795735340E+00
  0.257793646802E+00  0.378947377205E+01 -0.131795735340E+00
  0.257793646802E+00  0.378947377205E+01  0.131795735340E+00
  0.257793646802E+00  0.421052646637E+01 -0.131795735341E+00
  0.257793646802E+00  0.421052646637E+01  0.131795735341E+00
  0.257793646801E+00  0.463157892227E+01 -0.131795735341E+00
  0.257793646801E+00  0.463157892227E+01  0.131795735341E+00
  0.257793646802E+00  0.505263137817E+01 -0.131795735340E+00
  0.257793646802E+00  0.505263137817E+01  0.131795735340E+00
  0.257793646802E+00  0.547368431091E+01 -0.131795735340E+00
  0.257793646802E+00  0.547368431091E+01  0.131795735340E+00
  0.257793646802E+00  0.589473676682E+01 -0.131795735340E+00
  0.257793646802E+00  0.589473676682E+01  0.131795735340E+00
  0.257793646802E+00  0.631578969955E+01 -0.131795735340E+00
  0.257793646802E+00  0.631578969955E+01  0.131795735340E+00
  0.257793646801E+00  0.673684215546E+01 -0.131795735341E+00
  0.257793646801E+00  0.673684215546E+01  0.131795735341E+00
  0.257793646802E+00  0.715789461136E+01 -0.131795735340E+00
  0.257793646802E+00  0.715789461136E+01  0.131795735340E+00
  0.257793646802E+00  0.757894754410E+01 -0.131795735340E+00
  0.257793646802E+00  0.757894754410E+01  0.131795735340E+00
  0.257793344885E+00  0.799999933573E+01 -0.131796711276E+00
  0.257793344885E+00  0.799999933573E+01  0.131796711276E+00
  0.257792938451E+00  0.809319512484E+01 -0.931951994684E-01
  0.257792938451E+00  0.809319512484E+01  0.931951994684E-01
  0.257792941477E+00  0.813179767392E+01 -0.140524563986E-15
  0.536311090991E+00  0.000000000000E+00 -0.172265355624E+00
  0.536311090991E+00  0.000000000000E+00  0.172265355624E+00
  0.536311145390E+00  0.421052634716E+00 -0.172265343805E+00
  0.536311145390E+00  0.421052634716E+00  0.172265343805E+00
  0.536311145389E+00  0.842105269432E+00 -0.172265343805E+00
  0.536311145389E+00  0.842105269432E+00  0.172265343805E+00
  0.536311145390E+00  0.126315784454E+01 -0.172265343805E+00
  0.536311145390E+00  0.126315784454E+01  0.172265343805E+00
  0.536311145390E+00  0.168421053886E+01 -0.172265343804E+00
  0.536311145390E+00  0.168421053886E+01  0.172265343804E+00
  0.536311145389E+00  0.210526323318E+01 -0.172265343805E+00
  0.536311145389E+00  0.210526323318E+01  0.172265343805E+00
  0.536311145389E+00  0.252631568909E+01 -0.172265343805E+00
  0.536311145389E+00  0.252631568909E+01  0.172265343805E+00
  0.536311145390E+00  0.294736838341E+01 -0.172265343804E+00
  0.536311145390E+00  0.294736838341E+01  0.172265343804E+00
  0.536311145390E+00  0.336842107773E+01 -0.172265343804E+00
  0.536311145390E+00  0.336842107773E+01  0.172265343804E+00
  0.536311145390E+00  0.378947377205E+01 -0.172265343804E+00
  0.536311145390E+00  0.378947377205E+01  0.172265343804E+00
  0.536311145389E+00  0.421052646637E+01 -0.172265343805E+00
  0.536311145389E+00  0.421052646637E+01  0.172265343805E+00
  0.536311145389E+00  0.463157892227E+01 -0.172265343806E+00
  0.536311145389E+00  0.463157892227E+01  0.172265343806E+00
  0.536311145390E+00  0.505263137817E+01 -0.172265343804E+00
  0.536311145390E+00  0.505263137817E+01  0.172265343804E+00
  0.536311145390E+00  0.547368431091E+01 -0.172265343804E+00
  0.536311145390E+00  0.547368431091E+01  0.172265343804E+00
  0.536311145390E+00  0.589473676682E+01 -0.172265343804E+00
  0.536311145390E+00  0.589473676682E+01  0.172265343804E+00
  0.536311145390E+00  0.631578969955E+01 -0.172265343804E+00
  0.536311145390E+00  0.631578969955E+01  0.172265343804E+00
  0.536311145389E+00  0.673684215546E+01 -0.172265343806E+00
  0.536311145389E+00  0.673684215546E+01  0.172265343806E+00
  0.536311145390E+00  0.715789461136E+01 -0.172265343804E+00
  0.536311145390E+00  0.715789461136E+01  0.172265343804E+00
  0.536311145390E+00  0.757894754410E+01 -0.172265343804E+00
  0.536311145390E+00  0.757894754410E+01  0.172265343804E+00
  0.536311043437E+00  0.799999932197E+01 -0.172266299248E+00
  0.536311043437E+00  0.799999932197E+01  0.172266299248E+00
  0.536310951866E+00  0.812181100008E+01 -0.121811262543E+00
  0.536310951866E+00  0.812181100008E+01  0.121811262543E+00
  0.536310984225E+00  0.817226724107E+01  0.124536798326E-17
  0.799721193196E+00  0.000000000000E+00 -0.191199284362E+00
  0.799721193196E+00  0.000000000000E+00  0.191199284362E+00
  0.799721223010E+00  0.421052634716E+00 -0.191199272934E+00
  0.799721223010E+00  0.421052634716E+00  0.191199272934E+00
  0.799721223010E+00  0.842105269432E+00 -0.191199272934E+00
  0.799721223010E+00  0.842105269432E+00  0.191199272934E+00
  0.799721223010E+00  0.126315784454E+01 -0.191199272934E+00
  0.799721223010E+00  0.126315784454E+01  0.191199272934E+00
  0.799721223010E+00  0.168421053886E+01 -0.191199272934E+00
  0.799721223010E+00  0.168421053886E+01  0.191199272934E+00
  0.799721223010E+00  0.210526323318E+01 -0.191199272935E+00
  0.799721223010E+00  0.210526323318E+01  0.191199272935E+00
  0.799721223010E+00  0.252631568909E+01 -0.191199272935E+00
  0.799721223010E+00  0.252631568909E+01  0.191199272935E+00
  0.799721223010E+00  0.294736838341E+01 -0.191199272934E+00
  0.799721223010E+00  0.294736838341E+01  0.191199272934E+00
  0.799721223010E+00  0.336842107773E+01 -0.191199272934E+00
  0.799721223010E+00  0.336842107773E+01  0.191199272934E+00
  0.799721223010E+00  0.378947377205E+01 -0.191199272934E+00
  0.799721223010E+00  0.378947377205E+01  0.191199272934E+00
  0.799721223010E+00  0.421052646637E+01 -0.191199272935E+00
  0.799721223010E+00  0.421052646637E+01  0.191199272935E+00
  0.799721223010E+00  0.463157892227E+01 -0.191199272935E+00
  0.799721223010E+00  0.463157892227E+01  0.191199272935E+00
  0.799721223010E+00  0.505263137817E+01 -0.191199272934E+00
  0.799721223010E+00  0.505263137817E+01  0.191199272934E+00
  0.799721223010E+00  0.547368431091E+01 -0.191199272934E+00
  0.799721223010E+00  0.547368431091E+01  0.191199272934E+00
  0.799721223010E+00  0.589473676682E+01 -0.191199272934E+00
  0.799721223010E+00  0.589473676682E+01  0.191199272934E+00
  0.799721223010E+00  0.631578969955E+01 -0.191199272934E+00
  0.799721223010E+00  0.631578969955E+01  0.191199272934E+00
  0.799721223010E+00  0.673684215546E+01 -0.191199272935E+00
  0.799721223010E+00  0.673684215546E+01  0.191199272935E+00
  0.799721223010E+00  0.715789461136E+01 -0.191199272934E+00
  0.799721223010E+00  0.715789461136E+01  0.191199272934E+00
  0.799721223010E+00  0.757894754410E+01 -0.191199272934E+00
  0.799721223010E+00  0.757894754410E+01  0.191199272934E+00
  0.799721176061E+00  0.799999933141E+01 -0.191200204690E+00
  0.799721176061E+00  0.799999933141E+01  0.191200204690E+00
  0.799721134022E+00  0.813519964457E+01 -0.135199525819E+00
  0.799721134022E+00  0.813519964457E+01  0.135199525819E+00
  0.799721152158E+00  0.819120054732E+01 -0.320712640167E-17
  0.105025952291E+01  0.000000000000E+00 -0.198939228890E+00
  0.105025952291E+01  0.000000000000E+00  0.198939228890E+00
  0.105025954267E+01  0.421052634716E+00 -0.198939219847E+00
  0.105025954267E+01  0.421052634716E+00  0.198939219847E+00
  0.105025954267E+01  0.842105269432E+00 -0.198939219847E+00
  0.105025954267E+01  0.842105269432E+00  0.198939219847E+00
  0.105025954267E+01  0.126315784454E+01 -0.198939219847E+00
  0.105025954267E+01  0.126315784454E+01  0.198939219847E+00
  0.105025954267E+01  0.168421053886E+01 -0.198939219846E+00
  0.105025954267E+01  0.168421053886E+01  0.198939219846E+00
  0.105025954267E+01  0.210526323318E+01 -0.198939219847E+00
  0.105025954267E+01  0.210526323318E+01  0.198939219847E+00
[...]
POINT_DATA                 704
SCALARS phi float 1
LOOKUP_TABLE default
 -0.461744913460E-05
 -0.120441688126E+00
 -0.240879059227E+00
 -0.361316402079E+00
 -0.481753769158E+00
 -0.602191128320E+00
 -0.722628413661E+00
 -0.843065764009E+00
 -0.963503113500E+00
 -0.108394046421E+01
 -0.120437781805E+01
 -0.132481510863E+01
 -0.144525240579E+01
 -0.156568984745E+01
 -0.168612716376E+01
 -0.180656463118E+01
 -0.192700196210E+01
 -0.204743929166E+01
 -0.216787676413E+01
 -0.228831158134E+01
 -0.233232450353E+00
 -0.258360450893E+00
 -0.353673813806E+00
 -0.378794280408E+00
 -0.474110906185E+00
 -0.499231931852E+00
 -0.594548293534E+00
 -0.619669229608E+00
 -0.714985928372E+00
 -0.740106327278E+00
 -0.835423754365E+00
 -0.860543217549E+00
 -0.955861677625E+00
 -0.980979862936E+00
 -0.107629979500E+01
 -0.110141644476E+01
 -0.119673798366E+01
 -0.122185295438E+01
 -0.131717617681E+01
 -0.134228946246E+01
 -0.143761430043E+01
 -0.146272604670E+01
 -0.155805221217E+01
 -0.158316271689E+01
 -0.167848991891E+01
 -0.170359960651E+01
 -0.179892756300E+01
 -0.182403685218E+01
 -0.191936558331E+01
 -0.194447350468E+01
 -0.203979807430E+01
 -0.206491592157E+01
 -0.216023418169E+01
 -0.218535454297E+01
 -0.228067110065E+01
 -0.230579280358E+01
 -0.240110831834E+01
 -0.242623117094E+01
 -0.252154347815E+01
 -0.254666896928E+01
 -0.255187989123E+01
 -0.256964688997E+01
 -0.257180521373E+01
 -0.494931086792E+00
 -0.527774218200E+00
 -0.615374231577E+00
 -0.648205977485E+00
 -0.735811103407E+00
 -0.768643860050E+00
 -0.856248499164E+00
 -0.889081150841E+00
 -0.976686298463E+00
 -0.100951808276E+01
 -0.109712442188E+01
 -0.112995467346E+01
 -0.121756275727E+01
 -0.125039090459E+01
 -0.133800137522E+01
 -0.137082698549E+01
 -0.145844011569E+01
 -0.149126294549E+01
 -0.157887886616E+01
 -0.161169889911E+01
 -0.169931750016E+01
 -0.173213497543E+01
 -0.181975581696E+01
 -0.185257124242E+01
 -0.194019375187E+01
 -0.197300790415E+01
 -0.206063128976E+01
 -0.209344524918E+01
 -0.218106786658E+01
 -0.221388328853E+01
 -0.230150350321E+01
 -0.233432255315E+01
 -0.242193899771E+01
 -0.245476182522E+01
 -0.254237492096E+01
 -0.257520124510E+01
 -0.266281118492E+01
 -0.269564083972E+01
 -0.278324216349E+01
 -0.281608155429E+01
 -0.282289363459E+01
 -0.284611567555E+01
 -0.284893713104E+01
 -0.744278222268E+00
 -0.780730856192E+00
 -0.864722586248E+00
 -0.901161339825E+00
 -0.985159276598E+00
 -0.102159917674E+01
 -0.110559668849E+01
 -0.114203637558E+01
 -0.122603464396E+01
 -0.126247311581E+01
 -0.134647304305E+01
 -0.138290940350E+01
 -0.146691176113E+01
 -0.150334522561E+01
 -0.158735084745E+01
 -0.162378081700E+01
 -0.170779010799E+01
 -0.174421624427E+01
 -0.182822938889E+01
 -0.186465165528E+01
 -0.194866851861E+01
 -0.198508722220E+01
 -0.206910725125E+01
 -0.210552305990E+01
 -0.218954548766E+01
 -0.222595940783E+01
 -0.230998321497E+01
 -0.234639655412E+01
 -0.243042003244E+01
 -0.246683435441E+01
 -0.255085612803E+01
 -0.258727315547E+01
 -0.267129119887E+01
 -0.270771266526E+01
 -0.279172522850E+01
 -0.282815300059E+01
 -0.291215830432E+01
 -0.294859440623E+01
 -0.303259106927E+01
 -0.306903617466E+01
 -0.307659997780E+01
 -0.310237227145E+01
 -0.310550457489E+01
 -0.982420308599E+00
 -0.102034767716E+01
 -0.110286252834E+01
 -0.114077869160E+01
 -0.122329898626E+01
 -0.126121722866E+01
 -0.134373692967E+01
 -0.138165399817E+01
 -0.146417604460E+01
 -0.150208958722E+01
 -0.158461519153E+01
 -0.162252511153E+01
 -0.170505441380E+01
 -0.174296040088E+01
 -0.182549400066E+01
 -0.186339546911E+01
 -0.194593378767E+01
 -0.198383036891E+01
 -0.206637359751E+01
 -0.210426524543E+01
 -0.218681322008E+01
 -0.222470030794E+01
 -0.230725236371E+01
 -0.234513572289E+01
 -0.242769089241E+01
 -0.246557176854E+01
 -0.254812876579E+01
 -0.258600876321E+01
 -0.266856556638E+01
 -0.270644658866E+01
 -0.278900147852E+01
 -0.282688560795E+01
 -0.290943620993E+01
 -0.294732555495E+01
 -0.302986990167E+01
 -0.306776655469E+01
 -0.315030266470E+01
 -0.318820876760E+01
 -0.327073432023E+01
 -0.330865133417E+01
 -0.331652409590E+01
 -0.334333762149E+01
 -0.334659772079E+01
 -0.121170950711E+01
 -0.124977622571E+01
 -0.133215417032E+01
 -0.137020656778E+01
 -0.145259065700E+01
 -0.149064502457E+01
 -0.157302884756E+01
 -0.161108153063E+01
 -0.169346562505E+01
 -0.173151957209E+01
 -0.181390395761E+01
 -0.185195608190E+01
 -0.193434385156E+01
 -0.197239146282E+01
 -0.205478522266E+01
 -0.209282559651E+01
 -0.217522612195E+01
 -0.221325837177E+01
 -0.229566659063E+01
 -0.233369189069E+01
 -0.241610674643E+01
 -0.245412621190E+01
 -0.253654631404E+01
 -0.257456112434E+01
 -0.265698514416E+01
 -0.269499682318E+01
 -0.277742317723E+01
 -0.281543362286E+01
 -0.289785997351E+01
 -0.293587144163E+01
 -0.301829569897E+01
 -0.305631066708E+01
 -0.313873004969E+01
 -0.317675101354E+01
 -0.325916316579E+01
 -0.329719260123E+01
 -0.337959516288E+01
 -0.341763558781E+01
 -0.350002597514E+01
 -0.353807905064E+01
 -0.354598230171E+01
 -0.357289236240E+01
 -0.357616530040E+01
 -0.143454157221E+01
 -0.147182111555E+01
 -0.155498682821E+01
 -0.159225090512E+01
 -0.167542319675E+01
 -0.171268927658E+01
 -0.179586039824E+01
 -0.183312672805E+01
 -0.191629806584E+01
 -0.195356377838E+01
 -0.203673695671E+01
 -0.207399972804E+01
 -0.215717767356E+01
 -0.219443444432E+01
 -0.227762059652E+01
 -0.231486864919E+01
 -0.239805427110E+01
 -0.243530484662E+01
 -0.251849456927E+01
 -0.255573984050E+01
 -0.263893616631E+01
 -0.267617304456E+01
 -0.275937891174E+01
 -0.279660490282E+01
 -0.287981937522E+01
 -0.291703899462E+01
 -0.300025792464E+01
 -0.303747524670E+01
 -0.312069484057E+01
 -0.315791294171E+01
 -0.324113044303E+01
 -0.327835235786E+01
 -0.336156446954E+01
 -0.339879307089E+01
 -0.348199707774E+01
 -0.351923518698E+01
 -0.360242838209E+01
 -0.363967888110E+01
 -0.372285839382E+01
 -0.376012319489E+01
 -0.376786526648E+01
 -0.379421818595E+01
 -0.379742407639E+01
 -0.165318953353E+01
 -0.168899168265E+01
 -0.177363434572E+01
 -0.180942197790E+01
 -0.189407081523E+01
 -0.192986021946E+01
 -0.201450846919E+01
 -0.205029715754E+01
 -0.213494705269E+01
 -0.217073316385E+01
 -0.225538638332E+01
 -0.229116830739E+01
 -0.237582598687E+01
 -0.241160267529E+01
 -0.249626554843E+01
 -0.253203695247E+01
 -0.261670601117E+01
 -0.265247170577E+01
 -0.273714730574E+01
 -0.277290556819E+01
 -0.285759013516E+01
 -0.289333751541E+01
 -0.297802490857E+01
 -0.301377746150E+01
 -0.309846307170E+01
 -0.313421429617E+01
 -0.321890345952E+01
 -0.325465079521E+01
 -0.333934438149E+01
 -0.337508637727E+01
 -0.345978118982E+01
 -0.349552184638E+01
 -0.358021516244E+01
 -0.361596128209E+01
 -0.370064738017E+01
 -0.373640346673E+01
 -0.382107807640E+01
 -0.385684767793E+01
 -0.394150732878E+01
 -0.397729275125E+01
 -0.398472977784E+01
 -0.401003678082E+01
 -0.401311639807E+01
 -0.186982406105E+01
 -0.190359888399E+01
 -0.199026803986E+01
 -0.202403003930E+01
 -0.211070460659E+01
 -0.214446817208E+01
 -0.223114241829E+01
 -0.226490493282E+01
 -0.235158125507E+01
 -0.238534068606E+01
 -0.247202101965E+01
 -0.250577548779E+01
 -0.259246159716E+01
 -0.262620933307E+01
 -0.271290297945E+01
 -0.274664251481E+01
 -0.283334480328E+01
 -0.286707526835E+01
 -0.295378658403E+01
 -0.298750807747E+01
 -0.307422729452E+01
 -0.310794198831E+01
 -0.319466589286E+01
 -0.322837797508E+01
 -0.331510494721E+01
 -0.334881397500E+01
 -0.343554648751E+01
 -0.346925009729E+01
 -0.355598937593E+01
 -0.358968754451E+01
 -0.367640973220E+01
 -0.371013112550E+01
 -0.379684415353E+01
 -0.383057266571E+01
 -0.391727827213E+01
 -0.395101358576E+01
 -0.403771228778E+01
 -0.407145476701E+01
 -0.415814259735E+01
 -0.419189898517E+01
 -0.419891631769E+01
 -0.422278838916E+01
 -0.422569416108E+01
 -0.208657006079E+01
 -0.211784765425E+01
 -0.220701273335E+01
 -0.223828028070E+01
 -0.232744947274E+01
 -0.235871821059E+01
 -0.244788755738E+01
 -0.247915464942E+01
 -0.256832670398E+01
 -0.259959003898E+01
 -0.268876681770E+01
 -0.272002444102E+01
 -0.280920782340E+01
 -0.284045781119E+01
 -0.292964974498E+01
 -0.296089040443E+01
 -0.305009222851E+01
 -0.308132244040E+01
 -0.317053484180E+01
 -0.320175435086E+01
 -0.329097705846E+01
 -0.332218666073E+01
 -0.341141827528E+01
 -0.344261980892E+01
 -0.353185800403E+01
 -0.356305424250E+01
 -0.365229498055E+01
 -0.368349059128E+01
 -0.377272884059E+01
 -0.380392994595E+01
 -0.389316329071E+01
 -0.392437257936E+01
 -0.401359701034E+01
 -0.404481451665E+01
 -0.413403051622E+01
 -0.416525604358E+01
 -0.425445795976E+01
 -0.428570364935E+01
 -0.437488713417E+01
 -0.440614892863E+01
 -0.441264529323E+01
 -0.443475305380E+01
 -0.443744313239E+01
 -0.230557694891E+01
 -0.233392608435E+01
 -0.242601791351E+01
 -0.245436058890E+01
 -0.254645500050E+01
 -0.257479812843E+01
 -0.266689345909E+01
 -0.269523412450E+01
 -0.278733292480E+01
 -0.281566911585E+01
 -0.290777333249E+01
 -0.293610315834E+01
 -0.302821468767E+01
 -0.305653612999E+01
 -0.314865706033E+01
 -0.317696823101E+01
 -0.326910008448E+01
 -0.329739969002E+01
 -0.338954328070E+01
 -0.341783098915E+01
 -0.350998608491E+01
 -0.353826270334E+01
 -0.363042789353E+01
 -0.365869531903E+01
 -0.375086837521E+01
 -0.377912932167E+01
 -0.387130729293E+01
 -0.389956524182E+01
 -0.399174403753E+01
 -0.402000315701E+01
 -0.411217879381E+01
 -0.414044340495E+01
 -0.423261136337E+01
 -0.426088559136E+01
 -0.435304134220E+01
 -0.438133037304E+01
 -0.447346888460E+01
 -0.450177785631E+01
 -0.459389650374E+01
 -0.462222473324E+01
 -0.462811596902E+01
 -0.464814965449E+01
 -0.465058921504E+01
 -0.252909499523E+01
 -0.255409368013E+01
 -0.264953389635E+01
 -0.267453057571E+01
 -0.276997142706E+01
 -0.279496758665E+01
 -0.289041016238E+01
 -0.291540319957E+01
 -0.301084987621E+01
 -0.303583767424E+01
 -0.313129049604E+01
 -0.315627135400E+01
 -0.325173208769E+01
 -0.327670401767E+01
 -0.337217477958E+01
 -0.339713573338E+01
 -0.349261819338E+01
 -0.351756673771E+01
 -0.361306181278E+01
 -0.363799754728E+01
 -0.373350504147E+01
 -0.375842877136E+01
 -0.385394721041E+01
 -0.387886099101E+01
 -0.397438799657E+01
 -0.399929466621E+01
 -0.409482711366E+01
 -0.411973037694E+01
 -0.421526388490E+01
 -0.424016828106E+01
 -0.433569853982E+01
 -0.436060866907E+01
 -0.445613106237E+01
 -0.448105096452E+01
 -0.457656165719E+01
 -0.460149521221E+01
 -0.469699025630E+01
 -0.472194174428E+01
 -0.481741663629E+01
 -0.484238991974E+01
 -0.484758835118E+01
 -0.486524993833E+01
 -0.486740222276E+01
 -0.275956851084E+01
 -0.278077591836E+01
 -0.288000446503E+01
 -0.290121599914E+01
 -0.300044323396E+01
 -0.302165164711E+01
 -0.312088328927E+01
 -0.314208453041E+01
 -0.324132342570E+01
 -0.326251976962E+01
 -0.336176303006E+01
 -0.338295446458E+01
 -0.348220392858E+01
 -0.350338771830E+01
 -0.360264795071E+01
 -0.362381803114E+01
 -0.372309212560E+01
 -0.374424819814E+01
 -0.384353594084E+01
 -0.386467866633E+01
 -0.396397935652E+01
 -0.398510947957E+01
 -0.408442167589E+01
 -0.410554155396E+01
 -0.420486270604E+01
 -0.422597502328E+01
 -0.432530203072E+01
 -0.434641053467E+01
 -0.444573877412E+01
 -0.446684851798E+01
 -0.456617321716E+01
 -0.458728920048E+01
 -0.468660568060E+01
 -0.470773162604E+01
 -0.480703646391E+01
 -0.482817573658E+01
 -0.492746527503E+01
 -0.494862210696E+01
 -0.504789162322E+01
 -0.506907038749E+01
 -0.507348038983E+01
 -0.508845850956E+01
 -0.509028442995E+01
 -0.299974778505E+01
 -0.301667272432E+01
 -0.312018117310E+01
 -0.313711573584E+01
 -0.324062193872E+01
 -0.325754896360E+01
 -0.336106259575E+01
 -0.337798215643E+01
 -0.348150235810E+01
 -0.349841656251E+01
 -0.360194232117E+01
 -0.361885080905E+01
 -0.372238460970E+01
 -0.373928264914E+01
 -0.384282396028E+01
 -0.385971761073E+01
 -0.396326436465E+01
 -0.398015169446E+01
 -0.408370698983E+01
 -0.410058507658E+01
 -0.420415565490E+01
 -0.422101714620E+01
 -0.432459929565E+01
 -0.434144294479E+01
 -0.444504028701E+01
 -0.446187313537E+01
 -0.456547980556E+01
 -0.458230798728E+01
 -0.468591649920E+01
 -0.470274597241E+01
 -0.480635058051E+01
 -0.482318709756E+01
 -0.492678322496E+01
 -0.494362941290E+01
 -0.504721480993E+01
 -0.506407276860E+01
 -0.516764454101E+01
 -0.518451828954E+01
 -0.528807166766E+01
 -0.530496590740E+01
 -0.530848479352E+01
 -0.532043277428E+01
 -0.532188934350E+01
 -0.325282418566E+01
 -0.326489305280E+01
 -0.337325510968E+01
 -0.338533918357E+01
 -0.349369983275E+01
 -0.350576765042E+01
 -0.361414193372E+01
 -0.362619891787E+01
 -0.373458168434E+01
 -0.374663308881E+01
 -0.385502144531E+01
 -0.386706746872E+01
 -0.397546146252E+01
 -0.398750152293E+01
 -0.409590112588E+01
 -0.410793607568E+01
 -0.421634259737E+01
 -0.422836900260E+01
 -0.433678820913E+01
 -0.434880212677E+01
 -0.445725475161E+01
 -0.446921758190E+01
 -0.457765972262E+01
 -0.458967011049E+01
 -0.469809906278E+01
 -0.471010752572E+01
 -0.481853893071E+01
 -0.483054252726E+01
 -0.493898424454E+01
 -0.495097268142E+01
 -0.505942095320E+01
 -0.507141179604E+01
 -0.517985467676E+01
 -0.519185324480E+01
 -0.530028820653E+01
 -0.531229471979E+01
 -0.542071991351E+01
 -0.543273839810E+01
 -0.554114908540E+01
 -0.555318418790E+01
 -0.555569091206E+01
 -0.556420227813E+01
 -0.556524013001E+01
 -0.352261862926E+01
 -0.352912775818E+01
 -0.364305051741E+01
 -0.364957392732E+01
 -0.376350152842E+01
 -0.376999384200E+01
 -0.388394255788E+01
 -0.389042542461E+01
 -0.400438050305E+01
 -0.401086140606E+01
 -0.412481916645E+01
 -0.413129688150E+01
 -0.424525849554E+01
 -0.425173153772E+01
 -0.436569785171E+01
 -0.437216616747E+01
 -0.448613906525E+01
 -0.449259858269E+01
 -0.460657809840E+01
 -0.461303206485E+01
 -0.472701068896E+01
 -0.473347113585E+01
 -0.484745121125E+01
 -0.485390758161E+01
 -0.496789275624E+01
 -0.497433964855E+01
 -0.508833603651E+01
 -0.509477104969E+01
 -0.520876971718E+01
 -0.521521890451E+01
 -0.532920307275E+01
 -0.533566049170E+01
 -0.544963877199E+01
 -0.545609923509E+01
 -0.557007435846E+01
 -0.557653818378E+01
 -0.569050959196E+01
 -0.569697784174E+01
 -0.581094402825E+01
 -0.581741784997E+01
 -0.581876302607E+01
 -0.582334110255E+01
 -0.582389802510E+01
 -0.381384618599E+01
 -0.393428338241E+01
 -0.405472377863E+01
 -0.417515813083E+01
 -0.429559553058E+01
 -0.441603293039E+01
 -0.453647026220E+01
 -0.465691046152E+01
 -0.477734506241E+01
 -0.489778246212E+01
 -0.501822258944E+01
 -0.513865719449E+01
 -0.525909452622E+01
 -0.537953199288E+01
 -0.549996932133E+01
 -0.562041050492E+01
 -0.574084411540E+01
 -0.586128144393E+01
 -0.598171890739E+01
 -0.610215877943E+01
 -0.598171895569E+01
 -0.393428343113E+01
 -0.381384739118E+01
 -0.453647031041E+01
 -0.441603297870E+01
 -0.549996936959E+01
 -0.537953204073E+01
 -0.489778251002E+01
 -0.477734511037E+01
 -0.586128149222E+01
 -0.574084416366E+01
 -0.429559557894E+01
 -0.417515817922E+01
 -0.525909457384E+01
 -0.513865724220E+01
 -0.405471871103E+01
 -0.465690574716E+01
 -0.562040421632E+01
 -0.501821798999E+01
SCALARS phi_mu float 1
LOOKUP_TABLE default
 -0.461744913460E-05
 -0.120441688126E+00
 -0.240879059227E+00
 -0.361316402079E+00
 -0.481753769158E+00
 -0.602191128320E+00
 -0.722628413661E+00
 -0.843065764009E+00
 -0.963503113500E+00
 -0.108394046421E+01
 -0.120437781805E+01
 -0.132481510863E+01
 -0.144525240579E+01
 -0.156568984745E+01
 -0.168612716376E+01
 -0.180656463118E+01
 -0.192700196210E+01
 -0.204743929166E+01
 -0.216787676413E+01
 -0.228831158134E+01
 -0.233232450353E+00
 -0.258360450893E+00
 -0.353673813806E+00
 -0.378794280408E+00
 -0.474110906185E+00
 -0.499231931852E+00
 -0.594548293534E+00
 -0.619669229608E+00
 -0.714985928372E+00
 -0.740106327278E+00
 -0.835423754365E+00
 -0.860543217549E+00
 -0.955861677625E+00
 -0.980979862936E+00
 -0.107629979500E+01
 -0.110141644476E+01
 -0.119673798366E+01
 -0.122185295438E+01
 -0.131717617681E+01
 -0.134228946246E+01
 -0.143761430043E+01
 -0.146272604670E+01
 -0.155805221217E+01
 -0.158316271689E+01
 -0.167848991891E+01
 -0.170359960651E+01
 -0.179892756300E+01
 -0.182403685218E+01
 -0.191936558331E+01
 -0.194447350468E+01
 -0.203979807430E+01
 -0.206491592157E+01
 -0.216023418169E+01
 -0.218535454297E+01
 -0.228067110065E+01
 -0.230579280358E+01
 -0.240110831834E+01
 -0.242623117094E+01
 -0.252154347815E+01
 -0.254666896928E+01
 -0.255187989123E+01
 -0.256964688997E+01
 -0.257180521373E+01
 -0.494931086792E+00
 -0.527774218200E+00
 -0.615374231577E+00
 -0.648205977485E+00
 -0.735811103407E+00
 -0.768643860050E+00
 -0.856248499164E+00
 -0.889081150841E+00
 -0.976686298463E+00
 -0.100951808276E+01
 -0.109712442188E+01
 -0.112995467346E+01
 -0.121756275727E+01
 -0.125039090459E+01
 -0.133800137522E+01
 -0.137082698549E+01
 -0.145844011569E+01
 -0.149126294549E+01
 -0.157887886616E+01
 -0.161169889911E+01
 -0.169931750016E+01
 -0.173213497543E+01
 -0.181975581696E+01
 -0.185257124242E+01
 -0.194019375187E+01
 -0.197300790415E+01
 -0.206063128976E+01
 -0.209344524918E+01
 -0.218106786658E+01
 -0.221388328853E+01
 -0.230150350321E+01
 -0.233432255315E+01
 -0.242193899771E+01
 -0.245476182522E+01
 -0.254237492096E+01
 -0.257520124510E+01
 -0.266281118492E+01
 -0.269564083972E+01
 -0.278324216349E+01
 -0.281608155429E+01
 -0.282289363459E+01
 -0.284611567555E+01
 -0.284893713104E+01
 -0.744278222268E+00
 -0.780730856192E+00
 -0.864722586248E+00
 -0.901161339825E+00
 -0.985159276598E+00
 -0.102159917674E+01
 -0.110559668849E+01
 -0.114203637558E+01
 -0.122603464396E+01
 -0.126247311581E+01
 -0.134647304305E+01
 -0.138290940350E+01
 -0.146691176113E+01
 -0.150334522561E+01
 -0.158735084745E+01
 -0.162378081700E+01
 -0.170779010799E+01
 -0.174421624427E+01
 -0.182822938889E+01
 -0.186465165528E+01
 -0.194866851861E+01
 -0.198508722220E+01
 -0.206910725125E+01
 -0.210552305990E+01
 -0.218954548766E+01
 -0.222595940783E+01
 -0.230998321497E+01
 -0.234639655412E+01
 -0.243042003244E+01
 -0.246683435441E+01
 -0.255085612803E+01
 -0.258727315547E+01
 -0.267129119887E+01
 -0.270771266526E+01
 -0.279172522850E+01
 -0.282815300059E+01
 -0.291215830432E+01
 -0.294859440623E+01
 -0.303259106927E+01
 -0.306903617466E+01
 -0.307659997780E+01
 -0.310237227145E+01
 -0.310550457489E+01
 -0.982420308599E+00
 -0.102034767716E+01
 -0.110286252834E+01
 -0.114077869160E+01
 -0.122329898626E+01
 -0.126121722866E+01
 -0.134373692967E+01
 -0.138165399817E+01
 -0.146417604460E+01
 -0.150208958722E+01
 -0.158461519153E+01
 -0.162252511153E+01
 -0.170505441380E+01
 -0.174296040088E+01
 -0.182549400066E+01
 -0.186339546911E+01
 -0.194593378767E+01
 -0.198383036891E+01
 -0.206637359751E+01
 -0.210426524543E+01
 -0.218681322008E+01
 -0.222470030794E+01
 -0.230725236371E+01
 -0.234513572289E+01
 -0.242769089241E+01
 -0.246557176854E+01
 -0.254812876579E+01
 -0.258600876321E+01
 -0.266856556638E+01
 -0.270644658866E+01
 -0.278900147852E+01
 -0.282688560795E+01
 -0.290943620993E+01
 -0.294732555495E+01
 -0.302986990167E+01
 -0.306776655469E+01
 -0.315030266470E+01
 -0.318820876760E+01
 -0.327073432023E+01
 -0.330865133417E+01
 -0.331652409590E+01
 -0.334333762149E+01
 -0.334659772079E+01
 -0.121170950711E+01
 -0.124977622571E+01
 -0.133215417032E+01
 -0.137020656778E+01
 -0.145259065700E+01
 -0.149064502457E+01
 -0.157302884756E+01
 -0.161108153063E+01
 -0.169346562505E+01
 -0.173151957209E+01
 -0.181390395761E+01
 -0.185195608190E+01
 -0.193434385156E+01
 -0.197239146282E+01
 -0.205478522266E+01
 -0.209282559651E+01
 -0.217522612195E+01
 -0.221325837177E+01
 -0.229566659063E+01
 -0.233369189069E+01
 -0.241610674643E+01
 -0.245412621190E+01
 -0.253654631404E+01
 -0.257456112434E+01
 -0.265698514416E+01
 -0.269499682318E+01
 -0.277742317723E+01
 -0.281543362286E+01
 -0.289785997351E+01
 -0.293587144163E+01
 -0.301829569897E+01
 -0.305631066708E+01
 -0.313873004969E+01
 -0.317675101354E+01
 -0.325916316579E+01
 -0.329719260123E+01
 -0.337959516288E+01
 -0.341763558781E+01
 -0.350002597514E+01
 -0.353807905064E+01
 -0.354598230171E+01
 -0.357289236240E+01
 -0.357616530040E+01
 -0.143454157221E+01
 -0.147182111555E+01
 -0.155498682821E+01
 -0.159225090512E+01
 -0.167542319675E+01
 -0.171268927658E+01
 -0.179586039824E+01