# vtk DataFile Version 3.0
MachLine results file. Generated by MachLine, USU AeroLab (c) 2022.
ASCII
DATASET POLYDATA
POINTS                3398 float
  0.000000000000E+00  0.000000000000E+00 -0.565440000000E-02
  0.659670000000E-03  0.000000000000E+00 -0.532140000000E-02
  0.659670000000E-03  0.778340000000E-04 -0.533360000000E-02
  0.659670000000E-03  0.148000000000E-03 -0.536940000000E-02
  0.659670000000E-03  0.203690000000E-03 -0.542510000000E-02
  0.659670000000E-03  0.239420000000E-03 -0.549520000000E-02
  0.659670000000E-03  0.251630000000E-03 -0.557310000000E-02
  0.659670000000E-03  0.239420000000E-03 -0.565090000000E-02
  0.659670000000E-03  0.203690000000E-03 -0.572110000000E-02
  0.659670000000E-03  0.148000000000E-03 -0.577670000000E-02
  0.659670000000E-03  0.778340000000E-04 -0.581250000000E-02
  0.659670000000E-03  0.000000000000E+00 -0.582470000000E-02
  0.263270000000E-02  0.000000000000E+00 -0.463760000000E-02
  0.263270000000E-02  0.237690000000E-03 -0.467490000000E-02
  0.263270000000E-02  0.451960000000E-03 -0.478410000000E-02
  0.263270000000E-02  0.622020000000E-03 -0.495410000000E-02
  0.263270000000E-02  0.731140000000E-03 -0.516840000000E-02
  0.263270000000E-02  0.768430000000E-03 -0.540610000000E-02
  0.263270000000E-02  0.731140000000E-03 -0.564380000000E-02
  0.263270000000E-02  0.622020000000E-03 -0.585800000000E-02
  0.263270000000E-02  0.451960000000E-03 -0.602810000000E-02
  0.263270000000E-02  0.237690000000E-03 -0.613720000000E-02
  0.263270000000E-02  0.000000000000E+00 -0.617450000000E-02
  0.590180000000E-02  0.000000000000E+00 -0.370460000000E-02
  0.590180000000E-02  0.455820000000E-03 -0.377610000000E-02
  0.590180000000E-02  0.866740000000E-03 -0.398540000000E-02
  0.590180000000E-02  0.119290000000E-02 -0.431150000000E-02
  0.590180000000E-02  0.140210000000E-02 -0.472240000000E-02
  0.590180000000E-02  0.147360000000E-02 -0.517820000000E-02
  0.590180000000E-02  0.140210000000E-02 -0.563400000000E-02
  0.590180000000E-02  0.119290000000E-02 -0.604500000000E-02
  0.590180000000E-02  0.866740000000E-03 -0.637110000000E-02
  0.590180000000E-02  0.455820000000E-03 -0.658040000000E-02
  0.590180000000E-02  0.000000000000E+00 -0.665190000000E-02
  0.104400000000E-01  0.000000000000E+00 -0.256530000000E-02
  0.104400000000E-01  0.722160000000E-03 -0.267860000000E-02
  0.104400000000E-01  0.137320000000E-02 -0.301010000000E-02
  0.104400000000E-01  0.188990000000E-02 -0.352680000000E-02
  0.104400000000E-01  0.222140000000E-02 -0.417780000000E-02
  0.104400000000E-01  0.233470000000E-02 -0.490000000000E-02
  0.104400000000E-01  0.222140000000E-02 -0.562220000000E-02
  0.104400000000E-01  0.188990000000E-02 -0.627320000000E-02
  0.104400000000E-01  0.137320000000E-02 -0.678990000000E-02
  0.104400000000E-01  0.722160000000E-03 -0.712140000000E-02
  0.104400000000E-01  0.000000000000E+00 -0.723470000000E-02
  0.162130000000E-01  0.000000000000E+00 -0.124830000000E-02
  0.162130000000E-01  0.103000000000E-02 -0.140990000000E-02
  0.162130000000E-01  0.195860000000E-02 -0.188280000000E-02
  0.162130000000E-01  0.269560000000E-02 -0.261980000000E-02
  0.162130000000E-01  0.316850000000E-02 -0.354830000000E-02
  0.162130000000E-01  0.333010000000E-02 -0.457840000000E-02
  0.162130000000E-01  0.316850000000E-02 -0.560840000000E-02
  0.162130000000E-01  0.269560000000E-02 -0.653700000000E-02
  0.162130000000E-01  0.195860000000E-02 -0.727400000000E-02
  0.162130000000E-01  0.103010000000E-02 -0.774690000000E-02
  0.162130000000E-01  0.000000000000E+00 -0.790850000000E-02
  0.231840000000E-01  0.000000000000E+00  0.224410000000E-03
  0.231840000000E-01  0.137430000000E-02  0.877610000000E-05
  0.231840000000E-01  0.261330000000E-02 -0.622190000000E-03
  0.231840000000E-01  0.359660000000E-02 -0.160550000000E-02
  0.231840000000E-01  0.422750000000E-02 -0.284440000000E-02
  0.231840000000E-01  0.444320000000E-02 -0.421880000000E-02
  0.231840000000E-01  0.422750000000E-02 -0.559310000000E-02
  0.231840000000E-01  0.359660000000E-02 -0.683210000000E-02
  0.231840000000E-01  0.261330000000E-02 -0.781530000000E-02
  0.231840000000E-01  0.137430000000E-02 -0.844630000000E-02
  0.231840000000E-01  0.000000000000E+00 -0.866190000000E-02
  0.313170000000E-01  0.000000000000E+00  0.183430000000E-02
  0.313170000000E-01  0.175070000000E-02  0.155960000000E-02
  0.313170000000E-01  0.332890000000E-02  0.755840000000E-03
  0.313170000000E-01  0.458150000000E-02 -0.496710000000E-03
  0.313170000000E-01  0.538520000000E-02 -0.207490000000E-02
  0.313170000000E-01  0.565990000000E-02 -0.382560000000E-02
  0.313170000000E-01  0.538520000000E-02 -0.557630000000E-02
  0.313170000000E-01  0.458150000000E-02 -0.715460000000E-02
  0.313170000000E-01  0.332890000000E-02 -0.840710000000E-02
  0.313170000000E-01  0.175070000000E-02 -0.921090000000E-02
  0.313170000000E-01  0.000000000000E+00 -0.948550000000E-02
  0.405800000000E-01  0.000000000000E+00  0.356490000000E-02
  0.405800000000E-01  0.215530000000E-02  0.322670000000E-02
  0.405800000000E-01  0.409820000000E-02  0.223720000000E-02
  0.405800000000E-01  0.564030000000E-02  0.695210000000E-03
  0.405800000000E-01  0.662970000000E-02 -0.124770000000E-02
  0.405800000000E-01  0.696790000000E-02 -0.340300000000E-02
  0.405800000000E-01  0.662970000000E-02 -0.555830000000E-02
  0.405800000000E-01  0.564030000000E-02 -0.750120000000E-02
  0.405800000000E-01  0.409820000000E-02 -0.904330000000E-02
  0.405800000000E-01  0.215530000000E-02 -0.100330000000E-01
  0.405800000000E-01  0.000000000000E+00 -0.103710000000E-01
  0.509980000000E-01  0.000000000000E+00  0.540110000000E-02
  0.509980000000E-01  0.258450000000E-02  0.499560000000E-02
  0.509980000000E-01  0.491450000000E-02  0.380910000000E-02
  0.509980000000E-01  0.676370000000E-02  0.195990000000E-02
  0.509980000000E-01  0.795020000000E-02 -0.370050000000E-03
  0.509980000000E-01  0.835570000000E-02 -0.295460000000E-02
  0.509980000000E-01  0.795020000000E-02 -0.553910000000E-02
  0.509980000000E-01  0.676370000000E-02 -0.786910000000E-02
  0.509980000000E-01  0.491450000000E-02 -0.971830000000E-02
  0.509980000000E-01  0.258450000000E-02 -0.109050000000E-01
  0.509980000000E-01  0.000000000000E+00 -0.113100000000E-01
  0.625590000000E-01  0.000000000000E+00  0.732880000000E-02
  0.625590000000E-01  0.303520000000E-02  0.685260000000E-02
  0.625590000000E-01  0.577140000000E-02  0.545920000000E-02
  0.625590000000E-01  0.794300000000E-02  0.328760000000E-02
  0.625590000000E-01  0.933650000000E-02  0.551350000000E-03
  0.625590000000E-01  0.981270000000E-02 -0.248390000000E-02
  0.625590000000E-01  0.933650000000E-02 -0.551910000000E-02
  0.625590000000E-01  0.794300000000E-02 -0.825530000000E-02
  0.625590000000E-01  0.577140000000E-02 -0.104270000000E-01
  0.625590000000E-01  0.303520000000E-02 -0.118200000000E-01
  0.625590000000E-01  0.000000000000E+00 -0.122970000000E-01
  0.752570000000E-01  0.000000000000E+00  0.933440000000E-02
  0.752570000000E-01  0.350410000000E-02  0.878460000000E-02
  0.752570000000E-01  0.666290000000E-02  0.717590000000E-02
  0.752570000000E-01  0.917000000000E-02  0.466880000000E-02
  0.752570000000E-01  0.107790000000E-01  0.150990000000E-02
  0.752570000000E-01  0.113280000000E-01 -0.199410000000E-02
  0.752570000000E-01  0.107790000000E-01 -0.549820000000E-02
  0.752570000000E-01  0.917000000000E-02 -0.865700000000E-02
  0.752570000000E-01  0.666290000000E-02 -0.111640000000E-01
  0.752570000000E-01  0.350410000000E-02 -0.127730000000E-01
  0.752570000000E-01  0.000000000000E+00 -0.133230000000E-01
  0.891300000000E-01  0.000000000000E+00  0.114040000000E-01
  0.891300000000E-01  0.398800000000E-02  0.107790000000E-01
  0.891300000000E-01  0.758320000000E-02  0.894780000000E-02
  0.891300000000E-01  0.104360000000E-01  0.609460000000E-02
  0.891300000000E-01  0.122670000000E-01  0.249940000000E-02
  0.891300000000E-01  0.128930000000E-01 -0.148860000000E-02
  0.891300000000E-01  0.122670000000E-01 -0.547660000000E-02
  0.891300000000E-01  0.104360000000E-01 -0.907170000000E-02
  0.891300000000E-01  0.758320000000E-02 -0.119250000000E-01
  0.891300000000E-01  0.398800000000E-02 -0.137560000000E-01
  0.891300000000E-01  0.000000000000E+00 -0.143820000000E-01
  0.103470000000E+00  0.000000000000E+00  0.135260000000E-01
  0.103470000000E+00  0.448400000000E-02  0.128230000000E-01
  0.103470000000E+00  0.852630000000E-02  0.107640000000E-01
  0.103470000000E+00  0.117340000000E-01  0.755590000000E-02
  0.103470000000E+00  0.137930000000E-01  0.351350000000E-02
  0.103470000000E+00  0.144970000000E-01 -0.970470000000E-03
  0.103470000000E+00  0.137930000000E-01 -0.545450000000E-02
  0.103470000000E+00  0.117340000000E-01 -0.949680000000E-02
  0.103470000000E+00  0.852630000000E-02 -0.127050000000E-01
  0.103470000000E+00  0.448400000000E-02 -0.147640000000E-01
  0.103470000000E+00  0.000000000000E+00 -0.154670000000E-01
  0.119090000000E+00  0.000000000000E+00  0.156870000000E-01
  0.119090000000E+00  0.498910000000E-02  0.149040000000E-01
  0.119090000000E+00  0.948670000000E-02  0.126130000000E-01
  0.119090000000E+00  0.130560000000E-01  0.904390000000E-02
  0.119090000000E+00  0.153470000000E-01  0.454620000000E-02
  0.119090000000E+00  0.161300000000E-01 -0.442860000000E-03
  0.119090000000E+00  0.153470000000E-01 -0.543200000000E-02
  0.119090000000E+00  0.130560000000E-01 -0.992960000000E-02
  0.119090000000E+00  0.948670000000E-02 -0.134990000000E-01
  0.119090000000E+00  0.498910000000E-02 -0.157900000000E-01
  0.119090000000E+00  0.000000000000E+00 -0.165720000000E-01
  0.136080000000E+00  0.000000000000E+00  0.178730000000E-01
  0.136080000000E+00  0.550030000000E-02  0.170100000000E-01
  0.136080000000E+00  0.104590000000E-01  0.144850000000E-01
  0.136080000000E+00  0.143940000000E-01  0.105500000000E-01
  0.136080000000E+00  0.169190000000E-01  0.559140000000E-02
  0.136080000000E+00  0.177820000000E-01  0.911200000000E-04
[...]
CELL_DATA                6474
SCALARS C_p_inc float 1
LOOKUP_TABLE default
  0.320085235928E+00
  0.324005219818E+00
  0.332312426638E+00
  0.345571101475E+00
  0.364055029838E+00
  0.386975764939E+00
  0.412246028903E+00
  0.436566549617E+00
  0.455814481530E+00
  0.466462874651E+00
  0.145283313954E+00
  0.145720947723E+00
  0.147711918256E+00
  0.149460720892E+00
  0.153737207500E+00
  0.157254230313E+00
  0.164913156279E+00
  0.170008425590E+00
  0.182428513690E+00
  0.188369674548E+00
  0.205927473346E+00
  0.211937859756E+00
  0.233419314621E+00
  0.238395039762E+00
  0.260867580514E+00
  0.264212564574E+00
  0.283170379386E+00
  0.284833622959E+00
  0.295732884666E+00
  0.296084294896E+00
  0.884973941453E-01
  0.887958509056E-01
  0.895278957440E-01
  0.906961095549E-01
  0.932188898319E-01
  0.954876507729E-01
  0.101827451652E+00
  0.105077730844E+00
  0.117294355743E+00
  0.121078120586E+00
  0.139724660469E+00
  0.143518513953E+00
  0.167203520238E+00
  0.170380020493E+00
  0.195470091014E+00
  0.197640204517E+00
  0.218810831738E+00
  0.219904226784E+00
  0.232075201586E+00
  0.232329737412E+00
  0.600157151747E-01
  0.602403445069E-01
  0.599781286858E-01
  0.608369328199E-01
  0.618432780721E-01
  0.634830547452E-01
  0.683860495248E-01
  0.707160525886E-01
  0.820982171953E-01
  0.848047556235E-01
  0.103440960374E+00
  0.106150975579E+00
  0.130588543627E+00
  0.132850814765E+00
  0.159088556654E+00
  0.160655202460E+00
  0.182911754338E+00
  0.183720982309E+00
  0.196528340393E+00
  0.196721547649E+00
  0.423005851926E-01
  0.424873935887E-01
  0.414327663489E-01
  0.421198600199E-01
  0.418644522415E-01
  0.431513269353E-01
  0.467628401895E-01
  0.485888738892E-01
  0.590525182451E-01
  0.611700595997E-01
  0.794659768669E-01
  0.815881625119E-01
  0.106248582618E+00
  0.108033089604E+00
  0.134850355090E+00
  0.136087780880E+00
  0.158964834655E+00
  0.159618386431E+00
  0.172813354419E+00
  0.172977920183E+00
  0.298259138675E-01
  0.299871270801E-01
  0.282788306045E-01
  0.288646768897E-01
  0.275427712384E-01
  0.286320174460E-01
  0.311102457014E-01
  0.326289848442E-01
  0.422188609865E-01
  0.439774226420E-01
  0.618436056276E-01
  0.636091722434E-01
  0.882939909100E-01
  0.897873021181E-01
  0.116937751879E+00
  0.117989188220E+00
  0.141267499566E+00
  0.141818646808E+00
  0.155282538836E+00
  0.155421244865E+00
  0.202217797147E-01
  0.203687844947E-01
  0.181001992627E-01
  0.186224992493E-01
  0.163728341571E-01
  0.173337289519E-01
  0.187995967483E-01
  0.201468209389E-01
  0.289160332534E-01
  0.304654072031E-01
  0.478657704401E-01
  0.494212723172E-01
  0.740231938398E-01
  0.753464319903E-01
  0.102691631941E+00
  0.103627077381E+00
  0.127195200079E+00
  0.127700738834E+00
  0.141356429513E+00
  0.141487488153E+00
  0.119939679357E-01
  0.121362449641E-01
  0.936713759515E-02
  0.986558722565E-02
  0.677449515663E-02
  0.768427871975E-02
  0.821132480031E-02
  0.947978764226E-02
  0.174615114388E-01
  0.189265171380E-01
  0.358410232114E-01
  0.373163243203E-01
  0.617708459199E-01
  0.630267093582E-01
  0.904862420046E-01
  0.913761896337E-01
  0.115160390432E+00
  0.115642103275E+00
  0.129458890552E+00
  0.129585015387E+00
  0.523577938679E-02
  0.538208049927E-02
  0.210565857066E-02
  0.261920893876E-02
 -0.133972067142E-02
 -0.407724651208E-03
 -0.873127072640E-03
  0.416568291998E-03
  0.753278307190E-02
  0.901573788752E-02
  0.253545250327E-01
  0.268440739319E-01
  0.510604640552E-01
  0.523321755088E-01
  0.798324474345E-01
  0.807391310327E-01
  0.104683246955E+00
  0.105180258497E+00
  0.119126751642E+00
  0.119264781469E+00
  0.911065567966E-05
  0.155894857797E-03
 -0.360295887955E-02
 -0.309681666965E-02
 -0.787751184345E-02
 -0.696088314706E-02
 -0.835893063492E-02
 -0.709149564990E-02
 -0.785261794492E-03
  0.672500095855E-03
  0.164728263426E-01
  0.179491498181E-01
  0.419537076610E-01
  0.432016420557E-01
  0.707424089508E-01
  0.716448767520E-01
  0.957498876863E-01
  0.962339590292E-01
  0.110301910272E+00
  0.110429521518E+00
 -0.421256962475E-02
 -0.406210829108E-02
 -0.828917825364E-02
 -0.778065024496E-02
 -0.133618027319E-01
 -0.124499240559E-01
 -0.147736704440E-01
 -0.134852594585E-01
 -0.797987937096E-02
 -0.652797854391E-02
  0.873227943700E-02
  0.101804085449E-01
  0.339490769025E-01
  0.352264566742E-01
  0.627864233735E-01
  0.636823613830E-01
  0.879216182163E-01
  0.884291726669E-01
  0.102617464091E+00
  0.102759441585E+00
 -0.446857197804E-02
 -0.433118244571E-02
 -0.903856739100E-02
 -0.857110074947E-02
 -0.149627152645E-01
 -0.141505980478E-01
 -0.173755995337E-01
 -0.163033939254E-01
 -0.115793238744E-01
 -0.103206544105E-01
  0.445952839748E-02
  0.566772952014E-02
  0.292545686787E-01
  0.302245320638E-01
  0.578456906686E-01
  0.585642504143E-01
  0.829482353850E-01
  0.833283396708E-01
  0.976229646548E-01
  0.977178298473E-01
 -0.957110588323E-02
 -0.950218462789E-02
 -0.142832197146E-01
 -0.140261258773E-01
 -0.204914463887E-01
 -0.200048320382E-01
 -0.232360943899E-01
 -0.225445008203E-01
 -0.177276847434E-01
 -0.168986038807E-01
 -0.192810572754E-02
 -0.103085687794E-02
  0.228123419386E-01
  0.236016890388E-01
  0.514675099562E-01
  0.520457910008E-01
  0.766436199216E-01
  0.769888507016E-01
  0.914019081956E-01
  0.914997931959E-01
 -0.163181952962E-01
 -0.161258875767E-01
 -0.214714224270E-01
 -0.208488105309E-01
 -0.283621255146E-01
 -0.272663931554E-01
 -0.318213991670E-01
 -0.303178397921E-01
 -0.268322679285E-01
 -0.251232089153E-01
 -0.112655378612E-01
 -0.952736379241E-02
  0.135775664311E-01
  0.150851266173E-01
  0.426004778509E-01
  0.436651409151E-01
  0.681752564997E-01
  0.687645300745E-01
  0.832020142897E-01
  0.833721639824E-01
 -0.123374094290E-01
 -0.121752883444E-01
 -0.181011748034E-01
 -0.175464684652E-01
 -0.260442763591E-01
 -0.250666105953E-01
 -0.307359074541E-01
 -0.294531711767E-01
 -0.269307253940E-01
 -0.255295597488E-01
 -0.123012274795E-01
 -0.109687969384E-01
  0.118632031459E-01
  0.129931715206E-01
  0.405217883149E-01
  0.413340591542E-01
  0.659680490587E-01
  0.663881130305E-01
  0.809179380557E-01
  0.810325310127E-01
 -0.167692350964E-01
 -0.167259584399E-01
 -0.224753683777E-01
 -0.223446690714E-01
 -0.304492441766E-01
 -0.301898993680E-01
 -0.352579950186E-01
 -0.348224059984E-01
 -0.315721475932E-01
 -0.309919089550E-01
 -0.170362372277E-01
 -0.163754842991E-01
  0.710354291955E-02
  0.770617473286E-02
  0.357211403012E-01
  0.362218396236E-01
  0.611883759304E-01
  0.614977308268E-01
  0.761832628332E-01
  0.762680495651E-01
 -0.243877330594E-01
 -0.241634134157E-01
 -0.305788437285E-01
 -0.298286444672E-01
 -0.391945191413E-01
 -0.379068779519E-01
 -0.446277089584E-01
 -0.428799575738E-01
 -0.413314040429E-01
 -0.393575876125E-01
 -0.268642216318E-01
 -0.248873518582E-01
 -0.244036166187E-02
 -0.736396836946E-03
  0.267309423607E-01
  0.279264348598E-01
  0.527008862053E-01
  0.533857704240E-01
  0.680550187659E-01
  0.682529430066E-01
 -0.194419431602E-01
 -0.192594014607E-01
 -0.262311210251E-01
 -0.256048608591E-01
 -0.359061695487E-01
 -0.347990150259E-01
 -0.425550689226E-01
 -0.411252126423E-01
 -0.404664184383E-01
 -0.388683431203E-01
 -0.269302911504E-01
 -0.253953482931E-01
 -0.317156960942E-02
 -0.188625069631E-02
  0.256287354123E-01
  0.265480765004E-01
  0.514493772614E-01
  0.519358913257E-01
  0.667095390311E-01
  0.668482959438E-01
 -0.241195494003E-01
 -0.240533237356E-01
 -0.308546464610E-01
 -0.306460339233E-01
 -0.405688879618E-01
 -0.401542614397E-01
 -0.473375115958E-01
 -0.466775767082E-01
 -0.453194844719E-01
 -0.445089054213E-01
 -0.318741990779E-01
 -0.309540893498E-01
 -0.809490848248E-02
 -0.723618596768E-02
  0.207620278103E-01
  0.214562073239E-01
  0.466957084496E-01
  0.471236791155E-01
  0.620575701620E-01
  0.621825253095E-01
 -0.314442664598E-01
 -0.311694689950E-01
 -0.386967491604E-01
 -0.378057647278E-01
 -0.491095228784E-01
 -0.475820843731E-01
 -0.565731522993E-01
 -0.544683094395E-01
 -0.549629703660E-01
 -0.525786519322E-01
 -0.415326593806E-01
 -0.391593958513E-01
 -0.174104164677E-01
 -0.153710795396E-01
  0.120380521053E-01
  0.135009238868E-01
  0.385448796338E-01
  0.393786839490E-01
  0.543038914303E-01
  0.545476418068E-01
 -0.260841855532E-01
 -0.258393511066E-01
 -0.339704180519E-01
 -0.331424939373E-01
 -0.454683269364E-01
 -0.440614380535E-01
 -0.541958862865E-01
 -0.523752207705E-01
 -0.538649941839E-01
 -0.517872127872E-01
 -0.413777859712E-01
 -0.393633473515E-01
 -0.178876722023E-01
 -0.161815613930E-01
  0.112553240458E-01
  0.124698022873E-01
  0.376535089856E-01
  0.383249601641E-01
  0.533659548795E-01
  0.535522987639E-01
 -0.309678865744E-01
 -0.308547662352E-01
 -0.388340605088E-01
 -0.384650941327E-01
 -0.504352287117E-01
 -0.497140477466E-01
 -0.592903451845E-01
 -0.582411785014E-01
 -0.590485360628E-01
 -0.577746896902E-01
 -0.466412776258E-01
 -0.452360952348E-01
 -0.230897242432E-01
 -0.217752883728E-01
  0.621403309407E-02
  0.725732536117E-02
  0.328341029255E-01
  0.334488899082E-01
  0.486842303238E-01
  0.488722176433E-01
 -0.402874018620E-01
 -0.399321593987E-01
 -0.486984523153E-01
 -0.475374185022E-01
 -0.610090141008E-01
 -0.590147244200E-01
 -0.705514764757E-01
 -0.678068313475E-01
 -0.706254698739E-01
 -0.674821276262E-01
 -0.580796862852E-01
 -0.549177231044E-01
 -0.339629030036E-01
 -0.312194534524E-01
 -0.384563222393E-02
 -0.183220195175E-02
  0.235598644595E-01
  0.247343617896E-01
  0.399840659842E-01
  0.403197421020E-01
 -0.365189126605E-01
 -0.361126879658E-01
 -0.457371120446E-01
 -0.444095262426E-01
 -0.593954523842E-01
 -0.571000764912E-01
 -0.704328483082E-01
 -0.673818984349E-01
 -0.718806028231E-01
 -0.684184475433E-01
 -0.602328407291E-01
 -0.568149547085E-01
 -0.365427291143E-01
 -0.336145265043E-01
 -0.642676757063E-02
 -0.429004001485E-02
  0.211921087443E-01
  0.223894396643E-01
  0.377670350496E-01
  0.381221399030E-01
 -0.408071336863E-01
 -0.405226627341E-01
 -0.502764780279E-01
 -0.493036707932E-01
 -0.644141136253E-01
 -0.626890180342E-01
 -0.760399684692E-01
 -0.735917179602E-01
 -0.779235986025E-01
 -0.750053866168E-01
 -0.664919804666E-01
 -0.634048971680E-01
 -0.426431158812E-01
 -0.398737817401E-01
 -0.121518670993E-01
 -0.100460992576E-01
  0.159028551086E-01
  0.171547668656E-01
  0.327915837187E-01
  0.331668774138E-01
 -0.538120735836E-01
 -0.532321033849E-01
 -0.639519574817E-01
 -0.620736518593E-01
 -0.790234410882E-01
 -0.757271262591E-01
 -0.914588379869E-01
 -0.869337633007E-01
 -0.937017755543E-01
 -0.884245207193E-01
 -0.819572964312E-01
 -0.765391520173E-01
 -0.571515173119E-01
 -0.523285645755E-01
 -0.252346031321E-01
 -0.216304722424E-01
  0.421225865220E-02
  0.630479273156E-02
  0.220495638854E-01
  0.226626009495E-01
 -0.498695615282E-01
 -0.489942795347E-01
 -0.615327747232E-01
 -0.586871823727E-01
 -0.789580034443E-01
 -0.740334190124E-01
 -0.938937328365E-01
 -0.872710768018E-01
 -0.981163109628E-01
 -0.905874820886E-01
 -0.873822763071E-01
 -0.798894000470E-01
 -0.625998176540E-01
 -0.561379693125E-01
 -0.299730430688E-01
 -0.252312403316E-01
  0.461051725829E-03
  0.316183692350E-02
  0.190246316719E-01
  0.198152968551E-01
 -0.434578193804E-01
 -0.426363610292E-01
 -0.560758439878E-01
 -0.534273593978E-01
 -0.751519801401E-01
 -0.705974695117E-01
 -0.919973517446E-01
 -0.857821374343E-01
 -0.978116277507E-01
 -0.906379608131E-01
 -0.879998971167E-01
 -0.807087140001E-01
 -0.633294319418E-01
 -0.569479795120E-01
 -0.302296136373E-01
 -0.254717715368E-01
  0.885522627752E-03
  0.367171723025E-02
  0.199496344899E-01
  0.207840830451E-01
 -0.376893835654E-01
 -0.367009321317E-01
 -0.515580004001E-01
 -0.482452483800E-01
 -0.725730750074E-01
 -0.667764302825E-01
 -0.914372484077E-01
 -0.835331645817E-01
 -0.987409755091E-01
 -0.895916577719E-01
 -0.894541248425E-01
 -0.802206025254E-01
 -0.643368426197E-01
 -0.562537990664E-01
 -0.300359270571E-01
 -0.240910722143E-01
  0.237695370909E-02
  0.578375159364E-02
  0.223247944400E-01
  0.233382070826E-01
 -0.279484706747E-01
 -0.268138116546E-01
 -0.430345880972E-01
 -0.392540259688E-01
 -0.660672668513E-01
 -0.593445449869E-01
 -0.870696329527E-01
 -0.776909507412E-01
 -0.958779026029E-01
 -0.848227476305E-01
 -0.869569798710E-01
 -0.756226701166E-01
 -0.609243154563E-01
 -0.510175163971E-01
 -0.249471489850E-01
 -0.176739522187E-01
  0.925409281640E-02
  0.133605441979E-01
  0.303465171321E-01
  0.315290939275E-01
 -0.197466078162E-01
 -0.184778101572E-01
 -0.361148718443E-01
 -0.316589232075E-01
 -0.611550948519E-01
 -0.529377121624E-01
 -0.842062071133E-01
 -0.722291638839E-01
 -0.941041019578E-01
 -0.793692174286E-01
 -0.845138844685E-01
 -0.689931535949E-01
 -0.559348339136E-01
 -0.421731895413E-01
 -0.162445261222E-01
 -0.646864979787E-02
  0.211649833956E-01
  0.263788747720E-01
  0.440158882173E-01
  0.454583789029E-01
 -0.142550770025E-01
 -0.127502308298E-01
 -0.319923914173E-01
 -0.265834730028E-01
 -0.593167769907E-01
 -0.487604552969E-01
 -0.848041616056E-01
 -0.681786947933E-01
 -0.959816627185E-01
 -0.733589276467E-01
 -0.838793864954E-01
 -0.590845540375E-01
 -0.494912563825E-01
 -0.268187132050E-01
 -0.258089294151E-02
  0.160375889087E-01
  0.451155844081E-01
  0.511215541244E-01
  0.697947335055E-01
  0.707757499379E-01
 -0.123280509518E-01
 -0.107122704451E-01
 -0.316940719131E-01
 -0.255672135767E-01
 -0.621018008379E-01
 -0.491672428722E-01
 -0.920010761694E-01
 -0.686650874935E-01
 -0.108436284128E+00
 -0.684279156605E-01
 -0.104555008156E+00
 -0.291934827677E-01
 -0.773872621906E-01
  0.771726531790E-01
  0.114823560589E+00
  0.114082628813E+00
  0.108573641327E+00
  0.187038317154E+00
  0.111076731183E+00
  0.132516259411E+00
  0.118699814578E+00
 -0.155225784723E-01
 -0.142660700982E-01
 -0.366236071941E-01
 -0.318448084605E-01
 -0.710280179179E-01
 -0.608339998595E-01
 -0.107523187013E+00
 -0.892864212069E-01
 -0.132786801554E+00
 -0.105475307651E+00
 -0.137823289469E+00
 -0.110135840892E+00
 -0.179840382768E+00
 -0.235758640852E+00
 -0.521430503209E-01
  0.278763337896E+00
  0.206049383325E+00
  0.200969197671E+00
  0.205830269176E+00
  0.164606614454E+00
 -0.244066093271E-01
 -0.242989349139E-01
 -0.467717455956E-01
 -0.466147509581E-01
 -0.845190235616E-01
 -0.856280434079E-01
 -0.125837722194E+00
 -0.133514803133E+00
 -0.155253969792E+00
 -0.186995056305E+00
 -0.121431403309E+00
 -0.333997156035E+00
 -0.289812145344E+00
  0.183342128915E+00
 -0.369437638263E-01
 -0.383088395086E-01
 -0.593743908969E-01
 -0.651736316561E-01
 -0.978304002025E-01
 -0.113002214446E+00
 -0.138687106504E+00
 -0.175542470944E+00
 -0.162815567461E+00
 -0.252538964847E+00
 -0.163088868023E+00
 -0.270879294293E+00
 -0.499596131964E-01
 -0.525478508573E-01
 -0.712262878296E-01
 -0.815496286475E-01
 -0.107610839665E+00
 -0.131695055843E+00
 -0.144212366787E+00
 -0.192957916849E+00
 -0.164067100609E+00
 -0.248543283305E+00
 -0.177603692966E+00
 -0.215816316188E+00
 -0.241784554163E+00
 -0.613550127921E-01
 -0.646611639443E-01
 -0.806000741189E-01
 -0.933187533717E-01
 -0.113297855022E+00
 -0.140671366133E+00
 -0.144579468948E+00
 -0.192804830827E+00
 -0.161461079696E+00
 -0.228238642582E+00
 -0.179563122119E+00
 -0.702533852827E-01
 -0.739151502741E-01
 -0.872100726297E-01
 -0.100675231107E+00
 -0.115730145602E+00
 -0.142885915744E+00
 -0.142095747010E+00
 -0.184973002437E+00
 -0.157107770225E+00
 -0.207273671349E+00
 -0.175375528511E+00
 -0.204939393174E+00
 -0.189068575562E+00
 -0.765020501728E-01
 -0.802472920706E-01
 -0.911902798830E-01
 -0.104464315218E+00
 -0.115760228532E+00
 -0.140986883300E+00
 -0.137981041509E+00
 -0.174548640301E+00
 -0.151651645603E+00
 -0.189615351902E+00
 -0.168781447556E+00
 -0.184502532981E+00
 -0.802288922484E-01
 -0.838976550151E-01
 -0.928584492357E-01
 -0.105453158104E+00
 -0.113957932406E+00
 -0.136768283030E+00
 -0.132905060070E+00
 -0.163785485723E+00
 -0.145531209241E+00
 -0.175025332101E+00
 -0.161321488541E+00
 -0.173342172143E+00
 -0.820812117708E-01
 -0.855973836767E-01
 -0.929113247365E-01
 -0.104599279691E+00
 -0.111024011252E+00
 -0.131360331611E+00
 -0.127330842153E+00
 -0.153387538077E+00
 -0.139003093051E+00
 -0.162229592881E+00
 -0.153568809346E+00
 -0.161516426368E+00
 -0.845010362725E-01
 -0.877944428465E-01
 -0.937845609371E-01
 -0.104421322103E+00
 -0.109324565719E+00
 -0.127143286385E+00
 -0.123280423974E+00
 -0.145155033352E+00
 -0.133778669376E+00
 -0.152374227354E+00
 -0.146497357327E+00
 -0.152366872771E+00
 -0.886701474526E-01
 -0.916567143108E-01
 -0.967533270601E-01
 -0.106221916673E+00
 -0.110232184622E+00
 -0.125726254000E+00
 -0.122231097836E+00
 -0.140628940292E+00
 -0.131347591256E+00
 -0.146584227790E+00
 -0.142376884791E+00
 -0.151621391368E+00
 -0.914885393565E-01
 -0.943584250696E-01
 -0.987036962602E-01
 -0.107653584867E+00
 -0.110726055585E+00
 -0.125110333286E+00
 -0.121501114025E+00
 -0.138243192857E+00
 -0.130137596164E+00
 -0.143187051929E+00
 -0.139913404748E+00
 -0.143800951876E+00
  0.836094716014E-01
 -0.913599241520E-01
 -0.941257303867E-01
 -0.977244958376E-01
 -0.106394213027E+00
 -0.108608059805E+00
 -0.122361647714E+00
 -0.118753951311E+00
 -0.134445957163E+00
 -0.127513656290E+00
 -0.139998316765E+00
 -0.137636113570E+00
 -0.143478610063E+00
  0.791297078301E-01
  0.749633969526E-01
 -0.892697572890E-01
 -0.919678362066E-01
 -0.948657126473E-01
 -0.103192103259E+00
 -0.104664350613E+00
 -0.117719869846E+00
 -0.114272547957E+00
 -0.128913610493E+00
 -0.123211431149E+00
 -0.134649726876E+00
 -0.133213517529E+00
 -0.138839089270E+00
  0.728604746367E-01
 -0.850657731787E-01
 -0.876264975019E-01
 -0.898958389235E-01
 -0.977909046368E-01
 -0.986700245346E-01
 -0.110885813029E+00
 -0.107734834920E+00
 -0.121250118527E+00
 -0.116754837230E+00
 -0.127535440724E+00
 -0.126939490112E+00
 -0.132089288624E+00
  0.653249517608E-01
  0.651884584223E-01
 -0.783339593620E-01
 -0.807253705989E-01
 -0.824644235783E-01
 -0.897100652504E-01
 -0.901626831850E-01
 -0.101218798336E+00
 -0.984712579937E-01
 -0.110558231918E+00
 -0.107222248157E+00
 -0.116236722383E+00
 -0.116408041941E+00
 -0.120118853593E+00
  0.658774374851E-01
  0.726940404062E-01
  0.685000055870E-01
 -0.689112334992E-01
 -0.710021744908E-01
 -0.723247620142E-01
 -0.786135716128E-01
 -0.788081309957E-01
 -0.882626034659E-01
 -0.859890896418E-01
 -0.962305135429E-01
 -0.939045038983E-01
 -0.103836816396E+00
 -0.104639637293E+00
  0.445448533115E-01
  0.391384089880E-01
  0.411413165590E-01
  0.377123708537E-01
 -0.566751712908E-01
 -0.583705294800E-01
 -0.594014292522E-01
 -0.643663899289E-01
 -0.644650279736E-01
 -0.716255970122E-01
 -0.698755776714E-01
 -0.768931766447E-01
 -0.754203146138E-01
 -0.794205979616E-01
 -0.806630608981E-01
 -0.912116192075E-01
  0.205091805382E-01
  0.289623834975E-01
  0.217837863747E-01
  0.199795089422E-01
 -0.418064312228E-01
 -0.429779720074E-01
 -0.438293699205E-01
 -0.472176555777E-01
 -0.473334116298E-01
 -0.519567109487E-01
 -0.506671959872E-01
 -0.544837421178E-01
 -0.535334483892E-01
 -0.533510075458E-01
 -0.540026529105E-01
 -0.454512440024E-01
 -0.197074650371E-01
 -0.192317200894E-01
 -0.160796881410E-01
 -0.162037408869E-01
 -0.246405217670E-01
 -0.251380439378E-01
 -0.259273483784E-01
 -0.272715884566E-01
 -0.275016023216E-01
 -0.290720949626E-01
 -0.281402293205E-01
 -0.290423127747E-01
 -0.283841418557E-01
 -0.293746344470E-01
 -0.308322691286E-01
 -0.118762251436E+00
 -0.694241597990E-01
 -0.685319503452E-01
 -0.627015741002E-01
 -0.562324136584E-02
 -0.511935276621E-02
 -0.601017600519E-02
 -0.423499633643E-02
 -0.480496687899E-02
 -0.115748358490E-02
 -0.688133037282E-03
  0.540800291542E-02
  0.594401646981E-02
  0.154836797468E-01
  0.150692962170E-01
  0.200213985907E-01
 -0.111596114955E+00
 -0.107617355496E+00
 -0.106047848996E+00
  0.140971739138E-01
  0.160118057511E-01
  0.147325239750E-01
  0.212069522040E-01
  0.197380337746E-01
  0.322615118391E-01
  0.315380060958E-01
  0.516968509928E-01