# vtk DataFile Version 3.0
MachLine results file. Generated by MachLine, USU AeroLab (c) 2022.
ASCII
DATASET POLYDATA
POINTS                3487 float
  0.000000000000E+00  0.000000000000E+00 -0.565440000000E-02
  0.659670000000E-03  0.000000000000E+00 -0.532140000000E-02
  0.659670000000E-03  0.778340000000E-04 -0.533360000000E-02
  0.659670000000E-03  0.148000000000E-03 -0.536940000000E-02
  0.659670000000E-03  0.203690000000E-03 -0.542510000000E-02
  0.659670000000E-03  0.239420000000E-03 -0.549520000000E-02
  0.659670000000E-03  0.251630000000E-03 -0.557310000000E-02
  0.659670000000E-03  0.239420000000E-03 -0.565090000000E-02
  0.659670000000E-03  0.203690000000E-03 -0.572110000000E-02
  0.659670000000E-03  0.148000000000E-03 -0.577670000000E-02
  0.659670000000E-03  0.778340000000E-04 -0.581250000000E-02
  0.659670000000E-03  0.000000000000E+00 -0.582470000000E-02
  0.263270000000E-02  0.000000000000E+00 -0.463760000000E-02
  0.263270000000E-02  0.237690000000E-03 -0.467490000000E-02
  0.263270000000E-02  0.451960000000E-03 -0.478410000000E-02
  0.263270000000E-02  0.622020000000E-03 -0.495410000000E-02
  0.263270000000E-02  0.731140000000E-03 -0.516840000000E-02
  0.263270000000E-02  0.768430000000E-03 -0.540610000000E-02
  0.263270000000E-02  0.731140000000E-03 -0.564380000000E-02
  0.263270000000E-02  0.622020000000E-03 -0.585800000000E-02
  0.263270000000E-02  0.451960000000E-03 -0.602810000000E-02
  0.263270000000E-02  0.237690000000E-03 -0.613720000000E-02
  0.263270000000E-02  0.000000000000E+00 -0.617450000000E-02
  0.590180000000E-02  0.000000000000E+00 -0.370460000000E-02
  0.590180000000E-02  0.455820000000E-03 -0.377610000000E-02
  0.590180000000E-02  0.866740000000E-03 -0.398540000000E-02
  0.590180000000E-02  0.119290000000E-02 -0.431150000000E-02
  0.590180000000E-02  0.140210000000E-02 -0.472240000000E-02
  0.590180000000E-02  0.147360000000E-02 -0.517820000000E-02
  0.590180000000E-02  0.140210000000E-02 -0.563400000000E-02
  0.590180000000E-02  0.119290000000E-02 -0.604500000000E-02
  0.590180000000E-02  0.866740000000E-03 -0.637110000000E-02
  0.590180000000E-02  0.455820000000E-03 -0.658040000000E-02
  0.590180000000E-02  0.000000000000E+00 -0.665190000000E-02
  0.104400000000E-01  0.000000000000E+00 -0.256530000000E-02
  0.104400000000E-01  0.722160000000E-03 -0.267860000000E-02
  0.104400000000E-01  0.137320000000E-02 -0.301010000000E-02
  0.104400000000E-01  0.188990000000E-02 -0.352680000000E-02
  0.104400000000E-01  0.222140000000E-02 -0.417780000000E-02
  0.104400000000E-01  0.233470000000E-02 -0.490000000000E-02
  0.104400000000E-01  0.222140000000E-02 -0.562220000000E-02
  0.104400000000E-01  0.188990000000E-02 -0.627320000000E-02
  0.104400000000E-01  0.137320000000E-02 -0.678990000000E-02
  0.104400000000E-01  0.722160000000E-03 -0.712140000000E-02
  0.104400000000E-01  0.000000000000E+00 -0.723470000000E-02
  0.162130000000E-01  0.000000000000E+00 -0.124830000000E-02
  0.162130000000E-01  0.103000000000E-02 -0.140990000000E-02
  0.162130000000E-01  0.195860000000E-02 -0.188280000000E-02
  0.162130000000E-01  0.269560000000E-02 -0.261980000000E-02
  0.162130000000E-01  0.316850000000E-02 -0.354830000000E-02
  0.162130000000E-01  0.333010000000E-02 -0.457840000000E-02
  0.162130000000E-01  0.316850000000E-02 -0.560840000000E-02
  0.162130000000E-01  0.269560000000E-02 -0.653700000000E-02
  0.162130000000E-01  0.195860000000E-02 -0.727400000000E-02
  0.162130000000E-01  0.103010000000E-02 -0.774690000000E-02
  0.162130000000E-01  0.000000000000E+00 -0.790850000000E-02
  0.231840000000E-01  0.000000000000E+00  0.224410000000E-03
  0.231840000000E-01  0.137430000000E-02  0.877610000000E-05
  0.231840000000E-01  0.261330000000E-02 -0.622190000000E-03
  0.231840000000E-01  0.359660000000E-02 -0.160550000000E-02
  0.231840000000E-01  0.422750000000E-02 -0.284440000000E-02
  0.231840000000E-01  0.444320000000E-02 -0.421880000000E-02
  0.231840000000E-01  0.422750000000E-02 -0.559310000000E-02
  0.231840000000E-01  0.359660000000E-02 -0.683210000000E-02
  0.231840000000E-01  0.261330000000E-02 -0.781530000000E-02
  0.231840000000E-01  0.137430000000E-02 -0.844630000000E-02
  0.231840000000E-01  0.000000000000E+00 -0.866190000000E-02
  0.313170000000E-01  0.000000000000E+00  0.183430000000E-02
  0.313170000000E-01  0.175070000000E-02  0.155960000000E-02
  0.313170000000E-01  0.332890000000E-02  0.755840000000E-03
  0.313170000000E-01  0.458150000000E-02 -0.496710000000E-03
  0.313170000000E-01  0.538520000000E-02 -0.207490000000E-02
  0.313170000000E-01  0.565990000000E-02 -0.382560000000E-02
  0.313170000000E-01  0.538520000000E-02 -0.557630000000E-02
  0.313170000000E-01  0.458150000000E-02 -0.715460000000E-02
  0.313170000000E-01  0.332890000000E-02 -0.840710000000E-02
  0.313170000000E-01  0.175070000000E-02 -0.921090000000E-02
  0.313170000000E-01  0.000000000000E+00 -0.948550000000E-02
  0.405800000000E-01  0.000000000000E+00  0.356490000000E-02
  0.405800000000E-01  0.215530000000E-02  0.322670000000E-02
  0.405800000000E-01  0.409820000000E-02  0.223720000000E-02
  0.405800000000E-01  0.564030000000E-02  0.695210000000E-03
  0.405800000000E-01  0.662970000000E-02 -0.124770000000E-02
  0.405800000000E-01  0.696790000000E-02 -0.340300000000E-02
  0.405800000000E-01  0.662970000000E-02 -0.555830000000E-02
  0.405800000000E-01  0.564030000000E-02 -0.750120000000E-02
  0.405800000000E-01  0.409820000000E-02 -0.904330000000E-02
  0.405800000000E-01  0.215530000000E-02 -0.100330000000E-01
  0.405800000000E-01  0.000000000000E+00 -0.103710000000E-01
  0.509980000000E-01  0.000000000000E+00  0.540110000000E-02
  0.509980000000E-01  0.258450000000E-02  0.499560000000E-02
  0.509980000000E-01  0.491450000000E-02  0.380910000000E-02
  0.509980000000E-01  0.676370000000E-02  0.195990000000E-02
  0.509980000000E-01  0.795020000000E-02 -0.370050000000E-03
  0.509980000000E-01  0.835570000000E-02 -0.295460000000E-02
  0.509980000000E-01  0.795020000000E-02 -0.553910000000E-02
  0.509980000000E-01  0.676370000000E-02 -0.786910000000E-02
  0.509980000000E-01  0.491450000000E-02 -0.971830000000E-02
  0.509980000000E-01  0.258450000000E-02 -0.109050000000E-01
  0.509980000000E-01  0.000000000000E+00 -0.113100000000E-01
  0.625590000000E-01  0.000000000000E+00  0.732880000000E-02
  0.625590000000E-01  0.303520000000E-02  0.685260000000E-02
  0.625590000000E-01  0.577140000000E-02  0.545920000000E-02
  0.625590000000E-01  0.794300000000E-02  0.328760000000E-02
  0.625590000000E-01  0.933650000000E-02  0.551350000000E-03
  0.625590000000E-01  0.981270000000E-02 -0.248390000000E-02
  0.625590000000E-01  0.933650000000E-02 -0.551910000000E-02
  0.625590000000E-01  0.794300000000E-02 -0.825530000000E-02
  0.625590000000E-01  0.577140000000E-02 -0.104270000000E-01
  0.625590000000E-01  0.303520000000E-02 -0.118200000000E-01
  0.625590000000E-01  0.000000000000E+00 -0.122970000000E-01
  0.752570000000E-01  0.000000000000E+00  0.933440000000E-02
  0.752570000000E-01  0.350410000000E-02  0.878460000000E-02
  0.752570000000E-01  0.666290000000E-02  0.717590000000E-02
  0.752570000000E-01  0.917000000000E-02  0.466880000000E-02
  0.752570000000E-01  0.107790000000E-01  0.150990000000E-02
  0.752570000000E-01  0.113280000000E-01 -0.199410000000E-02
  0.752570000000E-01  0.107790000000E-01 -0.549820000000E-02
  0.752570000000E-01  0.917000000000E-02 -0.865700000000E-02
  0.752570000000E-01  0.666290000000E-02 -0.111640000000E-01
  0.752570000000E-01  0.350410000000E-02 -0.127730000000E-01
  0.752570000000E-01  0.000000000000E+00 -0.133230000000E-01
  0.891300000000E-01  0.000000000000E+00  0.114040000000E-01
  0.891300000000E-01  0.398800000000E-02  0.107790000000E-01
  0.891300000000E-01  0.758320000000E-02  0.894780000000E-02
  0.891300000000E-01  0.104360000000E-01  0.609460000000E-02
  0.891300000000E-01  0.122670000000E-01  0.249940000000E-02
  0.891300000000E-01  0.128930000000E-01 -0.148860000000E-02
  0.891300000000E-01  0.122670000000E-01 -0.547660000000E-02
  0.891300000000E-01  0.104360000000E-01 -0.907170000000E-02
  0.891300000000E-01  0.758320000000E-02 -0.119250000000E-01
  0.891300000000E-01  0.398800000000E-02 -0.137560000000E-01
  0.891300000000E-01  0.000000000000E+00 -0.143820000000E-01
  0.103470000000E+00  0.000000000000E+00  0.135260000000E-01
  0.103470000000E+00  0.448400000000E-02  0.128230000000E-01
  0.103470000000E+00  0.852630000000E-02  0.107640000000E-01
  0.103470000000E+00  0.117340000000E-01  0.755590000000E-02
  0.103470000000E+00  0.137930000000E-01  0.351350000000E-02
  0.103470000000E+00  0.144970000000E-01 -0.970470000000E-03
  0.103470000000E+00  0.137930000000E-01 -0.545450000000E-02
  0.103470000000E+00  0.117340000000E-01 -0.949680000000E-02
  0.103470000000E+00  0.852630000000E-02 -0.127050000000E-01
  0.103470000000E+00  0.448400000000E-02 -0.147640000000E-01
  0.103470000000E+00  0.000000000000E+00 -0.154670000000E-01
  0.119090000000E+00  0.000000000000E+00  0.156870000000E-01
  0.119090000000E+00  0.498910000000E-02  0.149040000000E-01
  0.119090000000E+00  0.948670000000E-02  0.126130000000E-01
  0.119090000000E+00  0.130560000000E-01  0.904390000000E-02
  0.119090000000E+00  0.153470000000E-01  0.454620000000E-02
  0.119090000000E+00  0.161300000000E-01 -0.442860000000E-03
  0.119090000000E+00  0.153470000000E-01 -0.543200000000E-02
  0.119090000000E+00  0.130560000000E-01 -0.992960000000E-02
  0.119090000000E+00  0.948670000000E-02 -0.134990000000E-01
  0.119090000000E+00  0.498910000000E-02 -0.157900000000E-01
  0.119090000000E+00  0.000000000000E+00 -0.165720000000E-01
  0.136080000000E+00  0.000000000000E+00  0.178730000000E-01
  0.136080000000E+00  0.550030000000E-02  0.170100000000E-01
  0.136080000000E+00  0.104590000000E-01  0.144850000000E-01
  0.136080000000E+00  0.143940000000E-01  0.105500000000E-01
  0.136080000000E+00  0.169190000000E-01  0.559140000000E-02
  0.136080000000E+00  0.177820000000E-01  0.911200000000E-04
[...]
CELL_DATA                6474
SCALARS C_p_inc float 1
LOOKUP_TABLE default
  0.372510854084E+00
  0.374880038906E+00
  0.379556065397E+00
  0.386338681883E+00
  0.394831843349E+00
  0.404375461480E+00
  0.414013021688E+00
  0.422630774944E+00
  0.429079865793E+00
  0.432526297300E+00
  0.188507381306E+00
  0.188904257827E+00
  0.191014469671E+00
  0.192401796332E+00
  0.196287851804E+00
  0.198890506647E+00
  0.204450050809E+00
  0.208111496696E+00
  0.215349006043E+00
  0.219594398105E+00
  0.228283061293E+00
  0.232618023590E+00
  0.242108516342E+00
  0.245806548203E+00
  0.255029879064E+00
  0.257647655850E+00
  0.265107062261E+00
  0.266524831403E+00
  0.270685453183E+00
  0.271042842228E+00
  0.126513972052E+00
  0.126792932810E+00
  0.128567979360E+00
  0.129547258891E+00
  0.133153641028E+00
  0.134952002570E+00
  0.140709922265E+00
  0.143221604646E+00
  0.151417802629E+00
  0.154326680575E+00
  0.164754316364E+00
  0.167696161348E+00
  0.179539305471E+00
  0.182058290899E+00
  0.193768828702E+00
  0.195562067918E+00
  0.205060547786E+00
  0.206031261334E+00
  0.211370858497E+00
  0.211628253369E+00
  0.949854001670E-01
  0.951887673346E-01
  0.965668211571E-01
  0.972736281898E-01
  0.100353308886E+00
  0.101637755330E+00
  0.107047348750E+00
  0.108830361270E+00
  0.117115516805E+00
  0.119172677227E+00
  0.130206616401E+00
  0.132280927906E+00
  0.145164880477E+00
  0.146934156158E+00
  0.159845133024E+00
  0.161116982205E+00
  0.171651460468E+00
  0.172350329473E+00
  0.178284630404E+00
  0.178471331914E+00
  0.753355446392E-01
  0.754910883987E-01
  0.765084225898E-01
  0.770321156171E-01
  0.795797892658E-01
  0.805175516871E-01
  0.854602904592E-01
  0.867611550473E-01
  0.948512611375E-01
  0.963489866756E-01
  0.107545180979E+00
  0.109058027167E+00
  0.122420882939E+00
  0.123718381490E+00
  0.137272079054E+00
  0.138204207558E+00
  0.149326700388E+00
  0.149847549494E+00
  0.156129646679E+00
  0.156274065641E+00
  0.615828986737E-01
  0.616999182594E-01
  0.624041792998E-01
  0.627938442991E-01
  0.648557837971E-01
  0.655500790834E-01
  0.700199350289E-01
  0.709678051721E-01
  0.787665253855E-01
  0.798568425010E-01
  0.910259094524E-01
  0.921313193917E-01
  0.105717121280E+00
  0.106669395267E+00
  0.120590842937E+00
  0.121284085981E+00
  0.132761421749E+00
  0.133145261088E+00
  0.139647439236E+00
  0.139752446891E+00
  0.511261757829E-01
  0.512133176460E-01
  0.516442101377E-01
  0.519259797128E-01
  0.535510097632E-01
  0.540497726748E-01
  0.580685785027E-01
  0.587552971253E-01
  0.662271620551E-01
  0.670105075968E-01
  0.780502680245E-01
  0.788477389620E-01
  0.925042099255E-01
  0.931953511536E-01
  0.107316773924E+00
  0.107822732114E+00
  0.119522382876E+00
  0.119811515824E+00
  0.126448836165E+00
  0.126529462205E+00
  0.423387091412E-01
  0.424038821693E-01
  0.425911165060E-01
  0.427953366521E-01
  0.440208273089E-01
  0.443799366738E-01
  0.479658799979E-01
  0.484590249661E-01
  0.555842836720E-01
  0.561507320321E-01
  0.669984602134E-01
  0.675813167920E-01
  0.812107323217E-01
  0.817155760595E-01
  0.959290723544E-01
  0.962984804391E-01
  0.108127447610E+00
  0.108337657939E+00
  0.115064897922E+00
  0.115122888459E+00
  0.351780831411E-01
  0.352241137618E-01
  0.351667329375E-01
  0.353087961261E-01
  0.361237544160E-01
  0.363732186650E-01
  0.394958775825E-01
  0.398366056293E-01
  0.465624434984E-01
  0.469511134571E-01
  0.575345469692E-01
  0.579391599962E-01
  0.714569077666E-01
  0.718106092742E-01
  0.860374830553E-01
  0.862990903013E-01
  0.981908988600E-01
  0.983453608765E-01
  0.105123647313E+00
  0.105172226678E+00
  0.297091444160E-01
  0.297307354462E-01
  0.294480256409E-01
  0.295043692850E-01
  0.299399519572E-01
  0.300438069508E-01
  0.327365724972E-01
  0.328814946943E-01
  0.392271529149E-01
  0.393944293804E-01
  0.497092547174E-01
  0.499026155876E-01
  0.632873866865E-01
  0.634478096661E-01
  0.776457851892E-01
  0.777752321051E-01
  0.896947979912E-01
  0.897622709092E-01
  0.965653558812E-01
  0.965789538631E-01
  0.254027616444E-01
  0.253999420095E-01
  0.249069209803E-01
  0.248759021543E-01
  0.249545073777E-01
  0.249041021442E-01
  0.271789994663E-01
  0.271395415708E-01
  0.331071883194E-01
  0.330438942880E-01
  0.430705924832E-01
  0.430200828929E-01
  0.562279833959E-01
  0.562157580063E-01
  0.703350687210E-01
  0.703163923008E-01
  0.822150498175E-01
  0.822177334249E-01
  0.890270810807E-01
  0.890296351431E-01
  0.251830128891E-01
  0.251307322642E-01
  0.244329324452E-01
  0.242419133552E-01
  0.239817874784E-01
  0.236397998293E-01
  0.255344252550E-01
  0.250546984492E-01
  0.306732827057E-01
  0.301515548768E-01
  0.399291375820E-01
  0.393908391032E-01
  0.524353851094E-01
  0.519333124850E-01
  0.659708626902E-01
  0.656230605318E-01
  0.774775342797E-01
  0.772661751993E-01
  0.840528994173E-01
  0.839799840527E-01
  0.206704183159E-01
  0.205557559375E-01
  0.198744302460E-01
  0.195122736029E-01
  0.192898518400E-01
  0.186946032468E-01
  0.206370489200E-01
  0.198558045382E-01
  0.255064572573E-01
  0.246352787026E-01
  0.344071364552E-01
  0.335903297034E-01
  0.465873081560E-01
  0.458882611808E-01
  0.598363477137E-01
  0.593220332745E-01
  0.710956715982E-01
  0.708150981180E-01
  0.775499781467E-01
  0.774659871745E-01
  0.142544970760E-01
  0.141972156218E-01
  0.132798328501E-01
  0.130557563386E-01
  0.123881008045E-01
  0.120036005804E-01
  0.133600831693E-01
  0.128567534599E-01
  0.178677715584E-01
  0.172934530020E-01
  0.264562798249E-01
  0.259279361951E-01
  0.384261639604E-01
  0.379835318565E-01
  0.515792209188E-01
  0.512377327100E-01
  0.627960487300E-01
  0.625968812578E-01
  0.692380380779E-01
  0.691809765027E-01
  0.184606562485E-01
  0.183168449132E-01
  0.171790218241E-01
  0.167008314803E-01
  0.156686827356E-01
  0.148564170613E-01
  0.157941175490E-01
  0.146867272562E-01
  0.193023944388E-01
  0.180152544272E-01
  0.268583810936E-01
  0.255574581113E-01
  0.378131624083E-01
  0.366874346384E-01
  0.501122996683E-01
  0.492873356697E-01
  0.607205951132E-01
  0.602210049261E-01
  0.667872031736E-01
  0.666319763928E-01
  0.151309695973E-01
  0.148991954986E-01
  0.139365720656E-01
  0.131687480758E-01
  0.124495370408E-01
  0.111735918713E-01
  0.124803982152E-01
  0.108410520634E-01
  0.157768062690E-01
  0.139666985527E-01
  0.229960456102E-01
  0.212438527346E-01
  0.335344376502E-01
  0.320191146407E-01
  0.453488904288E-01
  0.442605979386E-01
  0.555682856615E-01
  0.549485534533E-01
  0.614236840733E-01
  0.612284712208E-01
  0.818609358468E-02
  0.803514580067E-02
  0.682317146218E-02
  0.632176463471E-02
  0.511451120787E-02
  0.425328390513E-02
  0.487855376931E-02
  0.374398766922E-02
  0.790743019812E-02
  0.661425629758E-02
  0.148745038888E-01
  0.136193169426E-01
  0.252335620734E-01
  0.241517318852E-01
  0.369698156045E-01
  0.361388633948E-01
  0.471130453887E-01
  0.466387441771E-01
  0.529564223351E-01
  0.528124001999E-01
  0.136721852359E-01
  0.134153028593E-01
  0.120400462696E-01
  0.112146237930E-01
  0.973932611495E-02
  0.836095322672E-02
  0.867584485935E-02
  0.681156215202E-02
  0.106518981437E-01
  0.853636409376E-02
  0.165015570441E-01
  0.143864194976E-01
  0.257231709929E-01
  0.238710106606E-01
  0.364486004934E-01
  0.350698179267E-01
  0.458356546061E-01
  0.450076755861E-01
  0.512067818102E-01
  0.509509801736E-01
  0.103962559970E-01
  0.100503894970E-01
  0.887267097102E-02
  0.775408917787E-02
  0.661745009253E-02
  0.478314620367E-02
  0.547235294052E-02
  0.311637365645E-02
  0.724812594779E-02
  0.461543479027E-02
  0.126963109284E-01
  0.101490897983E-01
  0.214290309820E-01
  0.192357281943E-01
  0.316183043171E-01
  0.300194263347E-01
  0.405773499137E-01
  0.396545481388E-01
  0.457152516527E-01
  0.454267021474E-01
  0.401514939850E-02
  0.375281503573E-02
  0.234756659958E-02
  0.148000856870E-02
 -0.113175060147E-03
 -0.157084895512E-02
 -0.153688368130E-02
 -0.341812037729E-02
 -0.524286989798E-04
 -0.217502577915E-02
  0.511241531747E-02
  0.302866189207E-02
  0.135810252064E-01
  0.117690947998E-01
  0.235666684442E-01
  0.222022919455E-01
  0.323637661401E-01
  0.315623447174E-01
  0.374282682809E-01
  0.371795401864E-01
  0.101619416676E-01
  0.979009874710E-02
  0.825298911475E-02
  0.706680667401E-02
  0.525174537764E-02
  0.325080188562E-02
  0.301026023806E-02
  0.333905860819E-03
  0.338411453505E-02
  0.386917368856E-03
  0.734554616825E-02
  0.436480863796E-02
  0.145693330891E-01
  0.119655431964E-01
  0.234333612830E-01
  0.214741493846E-01
  0.313554299515E-01
  0.301876973710E-01
  0.358906859551E-01
  0.355196923255E-01
  0.693746364768E-02
  0.646214187079E-02
  0.514052705644E-02
  0.363350569080E-02
  0.217786154613E-02
 -0.260853024123E-03
 -0.121883787118E-03
 -0.327459143237E-02
  0.305514333360E-04
 -0.347965323620E-02
  0.353837268897E-02
  0.135787722541E-03
  0.101994418420E-01
  0.727485058559E-02
  0.184730851881E-01
  0.163195752240E-01
  0.259276312911E-01
  0.246503457829E-01
  0.301796298856E-01
  0.297811021084E-01
 -0.120669677492E-02
 -0.158388799167E-02
 -0.310393033461E-02
 -0.431625029552E-02
 -0.618434684447E-02
 -0.819384182409E-02
 -0.867086326938E-02
 -0.112475588913E-01
 -0.869506333751E-02
 -0.115712226794E-01
 -0.537102780317E-02
 -0.817838660212E-02
  0.111115888625E-02
 -0.132783031531E-02
  0.922721197314E-02
  0.740117700311E-02
  0.165587495052E-01
  0.154919562054E-01
  0.207978386896E-01
  0.204520980071E-01
  0.331050796737E-02
  0.286596300950E-02
  0.116315805889E-02
 -0.271828140191E-03
 -0.247343313179E-02
 -0.484887311923E-02
 -0.576495155925E-02
 -0.889223065439E-02
 -0.685494381170E-02
 -0.103597882463E-01
 -0.468701978219E-02
 -0.814694856187E-02
  0.617832461736E-03
 -0.240226812917E-02
  0.768767843046E-02
  0.543005066356E-02
  0.142319330972E-01
  0.128770541215E-01
  0.179860073505E-01
  0.175645934999E-01
  0.484267334114E-03
 -0.697770234717E-04
 -0.164295178832E-02
 -0.334998603788E-02
 -0.534760353916E-02
 -0.812207364365E-02
 -0.886807382515E-02
 -0.124065685958E-01
 -0.103243149487E-01
 -0.142286664821E-01
 -0.869780819598E-02
 -0.124582539495E-01
 -0.397895368739E-02
 -0.722669039455E-02
  0.250227744333E-02
  0.834266429900E-04
  0.856670391073E-02
  0.713824326954E-02
  0.120554106344E-01
  0.116006835790E-01
 -0.115277968986E-01
 -0.119313903134E-01
 -0.137170379059E-01
 -0.150188280902E-01
 -0.174724715540E-01
 -0.195662188778E-01
 -0.210005087005E-01
 -0.236616284135E-01
 -0.224391072300E-01
 -0.253449191220E-01
 -0.207392100272E-01
 -0.234970324018E-01
 -0.158924339132E-01
 -0.182257323498E-01
 -0.920281361374E-02
 -0.109287542712E-01
 -0.292676828949E-02
 -0.394877499143E-02
  0.743958353640E-03
  0.407919393598E-03
 -0.783558570318E-02
 -0.818639881218E-02
 -0.104786213337E-01
 -0.116382081189E-01
 -0.150337504935E-01
 -0.169194431470E-01
 -0.195854588147E-01
 -0.220148191361E-01
 -0.221342074330E-01
 -0.248360131949E-01
 -0.214848231569E-01
 -0.241082427668E-01
 -0.175570180719E-01
 -0.198389594287E-01
 -0.115907246356E-01
 -0.132903738009E-01
 -0.577954215671E-02
 -0.679959511139E-02
 -0.234181388049E-02
 -0.267182718546E-02
 -0.122187168073E-02
 -0.166632823352E-02
 -0.409055429213E-02
 -0.550694045762E-02
 -0.916399935452E-02
 -0.114472196788E-01
 -0.144992553035E-01
 -0.173706335485E-01
 -0.179738090346E-01
 -0.211289238579E-01
 -0.183116051690E-01
 -0.213371396757E-01
 -0.153045210021E-01
 -0.179467544984E-01
 -0.101401028033E-01
 -0.121335024808E-01
 -0.493925339317E-02
 -0.613103640434E-02
 -0.184683392482E-02
 -0.223807671586E-02
  0.485817449984E-02
  0.441183325347E-02
  0.172526229258E-02
  0.361008148035E-03
 -0.379927135541E-02
 -0.596811731233E-02
 -0.971299317447E-02
 -0.124680788303E-01
 -0.138560217479E-01
 -0.168761549216E-01
 -0.148454145958E-01
 -0.177730589278E-01
 -0.124459683757E-01
 -0.149964493805E-01
 -0.775265008617E-02
 -0.971123279075E-02
 -0.291328796539E-02
 -0.411296048153E-02
 -0.251900571693E-04
 -0.412353415027E-03
  0.153932592645E-01
  0.149595646910E-01
  0.121167983216E-01
  0.107196920545E-01
  0.624673113070E-02
  0.403484690936E-02
 -0.159364609052E-03
 -0.290647660879E-02
 -0.485773834448E-02
 -0.781949580563E-02
 -0.639108070047E-02
 -0.923064165599E-02
 -0.446176232576E-02
 -0.701829642043E-02
 -0.240563625332E-03
 -0.225418568924E-02
  0.421011626059E-02
  0.292508809486E-02
  0.682519375654E-02
  0.638578656366E-02
  0.253992282648E-01
  0.249857375458E-01
  0.220442353604E-01
  0.208302302124E-01
  0.161052855929E-01
  0.143274007574E-01
  0.966648984643E-02
  0.773324125076E-02
  0.511938818540E-02
  0.333627754206E-02
  0.402704559489E-02
  0.244278383309E-02
  0.657221825789E-02
  0.500476215712E-02
  0.113270646497E-01
  0.963383263232E-02
  0.157883474082E-01
  0.143822219243E-01
  0.180999111581E-01
  0.175707562219E-01
  0.340213541483E-01
  0.337656068115E-01
  0.307122266122E-01
  0.300528514406E-01
  0.249640201596E-01
  0.244851324253E-01
  0.190180153495E-01
  0.195927983022E-01
  0.156434382798E-01
  0.179571506793E-01
  0.173301897136E-01
  0.197715963932E-01
  0.227779230583E-01
  0.250500657631E-01
  0.305756217749E-01
  0.321619250394E-01
  0.382807448318E-01
  0.353255009663E-01
  0.389007799184E-01
  0.373076695907E-01
  0.407163598567E-01
  0.406526901756E-01
  0.374352402131E-01
  0.376308229068E-01
  0.319005065692E-01
  0.337216351955E-01
  0.264617515822E-01
  0.326882578364E-01
  0.245726322018E-01
  0.403095227505E-01
  0.295632876507E-01
  0.681527860605E-01
  0.418935736860E-01
  0.149858044684E+00
  0.168387041407E+00
  0.131783577313E+00
  0.132175465369E+00
  0.152060417737E+00
  0.836896157527E-01
  0.872633017389E-01
  0.722959999279E-01
  0.440356526254E-01
  0.439815177352E-01
  0.406185566171E-01
  0.409195402792E-01
  0.345505213723E-01
  0.370151649393E-01
  0.278098519741E-01
  0.362502211219E-01
  0.234111885590E-01
  0.443022644088E-01
  0.206611304949E-01
  0.722180371070E-01
  0.146318406578E-01
 -0.129793183992E-01
  0.147245379015E+00
  0.188096947258E+00
  0.129572016540E+00
  0.127164813261E+00
  0.120960865139E+00
  0.938871213000E-01
  0.427758572092E-01
  0.422483859665E-01
  0.389808759661E-01
  0.376155353206E-01
  0.313818380169E-01
  0.300989043790E-01
  0.211362554255E-01
  0.211906781914E-01
  0.962207429851E-02
  0.113049651207E-01
  0.104290796853E-01
 -0.479275684577E-01
 -0.772357296617E-01
  0.965900397513E-01
  0.374468619650E-01
  0.361578294800E-01
  0.333222287584E-01
  0.291971858264E-01
  0.240899950568E-01
  0.166029779419E-01
  0.104469793351E-01
 -0.291961871916E-02
 -0.595442165279E-02
 -0.375601914155E-01
 -0.232482886098E-01
 -0.772058866253E-01
  0.293342271491E-01
  0.272887787678E-01
  0.251063731080E-01
  0.184897342966E-01
  0.149185975500E-01
  0.265605677867E-02
 -0.476405625426E-03
 -0.213681896508E-01
 -0.192341926647E-01
 -0.552556969913E-01
 -0.412265674284E-01
 -0.759075017156E-01
 -0.776472717161E-01
  0.191849979702E-01
  0.165595780742E-01
  0.150932156709E-01
  0.669374738205E-02
  0.456390407325E-02
 -0.104141038113E-01
 -0.114456694298E-01
 -0.345775328888E-01
 -0.308941553891E-01
 -0.632844945292E-01
 -0.534978506712E-01
  0.711817852519E-02
  0.398091261060E-02
  0.316484865811E-02
 -0.654689497719E-02
 -0.753923173490E-02
 -0.240683428131E-01
 -0.239360832124E-01
 -0.472191487597E-01
 -0.438639693501E-01
 -0.713935302344E-01
 -0.681524688591E-01
 -0.652383870729E-01
 -0.621214586049E-01
 -0.699730296913E-02
 -0.106410725445E-01
 -0.109536877152E-01
 -0.218934349348E-01
 -0.221220287266E-01
 -0.398327571123E-01
 -0.392240453243E-01
 -0.623964468543E-01
 -0.599337332266E-01
 -0.856053034665E-01
 -0.900331917146E-01
 -0.686429196630E-01
 -0.231879754889E-01
 -0.274246848672E-01
 -0.274533031072E-01
 -0.398060594477E-01
 -0.396889878691E-01
 -0.588309392119E-01
 -0.582563704197E-01
 -0.819062460200E-01
 -0.804709946818E-01
 -0.115854080523E+00
 -0.161300593243E+00
 -0.357804365934E-01
 -0.415508590275E-01
 -0.465589807092E-01
 -0.466005627377E-01
 -0.607981797327E-01
 -0.608153373772E-01
 -0.820502216987E-01
 -0.819565525492E-01
 -0.107220810444E+00
 -0.108812605865E+00
 -0.153600839214E+00
 -0.199679447742E+00
 -0.216331256235E+00
 -0.634395989549E-01
 -0.694236474027E-01
 -0.698729803076E-01
 -0.864409242652E-01
 -0.871728779130E-01
 -0.111211890315E+00
 -0.112082448714E+00
 -0.139973450282E+00
 -0.152073369459E+00
 -0.224852749312E+00
 -0.521856494738E+00
 -0.934682579201E+00
 -0.884628323285E-01
 -0.956182801664E-01
 -0.968670611797E-01
 -0.116423514366E+00
 -0.118356783966E+00
 -0.146224486393E+00
 -0.148152196686E+00
 -0.177293038365E+00
 -0.220654892213E+00
 -0.338702280281E+00
 -0.278326575991E+01
 -0.781153422968E+00
 -0.114990007449E+00
 -0.123914723493E+00
 -0.126798629961E+00
 -0.150552615347E+00
 -0.155061043420E+00
 -0.188295912649E+00
 -0.191931204537E+00
 -0.223332047769E+00
 -0.376157608500E+00
 -0.527437401050E+00
 -0.109341402548E+02
 -0.282272804811E+01
  0.234219761649E+00
 -0.143633712344E+00
 -0.155231273965E+00
 -0.161607018978E+00
 -0.191541980344E+00
 -0.201488268313E+00
 -0.242305512322E+00
 -0.249708983012E+00
 -0.290782730600E+00
 -0.790041818138E+00
 -0.880642285456E+00
 -0.315863644054E+02
 -0.948497197241E+01
  0.304096510153E+00
  0.345597165794E+00
 -0.173278022671E+00
 -0.189293304315E+00
 -0.203298565213E+00
 -0.242387697968E+00
 -0.263459037741E+00
 -0.313033431357E+00
 -0.323226368693E+00
 -0.359829005767E+00
 -0.206442445285E+01
 -0.170188785261E+01
 -0.102075417749E+03
 -0.301708161837E+02
  0.400134803180E+00
 -0.192209722515E+00
 -0.216001818135E+00
 -0.248950636149E+00
 -0.303669401428E+00
 -0.353192262788E+00
 -0.420577047283E+00
 -0.422607907701E+00
 -0.440788332710E+00
 -0.592108047764E+01
 -0.368244527803E+01
 -0.254215116275E+03
 -0.100802746231E+03
  0.514266200084E+00
  0.532272737979E+00
 -0.164278353817E+00
 -0.195626615162E+00
 -0.271370840331E+00
 -0.333472723033E+00
 -0.455059134289E+00
 -0.529580583281E+00
 -0.516641196406E+00
 -0.561160540463E+00
 -0.178856204147E+02
 -0.908465692054E+01
 -0.185961811089E+04
 -0.304858978626E+03
  0.661765567812E+00
  0.716859989592E+00
  0.711618675948E+00
 -0.766358634881E-01
 -0.114922861730E+00
 -0.280686350453E+00
 -0.329255761176E+00
 -0.593144591541E+00
 -0.623233562291E+00
 -0.594921627200E+01
 -0.409765745774E+01
 -0.327104341509E+02
 -0.242974252544E+02
 -0.191663874436E+04
  0.874249021131E+00
  0.893263641136E+00
  0.893219036575E+00
  0.889134566907E+00
  0.874656801848E-01
  0.409245247216E-01
 -0.388663066006E+00
 -0.363672573679E+00
 -0.108765493766E+01
 -0.944164519207E+00
 -0.191604194049E+02
 -0.937607802841E+01
 -0.855614294955E+02
 -0.435993487631E+02
 -0.694127704639E+04
 -0.340872883940E+04
  0.971628742383E+00
  0.980234866919E+00
  0.995556051482E+00
  0.996624994876E+00
  0.438651959259E+00
  0.433837602944E+00
 -0.617756264931E+00
 -0.255633548158E+00
 -0.214713306695E+01
 -0.128535621547E+01
 -0.631564805298E+02
 -0.260498244527E+02
 -0.259843098822E+03
 -0.119272571912E+03
 -0.399579568337E+05
 -0.811919005653E+04
  0.299787795219E+00
  0.577471315774E+00
  0.759506355116E+00
  0.759977600469E+00
  0.669956431241E+00
  0.808685083151E+00
 -0.143380742292E+01
 -0.323326754890E+00
 -0.389536103462E+01
 -0.193614207367E+01
 -0.181066850975E+03
 -0.736974642844E+02
 -0.753968930987E+03
 -0.331682821260E+03
 -0.410552898419E+05
 -0.212673348110E+01
 -0.911149708032E+00
 -0.920061621581E+00
 -0.695396407998E+00
 -0.306988181582E+00
  0.394530461390E+00
 -0.563452084921E+01
 -0.138955917979E+01
 -0.118697827141E+02
 -0.409361753648E+01
 -0.498424634235E+03
 -0.205407531566E+03
 -0.156000538057E+04
 -0.860534506515E+03
 -0.572314034065E+05
 -0.442522775556E+05
 -0.245262964037E+01
 -0.245452957800E+01
 -0.256561500338E+01
 -0.823800719027E+01
 -0.604357338506E+01
 -0.207357165554E+02
 -0.851056103948E+01
 -0.407466036904E+02
 -0.120743711079E+02
 -0.178187889580E+04
 -0.590275021165E+03