# vtk DataFile Version 3.0
MachLine results file. Generated by MachLine, USU AeroLab (c) 2022.
ASCII
DATASET POLYDATA
POINTS                 150 float
  0.108560000000E+01  0.278310000000E-01 -0.165140000000E-01
  0.304800000000E+02  0.278310000000E-01 -0.165140000000E-01
  0.146920000000E+01  0.569530000000E-02  0.393580000000E-01
  0.304800000000E+02  0.569530000000E-02  0.393580000000E-01
  0.112400000000E+01  0.856350000000E-01 -0.379180000000E-01
  0.304800000000E+02  0.856350000000E-01 -0.379180000000E-01
  0.112400000000E+01  0.884200000000E-01 -0.383560000000E-01
  0.304800000000E+02  0.884200000000E-01 -0.383560000000E-01
  0.112400000000E+01  0.909320000000E-01 -0.396350000000E-01
  0.304800000000E+02  0.909320000000E-01 -0.396350000000E-01
  0.112400000000E+01  0.929250000000E-01 -0.416280000000E-01
  0.304800000000E+02  0.929250000000E-01 -0.416280000000E-01
  0.112400000000E+01  0.942040000000E-01 -0.441390000000E-01
  0.304800000000E+02  0.942040000000E-01 -0.441390000000E-01
  0.112400000000E+01  0.946410000000E-01 -0.469250000000E-01
  0.304800000000E+02  0.946410000000E-01 -0.469250000000E-01
  0.112400000000E+01  0.942040000000E-01 -0.497110000000E-01
  0.304800000000E+02  0.942040000000E-01 -0.497110000000E-01
  0.112400000000E+01  0.929250000000E-01 -0.522230000000E-01
  0.304800000000E+02  0.929250000000E-01 -0.522230000000E-01
  0.112400000000E+01  0.909320000000E-01 -0.542160000000E-01
  0.304800000000E+02  0.909320000000E-01 -0.542160000000E-01
  0.112400000000E+01  0.884200000000E-01 -0.554950000000E-01
  0.304800000000E+02  0.884200000000E-01 -0.554950000000E-01
  0.112400000000E+01  0.856350000000E-01 -0.559320000000E-01
  0.304800000000E+02  0.856350000000E-01 -0.559320000000E-01
  0.112400000000E+01  0.828490000000E-01 -0.554950000000E-01
  0.304800000000E+02  0.828490000000E-01 -0.554950000000E-01
  0.112400000000E+01  0.803370000000E-01 -0.542160000000E-01
  0.304800000000E+02  0.803370000000E-01 -0.542160000000E-01
  0.112400000000E+01  0.783440000000E-01 -0.522230000000E-01
  0.304800000000E+02  0.783440000000E-01 -0.522230000000E-01
  0.112400000000E+01  0.770650000000E-01 -0.497110000000E-01
  0.304800000000E+02  0.770650000000E-01 -0.497110000000E-01
  0.112400000000E+01  0.766280000000E-01 -0.469250000000E-01
  0.304800000000E+02  0.766280000000E-01 -0.469250000000E-01
  0.112400000000E+01  0.770650000000E-01 -0.441390000000E-01
  0.304800000000E+02  0.770650000000E-01 -0.441390000000E-01
  0.112400000000E+01  0.783440000000E-01 -0.416280000000E-01
  0.304800000000E+02  0.783440000000E-01 -0.416280000000E-01
  0.112400000000E+01  0.803370000000E-01 -0.396350000000E-01
  0.304800000000E+02  0.803370000000E-01 -0.396350000000E-01
  0.112400000000E+01  0.828490000000E-01 -0.383560000000E-01
  0.304800000000E+02  0.828490000000E-01 -0.383560000000E-01
  0.111220000000E+01  0.146540000000E+00 -0.422160000000E-01
  0.304800000000E+02  0.146540000000E+00 -0.422160000000E-01
  0.111220000000E+01  0.149320000000E+00 -0.417790000000E-01
  0.304800000000E+02  0.149320000000E+00 -0.417790000000E-01
  0.111220000000E+01  0.144030000000E+00 -0.434950000000E-01
  0.304800000000E+02  0.144030000000E+00 -0.434950000000E-01
  0.111220000000E+01  0.142030000000E+00 -0.454880000000E-01
  0.304800000000E+02  0.142030000000E+00 -0.454880000000E-01
  0.111220000000E+01  0.140750000000E+00 -0.479990000000E-01
  0.304800000000E+02  0.140750000000E+00 -0.479990000000E-01
  0.111220000000E+01  0.140320000000E+00 -0.507850000000E-01
  0.304800000000E+02  0.140320000000E+00 -0.507850000000E-01
  0.111220000000E+01  0.140750000000E+00 -0.535710000000E-01
  0.304800000000E+02  0.140750000000E+00 -0.535710000000E-01
  0.111220000000E+01  0.142030000000E+00 -0.560820000000E-01
  0.304800000000E+02  0.142030000000E+00 -0.560820000000E-01
  0.111220000000E+01  0.144030000000E+00 -0.580760000000E-01
  0.304800000000E+02  0.144030000000E+00 -0.580760000000E-01
  0.111220000000E+01  0.146540000000E+00 -0.593550000000E-01
  0.304800000000E+02  0.146540000000E+00 -0.593550000000E-01
  0.111220000000E+01  0.149320000000E+00 -0.597920000000E-01
  0.304800000000E+02  0.149320000000E+00 -0.597920000000E-01
  0.111220000000E+01  0.152110000000E+00 -0.593550000000E-01
  0.304800000000E+02  0.152110000000E+00 -0.593550000000E-01
  0.111220000000E+01  0.154620000000E+00 -0.580760000000E-01
  0.304800000000E+02  0.154620000000E+00 -0.580760000000E-01
  0.111220000000E+01  0.156610000000E+00 -0.560820000000E-01
  0.304800000000E+02  0.156610000000E+00 -0.560820000000E-01
  0.111220000000E+01  0.157890000000E+00 -0.535710000000E-01
  0.304800000000E+02  0.157890000000E+00 -0.535710000000E-01
  0.111220000000E+01  0.158330000000E+00 -0.507850000000E-01
  0.304800000000E+02  0.158330000000E+00 -0.507850000000E-01
  0.111220000000E+01  0.157890000000E+00 -0.479990000000E-01
  0.304800000000E+02  0.157890000000E+00 -0.479990000000E-01
  0.111220000000E+01  0.156610000000E+00 -0.454880000000E-01
  0.304800000000E+02  0.156610000000E+00 -0.454880000000E-01
  0.111220000000E+01  0.154620000000E+00 -0.434950000000E-01
  0.304800000000E+02  0.154620000000E+00 -0.434950000000E-01
  0.111220000000E+01  0.152110000000E+00 -0.422160000000E-01
  0.304800000000E+02  0.152110000000E+00 -0.422160000000E-01
  0.145000000000E+01  0.000000000000E+00  0.615750000000E-01
  0.304800000000E+02  0.000000000000E+00  0.615750000000E-01
  0.144790000000E+01  0.000000000000E+00  0.422690000000E-01
  0.304800000000E+02  0.000000000000E+00  0.422690000000E-01
  0.145250000000E+01  0.000000000000E+00  0.845500000000E-01
  0.304800000000E+02  0.000000000000E+00  0.845500000000E-01
  0.145500000000E+01  0.000000000000E+00  0.107530000000E+00
  0.304800000000E+02  0.000000000000E+00  0.107530000000E+00
  0.145750000000E+01  0.000000000000E+00  0.130500000000E+00
  0.304800000000E+02  0.000000000000E+00  0.130500000000E+00
  0.146000000000E+01  0.000000000000E+00  0.153480000000E+00
  0.304800000000E+02  0.000000000000E+00  0.153480000000E+00
  0.146250000000E+01  0.000000000000E+00  0.176450000000E+00
  0.304800000000E+02  0.000000000000E+00  0.176450000000E+00
  0.146090000000E+01  0.154250000000E-01  0.405880000000E-01
  0.304800000000E+02  0.154250000000E-01  0.405880000000E-01
  0.145220000000E+01  0.308510000000E-01  0.399850000000E-01
  0.304800000000E+02  0.308510000000E-01  0.399850000000E-01
  0.144360000000E+01  0.462760000000E-01  0.393830000000E-01
  0.304800000000E+02  0.462760000000E-01  0.393830000000E-01
  0.143500000000E+01  0.617010000000E-01  0.387800000000E-01
  0.304800000000E+02  0.617010000000E-01  0.387800000000E-01
  0.142630000000E+01  0.771260000000E-01  0.381770000000E-01
  0.304800000000E+02  0.771260000000E-01  0.381770000000E-01
  0.141770000000E+01  0.925520000000E-01  0.375750000000E-01
  0.304800000000E+02  0.925520000000E-01  0.375750000000E-01
  0.108260000000E+01  0.432880000000E-01 -0.175550000000E-01
  0.304800000000E+02  0.432880000000E-01 -0.175550000000E-01
  0.107990000000E+01  0.572710000000E-01 -0.184970000000E-01
  0.304800000000E+02  0.572710000000E-01 -0.184970000000E-01
  0.107720000000E+01  0.711490000000E-01 -0.194310000000E-01
  0.304800000000E+02  0.711490000000E-01 -0.194310000000E-01
  0.107450000000E+01  0.849910000000E-01 -0.203630000000E-01
  0.304800000000E+02  0.849910000000E-01 -0.203630000000E-01
  0.107180000000E+01  0.988690000000E-01 -0.212980000000E-01
  0.304800000000E+02  0.988690000000E-01 -0.212980000000E-01
  0.106910000000E+01  0.112850000000E+00 -0.222390000000E-01
  0.304800000000E+02  0.112850000000E+00 -0.222390000000E-01
  0.106640000000E+01  0.127010000000E+00 -0.231930000000E-01
  0.304800000000E+02  0.127010000000E+00 -0.231930000000E-01
  0.106360000000E+01  0.141420000000E+00 -0.241630000000E-01
  0.304800000000E+02  0.141420000000E+00 -0.241630000000E-01
  0.106070000000E+01  0.156140000000E+00 -0.251540000000E-01
  0.304800000000E+02  0.156140000000E+00 -0.251540000000E-01
  0.106220000000E+01  0.170780000000E+00 -0.261370000000E-01
  0.304800000000E+02  0.170780000000E+00 -0.261370000000E-01
  0.106370000000E+01  0.185070000000E+00 -0.271000000000E-01
  0.304800000000E+02  0.185070000000E+00 -0.271000000000E-01
  0.106510000000E+01  0.199120000000E+00 -0.280460000000E-01
  0.304800000000E+02  0.199120000000E+00 -0.280460000000E-01
  0.106650000000E+01  0.212990000000E+00 -0.289800000000E-01
  0.304800000000E+02  0.212990000000E+00 -0.289800000000E-01
  0.106790000000E+01  0.226760000000E+00 -0.299080000000E-01
  0.304800000000E+02  0.226760000000E+00 -0.299080000000E-01
  0.106930000000E+01  0.240500000000E+00 -0.308320000000E-01
  0.304800000000E+02  0.240500000000E+00 -0.308320000000E-01
  0.107070000000E+01  0.254270000000E+00 -0.317600000000E-01
  0.304800000000E+02  0.254270000000E+00 -0.317600000000E-01
  0.107210000000E+01  0.268140000000E+00 -0.326940000000E-01
  0.304800000000E+02  0.268140000000E+00 -0.326940000000E-01
  0.107350000000E+01  0.282190000000E+00 -0.336400000000E-01
  0.304800000000E+02  0.282190000000E+00 -0.336400000000E-01
  0.107500000000E+01  0.296490000000E+00 -0.346030000000E-01
  0.304800000000E+02  0.296490000000E+00 -0.346030000000E-01
  0.107640000000E+01  0.311090000000E+00 -0.355860000000E-01
  0.304800000000E+02  0.311090000000E+00 -0.355860000000E-01
POLYGONS                 144                 576
3                  98                  99                   3
3                  98                   3                   2
3                   8                   9                  11
3                   8                  11                  10
3                   4                   5                   7
3                   4                   7                   6
3                   6                   7                   9
3                   6                   9                   8
3                  12                  13                  15
3                  12                  15                  14
3                  10                  11                  13
3                  10                  13                  12
3                  18                  19                  21
3                  18                  21                  20
3                  14                  15                  17
3                  14                  17                  16
3                  22                  23                  25
3                  22                  25                  24
3                  20                  21                  23
3                  20                  23                  22
3                  24                  25                  27
3                  24                  27                  26
3                  28                  29                  31
3                  28                  31                  30
3                  32                  33                  35
3                  32                  35                  34
3                  30                  31                  33
3                  30                  33                  32
3                  34                  35                  37
3                  34                  37                  36
3                  26                  27                  29
3                  26                  29                  28
3                  38                  39                  41
3                  38                  41                  40
3                  40                  41                  43
3                  40                  43                  42
3                  36                  37                  39
3                  36                  39                  38
3                  16                  17                  19
3                  16                  19                  18
3                  42                  43                   5
3                  42                   5                   4
3                  52                  53                  51
3                  52                  51                  50
3                  54                  55                  53
3                  54                  53                  52
3                  58                  59                  57
3                  58                  57                  56
3                  50                  51                  49
3                  50                  49                  48
3                  62                  63                  61
3                  62                  61                  60
3                  48                  49                  45
3                  48                  45                  44
3                  56                  57                  55
3                  56                  55                  54
3                  44                  45                  47
3                  44                  47                  46
3                  68                  69                  67
3                  68                  67                  66
3                  70                  71                  69
3                  70                  69                  68
3                  60                  61                  59
3                  60                  59                  58
3                  66                  67                  65
3                  66                  65                  64
3                  72                  73                  71
3                  72                  71                  70
3                  64                  65                  63
3                  64                  63                  62
3                  78                  79                  77
3                  78                  77                  76
3                  74                  75                  73
3                  74                  73                  72
3                  82                  83                  81
3                  82                  81                  80
3                  80                  81                  79
3                  80                  79                  78
3                  76                  77                  75
3                  76                  75                  74
3                  46                  47                  83
3                  46                  83                  82
3                  84                  85                  87
3                  84                  87                  86
3                  88                  89                  85
3                  88                  85                  84
3                  90                  91                  89
3                  90                  89                  88
3                  94                  95                  93
3                  94                  93                  92
3                  92                  93                  91
3                  92                  91                  90
3                  96                  97                  95
3                  96                  95                  94
3                  98                  99                 101
3                  98                 101                 100
3                 100                 101                 103
3                 100                 103                 102
3                 102                 103                 105
3                 102                 105                 104
3                 104                 105                 107
3                 104                 107                 106
3                 106                 107                 109
3                 106                 109                 108
3                   0                   1                 111
3                   0                 111                 110
3                 110                 111                 113
3                 110                 113                 112
3                 112                 113                 115
3                 112                 115                 114
3                 114                 115                 117
3                 114                 117                 116
3                 116                 117                 119
3                 116                 119                 118
3                 118                 119                 121
3                 118                 121                 120
3                 120                 121                 123
3                 120                 123                 122
3                 122                 123                 125
3                 122                 125                 124
3                 124                 125                 127
3                 124                 127                 126
3                 128                 129                 131
3                 128                 131                 130
3                 130                 131                 133
3                 130                 133                 132
3                 132                 133                 135
3                 132                 135                 134
3                 134                 135                 137
3                 134                 137                 136
3                 136                 137                 139
3                 136                 139                 138
3                 138                 139                 141
3                 138                 141                 140
3                 140                 141                 143
3                 140                 143                 142
3                 142                 143                 145
3                 142                 145                 144
3                 144                 145                 147
3                 144                 147                 146
3                 146                 147                 149
3                 146                 149                 148
3                 126                 127                 129
3                 126                 129                 128
CELL_DATA                 144
NORMALS normals float
  0.000000000000E+00  0.125418848951E+00 -0.992103881823E+00
  0.000000000000E+00  0.125418848951E+00 -0.992103881823E+00
 -0.000000000000E+00  0.707106781187E+00  0.707106781187E+00
  0.000000000000E+00  0.707106781187E+00  0.707106781187E+00
 -0.000000000000E+00  0.155361460825E+00  0.987857690404E+00
  0.000000000000E+00  0.155361460825E+00  0.987857690404E+00
 -0.000000000000E+00  0.453729142125E+00  0.891139644268E+00
  0.000000000000E+00  0.453729142125E+00  0.891139644268E+00
 -0.000000000000E+00  0.987920590836E+00  0.154960982841E+00
  0.000000000000E+00  0.987920590836E+00  0.154960982841E+00
 -0.000000000000E+00  0.891066576565E+00  0.453872621038E+00
  0.000000000000E+00  0.891066576565E+00  0.453872621038E+00
  0.000000000000E+00  0.707106781187E+00 -0.707106781187E+00
  0.000000000000E+00  0.707106781187E+00 -0.707106781187E+00
  0.000000000000E+00  0.987920590836E+00 -0.154960982841E+00
  0.000000000000E+00  0.987920590836E+00 -0.154960982841E+00
  0.000000000000E+00  0.155015287316E+00 -0.987912071340E+00
  0.000000000000E+00  0.155015287316E+00 -0.987912071340E+00
  0.000000000000E+00  0.453729142125E+00 -0.891139644268E+00
  0.000000000000E+00  0.453729142125E+00 -0.891139644268E+00
  0.000000000000E+00 -0.154960982841E+00 -0.987920590836E+00
 -0.000000000000E+00 -0.154960982841E+00 -0.987920590836E+00
  0.000000000000E+00 -0.707106781187E+00 -0.707106781187E+00
 -0.000000000000E+00 -0.707106781187E+00 -0.707106781187E+00
  0.000000000000E+00 -0.987920590836E+00 -0.154960982841E+00
 -0.000000000000E+00 -0.987920590836E+00 -0.154960982841E+00
  0.000000000000E+00 -0.891139644268E+00 -0.453729142125E+00
 -0.000000000000E+00 -0.891139644268E+00 -0.453729142125E+00
  0.000000000000E+00 -0.987920590836E+00  0.154960982841E+00
  0.000000000000E+00 -0.987920590836E+00  0.154960982841E+00
  0.000000000000E+00 -0.453729142125E+00 -0.891139644268E+00
 -0.000000000000E+00 -0.453729142125E+00 -0.891139644268E+00
  0.000000000000E+00 -0.707106781187E+00  0.707106781187E+00
  0.000000000000E+00 -0.707106781187E+00  0.707106781187E+00
  0.000000000000E+00 -0.453729142125E+00  0.891139644268E+00
  0.000000000000E+00 -0.453729142125E+00  0.891139644268E+00
  0.000000000000E+00 -0.891066576565E+00  0.453872621038E+00
  0.000000000000E+00 -0.891066576565E+00  0.453872621038E+00
  0.000000000000E+00  0.891139644268E+00 -0.453729142125E+00
  0.000000000000E+00  0.891139644268E+00 -0.453729142125E+00
  0.000000000000E+00 -0.155307041068E+00  0.987866247523E+00
  0.000000000000E+00 -0.155307041068E+00  0.987866247523E+00
  0.000000000000E+00 -0.890923036752E+00  0.454154315827E+00
  0.000000000000E+00 -0.890923036752E+00  0.454154315827E+00
  0.000000000000E+00 -0.988297763044E+00  0.152536984246E+00
  0.000000000000E+00 -0.988297763044E+00  0.152536984246E+00
  0.000000000000E+00 -0.890923036752E+00 -0.454154315827E+00
 -0.000000000000E+00 -0.890923036752E+00 -0.454154315827E+00
  0.000000000000E+00 -0.705866090359E+00  0.708345298905E+00
  0.000000000000E+00 -0.705866090359E+00  0.708345298905E+00
  0.000000000000E+00 -0.454016178941E+00 -0.890993439516E+00
 -0.000000000000E+00 -0.454016178941E+00 -0.890993439516E+00
  0.000000000000E+00 -0.454016178941E+00  0.890993439516E+00
  0.000000000000E+00 -0.454016178941E+00  0.890993439516E+00
  0.000000000000E+00 -0.988297763044E+00 -0.152536984246E+00
 -0.000000000000E+00 -0.988297763044E+00 -0.152536984246E+00
  0.000000000000E+00 -0.155287374541E+00  0.987869339188E+00
  0.000000000000E+00 -0.155287374541E+00  0.987869339188E+00
  0.000000000000E+00  0.454016178941E+00 -0.890993439516E+00
  0.000000000000E+00  0.454016178941E+00 -0.890993439516E+00
  0.000000000000E+00  0.707816370998E+00 -0.706396478578E+00
  0.000000000000E+00  0.707816370998E+00 -0.706396478578E+00
  0.000000000000E+00 -0.706043730947E+00 -0.708168235654E+00
 -0.000000000000E+00 -0.706043730947E+00 -0.708168235654E+00
  0.000000000000E+00  0.154744140223E+00 -0.987954579455E+00
  0.000000000000E+00  0.154744140223E+00 -0.987954579455E+00
  0.000000000000E+00  0.890923036752E+00 -0.454154315827E+00
  0.000000000000E+00  0.890923036752E+00 -0.454154315827E+00
  0.000000000000E+00 -0.155287374541E+00 -0.987869339188E+00
 -0.000000000000E+00 -0.155287374541E+00 -0.987869339188E+00
 -0.000000000000E+00  0.890923036752E+00  0.454154315827E+00
  0.000000000000E+00  0.890923036752E+00  0.454154315827E+00
  0.000000000000E+00  0.987757215310E+00 -0.155998985907E+00
  0.000000000000E+00  0.987757215310E+00 -0.155998985907E+00
 -0.000000000000E+00  0.454016178941E+00  0.890993439516E+00
  0.000000000000E+00  0.454016178941E+00  0.890993439516E+00
 -0.000000000000E+00  0.707639174069E+00  0.706573987154E+00
  0.000000000000E+00  0.707639174069E+00  0.706573987154E+00
 -0.000000000000E+00  0.987757215310E+00  0.155998985907E+00
  0.000000000000E+00  0.987757215310E+00  0.155998985907E+00
 -0.000000000000E+00  0.154744140223E+00  0.987954579455E+00
  0.000000000000E+00  0.154744140223E+00  0.987954579455E+00
 -0.000000000000E+00  0.100000000000E+01  0.000000000000E+00
  0.000000000000E+00  0.100000000000E+01  0.000000000000E+00
 -0.000000000000E+00  0.100000000000E+01  0.000000000000E+00
  0.000000000000E+00  0.100000000000E+01  0.000000000000E+00
 -0.000000000000E+00  0.100000000000E+01  0.000000000000E+00
  0.000000000000E+00  0.100000000000E+01  0.000000000000E+00
 -0.000000000000E+00  0.100000000000E+01  0.000000000000E+00
  0.000000000000E+00  0.100000000000E+01  0.000000000000E+00
 -0.000000000000E+00  0.100000000000E+01  0.000000000000E+00
  0.000000000000E+00  0.100000000000E+01  0.000000000000E+00
 -0.000000000000E+00  0.100000000000E+01  0.000000000000E+00
  0.000000000000E+00  0.100000000000E+01  0.000000000000E+00
 -0.000000000000E+00  0.390600175286E-01  0.999236866329E+00
  0.000000000000E+00  0.390600175286E-01  0.999236866329E+00
 -0.000000000000E+00  0.389978641791E-01  0.999239293958E+00
  0.000000000000E+00  0.389978641791E-01  0.999239293958E+00
 -0.000000000000E+00  0.390625459188E-01  0.999236767491E+00
  0.000000000000E+00  0.390625459188E-01  0.999236767491E+00
 -0.000000000000E+00  0.390625459188E-01  0.999236767491E+00
  0.000000000000E+00  0.390625459188E-01  0.999236767491E+00
 -0.000000000000E+00  0.389953399628E-01  0.999239392469E+00
  0.000000000000E+00  0.389953399628E-01  0.999239392469E+00
 -0.000000000000E+00  0.671959068792E-01  0.997739800799E+00
  0.000000000000E+00  0.671959068792E-01  0.997739800799E+00
 -0.000000000000E+00  0.672151662964E-01  0.997738503527E+00
  0.000000000000E+00  0.672151662964E-01  0.997738503527E+00
 -0.000000000000E+00  0.671488638177E-01  0.997742967947E+00
  0.000000000000E+00  0.671488638177E-01  0.997742967947E+00
 -0.000000000000E+00  0.671792040618E-01  0.997740925562E+00
  0.000000000000E+00  0.671792040618E-01  0.997740925562E+00
 -0.000000000000E+00  0.672204329905E-01  0.997738148709E+00
  0.000000000000E+00  0.672204329905E-01  0.997738148709E+00
 -0.000000000000E+00  0.671536962157E-01  0.997742642711E+00
  0.000000000000E+00  0.671536962157E-01  0.997742642711E+00
 -0.000000000000E+00  0.672204936419E-01  0.997738144622E+00
  0.000000000000E+00  0.672204936419E-01  0.997738144622E+00
 -0.000000000000E+00  0.671623731372E-01  0.997742058668E+00
  0.000000000000E+00  0.671623731372E-01  0.997742058668E+00
 -0.000000000000E+00  0.671713168125E-01  0.997741456590E+00
  0.000000000000E+00  0.671713168125E-01  0.997741456590E+00
 -0.000000000000E+00  0.672372808941E-01  0.997737013475E+00
  0.000000000000E+00  0.672372808941E-01  0.997737013475E+00
 -0.000000000000E+00  0.671788567760E-01  0.997740948945E+00
  0.000000000000E+00  0.671788567760E-01  0.997740948945E+00
 -0.000000000000E+00  0.671874194519E-01  0.997740372375E+00
  0.000000000000E+00  0.671874194519E-01  0.997740372375E+00
 -0.000000000000E+00  0.672403599089E-01  0.997736805976E+00
  0.000000000000E+00  0.672403599089E-01  0.997736805976E+00
 -0.000000000000E+00  0.670973583742E-01  0.997746432967E+00
  0.000000000000E+00  0.670973583742E-01  0.997746432967E+00
 -0.000000000000E+00  0.672403599089E-01  0.997736805976E+00
  0.000000000000E+00  0.672403599089E-01  0.997736805976E+00
 -0.000000000000E+00  0.671874194519E-01  0.997740372375E+00
  0.000000000000E+00  0.671874194519E-01  0.997740372375E+00
 -0.000000000000E+00  0.671788567760E-01  0.997740948945E+00
  0.000000000000E+00  0.671788567760E-01  0.997740948945E+00
 -0.000000000000E+00  0.671904741609E-01  0.997740166668E+00
  0.000000000000E+00  0.671904741609E-01  0.997740166668E+00
 -0.000000000000E+00  0.671766778784E-01  0.997741095650E+00
  0.000000000000E+00  0.671766778784E-01  0.997741095650E+00
 -0.000000000000E+00  0.669939599413E-01  0.997753381017E+00
  0.000000000000E+00  0.669939599413E-01  0.997753381017E+00
POINT_DATA                 150
SCALARS mu float 1
LOOKUP_TABLE default
                 NaN
                 NaN
                 NaN
                 NaN
                 NaN
                 NaN
                 NaN
                 NaN
                 NaN
                 NaN
                 NaN
                 NaN
                 NaN
                 NaN
                 NaN
                 NaN
                 NaN
                 NaN
                 NaN
                 NaN
                 NaN
                 NaN
                 NaN
                 NaN
                 NaN
                 NaN
                 NaN
                 NaN
                 NaN
                 NaN
                 NaN
                 NaN
                 NaN
                 NaN
                 NaN
                 NaN
                 NaN
                 NaN
                 NaN
                 NaN
                 NaN
                 NaN
                 NaN
                 NaN
                 NaN
                 NaN
                 NaN
                 NaN
                 NaN
                 NaN
                 NaN
                 NaN
                 NaN
                 NaN
                 NaN
                 NaN
                 NaN
                 NaN
                 NaN
                 NaN
                 NaN
                 NaN
                 NaN
                 NaN
                 NaN
                 NaN
                 NaN
                 NaN
                 NaN
                 NaN
                 NaN
                 NaN
                 NaN
                 NaN
                 NaN
                 NaN
                 NaN
                 NaN
                 NaN
                 NaN
                 NaN
                 NaN
                 NaN
                 NaN
                 NaN
                 NaN
                 NaN
                 NaN
                 NaN
                 NaN
                 NaN
                 NaN
                 NaN
                 NaN
                 NaN
                 NaN
                 NaN
                 NaN
                 NaN
                 NaN
                 NaN
                 NaN
                 NaN
                 NaN
                 NaN
                 NaN
                 NaN
                 NaN
                 NaN
                 NaN
                 NaN
                 NaN
                 NaN
                 NaN
                 NaN
                 NaN
                 NaN
                 NaN
                 NaN
                 NaN
                 NaN
                 NaN
                 NaN
                 NaN
                 NaN
                 NaN
                 NaN
                 NaN
                 NaN
                 NaN
                 NaN
                 NaN
                 NaN
                 NaN