# vtk DataFile Version 3.0
MachLine results file. Generated by MachLine, USU AeroLab (c) 2022.
ASCII
DATASET POLYDATA
POINTS                 328 float
  0.146090000000E+01  0.154250000000E-01  0.405880000000E-01
  0.146920000000E+01  0.569530000000E-02  0.393580000000E-01
  0.149084829036E+03  0.154250000000E-01  0.742178445181E+01
  0.149080802103E+03  0.569530000000E-02  0.741993810517E+01
  0.112400000000E+01  0.856350000000E-01 -0.379180000000E-01
  0.112400000000E+01  0.884200000000E-01 -0.383560000000E-01
  0.149257892079E+03  0.856350000000E-01  0.736877660393E+01
  0.149257924847E+03  0.884200000000E-01  0.736834024233E+01
  0.112400000000E+01  0.884200000000E-01 -0.383560000000E-01
  0.112400000000E+01  0.909320000000E-01 -0.396350000000E-01
  0.149257924847E+03  0.884200000000E-01  0.736834024233E+01
  0.149258020532E+03  0.909320000000E-01  0.736706602662E+01
  0.112400000000E+01  0.946410000000E-01 -0.469250000000E-01
  0.112400000000E+01  0.942040000000E-01 -0.497110000000E-01
  0.149258565919E+03  0.946410000000E-01  0.735980329595E+01
  0.149258774348E+03  0.942040000000E-01  0.735702771739E+01
  0.112400000000E+01  0.909320000000E-01 -0.396350000000E-01
  0.112400000000E+01  0.929250000000E-01 -0.416280000000E-01
  0.149258020532E+03  0.909320000000E-01  0.736706602662E+01
  0.149258169635E+03  0.929250000000E-01  0.736508048173E+01
  0.112400000000E+01  0.942040000000E-01 -0.441390000000E-01
  0.112400000000E+01  0.946410000000E-01 -0.469250000000E-01
  0.149258357490E+03  0.942040000000E-01  0.736257887450E+01
  0.149258565919E+03  0.946410000000E-01  0.735980329595E+01
  0.112400000000E+01  0.942040000000E-01 -0.497110000000E-01
  0.112400000000E+01  0.929250000000E-01 -0.522230000000E-01
  0.149258774348E+03  0.942040000000E-01  0.735702771739E+01
  0.149258962278E+03  0.929250000000E-01  0.735452511390E+01
  0.112400000000E+01  0.929250000000E-01 -0.522230000000E-01
  0.112400000000E+01  0.909320000000E-01 -0.542160000000E-01
  0.149258962278E+03  0.929250000000E-01  0.735452511390E+01
  0.149259111380E+03  0.909320000000E-01  0.735253956902E+01
  0.112400000000E+01  0.929250000000E-01 -0.416280000000E-01
  0.112400000000E+01  0.942040000000E-01 -0.441390000000E-01
  0.149258169635E+03  0.929250000000E-01  0.736508048173E+01
  0.149258357490E+03  0.942040000000E-01  0.736257887450E+01
  0.112400000000E+01  0.909320000000E-01 -0.542160000000E-01
  0.112400000000E+01  0.884200000000E-01 -0.554950000000E-01
  0.149259111380E+03  0.909320000000E-01  0.735253956902E+01
  0.149259207066E+03  0.884200000000E-01  0.735126535330E+01
  0.112400000000E+01  0.884200000000E-01 -0.554950000000E-01
  0.112400000000E+01  0.856350000000E-01 -0.559320000000E-01
  0.149259207066E+03  0.884200000000E-01  0.735126535330E+01
  0.149259239759E+03  0.856350000000E-01  0.735082998797E+01
  0.112400000000E+01  0.856350000000E-01 -0.559320000000E-01
  0.112400000000E+01  0.828490000000E-01 -0.554950000000E-01
  0.149259239759E+03  0.856350000000E-01  0.735082998797E+01
  0.149259207066E+03  0.828490000000E-01  0.735126535330E+01
  0.112400000000E+01  0.803370000000E-01 -0.542160000000E-01
  0.112400000000E+01  0.783440000000E-01 -0.522230000000E-01
  0.149259111380E+03  0.803370000000E-01  0.735253956902E+01
  0.149258962278E+03  0.783440000000E-01  0.735452511390E+01
  0.112400000000E+01  0.828490000000E-01 -0.554950000000E-01
  0.112400000000E+01  0.803370000000E-01 -0.542160000000E-01
  0.149259207066E+03  0.828490000000E-01  0.735126535330E+01
  0.149259111380E+03  0.803370000000E-01  0.735253956902E+01
  0.112400000000E+01  0.783440000000E-01 -0.522230000000E-01
  0.112400000000E+01  0.770650000000E-01 -0.497110000000E-01
  0.149258962278E+03  0.783440000000E-01  0.735452511390E+01
  0.149258774348E+03  0.770650000000E-01  0.735702771739E+01
  0.112400000000E+01  0.766280000000E-01 -0.469250000000E-01
  0.112400000000E+01  0.770650000000E-01 -0.441390000000E-01
  0.149258565919E+03  0.766280000000E-01  0.735980329595E+01
  0.149258357490E+03  0.770650000000E-01  0.736257887450E+01
  0.112400000000E+01  0.770650000000E-01 -0.441390000000E-01
  0.112400000000E+01  0.783440000000E-01 -0.416280000000E-01
  0.149258357490E+03  0.770650000000E-01  0.736257887450E+01
  0.149258169635E+03  0.783440000000E-01  0.736508048173E+01
  0.112400000000E+01  0.770650000000E-01 -0.497110000000E-01
  0.112400000000E+01  0.766280000000E-01 -0.469250000000E-01
  0.149258774348E+03  0.770650000000E-01  0.735702771739E+01
  0.149258565919E+03  0.766280000000E-01  0.735980329595E+01
  0.112400000000E+01  0.783440000000E-01 -0.416280000000E-01
  0.112400000000E+01  0.803370000000E-01 -0.396350000000E-01
  0.149258169635E+03  0.783440000000E-01  0.736508048173E+01
  0.149258020532E+03  0.803370000000E-01  0.736706602662E+01
  0.112400000000E+01  0.803370000000E-01 -0.396350000000E-01
  0.112400000000E+01  0.828490000000E-01 -0.383560000000E-01
  0.149258020532E+03  0.803370000000E-01  0.736706602662E+01
  0.149257924847E+03  0.828490000000E-01  0.736834024233E+01
  0.112400000000E+01  0.828490000000E-01 -0.383560000000E-01
  0.112400000000E+01  0.856350000000E-01 -0.379180000000E-01
  0.149257924847E+03  0.828490000000E-01  0.736834024233E+01
  0.149257892079E+03  0.856350000000E-01  0.736877660393E+01
  0.111220000000E+01  0.146540000000E+00 -0.422160000000E-01
  0.111220000000E+01  0.149320000000E+00 -0.417790000000E-01
  0.149264069485E+03  0.146540000000E+00  0.736537747425E+01
  0.149264036792E+03  0.149320000000E+00  0.736581283959E+01
  0.111220000000E+01  0.144030000000E+00 -0.434950000000E-01
  0.111220000000E+01  0.146540000000E+00 -0.422160000000E-01
  0.149264165171E+03  0.144030000000E+00  0.736410325854E+01
  0.149264069485E+03  0.146540000000E+00  0.736537747425E+01
  0.111220000000E+01  0.142030000000E+00 -0.454880000000E-01
  0.111220000000E+01  0.144030000000E+00 -0.434950000000E-01
  0.149264314273E+03  0.142030000000E+00  0.736211771365E+01
  0.149264165171E+03  0.144030000000E+00  0.736410325854E+01
  0.111220000000E+01  0.140750000000E+00 -0.479990000000E-01
  0.111220000000E+01  0.142030000000E+00 -0.454880000000E-01
  0.149264502128E+03  0.140750000000E+00  0.735961610642E+01
  0.149264314273E+03  0.142030000000E+00  0.736211771365E+01
  0.111220000000E+01  0.140750000000E+00 -0.535710000000E-01
  0.111220000000E+01  0.140320000000E+00 -0.507850000000E-01
  0.149264918986E+03  0.140750000000E+00  0.735406494931E+01
  0.149264710557E+03  0.140320000000E+00  0.735684052787E+01
  0.111220000000E+01  0.142030000000E+00 -0.560820000000E-01
  0.111220000000E+01  0.140750000000E+00 -0.535710000000E-01
  0.149265106842E+03  0.142030000000E+00  0.735156334208E+01
  0.149264918986E+03  0.140750000000E+00  0.735406494931E+01
  0.111220000000E+01  0.140320000000E+00 -0.507850000000E-01
  0.111220000000E+01  0.140750000000E+00 -0.479990000000E-01
  0.149264710557E+03  0.140320000000E+00  0.735684052787E+01
  0.149264502128E+03  0.140750000000E+00  0.735961610642E+01
  0.111220000000E+01  0.152110000000E+00 -0.593550000000E-01
  0.111220000000E+01  0.149320000000E+00 -0.597920000000E-01
  0.149265351704E+03  0.152110000000E+00  0.734830258522E+01
  0.149265384398E+03  0.149320000000E+00  0.734786721989E+01
  0.111220000000E+01  0.144030000000E+00 -0.580760000000E-01
  0.111220000000E+01  0.142030000000E+00 -0.560820000000E-01
  0.149265256019E+03  0.144030000000E+00  0.734957680094E+01
  0.149265106842E+03  0.142030000000E+00  0.735156334208E+01
  0.111220000000E+01  0.154620000000E+00 -0.580760000000E-01
  0.111220000000E+01  0.152110000000E+00 -0.593550000000E-01
  0.149265256019E+03  0.154620000000E+00  0.734957680094E+01
  0.149265351704E+03  0.152110000000E+00  0.734830258522E+01
  0.111220000000E+01  0.149320000000E+00 -0.597920000000E-01
  0.111220000000E+01  0.146540000000E+00 -0.593550000000E-01
  0.149265384398E+03  0.149320000000E+00  0.734786721989E+01
  0.149265351704E+03  0.146540000000E+00  0.734830258522E+01
  0.111220000000E+01  0.156610000000E+00 -0.560820000000E-01
  0.111220000000E+01  0.154620000000E+00 -0.580760000000E-01
  0.149265106842E+03  0.156610000000E+00  0.735156334208E+01
  0.149265256019E+03  0.154620000000E+00  0.734957680094E+01
  0.111220000000E+01  0.146540000000E+00 -0.593550000000E-01
  0.111220000000E+01  0.144030000000E+00 -0.580760000000E-01
  0.149265351704E+03  0.146540000000E+00  0.734830258522E+01
  0.149265256019E+03  0.144030000000E+00  0.734957680094E+01
  0.111220000000E+01  0.156610000000E+00 -0.454880000000E-01
  0.111220000000E+01  0.157890000000E+00 -0.479990000000E-01
  0.149264314273E+03  0.156610000000E+00  0.736211771365E+01
  0.149264502128E+03  0.157890000000E+00  0.735961610642E+01
  0.111220000000E+01  0.157890000000E+00 -0.535710000000E-01
  0.111220000000E+01  0.156610000000E+00 -0.560820000000E-01
  0.149264918986E+03  0.157890000000E+00  0.735406494931E+01
  0.149265106842E+03  0.156610000000E+00  0.735156334208E+01
  0.111220000000E+01  0.158330000000E+00 -0.507850000000E-01
  0.111220000000E+01  0.157890000000E+00 -0.535710000000E-01
  0.149264710557E+03  0.158330000000E+00  0.735684052787E+01
  0.149264918986E+03  0.157890000000E+00  0.735406494931E+01
  0.111220000000E+01  0.157890000000E+00 -0.479990000000E-01
  0.111220000000E+01  0.158330000000E+00 -0.507850000000E-01
  0.149264502128E+03  0.157890000000E+00  0.735961610642E+01
  0.149264710557E+03  0.158330000000E+00  0.735684052787E+01
  0.111220000000E+01  0.154620000000E+00 -0.434950000000E-01
  0.111220000000E+01  0.156610000000E+00 -0.454880000000E-01
  0.149264165171E+03  0.154620000000E+00  0.736410325854E+01
  0.149264314273E+03  0.156610000000E+00  0.736211771365E+01
  0.111220000000E+01  0.152110000000E+00 -0.422160000000E-01
  0.111220000000E+01  0.154620000000E+00 -0.434950000000E-01
  0.149264069485E+03  0.152110000000E+00  0.736537747425E+01
  0.149264165171E+03  0.154620000000E+00  0.736410325854E+01
  0.111220000000E+01  0.149320000000E+00 -0.417790000000E-01
[...]
POINT_DATA                 328
SCALARS mu float 1
LOOKUP_TABLE default
 -0.210195677991E-01
  0.000000000000E+00
 -0.210195677991E-01
  0.000000000000E+00
  0.497563362372E-02
  0.487164216685E-02
  0.497563362372E-02
  0.487164216685E-02
  0.487164216685E-02
  0.484774285834E-02
  0.487164216685E-02
  0.484774285834E-02
  0.509780307277E-02
  0.519382732295E-02
  0.509780307277E-02
  0.519382732295E-02
  0.484774285834E-02
  0.489403879609E-02
  0.484774285834E-02
  0.489403879609E-02
  0.498587877002E-02
  0.509780307277E-02
  0.498587877002E-02
  0.509780307277E-02
  0.519382732295E-02
  0.527609394897E-02
  0.519382732295E-02
  0.527609394897E-02
  0.527609394897E-02
  0.534367270963E-02
  0.527609394897E-02
  0.534367270963E-02
  0.489403879609E-02
  0.498587877002E-02
  0.489403879609E-02
  0.498587877002E-02
  0.534367270963E-02
  0.540586815261E-02
  0.534367270963E-02
  0.540586815261E-02
  0.540586815261E-02
  0.547458315072E-02
  0.540586815261E-02
  0.547458315072E-02
  0.547458315072E-02
  0.554084559958E-02
  0.547458315072E-02
  0.554084559958E-02
  0.561324754900E-02
  0.567740757968E-02
  0.561324754900E-02
  0.567740757968E-02
  0.554084559958E-02
  0.561324754900E-02
  0.554084559958E-02
  0.561324754900E-02
  0.567740757968E-02
  0.571659470682E-02
  0.567740757968E-02
  0.571659470682E-02
  0.571499858984E-02
  0.564399502358E-02
  0.571499858984E-02
  0.564399502358E-02
  0.564399502358E-02
  0.551236494598E-02
  0.564399502358E-02
  0.551236494598E-02
  0.571659470682E-02
  0.571499858984E-02
  0.571659470682E-02
  0.571499858984E-02
  0.551236494598E-02
  0.533157115912E-02
  0.551236494598E-02
  0.533157115912E-02
  0.533157115912E-02
  0.513764189897E-02
  0.533157115912E-02
  0.513764189897E-02
  0.513764189897E-02
  0.497563362372E-02
  0.513764189897E-02
  0.497563362372E-02
  0.412836587376E-02
  0.396264723194E-02
  0.412836587376E-02
  0.396264723194E-02
  0.434124044334E-02
  0.412836587376E-02
  0.434124044334E-02
  0.412836587376E-02
  0.455644773939E-02
  0.434124044334E-02
  0.455644773939E-02
  0.434124044334E-02
  0.474715516952E-02
  0.455644773939E-02
  0.474715516952E-02
  0.455644773939E-02
  0.494705728468E-02
  0.489515347382E-02
  0.494705728468E-02
  0.489515347382E-02
  0.494553842094E-02
  0.494705728468E-02
  0.494553842094E-02
  0.494705728468E-02
  0.489515347382E-02
  0.474715516952E-02
  0.489515347382E-02
  0.474715516952E-02
  0.458023078532E-02
  0.470390256495E-02
  0.458023078532E-02
  0.470390256495E-02
  0.489659946075E-02
  0.494553842094E-02
  0.489659946075E-02
  0.494553842094E-02
  0.445353115819E-02
  0.458023078532E-02
  0.445353115819E-02
  0.458023078532E-02
  0.470390256495E-02
  0.480759112620E-02
  0.470390256495E-02
  0.480759112620E-02
  0.432333108360E-02
  0.445353115819E-02
  0.432333108360E-02
  0.445353115819E-02
  0.480759112620E-02
  0.489659946075E-02
  0.480759112620E-02
  0.489659946075E-02
  0.385135091092E-02
  0.393361089300E-02
  0.385135091092E-02
  0.393361089300E-02
  0.418508336005E-02
  0.432333108360E-02
  0.418508336005E-02
  0.432333108360E-02
  0.405187250945E-02
  0.418508336005E-02
  0.405187250945E-02
  0.418508336005E-02
  0.393361089300E-02
  0.405187250945E-02
  0.393361089300E-02
  0.405187250945E-02
  0.381770333961E-02
  0.385135091092E-02
  0.381770333961E-02
  0.385135091092E-02
  0.385213225241E-02
  0.381770333961E-02
  0.385213225241E-02
  0.381770333961E-02
  0.396264723194E-02
  0.385213225241E-02
  0.396264723194E-02
  0.385213225241E-02
  0.000000000000E+00
  0.000000000000E+00
  0.000000000000E+00
  0.000000000000E+00
  0.000000000000E+00
  0.000000000000E+00
  0.000000000000E+00
  0.000000000000E+00
  0.000000000000E+00
  0.000000000000E+00
  0.000000000000E+00
  0.000000000000E+00
  0.000000000000E+00
  0.000000000000E+00
  0.000000000000E+00
  0.000000000000E+00
  0.000000000000E+00
  0.000000000000E+00
  0.000000000000E+00
  0.000000000000E+00
  0.000000000000E+00
  0.000000000000E+00
  0.000000000000E+00
  0.000000000000E+00
  0.252888347466E-04
  0.451283659454E-04
  0.252888347466E-04
  0.451283659454E-04
  0.000000000000E+00
  0.252888347466E-04
  0.000000000000E+00
  0.252888347466E-04
 -0.210195677991E-01
 -0.104759684100E-01
 -0.210195677991E-01
 -0.104759684100E-01
 -0.104759684100E-01
 -0.548317518104E-02
 -0.104759684100E-01
 -0.548317518104E-02
 -0.548317518104E-02
 -0.294036105736E-02
 -0.548317518104E-02
 -0.294036105736E-02
 -0.294036105736E-02
 -0.138578718168E-02
 -0.294036105736E-02
 -0.138578718168E-02
 -0.138578718168E-02
  0.000000000000E+00
 -0.138578718168E-02
  0.000000000000E+00
  0.000000000000E+00
  0.724878162189E-02
  0.000000000000E+00
  0.724878162189E-02
  0.724878162189E-02
  0.109004465613E-01
  0.724878162189E-02
  0.109004465613E-01
  0.109004465613E-01
  0.130083953316E-01
  0.109004465613E-01
  0.130083953316E-01
  0.130083953316E-01
  0.140542833741E-01
  0.130083953316E-01
  0.140542833741E-01
  0.140542833741E-01
  0.147027607314E-01
  0.140542833741E-01
  0.147027607314E-01
  0.147027607314E-01
  0.152017232026E-01
  0.147027607314E-01
  0.152017232026E-01
  0.152017232026E-01
  0.152737118614E-01
  0.152017232026E-01
  0.152737118614E-01
  0.152737118614E-01
  0.151039746949E-01
  0.152737118614E-01
  0.151039746949E-01
  0.151039746949E-01
  0.149856012537E-01
  0.151039746949E-01
  0.149856012537E-01
  0.149217817521E-01
  0.147426210013E-01
  0.149217817521E-01
  0.147426210013E-01
  0.147426210013E-01
  0.141158662163E-01
  0.147426210013E-01
  0.141158662163E-01
  0.141158662163E-01
  0.135543984707E-01
  0.141158662163E-01
  0.135543984707E-01
  0.135543984707E-01
  0.124756860644E-01
  0.135543984707E-01
  0.124756860644E-01
  0.124756860644E-01
  0.114886599697E-01
  0.124756860644E-01
  0.114886599697E-01
  0.114886599697E-01
  0.101165504084E-01
  0.114886599697E-01
  0.101165504084E-01
  0.101165504084E-01
  0.866926432778E-02
  0.101165504084E-01
  0.866926432778E-02
  0.866926432778E-02
  0.672937146468E-02
  0.866926432778E-02
  0.672937146468E-02
  0.672937146468E-02
  0.404661612254E-02
  0.672937146468E-02
  0.404661612254E-02
  0.404661612254E-02
 -0.353395419412E-07
  0.404661612254E-02
 -0.353395419412E-07
 -0.444134626790E-04
 -0.783157479833E-04
 -0.444134626790E-04
 -0.783157479833E-04
  0.000000000000E+00
 -0.282653852692E-05
  0.000000000000E+00
 -0.282653852692E-05
 -0.183927051485E-04
 -0.444134626790E-04
 -0.183927051485E-04
 -0.444134626790E-04
 -0.783157479833E-04
 -0.122965045280E-03
 -0.783157479833E-04
 -0.122965045280E-03
 -0.176274970073E-03
 -0.228817861506E-03
 -0.176274970073E-03
 -0.228817861506E-03
 -0.122965045280E-03
 -0.176274970073E-03
 -0.122965045280E-03
 -0.176274970073E-03
 -0.228817861506E-03
 -0.353395419412E-07
 -0.228817861506E-03
 -0.353395419412E-07
 -0.282653852692E-05
 -0.183927051485E-04
 -0.282653852692E-05
 -0.183927051485E-04
  0.149856012537E-01
  0.149217817521E-01
  0.149856012537E-01
  0.149217817521E-01
