# vtk DataFile Version 3.0
MachLine results file. Generated by MachLine, USU AeroLab (c) 2022.
ASCII
DATASET POLYDATA
POINTS                 664 float
  0.146090000000E+01  0.154250000000E-01  0.405880000000E-01
  0.146920000000E+01  0.569530000000E-02  0.393580000000E-01
  0.148540794137E+03  0.301329894137E-01  0.147485774137E+02
  0.148536951523E+03  0.204020751523E-01  0.147461331523E+02
  0.146920000000E+01 -0.569530000000E-02  0.393580000000E-01
  0.146090000000E+01 -0.154250000000E-01  0.405880000000E-01
  0.148536953215E+03  0.901147532146E-02  0.147461333215E+02
  0.148540798719E+03 -0.717010128115E-03  0.147485778719E+02
  0.112400000000E+01  0.884200000000E-01 -0.383560000000E-01
  0.112400000000E+01  0.909320000000E-01 -0.396350000000E-01
  0.148715954182E+03  0.103179195418E+00  0.147208394182E+02
  0.148716143760E+03  0.105691214376E+00  0.147195793760E+02
  0.112400000000E+01 -0.909320000000E-01 -0.396350000000E-01
  0.112400000000E+01 -0.884200000000E-01 -0.383560000000E-01
  0.148716170769E+03 -0.761727829231E-01  0.147195820769E+02
  0.148715980446E+03 -0.736608019554E-01  0.147208420446E+02
  0.112400000000E+01  0.856350000000E-01 -0.379180000000E-01
  0.112400000000E+01  0.884200000000E-01 -0.383560000000E-01
  0.148715889546E+03  0.100394188955E+00  0.147212709546E+02
  0.148715954182E+03  0.103179195418E+00  0.147208394182E+02
  0.112400000000E+01 -0.884200000000E-01 -0.383560000000E-01
  0.112400000000E+01 -0.856350000000E-01 -0.379180000000E-01
  0.148715980446E+03 -0.736608019554E-01  0.147208420446E+02
  0.148715914983E+03 -0.708758085017E-01  0.147212734983E+02
  0.112400000000E+01  0.909320000000E-01 -0.396350000000E-01
  0.112400000000E+01  0.929250000000E-01 -0.416280000000E-01
  0.148716143760E+03  0.105691214376E+00  0.147195793760E+02
  0.148716439454E+03  0.107684243945E+00  0.147176159454E+02
  0.112400000000E+01 -0.929250000000E-01 -0.416280000000E-01
  0.112400000000E+01 -0.909320000000E-01 -0.396350000000E-01
  0.148716467055E+03 -0.781657532945E-01  0.147176187055E+02
  0.148716170769E+03 -0.761727829231E-01  0.147195820769E+02
  0.112400000000E+01  0.929250000000E-01 -0.416280000000E-01
  0.112400000000E+01  0.942040000000E-01 -0.441390000000E-01
  0.148716439454E+03  0.107684243945E+00  0.147176159454E+02
  0.148716812185E+03  0.108963281218E+00  0.147151422185E+02
  0.112400000000E+01 -0.942040000000E-01 -0.441390000000E-01
  0.112400000000E+01 -0.929250000000E-01 -0.416280000000E-01
  0.148716840166E+03 -0.794447159834E-01  0.147151450166E+02
  0.148716467055E+03 -0.781657532945E-01  0.147176187055E+02
  0.112400000000E+01  0.929250000000E-01 -0.522230000000E-01
  0.112400000000E+01  0.909320000000E-01 -0.542160000000E-01
  0.148718012969E+03  0.107684401297E+00  0.147071782969E+02
  0.148718309255E+03  0.105691430925E+00  0.147052149255E+02
  0.112400000000E+01 -0.909320000000E-01 -0.542160000000E-01
  0.112400000000E+01 -0.929250000000E-01 -0.522230000000E-01
  0.148718336264E+03 -0.761725663736E-01  0.147052176264E+02
  0.148718040570E+03 -0.781655959430E-01  0.147071810570E+02
  0.112400000000E+01  0.942040000000E-01 -0.497110000000E-01
  0.112400000000E+01  0.929250000000E-01 -0.522230000000E-01
  0.148717639709E+03  0.108963363971E+00  0.147096529709E+02
  0.148718012969E+03  0.107684401297E+00  0.147071782969E+02
  0.112400000000E+01 -0.929250000000E-01 -0.522230000000E-01
  0.112400000000E+01 -0.942040000000E-01 -0.497110000000E-01
  0.148718040570E+03 -0.781655959430E-01  0.147071810570E+02
  0.148717667691E+03 -0.794446332309E-01  0.147096557691E+02
  0.112400000000E+01  0.942040000000E-01 -0.441390000000E-01
  0.112400000000E+01  0.946410000000E-01 -0.469250000000E-01
  0.148716812185E+03  0.108963281218E+00  0.147151422185E+02
  0.148717225882E+03  0.109400322588E+00  0.147123975882E+02
  0.112400000000E+01 -0.946410000000E-01 -0.469250000000E-01
  0.112400000000E+01 -0.942040000000E-01 -0.441390000000E-01
  0.148717253993E+03 -0.798816746007E-01  0.147124003993E+02
  0.148716840166E+03 -0.794447159834E-01  0.147151450166E+02
  0.112400000000E+01  0.946410000000E-01 -0.469250000000E-01
  0.112400000000E+01  0.942040000000E-01 -0.497110000000E-01
  0.148717225882E+03  0.109400322588E+00  0.147123975882E+02
  0.148717639709E+03  0.108963363971E+00  0.147096529709E+02
  0.112400000000E+01 -0.942040000000E-01 -0.497110000000E-01
  0.112400000000E+01 -0.946410000000E-01 -0.469250000000E-01
  0.148717667691E+03 -0.794446332309E-01  0.147096557691E+02
  0.148717253993E+03 -0.798816746007E-01  0.147124003993E+02
  0.112400000000E+01  0.884200000000E-01 -0.554950000000E-01
  0.112400000000E+01  0.856350000000E-01 -0.559320000000E-01
  0.148718499578E+03  0.103179449958E+00  0.147039549578E+02
  0.148718564893E+03  0.100394456489E+00  0.147035244893E+02
  0.112400000000E+01 -0.856350000000E-01 -0.559320000000E-01
  0.112400000000E+01 -0.884200000000E-01 -0.554950000000E-01
  0.148718590329E+03 -0.708755409671E-01  0.147035270329E+02
  0.148718525842E+03 -0.736605474158E-01  0.147039575842E+02
  0.112400000000E+01  0.803370000000E-01 -0.542160000000E-01
  0.112400000000E+01  0.783440000000E-01 -0.522230000000E-01
  0.148718310828E+03  0.950964310828E-01  0.147052150828E+02
  0.148718015134E+03  0.931034015134E-01  0.147071785134E+02
  0.112400000000E+01 -0.783440000000E-01 -0.522230000000E-01
  0.112400000000E+01 -0.803370000000E-01 -0.542160000000E-01
  0.148718038405E+03 -0.635845961595E-01  0.147071808405E+02
  0.148718334691E+03 -0.655775665309E-01  0.147052174691E+02
  0.112400000000E+01  0.856350000000E-01 -0.559320000000E-01
  0.112400000000E+01  0.828490000000E-01 -0.554950000000E-01
  0.148718564893E+03  0.100394456489E+00  0.147035244893E+02
  0.148718500406E+03  0.976084500406E-01  0.147039550406E+02
  0.112400000000E+01 -0.828490000000E-01 -0.554950000000E-01
  0.112400000000E+01 -0.856350000000E-01 -0.559320000000E-01
  0.148718525014E+03 -0.680895474986E-01  0.147039575014E+02
  0.148718590329E+03 -0.708755409671E-01  0.147035270329E+02
  0.112400000000E+01  0.828490000000E-01 -0.554950000000E-01
  0.112400000000E+01  0.803370000000E-01 -0.542160000000E-01
  0.148718500406E+03  0.976084500406E-01  0.147039550406E+02
  0.148718310828E+03  0.950964310828E-01  0.147052150828E+02
  0.112400000000E+01 -0.803370000000E-01 -0.542160000000E-01
  0.112400000000E+01 -0.828490000000E-01 -0.554950000000E-01
  0.148718334691E+03 -0.655775665309E-01  0.147052174691E+02
  0.148718525014E+03 -0.680895474986E-01  0.147039575014E+02
  0.112400000000E+01  0.770650000000E-01 -0.497110000000E-01
  0.112400000000E+01  0.766280000000E-01 -0.469250000000E-01
  0.148717642255E+03  0.918243642255E-01  0.147096532255E+02
  0.148717228557E+03  0.913873228557E-01  0.147123978557E+02
  0.112400000000E+01 -0.766280000000E-01 -0.469250000000E-01
  0.112400000000E+01 -0.770650000000E-01 -0.497110000000E-01
  0.148717251318E+03 -0.618686748682E-01  0.147124001318E+02
  0.148717665145E+03 -0.623056334855E-01  0.147096555145E+02
  0.112400000000E+01  0.766280000000E-01 -0.469250000000E-01
  0.112400000000E+01  0.770650000000E-01 -0.441390000000E-01
  0.148717228557E+03  0.913873228557E-01  0.147123978557E+02
  0.148716814730E+03  0.918242814730E-01  0.147151424730E+02
  0.112400000000E+01 -0.770650000000E-01 -0.441390000000E-01
  0.112400000000E+01 -0.766280000000E-01 -0.469250000000E-01
  0.148716837621E+03 -0.623057162379E-01  0.147151447621E+02
  0.148717251318E+03 -0.618686748682E-01  0.147124001318E+02
  0.112400000000E+01  0.828490000000E-01 -0.383560000000E-01
  0.112400000000E+01  0.856350000000E-01 -0.379180000000E-01
  0.148715955010E+03  0.976081955010E-01  0.147208395010E+02
  0.148715889546E+03  0.100394188955E+00  0.147212709546E+02
  0.112400000000E+01 -0.856350000000E-01 -0.379180000000E-01
  0.112400000000E+01 -0.828490000000E-01 -0.383560000000E-01
  0.148715914983E+03 -0.708758085017E-01  0.147212734983E+02
  0.148715979618E+03 -0.680898020382E-01  0.147208419618E+02
  0.112400000000E+01  0.909320000000E-01 -0.542160000000E-01
  0.112400000000E+01  0.884200000000E-01 -0.554950000000E-01
  0.148718309255E+03  0.105691430925E+00  0.147052149255E+02
  0.148718499578E+03  0.103179449958E+00  0.147039549578E+02
  0.112400000000E+01 -0.884200000000E-01 -0.554950000000E-01
  0.112400000000E+01 -0.909320000000E-01 -0.542160000000E-01
  0.148718525842E+03 -0.736605474158E-01  0.147039575842E+02
  0.148718336264E+03 -0.761725663736E-01  0.147052176264E+02
  0.112400000000E+01  0.783440000000E-01 -0.522230000000E-01
  0.112400000000E+01  0.770650000000E-01 -0.497110000000E-01
  0.148718015134E+03  0.931034015134E-01  0.147071785134E+02
  0.148717642255E+03  0.918243642255E-01  0.147096532255E+02
  0.112400000000E+01 -0.770650000000E-01 -0.497110000000E-01
  0.112400000000E+01 -0.783440000000E-01 -0.522230000000E-01
  0.148717665145E+03 -0.623056334855E-01  0.147096555145E+02
  0.148718038405E+03 -0.635845961595E-01  0.147071808405E+02
  0.112400000000E+01  0.783440000000E-01 -0.416280000000E-01
  0.112400000000E+01  0.803370000000E-01 -0.396350000000E-01
  0.148716441619E+03  0.931032441619E-01  0.147176161619E+02
  0.148716145333E+03  0.950962145333E-01  0.147195795333E+02
  0.112400000000E+01 -0.803370000000E-01 -0.396350000000E-01
  0.112400000000E+01 -0.783440000000E-01 -0.416280000000E-01
  0.148716169196E+03 -0.655777830804E-01  0.147195819196E+02
  0.148716464890E+03 -0.635847535110E-01  0.147176184890E+02
  0.112400000000E+01  0.803370000000E-01 -0.396350000000E-01
  0.112400000000E+01  0.828490000000E-01 -0.383560000000E-01
  0.148716145333E+03  0.950962145333E-01  0.147195795333E+02
  0.148715955010E+03  0.976081955010E-01  0.147208395010E+02
  0.112400000000E+01 -0.828490000000E-01 -0.383560000000E-01
  0.112400000000E+01 -0.803370000000E-01 -0.396350000000E-01
  0.148715979618E+03 -0.680898020382E-01  0.147208419618E+02
  0.148716169196E+03 -0.655777830804E-01  0.147195819196E+02
  0.112400000000E+01  0.770650000000E-01 -0.441390000000E-01
[...]
POINT_DATA                 664
SCALARS mu float 1
LOOKUP_TABLE default
  0.335137541807E-06
  0.000000000000E+00
  0.335137541807E-06
  0.000000000000E+00
  0.000000000000E+00
  0.329324617939E-06
  0.000000000000E+00
  0.329324617939E-06
 -0.251604558353E-02
 -0.257317084043E-02
 -0.251604558353E-02
 -0.257317084043E-02
 -0.269722228693E-02
 -0.266462167332E-02
 -0.269722228693E-02
 -0.266462167332E-02
 -0.228839172743E-02
 -0.251604558353E-02
 -0.228839172743E-02
 -0.251604558353E-02
 -0.266462167332E-02
 -0.246353884447E-02
 -0.266462167332E-02
 -0.246353884447E-02
 -0.257317084043E-02
 -0.246961752572E-02
 -0.257317084043E-02
 -0.246961752572E-02
 -0.257698745547E-02
 -0.269722228693E-02
 -0.257698745547E-02
 -0.269722228693E-02
 -0.246961752572E-02
 -0.224749809556E-02
 -0.246961752572E-02
 -0.224749809556E-02
 -0.234677865917E-02
 -0.257698745547E-02
 -0.234677865917E-02
 -0.257698745547E-02
 -0.139370111855E-02
 -0.115619605568E-02
 -0.139370111855E-02
 -0.115619605568E-02
 -0.125798576057E-02
 -0.149337968684E-02
 -0.125798576057E-02
 -0.149337968684E-02
 -0.166724263347E-02
 -0.139370111855E-02
 -0.166724263347E-02
 -0.139370111855E-02
 -0.149337968684E-02
 -0.176517675274E-02
 -0.149337968684E-02
 -0.176517675274E-02
 -0.224749809556E-02
 -0.195888808753E-02
 -0.224749809556E-02
 -0.195888808753E-02
 -0.205605292042E-02
 -0.234677865917E-02
 -0.205605292042E-02
 -0.234677865917E-02
 -0.195888808753E-02
 -0.166724263347E-02
 -0.195888808753E-02
 -0.166724263347E-02
 -0.176517675274E-02
 -0.205605292042E-02
 -0.176517675274E-02
 -0.205605292042E-02
 -0.955567618213E-03
 -0.784599815270E-03
 -0.955567618213E-03
 -0.784599815270E-03
 -0.893164837006E-03
 -0.106009540950E-02
 -0.893164837006E-03
 -0.106009540950E-02
 -0.552362686269E-03
 -0.495557727520E-03
 -0.552362686269E-03
 -0.495557727520E-03
 -0.631550210121E-03
 -0.676041908752E-03
 -0.631550210121E-03
 -0.676041908752E-03
 -0.784599815270E-03
 -0.653409710087E-03
 -0.784599815270E-03
 -0.653409710087E-03
 -0.768107723103E-03
 -0.893164837006E-03
 -0.768107723103E-03
 -0.893164837006E-03
 -0.653409710087E-03
 -0.552362686269E-03
 -0.653409710087E-03
 -0.552362686269E-03
 -0.676041908752E-03
 -0.768107723103E-03
 -0.676041908752E-03
 -0.768107723103E-03
 -0.501321246958E-03
 -0.590009375423E-03
 -0.501321246958E-03
 -0.590009375423E-03
 -0.759434338367E-03
 -0.652913735119E-03
 -0.759434338367E-03
 -0.652913735119E-03
 -0.590009375423E-03
 -0.795923155390E-03
 -0.590009375423E-03
 -0.795923155390E-03
 -0.982899187170E-03
 -0.759434338367E-03
 -0.982899187170E-03
 -0.759434338367E-03
 -0.193265132151E-02
 -0.228839172743E-02
 -0.193265132151E-02
 -0.228839172743E-02
 -0.246353884447E-02
 -0.212821930273E-02
 -0.246353884447E-02
 -0.212821930273E-02
 -0.115619605568E-02
 -0.955567618213E-03
 -0.115619605568E-02
 -0.955567618213E-03
 -0.106009540950E-02
 -0.125798576057E-02
 -0.106009540950E-02
 -0.125798576057E-02
 -0.495557727520E-03
 -0.501321246958E-03
 -0.495557727520E-03
 -0.501321246958E-03
 -0.652913735119E-03
 -0.631550210121E-03
 -0.652913735119E-03
 -0.631550210121E-03
 -0.111115528816E-02
 -0.151184824639E-02
 -0.111115528816E-02
 -0.151184824639E-02
 -0.171597678044E-02
 -0.131130536642E-02
 -0.171597678044E-02
 -0.131130536642E-02
 -0.151184824639E-02
 -0.193265132151E-02
 -0.151184824639E-02
 -0.193265132151E-02
 -0.212821930273E-02
 -0.171597678044E-02
 -0.212821930273E-02
 -0.171597678044E-02
 -0.795923155390E-03
 -0.111115528816E-02
 -0.795923155390E-03
 -0.111115528816E-02
 -0.131130536642E-02
 -0.982899187170E-03
 -0.131130536642E-02
 -0.982899187170E-03
 -0.332966969356E-02
 -0.361045196566E-02
 -0.332966969356E-02
 -0.361045196566E-02
 -0.386273599390E-02
 -0.354028821040E-02
 -0.386273599390E-02
 -0.354028821040E-02
 -0.361045196566E-02
 -0.375218647733E-02
 -0.361045196566E-02
 -0.375218647733E-02
 -0.404705577372E-02
 -0.386273599390E-02
 -0.404705577372E-02
 -0.386273599390E-02
 -0.296844024002E-02
 -0.332966969356E-02
 -0.296844024002E-02
 -0.332966969356E-02
 -0.354028821040E-02
 -0.314513638167E-02
 -0.354028821040E-02
 -0.314513638167E-02
 -0.171389889749E-02
 -0.192499133075E-02
 -0.171389889749E-02
 -0.192499133075E-02
 -0.206110888492E-02
 -0.185133544459E-02
 -0.206110888492E-02
 -0.185133544459E-02
 -0.158077975061E-02
 -0.171389889749E-02
 -0.158077975061E-02
 -0.171389889749E-02
 -0.185133544459E-02
 -0.172431673780E-02
 -0.185133544459E-02
 -0.172431673780E-02
 -0.154426199449E-02
 -0.153008937831E-02
 -0.154426199449E-02
 -0.153008937831E-02
 -0.168390410571E-02
 -0.171244049215E-02
 -0.168390410571E-02
 -0.171244049215E-02
 -0.220522897772E-02
 -0.257845864669E-02
 -0.220522897772E-02
 -0.257845864669E-02
 -0.273208946173E-02
 -0.234608892782E-02
 -0.273208946173E-02
 -0.234608892782E-02
 -0.257845864669E-02
 -0.296844024002E-02
 -0.257845864669E-02
 -0.296844024002E-02
 -0.314513638167E-02
 -0.273208946173E-02
 -0.314513638167E-02
 -0.273208946173E-02
 -0.153008937831E-02
 -0.158077975061E-02
 -0.153008937831E-02
 -0.158077975061E-02
 -0.172431673780E-02
 -0.168390410571E-02
 -0.172431673780E-02
 -0.168390410571E-02
 -0.163487666491E-02
 -0.154426199449E-02
 -0.163487666491E-02
 -0.154426199449E-02
 -0.171244049215E-02
 -0.182174192421E-02
 -0.171244049215E-02
 -0.182174192421E-02
 -0.200888152745E-02
 -0.178915222467E-02
 -0.200888152745E-02
 -0.178915222467E-02
 -0.199917011922E-02
 -0.224643428810E-02
 -0.199917011922E-02
 -0.224643428810E-02
 -0.178915222467E-02
 -0.163487666491E-02
 -0.178915222467E-02
 -0.163487666491E-02
 -0.182174192421E-02
 -0.199917011922E-02
 -0.182174192421E-02
 -0.199917011922E-02
 -0.192499133075E-02
 -0.220522897772E-02
 -0.192499133075E-02
 -0.220522897772E-02
 -0.234608892782E-02
 -0.206110888492E-02
 -0.234608892782E-02
 -0.206110888492E-02
 -0.229596745186E-02
 -0.200888152745E-02
 -0.229596745186E-02
 -0.200888152745E-02
 -0.224643428810E-02
 -0.256460114411E-02
 -0.224643428810E-02
 -0.256460114411E-02
 -0.331850766442E-02
 -0.298455041237E-02
 -0.331850766442E-02
 -0.298455041237E-02
 -0.331400319604E-02
 -0.366604746691E-02
 -0.331400319604E-02
 -0.366604746691E-02
 -0.358956744879E-02
 -0.331850766442E-02
 -0.358956744879E-02
 -0.331850766442E-02
 -0.366604746691E-02
 -0.393801435161E-02
 -0.366604746691E-02
 -0.393801435161E-02
 -0.262938540158E-02
 -0.229596745186E-02
 -0.262938540158E-02
 -0.229596745186E-02
 -0.256460114411E-02
 -0.293024219818E-02
 -0.256460114411E-02
 -0.293024219818E-02
 -0.298455041237E-02
 -0.262938540158E-02
 -0.298455041237E-02
 -0.262938540158E-02
 -0.293024219818E-02
 -0.331400319604E-02
 -0.293024219818E-02
 -0.331400319604E-02
 -0.375218647733E-02
 -0.374635859924E-02
 -0.375218647733E-02
 -0.374635859924E-02
 -0.407601513848E-02
 -0.404705577372E-02
 -0.407601513848E-02
 -0.404705577372E-02
 -0.374635859924E-02
 -0.358956744879E-02
 -0.374635859924E-02
 -0.358956744879E-02
 -0.393801435161E-02
 -0.407601513848E-02
 -0.393801435161E-02
 -0.407601513848E-02
  0.000000000000E+00
  0.000000000000E+00
  0.000000000000E+00
  0.000000000000E+00
  0.000000000000E+00
  0.000000000000E+00
  0.000000000000E+00
  0.000000000000E+00
  0.261775332314E-09
  0.000000000000E+00
  0.261775332314E-09
  0.000000000000E+00
  0.000000000000E+00
  0.261775332314E-09
  0.000000000000E+00
  0.261775332314E-09
  0.000000000000E+00
  0.000000000000E+00
  0.000000000000E+00
  0.000000000000E+00
  0.000000000000E+00
  0.000000000000E+00
  0.000000000000E+00
  0.000000000000E+00
  0.696678196541E-04
  0.130452085603E-03
  0.696678196541E-04
  0.130452085603E-03
  0.130452085603E-03
  0.711948761258E-04
  0.130452085603E-03
  0.711948761258E-04
  0.000000000000E+00
  0.696678196541E-04
  0.000000000000E+00
  0.696678196541E-04
  0.711948761258E-04
  0.000000000000E+00
  0.711948761258E-04
  0.000000000000E+00
  0.335137541807E-06
  0.460262911892E-02
  0.335137541807E-06
  0.460262911892E-02
  0.446951075110E-02
  0.329324617939E-06
  0.446951075110E-02
  0.329324617939E-06
  0.460262911892E-02
  0.515214026170E-02
  0.460262911892E-02
  0.515214026170E-02
  0.483112744612E-02
  0.446951075110E-02
  0.483112744612E-02
  0.446951075110E-02
  0.515214026170E-02
  0.390510801806E-02
  0.515214026170E-02
  0.390510801806E-02
  0.363553881201E-02
  0.483112744612E-02
  0.363553881201E-02
  0.483112744612E-02
  0.390510801806E-02
  0.206953494017E-02
  0.390510801806E-02
  0.206953494017E-02
  0.179956351005E-02
  0.363553881201E-02
  0.179956351005E-02
  0.363553881201E-02
  0.206953494017E-02
  0.000000000000E+00
  0.206953494017E-02
  0.000000000000E+00
  0.000000000000E+00
  0.179956351005E-02
  0.000000000000E+00
  0.179956351005E-02
  0.000000000000E+00
  0.147246680171E-01
  0.000000000000E+00
  0.147246680171E-01
  0.152449196091E-01
  0.000000000000E+00
  0.152449196091E-01
  0.000000000000E+00
  0.147246680171E-01
  0.222682459641E-01
  0.147246680171E-01
  0.222682459641E-01
  0.233270087716E-01
  0.152449196091E-01
  0.233270087716E-01
  0.152449196091E-01
  0.222682459641E-01
  0.270423667904E-01
  0.222682459641E-01
  0.270423667904E-01
  0.277615580023E-01
  0.233270087716E-01
  0.277615580023E-01
  0.233270087716E-01
  0.270423667904E-01
  0.294627062580E-01
  0.270423667904E-01
  0.294627062580E-01
  0.301447457109E-01
  0.277615580023E-01
  0.301447457109E-01
  0.277615580023E-01
  0.294627062580E-01
  0.311155258229E-01
  0.294627062580E-01
  0.311155258229E-01
  0.310869931041E-01
  0.301447457109E-01
  0.310869931041E-01
  0.301447457109E-01
  0.311155258229E-01
  0.320451449920E-01
  0.311155258229E-01
  0.320451449920E-01
  0.318571631968E-01
  0.310869931041E-01
  0.318571631968E-01
  0.310869931041E-01
  0.320451449920E-01
  0.324490719555E-01
  0.320451449920E-01
  0.324490719555E-01
  0.323600888140E-01
  0.318571631968E-01
  0.323600888140E-01
  0.318571631968E-01
  0.324490719555E-01
  0.319186203403E-01
  0.324490719555E-01
  0.319186203403E-01
  0.325525913415E-01
  0.323600888140E-01
  0.325525913415E-01
  0.323600888140E-01
  0.319186203403E-01
  0.314650011069E-01
  0.319186203403E-01
  0.314650011069E-01
  0.321618649817E-01
  0.325525913415E-01
  0.321618649817E-01
  0.325525913415E-01
  0.305770711387E-01
  0.291595575266E-01
  0.305770711387E-01
  0.291595575266E-01
  0.304155675376E-01
  0.321399845285E-01
  0.304155675376E-01
  0.321399845285E-01
  0.291595575266E-01
  0.285055889791E-01
  0.291595575266E-01
  0.285055889791E-01
  0.292190329021E-01
  0.304155675376E-01
  0.292190329021E-01
  0.304155675376E-01
  0.285055889791E-01
  0.279008904122E-01
  0.285055889791E-01
  0.279008904122E-01
  0.276511530363E-01
  0.292190329021E-01
  0.276511530363E-01
  0.292190329021E-01
  0.279008904122E-01
  0.260999036021E-01
  0.279008904122E-01
  0.260999036021E-01
  0.256570948121E-01
  0.276511530363E-01
  0.256570948121E-01
  0.276511530363E-01
  0.260999036021E-01
  0.236930127504E-01
  0.260999036021E-01
  0.236930127504E-01
  0.247927226644E-01
  0.256570948121E-01
  0.247927226644E-01
  0.256570948121E-01
  0.236930127504E-01
  0.208265483440E-01
  0.236930127504E-01
  0.208265483440E-01
  0.216828734160E-01
  0.247927226644E-01
  0.216828734160E-01
  0.247927226644E-01
  0.208265483440E-01
  0.180295344612E-01
  0.208265483440E-01
  0.180295344612E-01
  0.186677369045E-01
  0.216828734160E-01
  0.186677369045E-01
  0.216828734160E-01
  0.180295344612E-01
  0.140727123045E-01
  0.180295344612E-01
  0.140727123045E-01
  0.144736275661E-01
  0.186677369045E-01
  0.144736275661E-01
  0.186677369045E-01
  0.140727123045E-01
  0.868428791523E-02
  0.140727123045E-01
  0.868428791523E-02
  0.850752056584E-02
  0.144736275661E-01
  0.850752056584E-02
  0.144736275661E-01
  0.868428791523E-02
  0.153750256584E-06
  0.868428791523E-02
  0.153750256584E-06
  0.209363946316E-06
  0.850752056584E-02
  0.209363946316E-06
  0.850752056584E-02
  0.000000000000E+00
  0.211595538597E-03
  0.000000000000E+00
  0.211595538597E-03
  0.213853531534E-03
  0.000000000000E+00
  0.213853531534E-03
  0.000000000000E+00
  0.542927281350E-03
  0.692289899494E-03
  0.542927281350E-03
  0.692289899494E-03
  0.695110345447E-03
  0.543002028037E-03
  0.695110345447E-03
  0.543002028037E-03
  0.211595538597E-03
  0.388442464661E-03
  0.211595538597E-03
  0.388442464661E-03
  0.389198545599E-03
  0.213853531534E-03
  0.389198545599E-03
  0.213853531534E-03
  0.101132433441E-02
  0.109950437088E-02
  0.101132433441E-02
  0.109950437088E-02
  0.110718632418E-02
  0.101765937225E-02
  0.110718632418E-02
  0.101765937225E-02
  0.388442464661E-03
  0.542927281350E-03
  0.388442464661E-03
  0.542927281350E-03
  0.543002028037E-03
  0.389198545599E-03
  0.543002028037E-03
  0.389198545599E-03
  0.692289899494E-03
  0.818969730719E-03
  0.692289899494E-03
  0.818969730719E-03
  0.821446373095E-03
  0.695110345447E-03
  0.821446373095E-03
  0.695110345447E-03
  0.917991296000E-03
  0.101132433441E-02
  0.917991296000E-03
  0.101132433441E-02
  0.101765937225E-02
  0.925202132580E-03
  0.101765937225E-02
  0.925202132580E-03
  0.120321080602E-02
  0.116881233551E-02
  0.120321080602E-02
  0.116881233551E-02
  0.122576228104E-02
  0.121947376303E-02
  0.122576228104E-02
  0.121947376303E-02
  0.116881233551E-02
  0.153750256584E-06
  0.116881233551E-02
  0.153750256584E-06
  0.209363946316E-06
  0.122576228104E-02
  0.209363946316E-06
  0.122576228104E-02
  0.818969730719E-03
  0.917991296000E-03
  0.818969730719E-03
  0.917991296000E-03
  0.925202132580E-03
  0.821446373095E-03
  0.925202132580E-03
  0.821446373095E-03
  0.115300495823E-02
  0.120321080602E-02
  0.115300495823E-02
  0.120321080602E-02
  0.121947376303E-02
  0.117278680222E-02
  0.121947376303E-02
  0.117278680222E-02
  0.109950437088E-02
  0.115300495823E-02
  0.109950437088E-02
  0.115300495823E-02
  0.117278680222E-02
  0.110718632418E-02
  0.117278680222E-02
  0.110718632418E-02
  0.314650011069E-01
  0.305770711387E-01
  0.314650011069E-01
  0.305770711387E-01
  0.321399845285E-01
  0.321618649817E-01
  0.321399845285E-01
  0.321618649817E-01
