# vtk DataFile Version 3.0
MachLine results file. Generated by MachLine, USU AeroLab (c) 2022.
ASCII
DATASET POLYDATA
POINTS                 170 float
  0.108560000000E+01  0.278310000000E-01 -0.165140000000E-01
  0.998787647606E+02  0.278310000000E-01  0.492314423803E+01
  0.146920000000E+01  0.569530000000E-02  0.393580000000E-01
  0.998769347357E+02  0.569530000000E-02  0.495974473678E+01
  0.112400000000E+01  0.856350000000E-01 -0.379180000000E-01
  0.998799280524E+02  0.856350000000E-01  0.489987840262E+01
  0.112400000000E+01  0.884200000000E-01 -0.383560000000E-01
  0.998799498978E+02  0.884200000000E-01  0.489944149489E+01
  0.112400000000E+01  0.909320000000E-01 -0.396350000000E-01
  0.998800136883E+02  0.909320000000E-01  0.489816568441E+01
  0.112400000000E+01  0.929250000000E-01 -0.416280000000E-01
  0.998801130898E+02  0.929250000000E-01  0.489617765449E+01
  0.112400000000E+01  0.942040000000E-01 -0.441390000000E-01
  0.998802383267E+02  0.942040000000E-01  0.489367291633E+01
  0.112400000000E+01  0.946410000000E-01 -0.469250000000E-01
  0.998803772793E+02  0.946410000000E-01  0.489089386397E+01
  0.112400000000E+01  0.942040000000E-01 -0.497110000000E-01
  0.998805162319E+02  0.942040000000E-01  0.488811481160E+01
  0.112400000000E+01  0.929250000000E-01 -0.522230000000E-01
  0.998806415187E+02  0.929250000000E-01  0.488560907594E+01
  0.112400000000E+01  0.909320000000E-01 -0.542160000000E-01
  0.998807409202E+02  0.909320000000E-01  0.488362104601E+01
  0.112400000000E+01  0.884200000000E-01 -0.554950000000E-01
  0.998808047107E+02  0.884200000000E-01  0.488234523554E+01
  0.112400000000E+01  0.856350000000E-01 -0.559320000000E-01
  0.998808265062E+02  0.856350000000E-01  0.488190932531E+01
  0.112400000000E+01  0.828490000000E-01 -0.554950000000E-01
  0.998808047107E+02  0.828490000000E-01  0.488234523554E+01
  0.112400000000E+01  0.803370000000E-01 -0.542160000000E-01
  0.998807409202E+02  0.803370000000E-01  0.488362104601E+01
  0.112400000000E+01  0.783440000000E-01 -0.522230000000E-01
  0.998806415187E+02  0.783440000000E-01  0.488560907594E+01
  0.112400000000E+01  0.770650000000E-01 -0.497110000000E-01
  0.998805162319E+02  0.770650000000E-01  0.488811481160E+01
  0.112400000000E+01  0.766280000000E-01 -0.469250000000E-01
  0.998803772793E+02  0.766280000000E-01  0.489089386397E+01
  0.112400000000E+01  0.770650000000E-01 -0.441390000000E-01
  0.998802383267E+02  0.770650000000E-01  0.489367291633E+01
  0.112400000000E+01  0.783440000000E-01 -0.416280000000E-01
  0.998801130898E+02  0.783440000000E-01  0.489617765449E+01
  0.112400000000E+01  0.803370000000E-01 -0.396350000000E-01
  0.998800136883E+02  0.803370000000E-01  0.489816568441E+01
  0.112400000000E+01  0.828490000000E-01 -0.383560000000E-01
  0.998799498978E+02  0.828490000000E-01  0.489944149489E+01
  0.111220000000E+01  0.146540000000E+00 -0.422160000000E-01
  0.998801129900E+02  0.146540000000E+00  0.489617964950E+01
  0.111220000000E+01  0.149320000000E+00 -0.417790000000E-01
  0.998800911945E+02  0.149320000000E+00  0.489661555973E+01
  0.111220000000E+01  0.144030000000E+00 -0.434950000000E-01
  0.998801767806E+02  0.144030000000E+00  0.489490383903E+01
  0.111220000000E+01  0.142030000000E+00 -0.454880000000E-01
  0.998802761820E+02  0.142030000000E+00  0.489291580910E+01
  0.111220000000E+01  0.140750000000E+00 -0.479990000000E-01
  0.998804014190E+02  0.140750000000E+00  0.489041107095E+01
  0.111220000000E+01  0.140320000000E+00 -0.507850000000E-01
  0.998805403716E+02  0.140320000000E+00  0.488763201858E+01
  0.111220000000E+01  0.140750000000E+00 -0.535710000000E-01
  0.998806793242E+02  0.140750000000E+00  0.488485296621E+01
  0.111220000000E+01  0.142030000000E+00 -0.560820000000E-01
  0.998808045611E+02  0.142030000000E+00  0.488234822806E+01
  0.111220000000E+01  0.144030000000E+00 -0.580760000000E-01
  0.998809040125E+02  0.144030000000E+00  0.488035920062E+01
  0.111220000000E+01  0.146540000000E+00 -0.593550000000E-01
  0.998809678030E+02  0.146540000000E+00  0.487908339015E+01
  0.111220000000E+01  0.149320000000E+00 -0.597920000000E-01
  0.998809895985E+02  0.149320000000E+00  0.487864747993E+01
  0.111220000000E+01  0.152110000000E+00 -0.593550000000E-01
  0.998809678030E+02  0.152110000000E+00  0.487908339015E+01
  0.111220000000E+01  0.154620000000E+00 -0.580760000000E-01
  0.998809040125E+02  0.154620000000E+00  0.488035920062E+01
  0.111220000000E+01  0.156610000000E+00 -0.560820000000E-01
  0.998808045611E+02  0.156610000000E+00  0.488234822806E+01
  0.111220000000E+01  0.157890000000E+00 -0.535710000000E-01
  0.998806793242E+02  0.157890000000E+00  0.488485296621E+01
  0.111220000000E+01  0.158330000000E+00 -0.507850000000E-01
  0.998805403716E+02  0.158330000000E+00  0.488763201858E+01
  0.111220000000E+01  0.157890000000E+00 -0.479990000000E-01
  0.998804014190E+02  0.157890000000E+00  0.489041107095E+01
  0.111220000000E+01  0.156610000000E+00 -0.454880000000E-01
  0.998802761820E+02  0.156610000000E+00  0.489291580910E+01
  0.111220000000E+01  0.154620000000E+00 -0.434950000000E-01
  0.998801767806E+02  0.154620000000E+00  0.489490383903E+01
  0.111220000000E+01  0.152110000000E+00 -0.422160000000E-01
  0.998801129900E+02  0.152110000000E+00  0.489617964950E+01
  0.145000000000E+01  0.000000000000E+00  0.615750000000E-01
  0.998757787756E+02  0.000000000000E+00  0.498286393878E+01
  0.144790000000E+01  0.000000000000E+00  0.422690000000E-01
  0.998767364314E+02  0.000000000000E+00  0.496371082157E+01
  0.145250000000E+01  0.000000000000E+00  0.845500000000E-01
  0.998746391247E+02  0.000000000000E+00  0.500565695623E+01
  0.145500000000E+01  0.000000000000E+00  0.107530000000E+00
  0.998734992244E+02  0.000000000000E+00  0.502845496122E+01
  0.145750000000E+01  0.000000000000E+00  0.130500000000E+00
  0.998723598229E+02  0.000000000000E+00  0.505124299115E+01
  0.146000000000E+01  0.000000000000E+00  0.153480000000E+00
  0.998712199227E+02  0.000000000000E+00  0.507404099613E+01
  0.146250000000E+01  0.000000000000E+00  0.176450000000E+00
  0.998700805212E+02  0.000000000000E+00  0.509682902606E+01
  0.144690000000E+01  0.967620000000E-03  0.176450000000E+00
  0.998700416185E+02  0.967620000000E-03  0.509760708092E+01
  0.145450000000E+01  0.553290000000E-03  0.176450000000E+00
  0.998700605711E+02  0.553290000000E-03  0.509722802855E+01
  0.146090000000E+01  0.154250000000E-01  0.405880000000E-01
  0.998768526908E+02  0.154250000000E-01  0.496138563454E+01
  0.145220000000E+01  0.308510000000E-01  0.399850000000E-01
  0.998768610698E+02  0.308510000000E-01  0.496121805349E+01
  0.144360000000E+01  0.462760000000E-01  0.393830000000E-01
  0.998768696484E+02  0.462760000000E-01  0.496104648242E+01
  0.143500000000E+01  0.617010000000E-01  0.387800000000E-01
  0.998768782768E+02  0.617010000000E-01  0.496087391384E+01
  0.142630000000E+01  0.771260000000E-01  0.381770000000E-01
  0.998768866559E+02  0.771260000000E-01  0.496070633279E+01
  0.141770000000E+01  0.925520000000E-01  0.375750000000E-01
  0.998768952344E+02  0.925520000000E-01  0.496053476172E+01
  0.108260000000E+01  0.432880000000E-01 -0.175550000000E-01
  0.998788091995E+02  0.432880000000E-01  0.492225545998E+01
  0.107990000000E+01  0.572710000000E-01 -0.184970000000E-01
  0.998788494489E+02  0.572710000000E-01  0.492145047244E+01
  0.107720000000E+01  0.711490000000E-01 -0.194310000000E-01
  0.998788892993E+02  0.711490000000E-01  0.492065346496E+01
  0.107450000000E+01  0.849910000000E-01 -0.203630000000E-01
  0.998789290499E+02  0.849910000000E-01  0.491985845249E+01
  0.107180000000E+01  0.988690000000E-01 -0.212980000000E-01
  0.998789689501E+02  0.988690000000E-01  0.491906044751E+01
  0.106910000000E+01  0.112850000000E+00 -0.222390000000E-01
  0.998790091496E+02  0.112850000000E+00  0.491825645748E+01
  0.106640000000E+01  0.127010000000E+00 -0.231930000000E-01
  0.998790499975E+02  0.127010000000E+00  0.491743949988E+01
  0.106360000000E+01  0.141420000000E+00 -0.241630000000E-01
  0.998790913940E+02  0.141420000000E+00  0.491661156970E+01
  0.106070000000E+01  0.156140000000E+00 -0.251540000000E-01
  0.998791335885E+02  0.156140000000E+00  0.491576767943E+01
  0.106220000000E+01  0.170780000000E+00 -0.261370000000E-01
  0.998791863566E+02  0.170780000000E+00  0.491471231783E+01
  0.106370000000E+01  0.185070000000E+00 -0.271000000000E-01
  0.998792381272E+02  0.185070000000E+00  0.491367690636E+01
  0.106510000000E+01  0.199120000000E+00 -0.280460000000E-01
  0.998792888005E+02  0.199120000000E+00  0.491266344003E+01
  0.106650000000E+01  0.212990000000E+00 -0.289800000000E-01
  0.998793388753E+02  0.212990000000E+00  0.491166194377E+01
  0.106790000000E+01  0.226760000000E+00 -0.299080000000E-01
  0.998793886509E+02  0.226760000000E+00  0.491066643254E+01
  0.106930000000E+01  0.240500000000E+00 -0.308320000000E-01
  0.998794382269E+02  0.240500000000E+00  0.490967491135E+01
  0.107070000000E+01  0.254270000000E+00 -0.317600000000E-01
  0.998794880025E+02  0.254270000000E+00  0.490867940012E+01
  0.107210000000E+01  0.268140000000E+00 -0.326940000000E-01
  0.998795380773E+02  0.268140000000E+00  0.490767790387E+01
  0.107350000000E+01  0.282190000000E+00 -0.336400000000E-01
  0.998795887506E+02  0.282190000000E+00  0.490666443753E+01
  0.107500000000E+01  0.296490000000E+00 -0.346030000000E-01
  0.998796405212E+02  0.296490000000E+00  0.490562902606E+01
  0.107640000000E+01  0.311090000000E+00 -0.355860000000E-01
  0.998796930399E+02  0.311090000000E+00  0.490457865200E+01
  0.104940000000E+01  0.311090000000E+00 -0.379030000000E-01
  0.998797412693E+02  0.311090000000E+00  0.490361406347E+01
  0.105240000000E+01  0.311090000000E+00 -0.377480000000E-01
  0.998797410200E+02  0.311090000000E+00  0.490361905100E+01
  0.105550000000E+01  0.311090000000E+00 -0.375560000000E-01
  0.998797391746E+02  0.311090000000E+00  0.490365595873E+01
  0.105870000000E+01  0.311090000000E+00 -0.373280000000E-01
[...]
CELL_DATA                 164
NORMALS normals float
  0.492405441082E-01  0.166501937486E+00 -0.984810882164E+00
  0.492405441082E-01  0.166501937486E+00 -0.984810882164E+00
 -0.445128179250E-01  0.453279411832E+00  0.890256358500E+00
 -0.445128179250E-01  0.453279411832E+00  0.890256358500E+00
 -0.493327436909E-01  0.155172292543E+00  0.986654873817E+00
 -0.493327436909E-01  0.155172292543E+00  0.986654873817E+00
 -0.353332626669E-01  0.706665253338E+00  0.706665253337E+00
 -0.353332626669E-01  0.706665253338E+00  0.706665253337E+00
 -0.774781658605E-02  0.987890938615E+00  0.154956331721E+00
 -0.774781658605E-02  0.987890938615E+00  0.154956331721E+00
  0.353332626669E-01  0.706665253338E+00 -0.706665253337E+00
  0.353332626669E-01  0.706665253338E+00 -0.706665253337E+00
  0.226806212789E-01  0.890910408953E+00 -0.453612425577E+00
  0.226806212789E-01  0.890910408953E+00 -0.453612425577E+00
 -0.226877896879E-01  0.890837215112E+00  0.453755793759E+00
 -0.226877896879E-01  0.890837215112E+00  0.453755793759E+00
  0.774781658605E-02  0.987890938615E+00 -0.154956331721E+00
  0.774781658605E-02  0.987890938615E+00 -0.154956331721E+00
  0.445128179250E-01  0.453279411832E+00 -0.890256358500E+00
  0.445128179250E-01  0.453279411832E+00 -0.890256358500E+00
  0.493358772375E-01 -0.154772278197E+00 -0.986717544751E+00
  0.493358772375E-01 -0.154772278197E+00 -0.986717544751E+00
  0.445128179250E-01 -0.453279411832E+00 -0.890256358500E+00
  0.445128179250E-01 -0.453279411832E+00 -0.890256358500E+00
  0.493354528170E-01  0.154826519792E+00 -0.986709056340E+00
  0.493354528170E-01  0.154826519792E+00 -0.986709056340E+00
  0.226806212789E-01 -0.890910408953E+00 -0.453612425577E+00
  0.226806212789E-01 -0.890910408953E+00 -0.453612425578E+00
  0.774781658605E-02 -0.987890938615E+00 -0.154956331721E+00
  0.774781658605E-02 -0.987890938615E+00 -0.154956331721E+00
 -0.774781658605E-02 -0.987890938615E+00  0.154956331721E+00
 -0.774781658605E-02 -0.987890938615E+00  0.154956331721E+00
 -0.226877896879E-01 -0.890837215112E+00  0.453755793759E+00
 -0.226877896879E-01 -0.890837215112E+00  0.453755793759E+00
 -0.353332626669E-01 -0.706665253338E+00  0.706665253337E+00
 -0.353332626669E-01 -0.706665253338E+00  0.706665253338E+00
  0.353332626669E-01 -0.706665253338E+00 -0.706665253337E+00
  0.353332626669E-01 -0.706665253338E+00 -0.706665253337E+00
 -0.493331699858E-01 -0.155117935778E+00  0.986663399716E+00
 -0.493331699858E-01 -0.155117935777E+00  0.986663399716E+00
 -0.445128179250E-01 -0.453279411832E+00  0.890256358500E+00
 -0.445128179250E-01 -0.453279411832E+00  0.890256358500E+00
 -0.445055293997E-01 -0.453566311572E+00  0.890110587995E+00
 -0.445055293997E-01 -0.453566311572E+00  0.890110587995E+00
 -0.493333240051E-01 -0.155098292016E+00  0.986666480102E+00
 -0.493333240051E-01 -0.155098292016E+00  0.986666480102E+00
 -0.227018635472E-01 -0.890693427609E+00  0.454037270943E+00
 -0.227018635472E-01 -0.890693427609E+00  0.454037270944E+00
 -0.353950724201E-01 -0.705423793332E+00  0.707901448402E+00
 -0.353950724201E-01 -0.705423793332E+00  0.707901448402E+00
  0.762662739952E-02 -0.988269020236E+00 -0.152532547990E+00
  0.762662739953E-02 -0.988269020236E+00 -0.152532547991E+00
  0.353862358852E-01 -0.705601543551E+00 -0.707724717704E+00
  0.353862358852E-01 -0.705601543551E+00 -0.707724717704E+00
  0.227018635472E-01 -0.890693427609E+00 -0.454037270944E+00
  0.227018635472E-01 -0.890693427609E+00 -0.454037270944E+00
  0.445055293997E-01 -0.453566311571E+00 -0.890110587995E+00
  0.445055293997E-01 -0.453566311572E+00 -0.890110587994E+00
  0.445055293997E-01  0.453566311571E+00 -0.890110587995E+00
  0.445055293997E-01  0.453566311572E+00 -0.890110587995E+00
 -0.762662739952E-02 -0.988269020236E+00  0.152532547990E+00
 -0.762662739952E-02 -0.988269020236E+00  0.152532547990E+00
  0.493333240051E-01 -0.155098292016E+00 -0.986666480102E+00
  0.493333240051E-01 -0.155098292016E+00 -0.986666480102E+00
  0.493375704674E-01  0.154555686697E+00 -0.986751409348E+00
  0.493375704674E-01  0.154555686697E+00 -0.986751409348E+00
 -0.779971203479E-02  0.987727169497E+00  0.155994240696E+00
 -0.779971203479E-02  0.987727169497E+00  0.155994240696E+00
  0.352978139568E-01  0.707375286732E+00 -0.705956279135E+00
  0.352978139568E-01  0.707375286732E+00 -0.705956279136E+00
  0.227018635472E-01  0.890693427609E+00 -0.454037270944E+00
  0.227018635472E-01  0.890693427609E+00 -0.454037270944E+00
  0.779971203479E-02  0.987727169497E+00 -0.155994240696E+00
  0.779971203479E-02  0.987727169497E+00 -0.155994240696E+00
 -0.445055293997E-01  0.453566311572E+00  0.890110587995E+00
 -0.445055293997E-01  0.453566311572E+00  0.890110587995E+00
 -0.493375704674E-01  0.154555686697E+00  0.986751409348E+00
 -0.493375704674E-01  0.154555686697E+00  0.986751409348E+00
 -0.227018635472E-01  0.890693427609E+00  0.454037270943E+00
 -0.227018635472E-01  0.890693427609E+00  0.454037270944E+00
 -0.353066727993E-01  0.707197978783E+00  0.706133455985E+00
 -0.353066727992E-01  0.707197978783E+00  0.706133455985E+00
 -0.000000000000E+00  0.100000000000E+01  0.000000000000E+00
 -0.000000000000E+00  0.100000000000E+01  0.000000000000E+00
 -0.000000000000E+00  0.100000000000E+01  0.000000000000E+00
 -0.000000000000E+00  0.100000000000E+01  0.000000000000E+00
 -0.000000000000E+00  0.100000000000E+01  0.000000000000E+00
 -0.000000000000E+00  0.100000000000E+01  0.000000000000E+00
 -0.000000000000E+00  0.100000000000E+01  0.000000000000E+00
 -0.000000000000E+00  0.100000000000E+01  0.000000000000E+00
 -0.000000000000E+00  0.100000000000E+01  0.000000000000E+00
 -0.000000000000E+00  0.100000000000E+01  0.000000000000E+00
  0.368239643130E-01  0.675457072331E+00 -0.736479286260E+00
  0.368239643130E-01  0.675457072331E+00 -0.736479286260E+00
 -0.000000000000E+00  0.100000000000E+01  0.000000000000E+00
 -0.000000000000E+00  0.100000000000E+01  0.000000000000E+00
  0.404867713169E-01  0.585396754930E+00 -0.809735426338E+00
  0.404867713169E-01  0.585396754930E+00 -0.809735426338E+00
 -0.499346631050E-01  0.108764727106E-01  0.998693262099E+00
 -0.499346631050E-01  0.108764727106E-01  0.998693262099E+00
 -0.499345203833E-01  0.111361264258E-01  0.998690407665E+00
 -0.499345203833E-01  0.111361264258E-01  0.998690407665E+00
 -0.499344842755E-01  0.112008632475E-01  0.998689685509E+00
 -0.499344842755E-01  0.112008632475E-01  0.998689685509E+00
 -0.499346627220E-01  0.108771777469E-01  0.998693254440E+00
 -0.499346627220E-01  0.108771777469E-01  0.998693254440E+00
 -0.499345207847E-01  0.111354046090E-01  0.998690415694E+00
 -0.499345207847E-01  0.111354046090E-01  0.998690415694E+00
 -0.498550624994E-01  0.574766910616E-01  0.997101249988E+00
 -0.498550624994E-01  0.574766910616E-01  0.997101249988E+00
 -0.498548648036E-01  0.575454135686E-01  0.997097296071E+00
 -0.498548648036E-01  0.575454135686E-01  0.997097296071E+00
 -0.498552642341E-01  0.574064794971E-01  0.997105284682E+00
 -0.498552642341E-01  0.574064794971E-01  0.997105284682E+00
 -0.498552492591E-01  0.574116943497E-01  0.997104985181E+00
 -0.498552492591E-01  0.574116943497E-01  0.997104985181E+00
 -0.498550584769E-01  0.574780901881E-01  0.997101169537E+00
 -0.498550584769E-01  0.574780901880E-01  0.997101169537E+00
 -0.498550456942E-01  0.574825360553E-01  0.997100913884E+00
 -0.498550456942E-01  0.574825360554E-01  0.997100913884E+00
 -0.498545038479E-01  0.576706760614E-01  0.997090076958E+00
 -0.498545038479E-01  0.576706760614E-01  0.997090076958E+00
 -0.498551907276E-01  0.574320725938E-01  0.997103814552E+00
 -0.498551907276E-01  0.574320725939E-01  0.997103814552E+00
 -0.498555502484E-01  0.573067873780E-01  0.997111004969E+00
 -0.498555502484E-01  0.573067873780E-01  0.997111004969E+00
 -0.498067187996E-01  0.723574165347E-01  0.996134375993E+00
 -0.498067187996E-01  0.723574165346E-01  0.996134375993E+00
 -0.498078831130E-01  0.720353156481E-01  0.996157662260E+00
 -0.498078831130E-01  0.720353156481E-01  0.996157662260E+00
 -0.498076210754E-01  0.721079330349E-01  0.996152421508E+00
 -0.498076210754E-01  0.721079330349E-01  0.996152421508E+00
 -0.498072990553E-01  0.721970725595E-01  0.996145981107E+00
 -0.498072990553E-01  0.721970725594E-01  0.996145981107E+00
 -0.498077745965E-01  0.720653973055E-01  0.996155491929E+00
 -0.498077745965E-01  0.720653973055E-01  0.996155491929E+00
 -0.498072990553E-01  0.721970725596E-01  0.996145981107E+00
 -0.498072990553E-01  0.721970725595E-01  0.996145981107E+00
 -0.498076210754E-01  0.721079330349E-01  0.996152421508E+00
 -0.498076210754E-01  0.721079330349E-01  0.996152421508E+00
 -0.498078831130E-01  0.720353156481E-01  0.996157662260E+00
 -0.498078831130E-01  0.720353156481E-01  0.996157662260E+00
 -0.498069010920E-01  0.723070815854E-01  0.996138021840E+00
 -0.498069010920E-01  0.723070815853E-01  0.996138021840E+00
 -0.498085608922E-01  0.718471433143E-01  0.996171217843E+00
 -0.498085608922E-01  0.718471433144E-01  0.996171217843E+00
  0.000000000000E+00 -0.100000000000E+01  0.000000000000E+00
 -0.000000000000E+00 -0.100000000000E+01  0.000000000000E+00
  0.000000000000E+00 -0.100000000000E+01  0.000000000000E+00
 -0.000000000000E+00 -0.100000000000E+01  0.000000000000E+00
  0.000000000000E+00 -0.100000000000E+01  0.000000000000E+00
 -0.000000000000E+00 -0.100000000000E+01  0.000000000000E+00
  0.000000000000E+00 -0.100000000000E+01  0.000000000000E+00
 -0.000000000000E+00 -0.100000000000E+01  0.000000000000E+00
  0.000000000000E+00 -0.100000000000E+01  0.000000000000E+00
 -0.000000000000E+00 -0.100000000000E+01  0.000000000000E+00
  0.000000000000E+00 -0.100000000000E+01  0.000000000000E+00
 -0.000000000000E+00 -0.100000000000E+01  0.000000000000E+00
  0.000000000000E+00 -0.100000000000E+01  0.000000000000E+00
 -0.000000000000E+00 -0.100000000000E+01  0.000000000000E+00
  0.000000000000E+00 -0.100000000000E+01  0.000000000000E+00
 -0.000000000000E+00 -0.100000000000E+01  0.000000000000E+00
 -0.498080453563E-01  0.719903169222E-01  0.996160907127E+00
 -0.498080453563E-01  0.719903169222E-01  0.996160907127E+00
POINT_DATA                 170
SCALARS mu float 1
LOOKUP_TABLE default
  0.000000000000E+00
  0.000000000000E+00
  0.000000000000E+00
  0.000000000000E+00
  0.497490825175E-02
  0.497490825175E-02
  0.487091075749E-02
  0.487091075749E-02
  0.484701031713E-02
  0.484701031713E-02
  0.489330116859E-02
  0.489330116859E-02
  0.498513552611E-02
  0.498513552611E-02
  0.509705730666E-02
  0.509705730666E-02
  0.519306947643E-02
  0.519306947643E-02
  0.527533065550E-02
  0.527533065550E-02
  0.534290873365E-02
  0.534290873365E-02
  0.540510158764E-02
  0.540510158764E-02
  0.547381297059E-02
  0.547381297059E-02
  0.554007964873E-02
  0.554007964873E-02
  0.561248788670E-02
  0.561248788670E-02
  0.567664742542E-02
  0.567664742542E-02
  0.571584495500E-02
  0.571584495500E-02
  0.571426009417E-02
  0.571426009417E-02
  0.564326043387E-02
  0.564326043387E-02
  0.551163617015E-02
  0.551163617015E-02
  0.533084593907E-02
  0.533084593907E-02
  0.513691515403E-02
  0.513691515403E-02
  0.412767037871E-02
  0.412767037871E-02
  0.396195944440E-02
  0.396195944440E-02
  0.434054215089E-02
  0.434054215089E-02
  0.455574039190E-02
  0.455574039190E-02
  0.474644585140E-02
  0.474644585140E-02
  0.489443975473E-02
  0.489443975473E-02
  0.494634051849E-02
  0.494634051849E-02
  0.494481686955E-02
  0.494481686955E-02
  0.489588212598E-02
  0.489588212598E-02
  0.480687915319E-02
  0.480687915319E-02
  0.470319512030E-02
  0.470319512030E-02
  0.457952288885E-02
  0.457952288885E-02
  0.445283193504E-02
  0.445283193504E-02
  0.432263785538E-02
  0.432263785538E-02
  0.418439541039E-02
  0.418439541039E-02
  0.405118604201E-02
  0.405118604201E-02
  0.393293259248E-02
  0.393293259248E-02
  0.385067046497E-02
  0.385067046497E-02
  0.381701913208E-02
  0.381701913208E-02
  0.385144834742E-02
  0.385144834742E-02
  0.000000000000E+00
  0.000000000000E+00
  0.000000000000E+00
  0.000000000000E+00
  0.000000000000E+00
  0.000000000000E+00
  0.000000000000E+00
  0.000000000000E+00
  0.000000000000E+00
  0.000000000000E+00
  0.000000000000E+00
  0.000000000000E+00
 -0.177480372364E-01
 -0.177480372364E-01
  0.000000000000E+00
  0.000000000000E+00
 -0.449348499099E-03
 -0.449348499099E-03
 -0.210057786862E-01
 -0.210057786862E-01
 -0.104692445210E-01
 -0.104692445210E-01
 -0.547981099054E-02
 -0.547981099054E-02
 -0.293871780956E-02
 -0.293871780956E-02
 -0.138511761879E-02
 -0.138511761879E-02
  0.000000000000E+00
  0.000000000000E+00
  0.724899798352E-02
  0.724899798352E-02
  0.109007694376E-01
  0.109007694376E-01
  0.130087874287E-01
  0.130087874287E-01
  0.140547147050E-01
  0.140547147050E-01
  0.147032161697E-01
  0.147032161697E-01
  0.152021899469E-01
  0.152021899469E-01
  0.152741824525E-01
  0.152741824525E-01
  0.151044415014E-01
  0.151044415014E-01
  0.149860654460E-01
  0.149860654460E-01
  0.149222412866E-01
  0.149222412866E-01
  0.147430711851E-01
  0.147430711851E-01
  0.141162914655E-01
  0.141162914655E-01
  0.135548067393E-01
  0.135548067393E-01
  0.124760720721E-01
  0.124760720721E-01
  0.114890147387E-01
  0.114890147387E-01
  0.101168569428E-01
  0.101168569428E-01
  0.866952108918E-02
  0.866952108918E-02
  0.672956919984E-02
  0.672956919984E-02
  0.404673366917E-02
  0.404673366917E-02
 -0.353408082074E-07
 -0.353408082074E-07
  0.000000000000E+00
  0.000000000000E+00
 -0.282665660656E-05
 -0.282665660656E-05
 -0.183935012526E-04
 -0.183935012526E-04
 -0.444154377077E-04
 -0.444154377077E-04
 -0.783193087089E-04
 -0.783193087089E-04
 -0.122970718793E-03
 -0.122970718793E-03
 -0.176283144435E-03
 -0.176283144435E-03
 -0.228828524439E-03
 -0.228828524439E-03
