# vtk DataFile Version 3.0
MachLine results file. Generated by MachLine, USU AeroLab (c) 2022.
ASCII
DATASET POLYDATA
POINTS                3398 float
  0.780361817930E-08  0.000000000000E+00 -0.565439957942E-02
  0.659674850371E-03  0.000000000000E+00 -0.532141220617E-02
  0.659674155164E-03  0.778304911763E-04 -0.533360972175E-02
  0.659674005477E-03  0.147993645983E-03 -0.536940816473E-02
  0.659673779535E-03  0.203681419263E-03 -0.542510581269E-02
  0.659673495886E-03  0.239410019364E-03 -0.549520287418E-02
  0.659673182319E-03  0.251619599115E-03 -0.557309966146E-02
  0.659672870882E-03  0.239410197026E-03 -0.565089646568E-02
  0.659672588537E-03  0.203681765904E-03 -0.572109359799E-02
  0.659672366483E-03  0.147994142142E-03 -0.577669136255E-02
  0.659672228296E-03  0.778310998274E-04 -0.581248996755E-02
  0.659671660648E-03  0.000000000000E+00 -0.582469236110E-02
  0.263270685301E-02  0.000000000000E+00 -0.463762242761E-02
  0.263270625797E-02  0.237683807991E-03 -0.467491906501E-02
  0.263270604021E-02  0.451948205431E-03 -0.478411620758E-02
  0.263270570296E-02  0.622003765416E-03 -0.495411177339E-02
  0.263270527527E-02  0.731120904143E-03 -0.516840617137E-02
  0.263270479979E-02  0.768409918511E-03 -0.540609998575E-02
  0.263270432698E-02  0.731120892396E-03 -0.564379379628E-02
  0.263270389497E-02  0.622003746946E-03 -0.585798818286E-02
  0.263270355167E-02  0.451948194271E-03 -0.602808373181E-02
  0.263270333060E-02  0.237683803760E-03 -0.613718086783E-02
  0.263270295775E-02  0.000000000000E+00 -0.617448227155E-02
  0.590180857129E-02  0.000000000000E+00 -0.370463266098E-02
  0.590180803445E-02  0.455810649383E-03 -0.377612882583E-02
  0.590180775206E-02  0.866722184207E-03 -0.398542450246E-02
  0.590180731511E-02  0.119287547856E-02 -0.431151779465E-02
  0.590180676308E-02  0.140207116243E-02 -0.472240932612E-02
  0.590180615136E-02  0.147356967931E-02 -0.517819998673E-02
  0.590180554420E-02  0.140207114897E-02 -0.563399064292E-02
  0.590180499098E-02  0.119287545740E-02 -0.604498216218E-02
  0.590180455171E-02  0.866722166757E-03 -0.637107543835E-02
  0.590180426954E-02  0.455810642160E-03 -0.658037110445E-02
  0.590180392838E-02  0.000000000000E+00 -0.665187197128E-02
  0.104400101028E-01  0.000000000000E+00 -0.256534285486E-02
  0.104400096006E-01  0.722147497616E-03 -0.267863856079E-02
  0.104400092609E-01  0.137317617849E-02 -0.301013277426E-02
  0.104400087365E-01  0.188986721380E-02 -0.352682379836E-02
  0.104400080757E-01  0.222136144790E-02 -0.417781247404E-02
  0.104400073443E-01  0.233465946717E-02 -0.489999998666E-02
  0.104400066190E-01  0.222136143202E-02 -0.562218749280E-02
  0.104400059584E-01  0.188986718704E-02 -0.627317615656E-02
  0.104400054350E-01  0.137317615526E-02 -0.678986716067E-02
  0.104400050991E-01  0.722147485471E-03 -0.712136136085E-02
  0.104400047718E-01  0.000000000000E+00 -0.723466167659E-02
  0.162130114869E-01  0.000000000000E+00 -0.124835296651E-02
  0.162130110091E-01  0.102998436735E-02 -0.140994822068E-02
  0.162130106178E-01  0.195857021756E-02 -0.188284098128E-02
  0.162130100147E-01  0.269555901339E-02 -0.261982975533E-02
  0.162130092561E-01  0.316845180984E-02 -0.354831559888E-02
  0.162130084171E-01  0.333004933488E-02 -0.457839998592E-02
  0.162130075857E-01  0.316845178982E-02 -0.560838436833E-02
  0.162130068292E-01  0.269555898188E-02 -0.653697019397E-02
  0.162130062297E-01  0.195857018669E-02 -0.727395894731E-02
  0.162130058458E-01  0.103008435160E-02 -0.774685168997E-02
  0.162130055263E-01  0.000000000000E+00 -0.790845145306E-02
  0.231840127458E-01  0.000000000000E+00  0.224347019526E-03
  0.231840122865E-01  0.137428126812E-02  0.871831405837E-05
  0.231840118485E-01  0.261326431519E-02 -0.622239106772E-03
  0.231840111746E-01  0.359655089377E-02 -0.160553565193E-02
  0.231840103267E-01  0.422744226740E-02 -0.284441869119E-02
  0.231840093901E-01  0.444313930339E-02 -0.421879998609E-02
  0.231840084626E-01  0.422744224353E-02 -0.559308127481E-02
  0.231840076192E-01  0.359655085728E-02 -0.683206429188E-02
  0.231840069512E-01  0.261326427936E-02 -0.781525081279E-02
  0.231840065232E-01  0.137428124848E-02 -0.844624211338E-02
  0.231840062075E-01  0.000000000000E+00 -0.866184133060E-02
  0.313170138906E-01  0.000000000000E+00  0.183422709452E-02
  0.313170134468E-01  0.175067819797E-02  0.155953274075E-02
  0.313170129664E-01  0.332885847003E-02  0.755782845826E-03
  0.313170122278E-01  0.458144285348E-02 -0.496751492795E-03
  0.313170112994E-01  0.538513281711E-02 -0.207492175196E-02
  0.313170102741E-01  0.565982936935E-02 -0.382559998676E-02
  0.313170092593E-01  0.538513278970E-02 -0.557627821146E-02
  0.313170083366E-01  0.458144281030E-02 -0.715455844768E-02
  0.313170076066E-01  0.332885842730E-02 -0.840704275794E-02
  0.313170071395E-01  0.175067817606E-02 -0.921083262846E-02
  0.313170068261E-01  0.000000000000E+00 -0.948543131144E-02
  0.405800149292E-01  0.000000000000E+00  0.356481695642E-02
  0.405800144964E-01  0.215527509397E-02  0.322662316039E-02
  0.405800139779E-01  0.409815255813E-02  0.223713470814E-02
  0.405800131809E-01  0.564023472235E-02  0.695162600783E-03
  0.405800121795E-01  0.662962326043E-02 -0.124772484765E-02
  0.405800110742E-01  0.696781932351E-02 -0.340299998635E-02
  0.405800099804E-01  0.662962322998E-02 -0.555827511395E-02
  0.405800089861E-01  0.564023467365E-02 -0.750115253777E-02
  0.405800081992E-01  0.409815250883E-02 -0.904323461349E-02
  0.405800076953E-01  0.215527506923E-02 -0.100329230380E-01
  0.405800073817E-01  0.000000000000E+00 -0.103709212829E-01
  0.509980158502E-01  0.000000000000E+00  0.540100671382E-02
  0.509980154307E-01  0.258447193863E-02  0.499551341613E-02
  0.509980148784E-01  0.491444654598E-02  0.380902643048E-02
  0.509980140294E-01  0.676362645172E-02  0.195984659349E-02
  0.509980129631E-01  0.795011354019E-02 -0.370077996112E-03
  0.509980117864E-01  0.835560910632E-02 -0.295459998645E-02
  0.509980106222E-01  0.795011350709E-02 -0.553907196380E-02
  0.509980095640E-01  0.676362639856E-02 -0.786904652752E-02
  0.509980087263E-01  0.491444649494E-02 -0.971822632827E-02
  0.509980081904E-01  0.258447190763E-02 -0.109049132868E-01
  0.509980078797E-01  0.000000000000E+00 -0.113099110184E-01
  0.625590166639E-01  0.000000000000E+00  0.732869641690E-02
  0.625590162578E-01  0.303516876767E-02  0.685250363021E-02
  0.625590156750E-01  0.577134050764E-02  0.545911811680E-02
  0.625590147803E-01  0.794291814580E-02  0.328754055833E-02
  0.625590136564E-01  0.933640377655E-02  0.551318843302E-03
  0.625590124159E-01  0.981259884403E-02 -0.248389998981E-02
  0.625590111909E-01  0.933640374268E-02 -0.551906879788E-02
  0.625590100750E-01  0.794291808891E-02 -0.825524049020E-02
  0.625590091937E-01  0.577134045397E-02 -0.104269180095E-01
  0.625590086287E-01  0.303516873005E-02 -0.118199034958E-01
  0.625590083212E-01  0.000000000000E+00 -0.122969007191E-01
  0.752570173670E-01  0.000000000000E+00  0.933428583216E-02
  0.752570169750E-01  0.350406552955E-02  0.878449364326E-02
  0.752570163653E-01  0.666283434211E-02  0.717580963290E-02
  0.752570154295E-01  0.916990966767E-02  0.466873439800E-02
  0.752570142574E-01  0.107788938116E-01  0.150986561443E-02
  0.752570129619E-01  0.113278883699E-01 -0.199409998500E-02
  0.752570116806E-01  0.107788937737E-01 -0.549816557452E-02
  0.752570105178E-01  0.916990960935E-02 -0.865693432718E-02
  0.752570095973E-01  0.666283428323E-02 -0.111639095236E-01
  0.752570090093E-01  0.350406549389E-02 -0.127728935029E-01
  0.752570087031E-01  0.000000000000E+00 -0.133228902885E-01
  0.891300179684E-01  0.000000000000E+00  0.114038788973E-01
  0.891300176203E-01  0.398796302138E-02  0.107788858780E-01
  0.891300169859E-01  0.758312955183E-02  0.894770304256E-02
  0.891300160130E-01  0.104359030825E-01  0.609452961594E-02
  0.891300147939E-01  0.122668860762E-01  0.249936309424E-02
  0.891300134522E-01  0.128928802335E-01 -0.148859998180E-02
  0.891300121209E-01  0.122668860321E-01 -0.547656306161E-02
  0.891300109124E-01  0.104359030150E-01 -0.907162954436E-02
  0.891300099606E-01  0.758312948626E-02 -0.119249029253E-01
  0.891300093502E-01  0.398796297535E-02 -0.137558857286E-01
  0.891300090667E-01  0.000000000000E+00 -0.143818808739E-01
  0.103470018564E+00  0.000000000000E+00  0.135258688435E-01
  0.103470018193E+00  0.448396036461E-02  0.128228776888E-01
  0.103470017540E+00  0.852622449585E-02  0.107638960881E-01
  0.103470016539E+00  0.117338961314E-01  0.755582456917E-02
  0.103470015282E+00  0.137928779084E-01  0.351346044901E-02
  0.103470013895E+00  0.144968716486E-01 -0.970469986600E-03
  0.103470012522E+00  0.137928778666E-01 -0.545446040363E-02
  0.103470011274E+00  0.117338960652E-01 -0.949672449117E-02
  0.103470010287E+00  0.852622442778E-02 -0.127048959679E-01
  0.103470009656E+00  0.448396032858E-02 -0.147638775319E-01
  0.103470009352E+00  0.000000000000E+00 -0.154668736953E-01
  0.119090018894E+00  0.000000000000E+00  0.156868567495E-01
  0.119090018543E+00  0.498905668318E-02  0.149038663452E-01
  0.119090017879E+00  0.948661749335E-02  0.126128864441E-01
  0.119090016858E+00  0.130558864954E-01  0.904381756629E-02
  0.119090015575E+00  0.153468665799E-01  0.454615677910E-02
  0.119090014159E+00  0.161298597420E-01 -0.442859988863E-03
  0.119090012762E+00  0.153468665382E-01 -0.543195673765E-02
  0.119090011492E+00  0.130558864326E-01 -0.992951748827E-02
  0.119090010484E+00  0.948661742971E-02 -0.134988863260E-01
  0.119090009839E+00  0.498905665083E-02 -0.157898661929E-01
  0.119090009543E+00  0.000000000000E+00 -0.165718619345E-01
  0.136080019179E+00  0.000000000000E+00  0.178728534070E-01
  0.136080018899E+00  0.550025476433E-02  0.170098603978E-01
  0.136080018218E+00  0.104589138353E-01  0.144848813902E-01
  0.136080017175E+00  0.143938814543E-01  0.105499139045E-01
  0.136080015864E+00  0.169188606552E-01  0.559135486129E-02
  0.136080014421E+00  0.177818535128E-01  0.911200101922E-04
[...]
POINT_DATA                3398
SCALARS phi float 1
LOOKUP_TABLE default
  0.867361737988E-17
 -0.823993651089E-17
 -0.130104260698E-16
  0.208166817117E-16
  0.433680868994E-18
 -0.346944695195E-17
 -0.151788304148E-16
  0.156125112838E-16
 -0.173472347598E-16
 -0.433680868994E-17
  0.650521303491E-17
 -0.650521303491E-17
 -0.125767452008E-16
  0.390312782095E-17
  0.160461921528E-16
 -0.190819582357E-16
  0.221177243187E-16
  0.823993651089E-17
  0.234187669257E-16
 -0.117093834628E-16
  0.134441069388E-16
  0.108420217249E-16
 -0.121430643318E-16
 -0.104083408559E-16
 -0.117093834628E-16
 -0.121430643318E-16
 -0.563785129692E-17
 -0.143114686768E-16
  0.477048955894E-17
 -0.173472347598E-16
 -0.208166817117E-16
  0.212503625807E-16
  0.268882138776E-16
  0.693889390391E-17
  0.398986399475E-16
 -0.130104260698E-16
  0.164798730218E-16
 -0.190819582357E-16
 -0.867361737988E-17
 -0.997465998687E-17
  0.186482773668E-16
 -0.390312782095E-17
  0.121430643318E-16
  0.997465998687E-17
  0.130104260698E-16
  0.390312782095E-17
  0.433680868994E-18
  0.242861286637E-16
  0.390312782095E-17
  0.138777878078E-16
  0.216840434497E-17
 -0.954097911787E-17
  0.407660016855E-16
  0.260208521397E-17
 -0.199493199737E-16
 -0.130104260698E-16
 -0.104083408559E-16
 -0.737257477290E-17
  0.216840434497E-17
  0.693889390391E-17
 -0.607153216592E-17
 -0.251534904017E-16
  0.433680868994E-18
  0.173472347598E-16
  0.477048955894E-17
  0.780625564190E-17
  0.000000000000E+00
 -0.195156391047E-16
 -0.186482773668E-16
 -0.117093834628E-16
  0.186482773668E-16
  0.130104260698E-17
  0.867361737988E-18
 -0.867361737988E-17
 -0.346944695195E-17
 -0.346944695195E-17
  0.173472347598E-16
 -0.312250225676E-16
  0.477048955894E-17
 -0.290566182226E-16
 -0.156125112838E-16
 -0.121430643318E-16
 -0.216840434497E-16
  0.520417042793E-17
 -0.208166817117E-16
 -0.312250225676E-16
 -0.485722573274E-16
 -0.156125112838E-16
 -0.867361737988E-17
 -0.563785129692E-17
 -0.134441069388E-16
 -0.338271077815E-16
  0.780625564190E-17
 -0.182145964978E-16
  0.294902990916E-16
  0.121430643318E-16
 -0.234187669257E-16
 -0.346944695195E-17
  0.260208521397E-17
 -0.104083408559E-16
  0.607153216592E-17
  0.138777878078E-16
 -0.130104260698E-16
 -0.156125112838E-16
 -0.433680868994E-17
  0.164798730218E-16
 -0.398986399475E-16
 -0.693889390391E-17
 -0.147451495458E-16
 -0.130104260698E-16
 -0.225514051877E-16
 -0.867361737988E-18
 -0.199493199737E-16
  0.173472347598E-16
 -0.607153216592E-17
  0.693889390391E-17
 -0.104083408559E-16
 -0.520417042793E-17
  0.433680868994E-17
  0.130104260698E-16
 -0.173472347598E-17
  0.650521303491E-16
 -0.208166817117E-16
 -0.867361737988E-17
 -0.208166817117E-16
  0.251534904017E-16
 -0.381639164715E-16
  0.130104260698E-16
  0.624500451352E-16
  0.199493199737E-16
  0.780625564190E-17
  0.112757025938E-16
 -0.503069808033E-16
 -0.182145964978E-16
  0.190819582357E-16
  0.867361737988E-17
  0.104083408559E-16
  0.381639164715E-16
  0.607153216592E-17
 -0.346944695195E-17
 -0.182145964978E-16
  0.520417042793E-17
 -0.147451495458E-16
  0.251534904017E-16
  0.000000000000E+00
  0.780625564190E-17
  0.251534904017E-16
  0.147451495458E-16
 -0.173472347598E-16
 -0.398986399475E-16
  0.130104260698E-16
 -0.130104260698E-16
  0.173472347598E-16
  0.780625564190E-17
  0.303576608296E-16
 -0.130104260698E-16
  0.780625564190E-17
 -0.867361737988E-17
  0.112757025938E-16
 -0.511743425413E-16
 -0.104083408559E-16
 -0.346944695195E-17
 -0.173472347598E-16
  0.346944695195E-17
 -0.173472347598E-16
 -0.216840434497E-16
  0.260208521397E-17
  0.286229373536E-16
 -0.867361737988E-18
 -0.867361737988E-18
 -0.303576608296E-16
  0.251534904017E-16
  0.173472347598E-17
 -0.633174068732E-16
  0.954097911787E-17
 -0.199493199737E-16
  0.156125112838E-16
 -0.867361737988E-18
 -0.147451495458E-16
  0.546437894933E-16
 -0.346944695195E-16
  0.199493199737E-16
 -0.173472347598E-17
  0.520417042793E-17
  0.121430643318E-16
 -0.225514051877E-16
 -0.520417042793E-17
  0.251534904017E-16
 -0.910729824888E-17
 -0.112757025938E-16
  0.208166817117E-16
  0.433680868994E-17
  0.121430643318E-16
  0.303576608296E-16
  0.260208521397E-17
 -0.329597460436E-16
 -0.693889390391E-17
  0.477048955894E-16
 -0.433680868994E-17
  0.260208521397E-16
  0.299239799606E-16
  0.251534904017E-16
 -0.173472347598E-16
 -0.303576608296E-16
 -0.520417042793E-16
 -0.312250225676E-16
  0.346944695195E-16
  0.104083408559E-16
  0.225514051877E-16
  0.173472347598E-17
  0.607153216592E-17
 -0.650521303491E-17
 -0.208166817117E-16
 -0.346944695195E-17
 -0.260208521397E-16
  0.780625564190E-17
  0.867361737988E-18
 -0.208166817117E-16
 -0.260208521397E-16
 -0.390312782095E-16
  0.390312782095E-16
  0.238524477947E-16
  0.225514051877E-16
 -0.156125112838E-16
  0.355618312575E-16
  0.867361737988E-17
 -0.572458747072E-16
  0.867361737988E-18
  0.104083408559E-16
 -0.442354486374E-16
  0.251534904017E-16
  0.277555756156E-16
  0.216840434497E-16
  0.182145964978E-16
 -0.372965547335E-16
  0.216840434497E-16
 -0.182145964978E-16
 -0.173472347598E-17
  0.433680868994E-17
 -0.182145964978E-16
 -0.477048955894E-16
 -0.867361737988E-18
 -0.242861286637E-16
  0.216840434497E-17
 -0.234187669257E-16
 -0.997465998687E-17
 -0.199493199737E-16
  0.520417042793E-17
 -0.954097911787E-17
 -0.173472347598E-17
 -0.199493199737E-16
 -0.234187669257E-16
 -0.190819582357E-16
 -0.555111512313E-16
 -0.177809156288E-16
 -0.346944695195E-16
 -0.195156391047E-16
  0.164798730218E-16
 -0.433680868994E-17
  0.693889390391E-17
  0.346944695195E-17
 -0.867361737988E-17
  0.355618312575E-16
 -0.520417042793E-17
  0.121430643318E-16
  0.000000000000E+00
 -0.125767452008E-16
 -0.190819582357E-16
 -0.156125112838E-16
 -0.823993651089E-17
 -0.433680868994E-16
 -0.520417042793E-17
  0.589805981832E-16
  0.390312782095E-16
  0.867361737988E-17
  0.260208521397E-17
 -0.314418630021E-16
  0.225514051877E-16
  0.442354486374E-16
 -0.151788304148E-16
 -0.433680868994E-17
  0.650521303491E-16
  0.130104260698E-16
  0.459701721134E-16
  0.147451495458E-16
 -0.216840434497E-16
 -0.277555756156E-16
 -0.340439482160E-16
 -0.125767452008E-16
  0.845677694539E-17
  0.403323208165E-16
 -0.182145964978E-16
  0.169135538908E-16
  0.867361737988E-17
  0.130104260698E-16
 -0.529090660173E-16
  0.242861286637E-16
  0.268882138776E-16
 -0.422838847269E-16
  0.186482773668E-16
  0.531259064518E-16
 -0.407660016855E-16
 -0.472712147204E-16
 -0.216840434497E-16
  0.260208521397E-17
 -0.268882138776E-16
  0.199493199737E-16
  0.650521303491E-16
  0.138777878078E-16
 -0.327429056091E-16
  0.275387351811E-16
  0.294902990916E-16
  0.327429056091E-16
  0.312250225676E-16
 -0.997465998687E-17
 -0.164798730218E-16
 -0.294902990916E-16
  0.685215773011E-16
 -0.121430643318E-16
 -0.260208521397E-17
 -0.460785923306E-16
 -0.223345647532E-16
  0.388144377750E-16
 -0.383807569060E-16
  0.385975973405E-16
  0.477048955894E-16
  0.433680868994E-17
 -0.346944695195E-17
 -0.268882138776E-16
 -0.867361737988E-18
  0.216840434497E-16
 -0.221719344273E-16
  0.298155597434E-17
  0.544269490588E-16
 -0.223345647532E-16
 -0.333934269126E-16
  0.242861286637E-16
  0.390312782095E-16
  0.520417042793E-16
 -0.867361737988E-18
  0.806646416329E-16
  0.650521303491E-16
  0.321465944142E-16
 -0.110588621594E-16
 -0.144198888941E-16
 -0.975781955237E-17
 -0.151788304148E-16
  0.199493199737E-16
 -0.390312782095E-16
 -0.260208521397E-17
  0.000000000000E+00
 -0.156125112838E-16
 -0.329597460436E-16
  0.262376925741E-16
 -0.184314369323E-16
  0.303576608296E-17
  0.106251812904E-16
  0.294902990916E-16
 -0.290566182226E-16
  0.260208521397E-17
 -0.433680868994E-17
  0.390312782095E-16
 -0.745931094670E-16
 -0.104083408559E-16
 -0.925366554216E-16
  0.191903784530E-16
  0.216840434497E-17
 -0.589805981832E-16
 -0.104083408559E-16
  0.260208521397E-16
 -0.529090660173E-16
 -0.711236625150E-16
  0.208166817117E-16
  0.138777878078E-16
  0.451028103754E-16
 -0.398986399475E-16
  0.433680868994E-17
  0.552401006881E-16
  0.567037736210E-16
  0.715573433840E-16
  0.529090660173E-16
 -0.745931094670E-16
 -0.320923843056E-16
  0.806646416329E-16
  0.520417042793E-17
 -0.433680868994E-16
 -0.161817174243E-16
 -0.349113099540E-16
  0.388144377750E-16
  0.368628738645E-16
  0.490059381963E-16
  0.225514051877E-16
  0.338271077815E-16
  0.634427677493E-17
 -0.216840434497E-18
 -0.756773116395E-16
  0.411996825544E-17
 -0.338271077815E-16
  0.130104260698E-17
  0.815320033709E-16
 -0.435307172253E-16
 -0.460108296949E-16
 -0.408202117941E-16
  0.173472347598E-17
  0.442354486374E-16
  0.433680868994E-16
 -0.477048955894E-16
 -0.517164436276E-16
  0.482469966756E-17
 -0.339880440415E-16
  0.124900090270E-15
  0.118611717670E-15
  0.125767452008E-16
  0.151788304148E-16
  0.477048955894E-16
 -0.126743233964E-15
  0.115792792021E-15
  0.335560572384E-16
 -0.288397777881E-16
  0.680878964321E-16
  0.600648003557E-16
  0.177809156288E-16
 -0.196891114523E-15
  0.325260651746E-17
  0.100505541389E-15
 -0.533969569949E-16
  0.417417836407E-16
  0.127935856353E-16
  0.149619899803E-16
 -0.333934269126E-16
  0.607153216592E-17
  0.852182907574E-16
  0.349113099540E-16
  0.223345647532E-16
  0.548606299278E-16
 -0.414165229889E-16
  0.776288755500E-16
 -0.192987986702E-16
 -0.585469173142E-17
  0.141488383509E-15
  0.443980789633E-16
  0.470001641772E-16
  0.109179158769E-15
 -0.225947732746E-15
  0.602816407902E-16
 -0.107119174642E-15
 -0.869530142333E-16
 -0.673289549113E-16
  0.597293753086E-16
 -0.628837260042E-17
  0.893382590128E-16
 -0.174773390205E-15
  0.102348685083E-15
 -0.401154803820E-16
 -0.284060969191E-16
  0.157914046423E-15
 -0.378487143360E-16
  0.988792381307E-16
 -0.971445146547E-16
  0.293168267440E-15
  0.152221985017E-15
  0.867361737988E-16
 -0.789299181569E-16
 -0.157426155445E-15
  0.650521303491E-16
 -0.165666091956E-15
 -0.249366499672E-17
 -0.563785129692E-17
  0.113190706807E-15
  0.273652628335E-15
  0.156992474576E-15
  0.417200995972E-15
  0.427175655959E-16
 -0.213370987545E-15
  0.132272665043E-16
  0.503069808033E-16
 -0.108420217249E-16
  0.702563007771E-16
 -0.932413868338E-16
 -0.172604985860E-15
 -0.221177243187E-15
 -0.867361737988E-16
 -0.672205346941E-16
 -0.214021508849E-15
 -0.268882138776E-16
  0.676542155631E-16
  0.215973072759E-15
  0.106685493773E-15
 -0.166533453694E-15
 -0.312250225676E-16
  0.179110198895E-15
 -0.589805981832E-16
 -0.915066633578E-16
  0.776288755500E-16
 -0.551208384492E-15
 -0.581132364452E-16
  0.248065457065E-15
  0.260208521397E-16
  0.117093834628E-16
  0.181712284109E-15
 -0.108853898118E-15
 -0.537764277553E-16
  0.216840434497E-18
 -0.433680868994E-15
 -0.342391046071E-15
 -0.282759926584E-15
  0.780625564190E-16
  0.119695919842E-15
  0.529090660173E-16
  0.806646416329E-16
  0.450160742016E-15
 -0.369929781252E-15
  0.340439482160E-16
  0.185832252364E-15
 -0.173472347598E-15
 -0.397251675999E-15
 -0.289698820488E-15
  0.349546780409E-15
  0.207299455379E-15
  0.993129189997E-16
 -0.309214459593E-15
 -0.250870830186E-15
 -0.170219741080E-16
 -0.300974523082E-15
 -0.260208521397E-15
  0.512610787151E-15
 -0.368628738645E-15
  0.823993651089E-16
 -0.398986399475E-15
  0.823993651089E-17
 -0.474880551549E-16
  0.366243493866E-15
  0.609592671480E-15
 -0.681746326059E-15
 -0.248932818803E-15
  0.301841884820E-15
  0.743329009456E-15
 -0.436282954208E-15
 -0.428476698566E-15
 -0.332850066953E-15
  0.214129929066E-15
  0.482253126322E-15
 -0.326995375222E-15
  0.928077059648E-16
  0.621898366138E-15
 -0.560315682741E-15
 -0.307913416986E-15
 -0.190819582357E-16
 -0.125333771139E-15
 -0.762194127257E-15
 -0.376218153852E-15
  0.555978874051E-15
 -0.323525928270E-15
 -0.981853487403E-15
  0.125767452008E-15
 -0.283627288322E-15
 -0.420670442924E-15
 -0.214672030152E-15
  0.123599047663E-15
  0.393782229047E-15
 -0.384241249929E-15
 -0.328730098698E-15
 -0.109461051334E-14
 -0.853483950181E-15
  0.170870262384E-15
 -0.117093834628E-14
  0.137043154602E-14
  0.363424568217E-15
  0.377302356025E-15
 -0.496564594998E-15
  0.441053443767E-15
 -0.968409380464E-15
  0.869096461464E-15
 -0.108680425770E-14
  0.402455846427E-15
  0.110154940725E-14
 -0.425874613352E-15
  0.111716191853E-14
 -0.849147141491E-15
 -0.880372164058E-15
 -0.138777878078E-15
  0.869963823202E-15
 -0.854351311919E-15
 -0.738124839028E-15
  0.509141340199E-15
  0.711236625150E-15
  0.210161749115E-14
 -0.155257751100E-15
 -0.775421393762E-15
  0.110328413072E-14
  0.137043154602E-15
  0.314852310890E-15
  0.281025203108E-15
 -0.140902914336E-14
  0.520417042793E-16
 -0.358220397789E-15
  0.196544169828E-14
  0.441487124636E-15
  0.593275428784E-15
  0.536896915815E-15
 -0.120389809233E-14
  0.508273978461E-15
 -0.260642202266E-15
  0.784962372880E-15
 -0.104083408559E-15
 -0.562917767954E-15
  0.244596010113E-15
  0.859555482347E-15
  0.133226762955E-14
 -0.107552855511E-14
  0.132012456522E-14
  0.294902990916E-15
  0.248846082629E-14
  0.192987986702E-15
  0.156385321359E-14
  0.107726327858E-14
  0.532560107125E-15
 -0.555111512313E-16
  0.805779054591E-15
 -0.120563281580E-14
 -0.816187395447E-15
  0.719042880792E-15
  0.101568059518E-14
 -0.165666091956E-15
 -0.196327329394E-14
  0.791467585914E-15
 -0.140902914336E-14
 -0.165579355782E-14
 -0.104256880906E-14
 -0.854351311919E-15
 -0.828330459779E-15
 -0.218575157973E-15
  0.289698820488E-15
 -0.350153933626E-14
  0.111369247158E-14
  0.128196064875E-14
  0.100006808390E-14
  0.303706712557E-14
 -0.366026653431E-15
  0.169916164472E-14
 -0.765013052906E-15
  0.888178419700E-15
 -0.675674793893E-15
 -0.575928194024E-15
 -0.659194920871E-16
  0.150053580672E-15
 -0.927643378779E-15
  0.319926377057E-14
 -0.260208521397E-15
  0.281719092499E-14
 -0.492661467177E-15
 -0.284841594755E-14
  0.425614404831E-14
  0.869096461464E-15
  0.148232121022E-14
  0.763278329430E-16
 -0.349460044236E-14
 -0.659194920871E-16
 -0.885142653617E-15
  0.486156254143E-15
  0.286402845884E-14
 -0.164711994044E-14
  0.199406463564E-14
  0.116746889933E-14
 -0.134354333214E-14
 -0.425874613352E-15
  0.325173915572E-14
  0.841340885849E-15
 -0.762410967692E-15
 -0.235271871429E-14
  0.193942084614E-14
  0.320186585578E-14
  0.672205346941E-16
  0.197498267740E-14
  0.810115863281E-15
 -0.158033308661E-14
 -0.503937169771E-14
  0.313984949152E-15
 -0.185355203408E-14
  0.157165946923E-14
  0.451028103754E-15
  0.221610924056E-15
  0.813151629364E-15
  0.123815888098E-14
  0.283627288322E-15
 -0.106295180990E-14
 -0.321010579230E-14
 -0.120433177320E-14
  0.126591445659E-14
  0.630571983518E-15
 -0.257606436183E-15
  0.228289609439E-14
  0.116573417586E-14
 -0.560359050827E-14
 -0.239608680119E-14
 -0.488324658487E-14
 -0.254223725404E-14
  0.142117220769E-14
 -0.166533453694E-15
 -0.873433270154E-15
  0.133356867216E-14
  0.108940634291E-14
  0.193074722876E-14
  0.205781572338E-14
 -0.288180937447E-14
 -0.592408067046E-15
  0.191860416443E-14
 -0.164191577001E-14
 -0.267494359996E-14
 -0.152829138234E-14
 -0.754604712050E-16
  0.387970905402E-14
  0.796238075473E-15
 -0.165926300477E-14
  0.159247615095E-14
 -0.258040117052E-14
 -0.136089056690E-14
  0.189952220619E-14
 -0.237830588556E-14
  0.217707796235E-15
  0.314852310890E-15
  0.194982918700E-14
 -0.337403716077E-15
 -0.218575157973E-14
 -0.378429926284E-14
  0.321357523925E-14
 -0.336883299035E-14
  0.113103970634E-14
  0.863024929298E-15
 -0.151441359453E-14
  0.936750677027E-16
 -0.224646690139E-15
 -0.584254866709E-14
 -0.262810606610E-15
  0.145976980503E-14
 -0.503937169771E-15
 -0.918536080530E-15
 -0.400721122951E-15
 -0.144328993201E-14
 -0.147798440153E-14
 -0.685215773011E-15
  0.138257461035E-14
  0.727716498172E-15
  0.637510877421E-14
 -0.121430643318E-16
  0.160201713006E-14
  0.247545040022E-14
 -0.110154940725E-14
 -0.134441069388E-14
 -0.138083988688E-14
  0.164538521696E-14
  0.549039980147E-15
 -0.198712574173E-14
  0.177809156288E-14
 -0.273218947466E-15
 -0.233320307519E-15
 -0.493528828915E-15
 -0.116486681412E-14
  0.266540262084E-14
 -0.218314949452E-14
  0.132879818260E-14
 -0.447298448281E-14
 -0.147885176327E-14
  0.294642782395E-14
  0.415466272496E-15
 -0.118134668714E-14
 -0.341827260941E-14
 -0.188824650360E-14
 -0.103823200037E-14
 -0.474186662158E-14
 -0.914199271840E-15
  0.225167107182E-14
  0.271310751643E-14
  0.118308141062E-14
 -0.316587034366E-15
 -0.291693752486E-14
 -0.315459464106E-14
  0.994863913473E-15
  0.112757025938E-15
  0.217447587714E-14
 -0.597612237474E-15
  0.126895022268E-14
  0.396471050434E-14
  0.477048955894E-15
 -0.175987696638E-14
  0.208166817117E-15
  0.128369537222E-14
  0.908995101412E-15
  0.247891984717E-14
  0.290392709879E-14
 -0.521457876879E-14
 -0.154737334057E-14
 -0.335061839385E-14
  0.477048955894E-15
  0.325347387919E-14
 -0.159768032137E-14
 -0.248325665586E-14
 -0.616694195710E-15
 -0.180064296806E-14
 -0.477048955894E-15
  0.199926880606E-14
  0.651562137577E-14
  0.260208521397E-15
  0.122991894447E-14
 -0.134961486431E-14
  0.206779038336E-14
  0.198886046521E-14
 -0.243555176027E-14
 -0.149099482760E-14
  0.212243417286E-14
  0.283280343627E-14
  0.173732556119E-14
  0.202615701994E-14
 -0.289872292836E-14
 -0.371230823859E-15
  0.209034178855E-15
 -0.237483643861E-14
 -0.207733136248E-14
  0.145976980503E-14
 -0.294816254742E-14
  0.274866934769E-14
  0.607153216592E-15
 -0.342868095027E-14
  0.619729961793E-14
  0.111369247158E-14
 -0.433854341342E-14
  0.170089636820E-14
  0.139038086600E-14
 -0.603683769640E-15
 -0.235055030995E-14
 -0.225514051877E-15
 -0.364291929955E-15
 -0.418068357710E-15
  0.180411241502E-14
 -0.670470623465E-15
  0.294902990916E-15
  0.210248485288E-14
  0.322138149489E-14
  0.173819292293E-14
  0.168181440996E-14
 -0.244769482460E-14
 -0.259948312875E-14
  0.115359111152E-14
  0.615826833972E-16
 -0.994863913473E-15
 -0.147278023110E-14
  0.192380833486E-14
  0.117614251671E-14
  0.106078340556E-14
 -0.793635990259E-15
 -0.393782229047E-15
  0.939352762241E-15
 -0.584601811404E-15
 -0.130711413915E-14
  0.474446870680E-15
  0.243988856896E-14
 -0.281372147803E-14
 -0.193681876093E-14
 -0.104083408559E-16
 -0.193855348440E-15
 -0.348636050584E-14
  0.199059518868E-15
 -0.395083271654E-15
 -0.318755438711E-15
  0.805779054591E-15
 -0.339268543814E-14
 -0.275040407116E-14
  0.242731182376E-14
 -0.193204827137E-14
 -0.577662917500E-15
  0.153826604232E-14
  0.136175792864E-15
  0.160028240659E-15
  0.117093834628E-15
  0.517381276710E-15
  0.376868675156E-15
 -0.498732999343E-16
 -0.148752538065E-15
  0.289265139619E-15
 -0.434548230732E-15
  0.251101223148E-15
 -0.493962509784E-15
  0.171737624122E-15
  0.326995375222E-15
 -0.342607886505E-15
  0.110154940725E-15
 -0.254136989231E-15
  0.691287305177E-15
  0.249800180541E-15
 -0.238090797078E-15
  0.122731685925E-15
  0.129670579829E-15
  0.489192020225E-15
  0.517381276710E-15
 -0.910729824888E-17
  0.731185945124E-15
 -0.329597460436E-16
  0.997465998687E-16
 -0.221177243187E-16
 -0.284060969191E-15
 -0.613658429627E-15
  0.138777878078E-15
 -0.137476835471E-15
  0.236789754471E-15
  0.342607886505E-15
 -0.120996962449E-15
 -0.878637440582E-15
  0.906393016198E-16
 -0.910296144019E-15
 -0.345209971719E-15
  0.341740524767E-15
  0.804478011984E-15
 -0.935449634420E-15
  0.624934132221E-15
 -0.520417042793E-17
  0.257172755314E-15
 -0.202528965820E-15
 -0.324826970877E-15
 -0.172388145425E-14
 -0.880372164058E-16
 -0.568121938382E-15
 -0.370797142990E-15
  0.325694332615E-15
  0.353449908230E-15
  0.347812056933E-15
 -0.153523027624E-15
 -0.416333634234E-16
 -0.160461921528E-15
 -0.313551268283E-15
 -0.110154940725E-15
  0.362123525610E-15
 -0.543835809719E-15
 -0.325260651746E-15
  0.519549681055E-15
 -0.559448321003E-16
  0.628403579173E-15
  0.299673480475E-15
  0.231585584043E-15
 -0.627102536566E-15
  0.369929781252E-15
  0.240259201423E-15
 -0.107119174642E-15
 -0.463171168086E-15
  0.421971485531E-15
  0.731619625993E-15
 -0.203830008427E-16
  0.356485674313E-15
 -0.435415592470E-15