# vtk DataFile Version 3.0
MachLine results file. Generated by MachLine, USU AeroLab (c) 2022.
ASCII
DATASET POLYDATA
POINTS                3398 float
  0.780361817930E-08  0.000000000000E+00 -0.565439957942E-02
  0.659674850371E-03  0.000000000000E+00 -0.532141220617E-02
  0.659674155164E-03  0.778304911763E-04 -0.533360972175E-02
  0.659674005477E-03  0.147993645983E-03 -0.536940816473E-02
  0.659673779535E-03  0.203681419263E-03 -0.542510581269E-02
  0.659673495886E-03  0.239410019364E-03 -0.549520287418E-02
  0.659673182319E-03  0.251619599115E-03 -0.557309966146E-02
  0.659672870882E-03  0.239410197026E-03 -0.565089646568E-02
  0.659672588537E-03  0.203681765904E-03 -0.572109359799E-02
  0.659672366483E-03  0.147994142142E-03 -0.577669136255E-02
  0.659672228296E-03  0.778310998274E-04 -0.581248996755E-02
  0.659671660648E-03  0.000000000000E+00 -0.582469236110E-02
  0.263270685301E-02  0.000000000000E+00 -0.463762242761E-02
  0.263270625797E-02  0.237683807991E-03 -0.467491906501E-02
  0.263270604021E-02  0.451948205431E-03 -0.478411620758E-02
  0.263270570296E-02  0.622003765416E-03 -0.495411177339E-02
  0.263270527527E-02  0.731120904143E-03 -0.516840617137E-02
  0.263270479979E-02  0.768409918511E-03 -0.540609998575E-02
  0.263270432698E-02  0.731120892396E-03 -0.564379379628E-02
  0.263270389497E-02  0.622003746946E-03 -0.585798818286E-02
  0.263270355167E-02  0.451948194271E-03 -0.602808373181E-02
  0.263270333060E-02  0.237683803760E-03 -0.613718086783E-02
  0.263270295775E-02  0.000000000000E+00 -0.617448227155E-02
  0.590180857129E-02  0.000000000000E+00 -0.370463266098E-02
  0.590180803445E-02  0.455810649383E-03 -0.377612882583E-02
  0.590180775206E-02  0.866722184207E-03 -0.398542450246E-02
  0.590180731511E-02  0.119287547856E-02 -0.431151779465E-02
  0.590180676308E-02  0.140207116243E-02 -0.472240932612E-02
  0.590180615136E-02  0.147356967931E-02 -0.517819998673E-02
  0.590180554420E-02  0.140207114897E-02 -0.563399064292E-02
  0.590180499098E-02  0.119287545740E-02 -0.604498216218E-02
  0.590180455171E-02  0.866722166757E-03 -0.637107543835E-02
  0.590180426954E-02  0.455810642160E-03 -0.658037110445E-02
  0.590180392838E-02  0.000000000000E+00 -0.665187197128E-02
  0.104400101028E-01  0.000000000000E+00 -0.256534285486E-02
  0.104400096006E-01  0.722147497616E-03 -0.267863856079E-02
  0.104400092609E-01  0.137317617849E-02 -0.301013277426E-02
  0.104400087365E-01  0.188986721380E-02 -0.352682379836E-02
  0.104400080757E-01  0.222136144790E-02 -0.417781247404E-02
  0.104400073443E-01  0.233465946717E-02 -0.489999998666E-02
  0.104400066190E-01  0.222136143202E-02 -0.562218749280E-02
  0.104400059584E-01  0.188986718704E-02 -0.627317615656E-02
  0.104400054350E-01  0.137317615526E-02 -0.678986716067E-02
  0.104400050991E-01  0.722147485471E-03 -0.712136136085E-02
  0.104400047718E-01  0.000000000000E+00 -0.723466167659E-02
  0.162130114869E-01  0.000000000000E+00 -0.124835296651E-02
  0.162130110091E-01  0.102998436735E-02 -0.140994822068E-02
  0.162130106178E-01  0.195857021756E-02 -0.188284098128E-02
  0.162130100147E-01  0.269555901339E-02 -0.261982975533E-02
  0.162130092561E-01  0.316845180984E-02 -0.354831559888E-02
  0.162130084171E-01  0.333004933488E-02 -0.457839998592E-02
  0.162130075857E-01  0.316845178982E-02 -0.560838436833E-02
  0.162130068292E-01  0.269555898188E-02 -0.653697019397E-02
  0.162130062297E-01  0.195857018669E-02 -0.727395894731E-02
  0.162130058458E-01  0.103008435160E-02 -0.774685168997E-02
  0.162130055263E-01  0.000000000000E+00 -0.790845145306E-02
  0.231840127458E-01  0.000000000000E+00  0.224347019526E-03
  0.231840122865E-01  0.137428126812E-02  0.871831405837E-05
  0.231840118485E-01  0.261326431519E-02 -0.622239106772E-03
  0.231840111746E-01  0.359655089377E-02 -0.160553565193E-02
  0.231840103267E-01  0.422744226740E-02 -0.284441869119E-02
  0.231840093901E-01  0.444313930339E-02 -0.421879998609E-02
  0.231840084626E-01  0.422744224353E-02 -0.559308127481E-02
  0.231840076192E-01  0.359655085728E-02 -0.683206429188E-02
  0.231840069512E-01  0.261326427936E-02 -0.781525081279E-02
  0.231840065232E-01  0.137428124848E-02 -0.844624211338E-02
  0.231840062075E-01  0.000000000000E+00 -0.866184133060E-02
  0.313170138906E-01  0.000000000000E+00  0.183422709452E-02
  0.313170134468E-01  0.175067819797E-02  0.155953274075E-02
  0.313170129664E-01  0.332885847003E-02  0.755782845826E-03
  0.313170122278E-01  0.458144285348E-02 -0.496751492795E-03
  0.313170112994E-01  0.538513281711E-02 -0.207492175196E-02
  0.313170102741E-01  0.565982936935E-02 -0.382559998676E-02
  0.313170092593E-01  0.538513278970E-02 -0.557627821146E-02
  0.313170083366E-01  0.458144281030E-02 -0.715455844768E-02
  0.313170076066E-01  0.332885842730E-02 -0.840704275794E-02
  0.313170071395E-01  0.175067817606E-02 -0.921083262846E-02
  0.313170068261E-01  0.000000000000E+00 -0.948543131144E-02
  0.405800149292E-01  0.000000000000E+00  0.356481695642E-02
  0.405800144964E-01  0.215527509397E-02  0.322662316039E-02
  0.405800139779E-01  0.409815255813E-02  0.223713470814E-02
  0.405800131809E-01  0.564023472235E-02  0.695162600783E-03
  0.405800121795E-01  0.662962326043E-02 -0.124772484765E-02
  0.405800110742E-01  0.696781932351E-02 -0.340299998635E-02
  0.405800099804E-01  0.662962322998E-02 -0.555827511395E-02
  0.405800089861E-01  0.564023467365E-02 -0.750115253777E-02
  0.405800081992E-01  0.409815250883E-02 -0.904323461349E-02
  0.405800076953E-01  0.215527506923E-02 -0.100329230380E-01
  0.405800073817E-01  0.000000000000E+00 -0.103709212829E-01
  0.509980158502E-01  0.000000000000E+00  0.540100671382E-02
  0.509980154307E-01  0.258447193863E-02  0.499551341613E-02
  0.509980148784E-01  0.491444654598E-02  0.380902643048E-02
  0.509980140294E-01  0.676362645172E-02  0.195984659349E-02
  0.509980129631E-01  0.795011354019E-02 -0.370077996112E-03
  0.509980117864E-01  0.835560910632E-02 -0.295459998645E-02
  0.509980106222E-01  0.795011350709E-02 -0.553907196380E-02
  0.509980095640E-01  0.676362639856E-02 -0.786904652752E-02
  0.509980087263E-01  0.491444649494E-02 -0.971822632827E-02
  0.509980081904E-01  0.258447190763E-02 -0.109049132868E-01
  0.509980078797E-01  0.000000000000E+00 -0.113099110184E-01
  0.625590166639E-01  0.000000000000E+00  0.732869641690E-02
  0.625590162578E-01  0.303516876767E-02  0.685250363021E-02
  0.625590156750E-01  0.577134050764E-02  0.545911811680E-02
  0.625590147803E-01  0.794291814580E-02  0.328754055833E-02
  0.625590136564E-01  0.933640377655E-02  0.551318843302E-03
  0.625590124159E-01  0.981259884403E-02 -0.248389998981E-02
  0.625590111909E-01  0.933640374268E-02 -0.551906879788E-02
  0.625590100750E-01  0.794291808891E-02 -0.825524049020E-02
  0.625590091937E-01  0.577134045397E-02 -0.104269180095E-01
  0.625590086287E-01  0.303516873005E-02 -0.118199034958E-01
  0.625590083212E-01  0.000000000000E+00 -0.122969007191E-01
  0.752570173670E-01  0.000000000000E+00  0.933428583216E-02
  0.752570169750E-01  0.350406552955E-02  0.878449364326E-02
  0.752570163653E-01  0.666283434211E-02  0.717580963290E-02
  0.752570154295E-01  0.916990966767E-02  0.466873439800E-02
  0.752570142574E-01  0.107788938116E-01  0.150986561443E-02
  0.752570129619E-01  0.113278883699E-01 -0.199409998500E-02
  0.752570116806E-01  0.107788937737E-01 -0.549816557452E-02
  0.752570105178E-01  0.916990960935E-02 -0.865693432718E-02
  0.752570095973E-01  0.666283428323E-02 -0.111639095236E-01
  0.752570090093E-01  0.350406549389E-02 -0.127728935029E-01
  0.752570087031E-01  0.000000000000E+00 -0.133228902885E-01
  0.891300179684E-01  0.000000000000E+00  0.114038788973E-01
  0.891300176203E-01  0.398796302138E-02  0.107788858780E-01
  0.891300169859E-01  0.758312955183E-02  0.894770304256E-02
  0.891300160130E-01  0.104359030825E-01  0.609452961594E-02
  0.891300147939E-01  0.122668860762E-01  0.249936309424E-02
  0.891300134522E-01  0.128928802335E-01 -0.148859998180E-02
  0.891300121209E-01  0.122668860321E-01 -0.547656306161E-02
  0.891300109124E-01  0.104359030150E-01 -0.907162954436E-02
  0.891300099606E-01  0.758312948626E-02 -0.119249029253E-01
  0.891300093502E-01  0.398796297535E-02 -0.137558857286E-01
  0.891300090667E-01  0.000000000000E+00 -0.143818808739E-01
  0.103470018564E+00  0.000000000000E+00  0.135258688435E-01
  0.103470018193E+00  0.448396036461E-02  0.128228776888E-01
  0.103470017540E+00  0.852622449585E-02  0.107638960881E-01
  0.103470016539E+00  0.117338961314E-01  0.755582456917E-02
  0.103470015282E+00  0.137928779084E-01  0.351346044901E-02
  0.103470013895E+00  0.144968716486E-01 -0.970469986600E-03
  0.103470012522E+00  0.137928778666E-01 -0.545446040363E-02
  0.103470011274E+00  0.117338960652E-01 -0.949672449117E-02
  0.103470010287E+00  0.852622442778E-02 -0.127048959679E-01
  0.103470009656E+00  0.448396032858E-02 -0.147638775319E-01
  0.103470009352E+00  0.000000000000E+00 -0.154668736953E-01
  0.119090018894E+00  0.000000000000E+00  0.156868567495E-01
  0.119090018543E+00  0.498905668318E-02  0.149038663452E-01
  0.119090017879E+00  0.948661749335E-02  0.126128864441E-01
  0.119090016858E+00  0.130558864954E-01  0.904381756629E-02
  0.119090015575E+00  0.153468665799E-01  0.454615677910E-02
  0.119090014159E+00  0.161298597420E-01 -0.442859988863E-03
  0.119090012762E+00  0.153468665382E-01 -0.543195673765E-02
  0.119090011492E+00  0.130558864326E-01 -0.992951748827E-02
  0.119090010484E+00  0.948661742971E-02 -0.134988863260E-01
  0.119090009839E+00  0.498905665083E-02 -0.157898661929E-01
  0.119090009543E+00  0.000000000000E+00 -0.165718619345E-01
  0.136080019179E+00  0.000000000000E+00  0.178728534070E-01
  0.136080018899E+00  0.550025476433E-02  0.170098603978E-01
  0.136080018218E+00  0.104589138353E-01  0.144848813902E-01
  0.136080017175E+00  0.143938814543E-01  0.105499139045E-01
  0.136080015864E+00  0.169188606552E-01  0.559135486129E-02
  0.136080014421E+00  0.177818535128E-01  0.911200101922E-04
[...]
POINT_DATA                3398
SCALARS phi float 1
LOOKUP_TABLE default
 -0.212503625807E-16
  0.997465998687E-17
  0.130104260698E-17
  0.134441069388E-16
  0.195156391047E-16
 -0.108420217249E-16
  0.134441069388E-16
  0.000000000000E+00
  0.433680868994E-18
  0.433680868994E-18
 -0.156125112838E-16
  0.125767452008E-16
 -0.108420217249E-16
  0.212503625807E-16
 -0.138777878078E-16
 -0.173472347598E-17
 -0.823993651089E-17
 -0.169135538908E-16
  0.954097911787E-17
 -0.138777878078E-16
 -0.650521303491E-17
 -0.780625564190E-17
 -0.182145964978E-16
  0.000000000000E+00
 -0.130104260698E-16
 -0.910729824888E-17
 -0.737257477290E-17
  0.780625564190E-17
 -0.823993651089E-17
  0.173472347598E-17
  0.190819582357E-16
 -0.138777878078E-16
  0.138777878078E-16
 -0.260208521397E-16
  0.390312782095E-17
 -0.130104260698E-17
  0.390312782095E-17
  0.520417042793E-17
 -0.130104260698E-16
  0.164798730218E-16
  0.563785129692E-17
 -0.737257477290E-17
  0.520417042793E-17
 -0.433680868994E-18
  0.477048955894E-17
  0.433680868994E-17
 -0.151788304148E-16
 -0.312250225676E-16
  0.104083408559E-16
  0.520417042793E-17
  0.281892564846E-16
  0.910729824888E-17
 -0.867361737988E-18
 -0.221177243187E-16
 -0.477048955894E-17
 -0.346944695195E-17
 -0.130104260698E-16
 -0.303576608296E-17
  0.650521303491E-17
  0.260208521397E-17
 -0.303576608296E-17
 -0.134441069388E-16
  0.650521303491E-17
  0.325260651746E-16
 -0.910729824888E-17
  0.121430643318E-16
 -0.173472347598E-16
  0.403323208165E-16
 -0.156125112838E-16
  0.390312782095E-17
 -0.433680868994E-18
 -0.650521303491E-17
  0.520417042793E-17
 -0.260208521397E-16
 -0.346944695195E-17
  0.607153216592E-17
  0.780625564190E-17
 -0.121430643318E-16
 -0.433680868994E-18
  0.910729824888E-17
 -0.130104260698E-17
 -0.693889390391E-17
 -0.208166817117E-16
 -0.208166817117E-16
 -0.303576608296E-16
  0.242861286637E-16
 -0.433680868994E-17
  0.433680868994E-17
  0.225514051877E-16
  0.169135538908E-16
  0.108420217249E-16
 -0.260208521397E-17
 -0.173472347598E-17
 -0.112757025938E-16
  0.286229373536E-16
  0.104083408559E-16
  0.147451495458E-16
 -0.294902990916E-16
 -0.199493199737E-16
 -0.173472347598E-16
 -0.112757025938E-16
  0.225514051877E-16
 -0.260208521397E-17
 -0.164798730218E-16
  0.190819582357E-16
 -0.173472347598E-17
 -0.260208521397E-17
  0.173472347598E-16
  0.173472347598E-16
  0.867361737988E-18
 -0.451028103754E-16
 -0.329597460436E-16
  0.121430643318E-16
  0.156125112838E-16
 -0.346944695195E-16
 -0.954097911787E-17
  0.251534904017E-16
  0.121430643318E-16
  0.138777878078E-16
  0.112757025938E-16
 -0.104083408559E-16
 -0.693889390391E-17
  0.199493199737E-16
 -0.173472347598E-16
 -0.130104260698E-16
  0.173472347598E-17
 -0.104083408559E-16
  0.234187669257E-16
  0.156125112838E-16
  0.693889390391E-17
  0.104083408559E-16
 -0.251534904017E-16
  0.693889390391E-17
 -0.520417042793E-17
  0.121430643318E-16
 -0.954097911787E-17
  0.242861286637E-16
 -0.433680868994E-17
 -0.182145964978E-16
 -0.173472347598E-16
  0.225514051877E-16
  0.780625564190E-17
  0.433680868994E-17
 -0.164798730218E-16
  0.303576608296E-16
 -0.173472347598E-16
 -0.104083408559E-16
 -0.867361737988E-17
 -0.355618312575E-16
  0.607153216592E-17
 -0.520417042793E-17
  0.173472347598E-16
 -0.693889390391E-17
  0.390312782095E-16
  0.329597460436E-16
 -0.433680868994E-17
 -0.780625564190E-17
  0.867361737988E-18
  0.000000000000E+00
  0.954097911787E-17
  0.173472347598E-17
  0.173472347598E-16
  0.173472347598E-16
 -0.346944695195E-17
 -0.442354486374E-16
  0.190819582357E-16
  0.867361737988E-18
  0.104083408559E-16
  0.147451495458E-16
  0.000000000000E+00
 -0.867361737988E-17
  0.173472347598E-17
 -0.346944695195E-17
  0.225514051877E-16
  0.173472347598E-17
  0.433680868994E-16
 -0.190819582357E-16
  0.693889390391E-17
 -0.277555756156E-16
 -0.693889390391E-16
  0.173472347598E-17
  0.130104260698E-16
 -0.355618312575E-16
  0.433680868994E-16
 -0.867361737988E-17
 -0.251534904017E-16
  0.433680868994E-17
  0.208166817117E-16
  0.607153216592E-17
 -0.520417042793E-17
 -0.112757025938E-16
 -0.156125112838E-16
  0.329597460436E-16
 -0.173472347598E-16
 -0.173472347598E-16
  0.346944695195E-16
  0.520417042793E-17
  0.563785129692E-16
  0.182145964978E-16
 -0.867361737988E-18
 -0.260208521397E-17
 -0.225514051877E-16
  0.112757025938E-16
 -0.954097911787E-17
 -0.867361737988E-17
  0.104083408559E-16
 -0.182145964978E-16
  0.225514051877E-16
 -0.199493199737E-16
  0.225514051877E-16
  0.186482773668E-16
 -0.130104260698E-16
  0.151788304148E-16
  0.112757025938E-16
 -0.433680868994E-17
  0.303576608296E-16
  0.433680868994E-17
 -0.867361737988E-17
 -0.199493199737E-16
 -0.104083408559E-16
  0.147451495458E-16
  0.216840434497E-17
 -0.355618312575E-16
 -0.780625564190E-17
  0.173472347598E-17
 -0.208166817117E-16
 -0.199493199737E-16
 -0.268882138776E-16
  0.693889390391E-17
  0.954097911787E-17
 -0.433680868994E-17
 -0.320923843056E-16
  0.000000000000E+00
 -0.433680868994E-17
  0.251534904017E-16
 -0.433680868994E-17
  0.260208521397E-16
 -0.199493199737E-16
 -0.147451495458E-16
  0.372965547335E-16
  0.346944695195E-17
 -0.173472347598E-17
 -0.425007251614E-16
  0.867361737988E-17
 -0.138777878078E-16
 -0.398986399475E-16
 -0.151788304148E-16
 -0.780625564190E-17
 -0.598479599212E-16
 -0.520417042793E-17
 -0.104083408559E-16
 -0.355618312575E-16
 -0.130104260698E-16
 -0.338271077815E-16
 -0.169135538908E-16
 -0.325260651746E-16
 -0.199493199737E-16
  0.867361737988E-17
  0.780625564190E-17
 -0.173472347598E-17
  0.433680868994E-17
  0.234187669257E-16
  0.381639164715E-16
  0.867361737988E-17
 -0.607153216592E-17
  0.294902990916E-16
 -0.954097911787E-17
 -0.520417042793E-17
  0.346944695195E-17
  0.325260651746E-16
 -0.520417042793E-17
 -0.398986399475E-16
  0.130104260698E-16
 -0.338271077815E-16
  0.164798730218E-16
 -0.138777878078E-16
 -0.290566182226E-16
 -0.401154803820E-16
  0.000000000000E+00
 -0.151788304148E-16
 -0.156125112838E-16
  0.607153216592E-17
 -0.346944695195E-16
  0.390312782095E-16
  0.346944695195E-16
 -0.312250225676E-16
  0.208166817117E-16
 -0.498732999343E-17
 -0.117093834628E-16
 -0.156125112838E-16
 -0.234187669257E-16
  0.234187669257E-16
  0.130104260698E-16
 -0.286229373536E-16
 -0.156125112838E-16
  0.173472347598E-16
  0.407660016855E-16
  0.286229373536E-16
 -0.192987986702E-16
 -0.177809156288E-16
  0.110588621594E-16
  0.147451495458E-16
 -0.247198095327E-16
  0.338271077815E-16
  0.407660016855E-16
  0.164798730218E-16
 -0.173472347598E-16
 -0.112757025938E-16
 -0.954097911787E-17
 -0.197324795392E-16
 -0.212503625807E-16
 -0.325260651746E-17
 -0.247198095327E-16
 -0.229850860567E-16
  0.433680868994E-17
 -0.225514051877E-16
  0.242861286637E-16
  0.867361737988E-18
  0.338271077815E-16
  0.303576608296E-16
  0.292734586571E-17
  0.300324001778E-16
 -0.192987986702E-16
  0.325260651746E-17
  0.867361737988E-18
 -0.264545330086E-16
 -0.867361737988E-17
 -0.164798730218E-16
 -0.867361737988E-17
  0.346944695195E-17
  0.156125112838E-16
  0.522585447138E-16
  0.203830008427E-16
 -0.185398571495E-16
 -0.997465998687E-17
  0.303576608296E-17
 -0.485722573274E-16
  0.607153216592E-17
  0.433680868994E-17
 -0.372965547335E-16
  0.102348685083E-15
 -0.294902990916E-16
 -0.132814766129E-16
  0.215756232325E-16
 -0.248282297499E-16
  0.216840434497E-16
  0.572458747072E-16
 -0.151788304148E-16
 -0.407660016855E-16
 -0.268882138776E-16
  0.182145964978E-16
  0.199493199737E-16
  0.268882138776E-16
  0.440728183115E-16
 -0.313334427848E-16
 -0.173472347598E-16
  0.114925430283E-16
 -0.390312782095E-16
  0.329597460436E-16
  0.216840434497E-16
 -0.468375338514E-16
 -0.581132364452E-16
  0.433680868994E-16
  0.286229373536E-16
 -0.407117915768E-16
  0.277555756156E-16
 -0.281892564846E-16
 -0.277555756156E-16
 -0.455364912444E-16
 -0.511743425413E-16
 -0.147451495458E-16
  0.867361737988E-17
  0.173472347598E-16
 -0.121430643318E-16
 -0.268882138776E-16
 -0.303576608296E-16
  0.225514051877E-16
  0.459701721134E-16
 -0.259124319224E-16
  0.307913416986E-16
 -0.160461921528E-16
 -0.303576608296E-16
 -0.693889390391E-17
 -0.902056207508E-16
 -0.693889390391E-16
  0.555111512313E-16
  0.563785129692E-16
 -0.426091453787E-16
 -0.770867744637E-16
 -0.680878964321E-16
 -0.672205346941E-16
  0.242861286637E-16
  0.000000000000E+00
  0.190785701040E-16
  0.557822017744E-16
  0.459701721134E-16
  0.578963960107E-16
  0.702563007771E-16
  0.169135538908E-16
 -0.459701721134E-16
  0.294902990916E-16
 -0.248959923857E-16
  0.496564594998E-16
 -0.457533316789E-16
 -0.112757025938E-16
  0.182145964978E-16
 -0.294902990916E-16
  0.290566182226E-16
 -0.106034972469E-15
 -0.709813609799E-17
 -0.215756232325E-16
 -0.264545330086E-16
 -0.260208521397E-17
  0.954097911787E-17
 -0.234187669257E-16
 -0.119262238973E-16
  0.164798730218E-16
 -0.189735380185E-17
 -0.276471553984E-17
  0.628837260042E-17
 -0.468375338514E-16
 -0.546437894933E-16
 -0.416333634234E-16
  0.216840434497E-16
 -0.141163122858E-15
 -0.138506827535E-16
  0.791467585914E-17
 -0.730752264255E-16
 -0.852182907574E-16
 -0.103216046821E-15
  0.351281503885E-16
  0.529090660173E-16
  0.288397777881E-16
  0.512827627586E-16
  0.739425881635E-16
  0.271050543121E-16
 -0.850014503229E-16
  0.103216046821E-15
  0.151788304148E-17
 -0.128369537222E-15
  0.474338450462E-16
  0.142030484596E-16
 -0.104083408559E-16
 -0.819656842399E-16
 -0.189518539750E-15
  0.548606299278E-16
 -0.752436307705E-16
 -0.300324001778E-16
  0.354330822495E-16
 -0.156775634141E-15
 -0.477048955894E-16
  0.433680868994E-16
 -0.122731685925E-15
  0.804478011984E-16
  0.709068220806E-16
  0.993671291083E-16
 -0.865251567159E-16
  0.164798730218E-16
  0.242861286637E-16
 -0.162196645004E-15
 -0.104083408559E-16
 -0.980118763927E-16
  0.533427468863E-16
  0.113190706807E-15
  0.910729824888E-17
  0.558364118830E-16
 -0.921571846613E-17
 -0.174339709336E-15
  0.459701721134E-16
 -0.235055030995E-15
 -0.299239799606E-16
 -0.615826833972E-16
 -0.516080234103E-16
  0.167617655866E-15
  0.140946282423E-17
 -0.715573433840E-16
  0.741594285980E-16
 -0.160461921528E-16
 -0.169135538908E-16
  0.210768902331E-15
 -0.109721259856E-15
 -0.203830008427E-16
  0.425007251614E-16
 -0.258256957486E-15
  0.886877377093E-16
 -0.317020715235E-15
 -0.131838984174E-15
 -0.104083408559E-16
 -0.116660153759E-15
 -0.351281503885E-16
  0.871698546678E-16
  0.127935856353E-15
  0.163931368480E-15
  0.353449908230E-16
  0.128803218091E-15
  0.350414142147E-15
 -0.572458747072E-16
 -0.693889390391E-16
  0.128369537222E-15
 -0.173038666729E-15
  0.119695919842E-15
  0.107986536380E-15
 -0.422838847269E-16
  0.224646690139E-15
  0.238524477947E-16
 -0.207299455379E-15
 -0.105818132035E-15
  0.485722573274E-16
  0.383373888191E-15
  0.236789754471E-15
 -0.425440932483E-15
  0.930245463993E-16
 -0.126092712660E-15
 -0.135525271561E-15
 -0.202962646689E-15
 -0.409394740331E-15
 -0.202962646689E-15
 -0.342607886505E-15
  0.108420217249E-15
  0.203830008427E-16
 -0.142681005899E-15
  0.130104260698E-15
  0.335235311733E-15
  0.333066907388E-15
 -0.436282954208E-15
 -0.341740524767E-15
  0.143114686768E-15
  0.346944695195E-17
  0.199493199737E-16
  0.191686944095E-15
  0.189084858881E-15
  0.295987193089E-15
 -0.349113099540E-16
 -0.322658566532E-15
 -0.392914867309E-15
 -0.387710696881E-15
 -0.307046055248E-15
 -0.359955121265E-15
 -0.338271077815E-15
 -0.221394083622E-15
 -0.368086637559E-15
 -0.329597460436E-16
  0.832667268469E-16
 -0.610622663544E-15
  0.176941794550E-15
  0.508273978461E-15
 -0.232452945781E-15
 -0.539499001029E-15
  0.709935582544E-15
  0.281242043543E-15
  0.534728511470E-15
 -0.437150315946E-15
 -0.164798730218E-15
  0.607153216592E-16
 -0.292300905702E-15
 -0.174339709336E-15
  0.341740524767E-15
 -0.672639027810E-15
 -0.910729824888E-17
  0.207299455379E-15
 -0.476181594156E-15
  0.459701721134E-15
  0.114491749414E-15
 -0.281892564846E-15
  0.873433270154E-15
  0.299239799606E-15
  0.568989300120E-15
 -0.222911966663E-15
  0.351281503885E-16
 -0.567254576644E-15
 -0.862591248429E-15
 -0.268014777038E-15
  0.109287578987E-14
 -0.182145964978E-15
  0.723379689482E-15
  0.680878964321E-15
  0.182145964978E-16
  0.758941520740E-15
  0.281025203108E-15
  0.949761103097E-16
  0.835269353683E-15
  0.247198095327E-15
 -0.359955121265E-15
 -0.150400525367E-14
  0.115185638805E-14
 -0.160895602397E-14
 -0.109374315160E-14
  0.624500451352E-15
 -0.220223145275E-14
  0.783227649404E-15
 -0.344342609981E-15
 -0.125724083921E-14
 -0.203222855211E-14
 -0.801008565032E-15
  0.277555756156E-15
 -0.850014503229E-15
  0.650521303491E-16
 -0.116226472890E-15
 -0.190646110010E-14
  0.325260651746E-15
 -0.191773680269E-14
 -0.140512601554E-15
  0.111629455679E-14
 -0.202095284951E-15
  0.175076966813E-14
  0.438017677684E-15
 -0.893382590128E-16
 -0.230804958479E-14
  0.737257477290E-16
  0.190385901488E-14
  0.217794532409E-14
 -0.123165366794E-15
 -0.381032011498E-14
  0.165362515347E-14
 -0.918969761399E-15
  0.146887710328E-14
 -0.411996825544E-15
  0.390312782095E-16
 -0.461436444610E-15
 -0.202615701994E-14
 -0.271917904859E-14
  0.299239799606E-15
  0.171737624122E-15
 -0.891647866652E-15
 -0.613831901974E-14
  0.119088766626E-14
  0.107119174642E-14
  0.347812056933E-15
 -0.494396190653E-15
 -0.158813934226E-14
  0.157599627792E-14
 -0.146670869894E-14
  0.345209971719E-15
 -0.151788304148E-15
  0.123945992359E-14
 -0.239825520554E-14
 -0.483424064668E-14
  0.119609183669E-14
  0.113884596198E-14
  0.425614404831E-14
 -0.519549681055E-15
 -0.535075456165E-14
  0.115359111152E-15
  0.125160298792E-14
  0.243555176027E-14
  0.856953397133E-15
 -0.697358837343E-15
 -0.175033598726E-14
 -0.550774703623E-15
  0.103562991516E-14
  0.683481049535E-15
  0.112496817417E-14
  0.797105437211E-15
 -0.267147415300E-15
  0.179543879764E-14
  0.211202583200E-14
  0.389792365052E-14
  0.304487338121E-14
  0.493962509784E-14
  0.674373751286E-15
  0.359955121265E-14
 -0.295770352654E-15
  0.735522753814E-15
  0.285188539451E-14
 -0.162196645004E-14
  0.412603978761E-14
  0.750181167186E-14
 -0.196630906002E-14
 -0.203483063732E-14
 -0.127935856353E-15
  0.290566182226E-16
 -0.493962509784E-15
 -0.332199545650E-15
  0.128803218091E-14
  0.357439772225E-14
  0.258300325573E-14
 -0.478870415543E-14
 -0.291346807790E-14
  0.352148865623E-14
  0.148839274239E-14
  0.356485674313E-14
  0.215365919543E-14
  0.292647850397E-14
  0.378169717763E-15
  0.372098185597E-15
  0.597655605561E-14
 -0.807947458936E-15
  0.497995741866E-14
  0.258777374529E-14
 -0.128759850004E-14
  0.363554672478E-14
 -0.171434047513E-14
  0.389011739488E-15
 -0.134397701301E-14
 -0.460569082872E-14
  0.382983575409E-14
  0.712103986888E-15
  0.137910516340E-14
 -0.782360287666E-15
  0.852573220356E-14
  0.980552444796E-15
  0.610449191196E-14
 -0.232886626650E-15
  0.941521166586E-15
  0.240259201423E-15
  0.268968874950E-14
 -0.726068510870E-14
 -0.373485964378E-14
 -0.601862309990E-14
 -0.460655819046E-14
 -0.570724023596E-14
 -0.430558366737E-14
  0.460308874350E-14
  0.380424858282E-14
  0.462650751043E-14
  0.289351875793E-14
  0.743329009456E-15
 -0.121430643318E-14
 -0.373832909073E-14
 -0.342087469463E-14
  0.320663634534E-14
  0.298198965520E-14
  0.207125983032E-14
  0.406792655117E-15
  0.406445710421E-14
 -0.399853761213E-15
 -0.574193470548E-14
 -0.585469173142E-15
  0.184834786365E-14
 -0.101646122075E-13
  0.223432383706E-14
 -0.220309881449E-15
 -0.194722710178E-14
  0.155431223448E-14
  0.337837396946E-14
 -0.486156254143E-14
  0.372878811161E-14
  0.201314659387E-14
  0.165145674913E-14
  0.312336961850E-14
  0.170610053862E-14
  0.145716771982E-14
  0.751048528924E-14
  0.371317560033E-14
 -0.296897922913E-14
  0.508967867852E-14
  0.275821032680E-14
 -0.460395610524E-14
 -0.564305546735E-14
 -0.686083134749E-15
 -0.251534904017E-15
 -0.276601658245E-14
  0.686690287965E-14
 -0.217621060061E-14
 -0.231498847869E-14
 -0.110068204551E-14
  0.159941504485E-14
  0.670470623465E-15
  0.454237342185E-14
 -0.552162482403E-14
 -0.378169717763E-14
 -0.402022165558E-14
 -0.386409654274E-14
 -0.555111512313E-15
  0.256825810618E-14
  0.163150742916E-14
  0.612357387020E-15
 -0.602642935554E-14
  0.310515502200E-14
 -0.242514341942E-14
 -0.189952220619E-14
 -0.234447877778E-14
 -0.310515502200E-14
  0.373399228204E-14
 -0.138604405731E-14
 -0.683481049535E-15
 -0.439925873508E-14
  0.582867087928E-15
 -0.365506236388E-14
 -0.221784396404E-14
 -0.851749226705E-15
  0.530391702780E-14
 -0.164191577001E-14
  0.244769482460E-14
 -0.210855638505E-14
  0.616433987188E-14
  0.118568349583E-14
 -0.897719398818E-15
  0.140512601554E-15
  0.275821032680E-15
  0.811850586757E-15
  0.107119174642E-14
 -0.166793662215E-14
  0.122384741230E-14
 -0.381639164715E-15
  0.367848113081E-14
 -0.159160878921E-14
 -0.857820758871E-15
 -0.710629471934E-14
 -0.136869682255E-14
  0.222565021968E-14
  0.217881268583E-14
 -0.120910226276E-14
 -0.680011602583E-15
  0.454063869837E-14
 -0.190472637662E-14
  0.498646263170E-14
  0.174513181683E-14
 -0.136869682255E-14
 -0.174860126378E-14
  0.487544032923E-14
 -0.953230550049E-15
  0.275821032680E-15
  0.170002900646E-15
 -0.578790487760E-14
 -0.273218947466E-14
 -0.211202583200E-14
 -0.151875040322E-14
 -0.827202889520E-14
  0.140078920685E-14
  0.205651468077E-14
 -0.108333481075E-14
  0.592841747915E-14
  0.429257324130E-14
 -0.188911386534E-14
  0.261683036351E-14
  0.471844785466E-14
 -0.188651178012E-14
  0.264718802434E-14
 -0.585989590185E-14
  0.532299898603E-14
  0.680878964321E-15
  0.161416019440E-14
  0.313984949152E-15
 -0.232886626650E-14
  0.254136989231E-14
 -0.449466852626E-14
 -0.383807569060E-14
 -0.227855928570E-14
 -0.393695492873E-14
 -0.139731975990E-14
 -0.189171595055E-14
 -0.467161032081E-14
 -0.401588484689E-14
  0.580958892105E-14
 -0.185008258713E-14
  0.400547650603E-14
  0.891647866652E-15
  0.255958448880E-14
 -0.476962219720E-14
 -0.159854768311E-14
 -0.164365049349E-14
  0.476528538851E-14
 -0.147711703979E-14
 -0.279290479632E-15
 -0.251968584886E-14
  0.111802928027E-14
 -0.363511304391E-14
 -0.680532019626E-14
  0.776288755500E-14
  0.131925720348E-14
 -0.283583920235E-14
 -0.143808576158E-14
 -0.264545330086E-14
  0.324089713399E-14
  0.861290205822E-15
  0.503069808033E-15
 -0.216406753628E-15
  0.670991040508E-14
 -0.187393503492E-14
  0.428173121958E-14
 -0.515646553234E-15
 -0.335668992602E-15
 -0.675241113024E-15
 -0.520417042793E-15
  0.169135538908E-15
 -0.685215773011E-16
 -0.241560244030E-15
  0.654858112181E-16
  0.390312782095E-17
  0.346944695195E-17
 -0.494396190653E-16
  0.199059518868E-15
  0.473579508942E-15
 -0.209901540593E-15
 -0.269749500514E-15
 -0.975781955237E-16
 -0.184748050192E-15
 -0.197758476261E-15
 -0.108853898118E-15
 -0.377736036894E-15
  0.264545330086E-16
  0.475314232418E-15
 -0.388144377750E-15
  0.486156254143E-15
 -0.315285991759E-15
  0.641847686111E-16
  0.919403442268E-16
 -0.887311057962E-15
 -0.697358837343E-15
 -0.732920668600E-16
 -0.472712147204E-15
  0.356919355182E-15
  0.297071395261E-15
 -0.398119037737E-15
  0.418502038579E-15
  0.234187669257E-15
 -0.223779328401E-15
 -0.313551268283E-15
  0.787998138962E-15
  0.290566182226E-16
 -0.500467722819E-15
 -0.252402265755E-15
 -0.572025066203E-15
 -0.343908929112E-15
 -0.177375475419E-15
  0.587637577487E-15
 -0.232886626650E-15
  0.712971348626E-15
 -0.608887940068E-15
 -0.664399091299E-15
  0.663531729561E-16
 -0.728583859910E-15
  0.104083408559E-16
 -0.309648140462E-15
  0.637510877421E-16
 -0.737257477290E-17
 -0.285362011798E-15
 -0.323092247401E-15
 -0.194722710178E-15
  0.290566182226E-15
  0.148752538065E-15
 -0.323092247401E-15
 -0.489625701094E-15
  0.455364912444E-16
  0.470977423728E-15
 -0.119695919842E-15
  0.108420217249E-16
  0.108420217249E-15
  0.767615138120E-16
 -0.495697233260E-15
  0.523452808876E-15
 -0.529090660173E-16
  0.134874750257E-15
 -0.467074295907E-15
 -0.224646690139E-15
  0.418502038579E-15
  0.287964097012E-15