# vtk DataFile Version 3.0
MachLine results file. Generated by MachLine, USU AeroLab (c) 2022.
ASCII
DATASET POLYDATA
POINTS                3398 float
  0.000000000000E+00  0.000000000000E+00 -0.565440000000E-02
  0.659670000000E-03  0.000000000000E+00 -0.532140000000E-02
  0.659670000000E-03  0.778340000000E-04 -0.533360000000E-02
  0.659670000000E-03  0.148000000000E-03 -0.536940000000E-02
  0.659670000000E-03  0.203690000000E-03 -0.542510000000E-02
  0.659670000000E-03  0.239420000000E-03 -0.549520000000E-02
  0.659670000000E-03  0.251630000000E-03 -0.557310000000E-02
  0.659670000000E-03  0.239420000000E-03 -0.565090000000E-02
  0.659670000000E-03  0.203690000000E-03 -0.572110000000E-02
  0.659670000000E-03  0.148000000000E-03 -0.577670000000E-02
  0.659670000000E-03  0.778340000000E-04 -0.581250000000E-02
  0.659670000000E-03  0.000000000000E+00 -0.582470000000E-02
  0.263270000000E-02  0.000000000000E+00 -0.463760000000E-02
  0.263270000000E-02  0.237690000000E-03 -0.467490000000E-02
  0.263270000000E-02  0.451960000000E-03 -0.478410000000E-02
  0.263270000000E-02  0.622020000000E-03 -0.495410000000E-02
  0.263270000000E-02  0.731140000000E-03 -0.516840000000E-02
  0.263270000000E-02  0.768430000000E-03 -0.540610000000E-02
  0.263270000000E-02  0.731140000000E-03 -0.564380000000E-02
  0.263270000000E-02  0.622020000000E-03 -0.585800000000E-02
  0.263270000000E-02  0.451960000000E-03 -0.602810000000E-02
  0.263270000000E-02  0.237690000000E-03 -0.613720000000E-02
  0.263270000000E-02  0.000000000000E+00 -0.617450000000E-02
  0.590180000000E-02  0.000000000000E+00 -0.370460000000E-02
  0.590180000000E-02  0.455820000000E-03 -0.377610000000E-02
  0.590180000000E-02  0.866740000000E-03 -0.398540000000E-02
  0.590180000000E-02  0.119290000000E-02 -0.431150000000E-02
  0.590180000000E-02  0.140210000000E-02 -0.472240000000E-02
  0.590180000000E-02  0.147360000000E-02 -0.517820000000E-02
  0.590180000000E-02  0.140210000000E-02 -0.563400000000E-02
  0.590180000000E-02  0.119290000000E-02 -0.604500000000E-02
  0.590180000000E-02  0.866740000000E-03 -0.637110000000E-02
  0.590180000000E-02  0.455820000000E-03 -0.658040000000E-02
  0.590180000000E-02  0.000000000000E+00 -0.665190000000E-02
  0.104400000000E-01  0.000000000000E+00 -0.256530000000E-02
  0.104400000000E-01  0.722160000000E-03 -0.267860000000E-02
  0.104400000000E-01  0.137320000000E-02 -0.301010000000E-02
  0.104400000000E-01  0.188990000000E-02 -0.352680000000E-02
  0.104400000000E-01  0.222140000000E-02 -0.417780000000E-02
  0.104400000000E-01  0.233470000000E-02 -0.490000000000E-02
  0.104400000000E-01  0.222140000000E-02 -0.562220000000E-02
  0.104400000000E-01  0.188990000000E-02 -0.627320000000E-02
  0.104400000000E-01  0.137320000000E-02 -0.678990000000E-02
  0.104400000000E-01  0.722160000000E-03 -0.712140000000E-02
  0.104400000000E-01  0.000000000000E+00 -0.723470000000E-02
  0.162130000000E-01  0.000000000000E+00 -0.124830000000E-02
  0.162130000000E-01  0.103000000000E-02 -0.140990000000E-02
  0.162130000000E-01  0.195860000000E-02 -0.188280000000E-02
  0.162130000000E-01  0.269560000000E-02 -0.261980000000E-02
  0.162130000000E-01  0.316850000000E-02 -0.354830000000E-02
  0.162130000000E-01  0.333010000000E-02 -0.457840000000E-02
  0.162130000000E-01  0.316850000000E-02 -0.560840000000E-02
  0.162130000000E-01  0.269560000000E-02 -0.653700000000E-02
  0.162130000000E-01  0.195860000000E-02 -0.727400000000E-02
  0.162130000000E-01  0.103010000000E-02 -0.774690000000E-02
  0.162130000000E-01  0.000000000000E+00 -0.790850000000E-02
  0.231840000000E-01  0.000000000000E+00  0.224410000000E-03
  0.231840000000E-01  0.137430000000E-02  0.877610000000E-05
  0.231840000000E-01  0.261330000000E-02 -0.622190000000E-03
  0.231840000000E-01  0.359660000000E-02 -0.160550000000E-02
  0.231840000000E-01  0.422750000000E-02 -0.284440000000E-02
  0.231840000000E-01  0.444320000000E-02 -0.421880000000E-02
  0.231840000000E-01  0.422750000000E-02 -0.559310000000E-02
  0.231840000000E-01  0.359660000000E-02 -0.683210000000E-02
  0.231840000000E-01  0.261330000000E-02 -0.781530000000E-02
  0.231840000000E-01  0.137430000000E-02 -0.844630000000E-02
  0.231840000000E-01  0.000000000000E+00 -0.866190000000E-02
  0.313170000000E-01  0.000000000000E+00  0.183430000000E-02
  0.313170000000E-01  0.175070000000E-02  0.155960000000E-02
  0.313170000000E-01  0.332890000000E-02  0.755840000000E-03
  0.313170000000E-01  0.458150000000E-02 -0.496710000000E-03
  0.313170000000E-01  0.538520000000E-02 -0.207490000000E-02
  0.313170000000E-01  0.565990000000E-02 -0.382560000000E-02
  0.313170000000E-01  0.538520000000E-02 -0.557630000000E-02
  0.313170000000E-01  0.458150000000E-02 -0.715460000000E-02
  0.313170000000E-01  0.332890000000E-02 -0.840710000000E-02
  0.313170000000E-01  0.175070000000E-02 -0.921090000000E-02
  0.313170000000E-01  0.000000000000E+00 -0.948550000000E-02
  0.405800000000E-01  0.000000000000E+00  0.356490000000E-02
  0.405800000000E-01  0.215530000000E-02  0.322670000000E-02
  0.405800000000E-01  0.409820000000E-02  0.223720000000E-02
  0.405800000000E-01  0.564030000000E-02  0.695210000000E-03
  0.405800000000E-01  0.662970000000E-02 -0.124770000000E-02
  0.405800000000E-01  0.696790000000E-02 -0.340300000000E-02
  0.405800000000E-01  0.662970000000E-02 -0.555830000000E-02
  0.405800000000E-01  0.564030000000E-02 -0.750120000000E-02
  0.405800000000E-01  0.409820000000E-02 -0.904330000000E-02
  0.405800000000E-01  0.215530000000E-02 -0.100330000000E-01
  0.405800000000E-01  0.000000000000E+00 -0.103710000000E-01
  0.509980000000E-01  0.000000000000E+00  0.540110000000E-02
  0.509980000000E-01  0.258450000000E-02  0.499560000000E-02
  0.509980000000E-01  0.491450000000E-02  0.380910000000E-02
  0.509980000000E-01  0.676370000000E-02  0.195990000000E-02
  0.509980000000E-01  0.795020000000E-02 -0.370050000000E-03
  0.509980000000E-01  0.835570000000E-02 -0.295460000000E-02
  0.509980000000E-01  0.795020000000E-02 -0.553910000000E-02
  0.509980000000E-01  0.676370000000E-02 -0.786910000000E-02
  0.509980000000E-01  0.491450000000E-02 -0.971830000000E-02
  0.509980000000E-01  0.258450000000E-02 -0.109050000000E-01
  0.509980000000E-01  0.000000000000E+00 -0.113100000000E-01
  0.625590000000E-01  0.000000000000E+00  0.732880000000E-02
  0.625590000000E-01  0.303520000000E-02  0.685260000000E-02
  0.625590000000E-01  0.577140000000E-02  0.545920000000E-02
  0.625590000000E-01  0.794300000000E-02  0.328760000000E-02
  0.625590000000E-01  0.933650000000E-02  0.551350000000E-03
  0.625590000000E-01  0.981270000000E-02 -0.248390000000E-02
  0.625590000000E-01  0.933650000000E-02 -0.551910000000E-02
  0.625590000000E-01  0.794300000000E-02 -0.825530000000E-02
  0.625590000000E-01  0.577140000000E-02 -0.104270000000E-01
  0.625590000000E-01  0.303520000000E-02 -0.118200000000E-01
  0.625590000000E-01  0.000000000000E+00 -0.122970000000E-01
  0.752570000000E-01  0.000000000000E+00  0.933440000000E-02
  0.752570000000E-01  0.350410000000E-02  0.878460000000E-02
  0.752570000000E-01  0.666290000000E-02  0.717590000000E-02
  0.752570000000E-01  0.917000000000E-02  0.466880000000E-02
  0.752570000000E-01  0.107790000000E-01  0.150990000000E-02
  0.752570000000E-01  0.113280000000E-01 -0.199410000000E-02
  0.752570000000E-01  0.107790000000E-01 -0.549820000000E-02
  0.752570000000E-01  0.917000000000E-02 -0.865700000000E-02
  0.752570000000E-01  0.666290000000E-02 -0.111640000000E-01
  0.752570000000E-01  0.350410000000E-02 -0.127730000000E-01
  0.752570000000E-01  0.000000000000E+00 -0.133230000000E-01
  0.891300000000E-01  0.000000000000E+00  0.114040000000E-01
  0.891300000000E-01  0.398800000000E-02  0.107790000000E-01
  0.891300000000E-01  0.758320000000E-02  0.894780000000E-02
  0.891300000000E-01  0.104360000000E-01  0.609460000000E-02
  0.891300000000E-01  0.122670000000E-01  0.249940000000E-02
  0.891300000000E-01  0.128930000000E-01 -0.148860000000E-02
  0.891300000000E-01  0.122670000000E-01 -0.547660000000E-02
  0.891300000000E-01  0.104360000000E-01 -0.907170000000E-02
  0.891300000000E-01  0.758320000000E-02 -0.119250000000E-01
  0.891300000000E-01  0.398800000000E-02 -0.137560000000E-01
  0.891300000000E-01  0.000000000000E+00 -0.143820000000E-01
  0.103470000000E+00  0.000000000000E+00  0.135260000000E-01
  0.103470000000E+00  0.448400000000E-02  0.128230000000E-01
  0.103470000000E+00  0.852630000000E-02  0.107640000000E-01
  0.103470000000E+00  0.117340000000E-01  0.755590000000E-02
  0.103470000000E+00  0.137930000000E-01  0.351350000000E-02
  0.103470000000E+00  0.144970000000E-01 -0.970470000000E-03
  0.103470000000E+00  0.137930000000E-01 -0.545450000000E-02
  0.103470000000E+00  0.117340000000E-01 -0.949680000000E-02
  0.103470000000E+00  0.852630000000E-02 -0.127050000000E-01
  0.103470000000E+00  0.448400000000E-02 -0.147640000000E-01
  0.103470000000E+00  0.000000000000E+00 -0.154670000000E-01
  0.119090000000E+00  0.000000000000E+00  0.156870000000E-01
  0.119090000000E+00  0.498910000000E-02  0.149040000000E-01
  0.119090000000E+00  0.948670000000E-02  0.126130000000E-01
  0.119090000000E+00  0.130560000000E-01  0.904390000000E-02
  0.119090000000E+00  0.153470000000E-01  0.454620000000E-02
  0.119090000000E+00  0.161300000000E-01 -0.442860000000E-03
  0.119090000000E+00  0.153470000000E-01 -0.543200000000E-02
  0.119090000000E+00  0.130560000000E-01 -0.992960000000E-02
  0.119090000000E+00  0.948670000000E-02 -0.134990000000E-01
  0.119090000000E+00  0.498910000000E-02 -0.157900000000E-01
  0.119090000000E+00  0.000000000000E+00 -0.165720000000E-01
  0.136080000000E+00  0.000000000000E+00  0.178730000000E-01
  0.136080000000E+00  0.550030000000E-02  0.170100000000E-01
  0.136080000000E+00  0.104590000000E-01  0.144850000000E-01
  0.136080000000E+00  0.143940000000E-01  0.105500000000E-01
  0.136080000000E+00  0.169190000000E-01  0.559140000000E-02
  0.136080000000E+00  0.177820000000E-01  0.911200000000E-04
[...]
CELL_DATA                6474
SCALARS C_p_inc float 1
LOOKUP_TABLE default
  0.230173357211E+00
  0.233115632590E+00
  0.241364441643E+00
  0.258525012739E+00
  0.288120175235E+00
  0.330738180831E+00
  0.382987907580E+00
  0.437193330914E+00
  0.482251372436E+00
  0.507886186156E+00
  0.685989607754E-01
  0.690919634710E-01
  0.672960450727E-01
  0.695043312470E-01
  0.685223598410E-01
  0.731881255022E-01
  0.781538477411E-01
  0.849865490572E-01
  0.101775437494E+00
  0.109672125183E+00
  0.141062486461E+00
  0.148907472012E+00
  0.192947879223E+00
  0.199206535990E+00
  0.248731400575E+00
  0.252728812958E+00
  0.296017638029E+00
  0.297863623259E+00
  0.323205757304E+00
  0.323531000529E+00
  0.192032672731E-01
  0.195364230762E-01
  0.149821343837E-01
  0.164349173871E-01
  0.112729502747E-01
  0.142252749335E-01
  0.153272086872E-01
  0.196219059317E-01
  0.341580296727E-01
  0.391430672175E-01
  0.702959936660E-01
  0.752262522853E-01
  0.120842494870E+00
  0.124874079750E+00
  0.176796066263E+00
  0.179445587318E+00
  0.224886183425E+00
  0.226133417987E+00
  0.252730252124E+00
  0.252983442180E+00
 -0.514570736892E-02
 -0.487237569260E-02
 -0.114108305047E-01
 -0.102526381716E-01
 -0.185978729776E-01
 -0.162860787853E-01
 -0.184892143516E-01
 -0.151437008669E-01
 -0.308132908524E-02
  0.821937456864E-03
  0.307910508502E-01
  0.346677149591E-01
  0.803831972393E-01
  0.835553580968E-01
  0.136377495407E+00
  0.138500746217E+00
  0.185002513247E+00
  0.186036981471E+00
  0.213297082156E+00
  0.213515729039E+00
 -0.204560834300E-01
 -0.201940177057E-01
 -0.282784500901E-01
 -0.272111580580E-01
 -0.381115711089E-01
 -0.360219984695E-01
 -0.410021855215E-01
 -0.379738115432E-01
 -0.281585261201E-01
 -0.246174703826E-01
  0.406674782786E-02
  0.759287098589E-02
  0.530332662184E-01
  0.559533411554E-01
  0.109221757663E+00
  0.111186516059E+00
  0.158373267394E+00
  0.159355916645E+00
  0.187094609732E+00
  0.187316752416E+00
 -0.315891716479E-01
 -0.313211557229E-01
 -0.406975927901E-01
 -0.396197682900E-01
 -0.526911419951E-01
 -0.505953029483E-01
 -0.579784720691E-01
 -0.549860025927E-01
 -0.471675356295E-01
 -0.436668890177E-01
 -0.161780776697E-01
 -0.126827087049E-01
  0.324347352742E-01
  0.353556294570E-01
  0.889535593097E-01
  0.909534893863E-01
  0.138709279962E+00
  0.139705576408E+00
  0.167866483399E+00
  0.168094727633E+00
 -0.405810578723E-01
 -0.402902454034E-01
 -0.508105630799E-01
 -0.496648494428E-01
 -0.646746691549E-01
 -0.624713971369E-01
 -0.720295651005E-01
 -0.688690918799E-01
 -0.628846668436E-01
 -0.592002115458E-01
 -0.328349469555E-01
 -0.291547473981E-01
  0.156437306970E-01
  0.187402140314E-01
  0.726427370502E-01
  0.747726824024E-01
  0.123085857724E+00
  0.124177023803E+00
  0.152734932846E+00
  0.152993734024E+00
 -0.487431973347E-01
 -0.484161397571E-01
 -0.600041239348E-01
 -0.587320030614E-01
 -0.755683306213E-01
 -0.731398541821E-01
 -0.847661003203E-01
 -0.812992727503E-01
 -0.770661096330E-01
 -0.730107327716E-01
 -0.477239199446E-01
 -0.436632064926E-01
  0.837905118585E-03
  0.426339075415E-02
  0.584923209140E-01
  0.608607541248E-01
  0.109747540671E+00
  0.110968584153E+00
  0.139954032744E+00
  0.140249132068E+00
 -0.557812244343E-01
 -0.553968608523E-01
 -0.681101547603E-01
 -0.666206554290E-01
 -0.854099673088E-01
 -0.825840250940E-01
 -0.964570943125E-01
 -0.924466620351E-01
 -0.901577065652E-01
 -0.854783909952E-01
 -0.614263817125E-01
 -0.567509205066E-01
 -0.126410216833E-01
 -0.868867740401E-02
  0.458430429166E-01
  0.485904947356E-01
  0.980661611441E-01
  0.994926369549E-01
  0.128924028448E+00
  0.129280440311E+00
 -0.616510170930E-01
 -0.612074548436E-01
 -0.750559449154E-01
 -0.733605577876E-01
 -0.941060493705E-01
 -0.909064571400E-01
 -0.107003394418E+00
 -0.102468370110E+00
 -0.102067251416E+00
 -0.967773247899E-01
 -0.738735296234E-01
 -0.685709549774E-01
 -0.247214341004E-01
 -0.202513238431E-01
  0.347117382365E-01
  0.378410719564E-01
  0.880318481882E-01
  0.896508336192E-01
  0.119591479317E+00
  0.119994758374E+00
 -0.668993883837E-01
 -0.663848446123E-01
 -0.814063802634E-01
 -0.794618470430E-01
 -0.102232405252E+00
 -0.985873439200E-01
 -0.117011797069E+00
 -0.111812555097E+00
 -0.113358614518E+00
 -0.107341128063E+00
 -0.855912507027E-01
 -0.795997731964E-01
 -0.359865481729E-01
 -0.308478216264E-01
  0.246307349907E-01
  0.281900869491E-01
  0.791739194530E-01
  0.810600261376E-01
  0.111584047612E+00
  0.112063620966E+00
 -0.684859507092E-01
 -0.678988124146E-01
 -0.842049972370E-01
 -0.819787057138E-01
 -0.106960844517E+00
 -0.102835304792E+00
 -0.123735101694E+00
 -0.117997192924E+00
 -0.121622522517E+00
 -0.114895821926E+00
 -0.942877450444E-01
 -0.876668455359E-01
 -0.441725914194E-01
 -0.386682836184E-01
  0.174942060904E-01
  0.213775088130E-01
  0.732931918775E-01
  0.753125681447E-01
  0.106484191956E+00
  0.106987072394E+00
 -0.760434148588E-01
 -0.755134173068E-01
 -0.923860768429E-01
 -0.903687143851E-01
 -0.116171269489E+00
 -0.112375374243E+00
 -0.133947588381E+00
 -0.128551019159E+00
 -0.132359155688E+00
 -0.125984694138E+00
 -0.104887885660E+00
 -0.983989184451E-01
 -0.538018708446E-01
 -0.482314765300E-01
  0.932177728963E-02
  0.132715880855E-01
  0.665095040202E-01
  0.686427647037E-01
  0.100610737991E+00
  0.101164540401E+00
 -0.850754074533E-01
 -0.842726592698E-01
 -0.102713135837E+00
 -0.997619410710E-01
 -0.128445378192E+00
 -0.122984149373E+00
 -0.148090621546E+00
 -0.140412823333E+00
 -0.147535545941E+00
 -0.138630561281E+00
 -0.119926954204E+00
 -0.111010124837E+00
 -0.675020949268E-01
 -0.598925257415E-01
 -0.223344762262E-02
  0.308826004400E-02
  0.570479059544E-01
  0.598674740988E-01
  0.924775184140E-01
  0.932143383763E-01
 -0.833038664393E-01
 -0.823922400816E-01
 -0.102595131763E+00
 -0.991770763769E-01
 -0.130930513546E+00
 -0.124600511133E+00
 -0.153212746162E+00
 -0.144422907750E+00
 -0.154486261326E+00
 -0.144395085066E+00
 -0.127379351360E+00
 -0.117450678009E+00
 -0.742053120614E-01
 -0.657998385477E-01
 -0.726257978008E-02
 -0.136737618485E-02
  0.538619956090E-01
  0.569375100031E-01
  0.904314317892E-01
  0.912254406613E-01
 -0.917714838645E-01
 -0.910004842548E-01
 -0.111545178979E+00
 -0.108709172416E+00
 -0.140758326450E+00
 -0.135486071080E+00
 -0.163904563267E+00
 -0.156370111778E+00
 -0.165461718705E+00
 -0.156521329677E+00
 -0.137766004906E+00
 -0.128662871527E+00
 -0.830814063434E-01
 -0.752102691043E-01
 -0.141849906288E-01
 -0.848977223737E-02
  0.488628067092E-01
  0.519668734976E-01
  0.866652756073E-01
  0.874846919298E-01
 -0.103108804255E+00
 -0.101917569267E+00
 -0.124565444734E+00
 -0.120178695676E+00
 -0.156142662659E+00
 -0.148117505881E+00
 -0.181453027892E+00
 -0.170232085764E+00
 -0.184015755987E+00
 -0.171014686787E+00
 -0.155712641568E+00
 -0.142748995537E+00
 -0.988382061366E-01
 -0.877835307197E-01
 -0.267375147482E-01
 -0.189829650467E-01
  0.393053326159E-01
  0.434710990432E-01
  0.790325053287E-01
  0.801314201652E-01
 -0.101843647425E+00
 -0.100511474031E+00
 -0.125282439290E+00
 -0.120336924687E+00
 -0.159984722303E+00
 -0.150859997665E+00
 -0.188344128981E+00
 -0.175701964826E+00
 -0.192910788571E+00
 -0.178291535358E+00
 -0.164802865192E+00
 -0.150342829890E+00
 -0.106447058004E+00
 -0.941905352088E-01
 -0.317288543057E-01
 -0.230991997809E-01
  0.370242948872E-01
  0.415868185295E-01
  0.784288147567E-01
  0.796288314373E-01
 -0.112252837279E+00
 -0.111029493940E+00
 -0.136501808704E+00
 -0.132043512783E+00
 -0.172576121789E+00
 -0.164329739062E+00
 -0.202232447507E+00
 -0.190526696366E+00
 -0.207138207679E+00
 -0.193377082754E+00
 -0.178145993871E+00
 -0.164159576281E+00
 -0.117504368795E+00
 -0.105374001886E+00
 -0.397299485747E-01
 -0.309733310076E-01
  0.319863000150E-01
  0.367731421012E-01
  0.752677573222E-01
  0.765528965188E-01
 -0.125113492532E+00
 -0.123346403692E+00
 -0.151572255634E+00
 -0.145134192237E+00
 -0.190792509523E+00
 -0.179039336602E+00
 -0.223345699799E+00
 -0.206869577993E+00
 -0.229514296673E+00
 -0.210393421638E+00
 -0.199499346350E+00
 -0.180430523415E+00
 -0.135684793756E+00
 -0.119407706043E+00
 -0.534279867885E-01
 -0.419277788469E-01
  0.225460000657E-01
  0.287367631474E-01
  0.685381989658E-01
  0.701861418886E-01
 -0.125415226199E+00
 -0.123412610648E+00
 -0.154493054741E+00
 -0.147098280782E+00
 -0.197745777162E+00
 -0.184205829151E+00
 -0.234193536647E+00
 -0.215396604879E+00
 -0.242789426198E+00
 -0.220933135436E+00
 -0.212599166743E+00
 -0.190900325047E+00
 -0.146203628304E+00
 -0.127738905718E+00
 -0.597830730103E-01
 -0.467585886131E-01
  0.203526924832E-01
  0.273080531972E-01
  0.689621478435E-01
  0.707906043778E-01
 -0.138400260466E+00
 -0.136484049083E+00
 -0.168838704606E+00
 -0.161886788987E+00
 -0.214320104401E+00
 -0.201489500524E+00
 -0.252766838821E+00
 -0.234685112306E+00
 -0.261987391763E+00
 -0.240734145811E+00
 -0.230495437510E+00
 -0.208928027060E+00
 -0.160697150885E+00
 -0.141964369570E+00
 -0.696007316574E-01
 -0.560760885687E-01
  0.150703407752E-01
  0.224436962881E-01
  0.664980420294E-01
  0.684962485052E-01
 -0.155916227409E+00
 -0.153301158231E+00
 -0.189328404995E+00
 -0.179805525102E+00
 -0.239067542244E+00
 -0.221666929616E+00
 -0.281415835437E+00
 -0.257007978611E+00
 -0.292234244473E+00
 -0.263776035192E+00
 -0.259120622867E+00
 -0.230606916560E+00
 -0.184588829005E+00
 -0.160140318560E+00
 -0.869158833761E-01
 -0.695203666796E-01
  0.405250540174E-02
  0.134679330582E-01
  0.595309127247E-01
  0.620335619296E-01
 -0.160389669529E+00
 -0.157273752210E+00
 -0.197738885812E+00
 -0.186276029910E+00
 -0.253520519804E+00
 -0.232420043537E+00
 -0.301667253203E+00
 -0.272152752793E+00
 -0.315840251162E+00
 -0.281446607151E+00
 -0.282093184880E+00
 -0.247753830903E+00
 -0.203092483448E+00
 -0.173767330351E+00
 -0.984638684336E-01
 -0.777008453007E-01
 -0.566870397502E-03
  0.105253281883E-01
  0.592719286366E-01
  0.622021625860E-01
 -0.175636191472E+00
 -0.172480306404E+00
 -0.215802052891E+00
 -0.204278812564E+00
 -0.275993038628E+00
 -0.254816455931E+00
 -0.328377854216E+00
 -0.298454640034E+00
 -0.344469435443E+00
 -0.309196306855E+00
 -0.309154806884E+00
 -0.273362934879E+00
 -0.224832045852E+00
 -0.193831624340E+00
 -0.112626087978E+00
 -0.903389739877E-01
 -0.732202489284E-02
  0.482678170135E-02
  0.572198939158E-01
  0.604908215436E-01
 -0.200330839569E+00
 -0.196276455949E+00
 -0.244919537227E+00
 -0.230174945431E+00
 -0.311706623641E+00
 -0.284553498596E+00
 -0.370176217511E+00
 -0.331906336443E+00
 -0.389075626957E+00
 -0.344058309411E+00
 -0.351577545039E+00
 -0.306063952761E+00
 -0.260103901329E+00
 -0.220724288206E+00
 -0.137498169284E+00
 -0.109316707440E+00
 -0.220697511901E-01
 -0.682145094576E-02
  0.489512132204E-01
  0.530138551238E-01
 -0.206687002500E+00
 -0.201414186640E+00
 -0.258490487880E+00
 -0.239112675848E+00
 -0.336221857456E+00
 -0.300450572528E+00
 -0.405349608631E+00
 -0.355071230610E+00
 -0.430496254264E+00
 -0.371709624608E+00
 -0.392289995695E+00
 -0.333359141533E+00
 -0.293185540598E+00
 -0.242732630826E+00
 -0.158474171150E+00
 -0.122715573444E+00
 -0.308315281474E-01
 -0.117266744177E-01
  0.480512146938E-01
  0.530636678413E-01
 -0.212253550720E+00
 -0.206646892198E+00
 -0.269937940588E+00
 -0.249765052960E+00
 -0.356944317746E+00
 -0.320114195643E+00
 -0.435365815816E+00
 -0.383578250882E+00
 -0.465947779015E+00
 -0.405085504575E+00
 -0.426865264441E+00
 -0.365311731505E+00
 -0.320236440289E+00
 -0.267024815436E+00
 -0.173697307694E+00
 -0.135495097672E+00
 -0.341461524697E-01
 -0.133326979744E-01
  0.523828520845E-01
  0.579999889957E-01
 -0.220242543243E+00
 -0.213559556361E+00
 -0.285973226823E+00
 -0.261228915559E+00
 -0.385457280745E+00
 -0.339487220959E+00
 -0.476195181750E+00
 -0.410951942679E+00
 -0.513888237409E+00
 -0.436710352730E+00
 -0.473354587052E+00
 -0.395182107011E+00
 -0.356475201543E+00
 -0.288915600170E+00
 -0.193717490901E+00
 -0.145605424242E+00
 -0.379655718716E-01
 -0.121826320058E-01
  0.589495034791E-01
  0.657264288255E-01
 -0.228842639781E+00
 -0.221029591290E+00
 -0.304358158132E+00
 -0.274781627278E+00
 -0.419420909012E+00
 -0.363413436722E+00
 -0.525869636680E+00
 -0.444989425065E+00
 -0.572825709531E+00
 -0.475817358102E+00
 -0.530555684979E+00
 -0.431169039341E+00
 -0.399878161565E+00
 -0.313588644157E+00
 -0.215243502926E+00
 -0.153862692685E+00
 -0.372732840411E-01
 -0.478691118539E-02
  0.738485987690E-01
  0.821292561625E-01
 -0.246545581252E+00
 -0.237476256931E+00
 -0.334217214557E+00
 -0.298695680388E+00
 -0.468913681165E+00
 -0.399920880603E+00
 -0.595823987084E+00
 -0.493597516252E+00
 -0.655424103674E+00
 -0.529644227638E+00
 -0.610944196197E+00
 -0.479234758486E+00
 -0.460740361661E+00
 -0.344503829319E+00
 -0.243751894115E+00
 -0.161085001274E+00
 -0.328844006925E-01
  0.101390881934E-01
  0.991312066920E-01
  0.109729750835E+00
 -0.277584896522E+00
 -0.267058953357E+00
 -0.380401054102E+00
 -0.338010588048E+00
 -0.540650756228E+00
 -0.455707785868E+00
 -0.696272121775E+00
 -0.565368276568E+00
 -0.777480528606E+00
 -0.607613429705E+00
 -0.734367484905E+00
 -0.547198691406E+00
 -0.555418226539E+00
 -0.386440025982E+00
 -0.293826546100E+00
 -0.162792486322E+00
 -0.197112712840E-01
  0.416107818242E-01
  0.145623519164E+00
  0.159178095164E+00
 -0.326876318172E+00
 -0.315415557218E+00
 -0.447915723363E+00
 -0.400373197880E+00
 -0.640629590697E+00
 -0.542553387998E+00
 -0.837292895058E+00
 -0.679020503925E+00
 -0.961081405498E+00
 -0.737088628893E+00
 -0.970430824957E+00
 -0.653859390106E+00
 -0.803966348999E+00
 -0.402674170716E+00
 -0.389383432489E+00
 -0.117717277210E+00
 -0.232502077762E+00
  0.182589135986E+00
  0.124486268153E+00
  0.257869319548E+00
  0.254520471703E+00
 -0.400798201011E+00
 -0.390017577534E+00
 -0.540742277937E+00
 -0.496152004613E+00
 -0.767305418040E+00
 -0.678389219876E+00
 -0.100271115286E+01
 -0.872721981725E+00
 -0.114600358775E+01
 -0.101562689311E+01
 -0.106890632149E+01
 -0.112510482133E+01
 -0.114379389678E+01
 -0.112452622210E+01
 -0.103545511135E+01
  0.426681671824E+00
  0.357251014750E+00
  0.386007172247E+00
  0.455868220150E+00
  0.382796023676E+00
 -0.503529615966E+00
 -0.495929372402E+00
 -0.658202061109E+00
 -0.628943852745E+00
 -0.907175416016E+00
 -0.861922191114E+00
 -0.114910091045E+01
 -0.113180444828E+01
 -0.123208192860E+01
 -0.137837517216E+01
 -0.827706845677E+00
 -0.177636972895E+01
 -0.124134647904E+01
  0.471536476528E+00
 -0.633953982600E+00
 -0.630917892400E+00
 -0.795432024940E+00
 -0.788053581507E+00
 -0.104760836313E+01
 -0.105979794578E+01
 -0.125861988263E+01
 -0.136515952286E+01
 -0.124282930261E+01
 -0.159996381191E+01
 -0.973550707445E+00
 -0.132801543537E+01
 -0.787802094268E+00
 -0.789089579574E+00
 -0.948409278135E+00
 -0.960165926514E+00
 -0.118851530750E+01
 -0.124237094123E+01
 -0.135550780108E+01
 -0.151890448924E+01
 -0.128458971146E+01
 -0.161154134175E+01
 -0.111548275622E+01
 -0.138032677676E+01
 -0.131598224404E+01
 -0.962368934023E+00
 -0.967022869440E+00
 -0.111653124442E+01
 -0.114186158338E+01
 -0.133683859126E+01
 -0.141361593398E+01
 -0.146395935454E+01
 -0.163611877237E+01
 -0.137323561061E+01
 -0.162838726101E+01
 -0.126853853580E+01
 -0.115663348682E+01
 -0.116393603966E+01
 -0.130136916830E+01
 -0.133554714209E+01
 -0.149994380960E+01
 -0.158675540090E+01
 -0.159682549912E+01
 -0.175779306108E+01
 -0.150618266956E+01
 -0.169860888265E+01
 -0.144139103680E+01
 -0.147866112921E+01
 -0.156396800654E+01
 -0.136986464940E+01
 -0.137931715233E+01
 -0.150370850100E+01
 -0.154408917648E+01
 -0.168181289449E+01
 -0.177216521982E+01
 -0.175800079041E+01
 -0.190368519121E+01
 -0.167716828087E+01
 -0.182651449900E+01
 -0.163929464669E+01
 -0.168849120049E+01
 -0.159995891306E+01
 -0.161137754474E+01
 -0.172253866408E+01
 -0.176794018488E+01
 -0.188276946026E+01
 -0.197490797249E+01
 -0.194666642333E+01
 -0.207920235063E+01
 -0.188036838766E+01
 -0.200113686463E+01
 -0.186160827272E+01
 -0.190258535697E+01
 -0.184383271236E+01
 -0.185734894432E+01
 -0.195529660593E+01
 -0.200560677150E+01
 -0.210048866577E+01
 -0.219479375686E+01
 -0.215860647731E+01
 -0.228250980381E+01
 -0.210982262304E+01
 -0.221279354785E+01
 -0.210986598644E+01
 -0.213725527925E+01
 -0.210097683511E+01
 -0.211677165629E+01
 -0.220191134200E+01
 -0.225742833991E+01
 -0.233506357746E+01
 -0.243212626866E+01
 -0.239207458015E+01
 -0.251064478561E+01
 -0.236111631395E+01
 -0.245530271602E+01
 -0.237545094651E+01
 -0.239902156688E+01
 -0.236273581052E+01
 -0.238073414597E+01
 -0.245503691640E+01
 -0.251534391725E+01
 -0.258010715120E+01
 -0.268054015120E+01
 -0.264024952831E+01
 -0.275686836218E+01
 -0.262686387909E+01
 -0.271667610713E+01
 -0.265351125936E+01
 -0.265441869095E+01
 -0.264230818881E+01
 -0.266395511593E+01
 -0.272633006577E+01
 -0.279749533055E+01
 -0.284604698308E+01
 -0.296129318659E+01
 -0.291540871930E+01
 -0.304470636919E+01
 -0.292798557172E+01
 -0.301918845726E+01
 -0.296726920029E+01
 -0.295186349432E+01
  0.995719549931E+00
 -0.297144674960E+01
 -0.299834946069E+01
 -0.304667825596E+01
 -0.313408136934E+01
 -0.316468925022E+01
 -0.330301491801E+01
 -0.325238393910E+01
 -0.340379031080E+01
 -0.330194341300E+01
 -0.341458871567E+01
 -0.337520953928E+01
 -0.341447571861E+01
  0.981816760147E+00
  0.994512878717E+00
 -0.335940456013E+01
 -0.339375379621E+01
 -0.342643443086E+01
 -0.353548230309E+01
 -0.354749379573E+01
 -0.371669974622E+01
 -0.366388095260E+01
 -0.384588937586E+01
 -0.376349572463E+01
 -0.389405495036E+01
 -0.386998964716E+01
 -0.392139762682E+01
  0.978303826042E+00
 -0.381162487325E+01
 -0.385587787638E+01
 -0.387262253263E+01
 -0.400998870192E+01
 -0.400530270670E+01
 -0.421439244746E+01
 -0.416454043245E+01
 -0.438767971628E+01
 -0.432964597727E+01
 -0.449857906183E+01
 -0.449064395582E+01
 -0.455332209369E+01
  0.933504493212E+00
  0.927537218295E+00
 -0.433120107918E+01
 -0.438916438693E+01
 -0.439257948712E+01
 -0.456711725152E+01
 -0.455263174220E+01
 -0.481343345883E+01
 -0.477646719786E+01
 -0.505423972431E+01
 -0.502916029777E+01
 -0.524560383687E+01
 -0.530703170408E+01
 -0.557653389271E+01
  0.799793707917E+00
  0.818736070793E+00
  0.824545422780E+00
 -0.491898973299E+01
 -0.499579053183E+01
 -0.499464399369E+01
 -0.521787893390E+01
 -0.521127425925E+01
 -0.553977377550E+01
 -0.553692066692E+01
 -0.589186903774E+01
 -0.591729070499E+01
 -0.621711601317E+01
 -0.622231273239E+01
  0.661254106012E+00
  0.629637657283E+00
  0.631565626758E+00
  0.637145437631E+00
 -0.556914140036E+01
 -0.567256569862E+01
 -0.568856278424E+01
 -0.597502444437E+01
 -0.601797555232E+01
 -0.643045835588E+01
 -0.650968543025E+01
 -0.696173865599E+01
 -0.707306512925E+01
 -0.746340138273E+01
 -0.751723858557E+01
 -0.746279019254E+01
  0.306009804310E+00
  0.367933011421E+00
  0.317333070188E+00
  0.334043827264E+00
 -0.626453546236E+01
 -0.640576176350E+01
 -0.648839995505E+01
 -0.685563133346E+01
 -0.704441117084E+01
 -0.755589239227E+01
 -0.783203224560E+01
 -0.840134033858E+01
 -0.869748192605E+01
 -0.924513858455E+01
 -0.979305508873E+01
 -0.106064407265E+02
 -0.367892930792E+00
 -0.226330611813E+00
 -0.198825530186E+00
 -0.145666080260E+00
 -0.696034816079E+01
 -0.715287328429E+01
 -0.741017744339E+01
 -0.786522697224E+01
 -0.842115091126E+01
 -0.901277597384E+01
 -0.977204335250E+01
 -0.104329506791E+02
 -0.111510987699E+02
 -0.118386353309E+02
 -0.116832017724E+02
 -0.244025876432E+01
 -0.928877438864E+00
 -0.946265071887E+00
 -0.793677509541E+00
 -0.755692693191E+01
 -0.780774771941E+01
 -0.845302492876E+01
 -0.895739728316E+01
 -0.103504742190E+02
 -0.108843641514E+02
 -0.127817941886E+02
 -0.133163427775E+02
 -0.149985946244E+02
 -0.156670670657E+02
 -0.161315650130E+02
 -0.171040005880E+02
 -0.230481197354E+01
 -0.176625508058E+01
 -0.141571123611E+01
 -0.787331725398E+01
 -0.816239299103E+01
 -0.952388247406E+01
 -0.994462698517E+01
 -0.129309197944E+02
 -0.130514686120E+02
 -0.171003736367E+02
 -0.169209973352E+02