# vtk DataFile Version 3.0
MachLine results file. Generated by MachLine, USU AeroLab (c) 2022.
ASCII
DATASET POLYDATA
POINTS                 664 float
  0.146090000000E+01  0.154250000000E-01  0.405880000000E-01
  0.146920000000E+01  0.569530000000E-02  0.393580000000E-01
  0.147826411888E+03  0.146519761888E+02  0.146771391888E+02
  0.147824117726E+03  0.146411870726E+02  0.146748497726E+02
  0.146920000000E+01 -0.569530000000E-02  0.393580000000E-01
  0.146090000000E+01 -0.154250000000E-01  0.405880000000E-01
  0.147825792814E+03  0.146299639814E+02  0.146750172814E+02
  0.147830948652E+03  0.146215798652E+02  0.146775928652E+02
  0.112400000000E+01  0.929250000000E-01 -0.416280000000E-01
  0.112400000000E+01  0.942040000000E-01 -0.441390000000E-01
  0.147985646594E+03  0.147790896594E+02  0.146445366594E+02
  0.147985827770E+03  0.147803867770E+02  0.146420437770E+02
  0.112400000000E+01 -0.942040000000E-01 -0.441390000000E-01
  0.112400000000E+01 -0.929250000000E-01 -0.416280000000E-01
  0.148013534829E+03  0.145947494829E+02  0.146448144829E+02
  0.148012977476E+03  0.145959727476E+02  0.146472697476E+02
  0.112400000000E+01  0.884200000000E-01 -0.383560000000E-01
  0.112400000000E+01  0.909320000000E-01 -0.396350000000E-01
  0.147985827917E+03  0.147746027917E+02  0.146478267917E+02
  0.147985646594E+03  0.147770966594E+02  0.146465296594E+02
  0.112400000000E+01 -0.909320000000E-01 -0.396350000000E-01
  0.112400000000E+01 -0.884200000000E-01 -0.383560000000E-01
  0.148012391299E+03  0.145979071299E+02  0.146492041299E+02
  0.148011833799E+03  0.146003633799E+02  0.146504273799E+02
  0.112400000000E+01  0.856350000000E-01 -0.379180000000E-01
  0.112400000000E+01  0.884200000000E-01 -0.383560000000E-01
  0.147986173064E+03  0.147718523064E+02  0.146482993064E+02
  0.147985827917E+03  0.147746027917E+02  0.146478267917E+02
  0.112400000000E+01 -0.884200000000E-01 -0.383560000000E-01
  0.112400000000E+01 -0.856350000000E-01 -0.379180000000E-01
  0.148011833799E+03  0.146003633799E+02  0.146504273799E+02
  0.148011359829E+03  0.146031009829E+02  0.146508179829E+02
  0.112400000000E+01  0.942040000000E-01 -0.441390000000E-01
  0.112400000000E+01  0.946410000000E-01 -0.469250000000E-01
  0.147985827770E+03  0.147803867770E+02  0.146420437770E+02
  0.147986173211E+03  0.147808583211E+02  0.146392923211E+02
  0.112400000000E+01 -0.946410000000E-01 -0.469250000000E-01
  0.112400000000E+01 -0.942040000000E-01 -0.441390000000E-01
  0.148014008799E+03  0.145943598799E+02  0.146420758799E+02
  0.148013534829E+03  0.145947494829E+02  0.146448144829E+02
  0.112400000000E+01  0.909320000000E-01 -0.396350000000E-01
  0.112400000000E+01  0.929250000000E-01 -0.416280000000E-01
  0.147985646594E+03  0.147770966594E+02  0.146465296594E+02
  0.147985646594E+03  0.147790896594E+02  0.146445366594E+02
  0.112400000000E+01 -0.929250000000E-01 -0.416280000000E-01
  0.112400000000E+01 -0.909320000000E-01 -0.396350000000E-01
  0.148012977476E+03  0.145959727476E+02  0.146472697476E+02
  0.148012391299E+03  0.145979071299E+02  0.146492041299E+02
  0.112400000000E+01  0.929250000000E-01 -0.522230000000E-01
  0.112400000000E+01  0.909320000000E-01 -0.542160000000E-01
  0.147987204682E+03  0.147792454682E+02  0.146340974682E+02
  0.147987790858E+03  0.147773110858E+02  0.146321630858E+02
  0.112400000000E+01 -0.909320000000E-01 -0.542160000000E-01
  0.112400000000E+01 -0.929250000000E-01 -0.522230000000E-01
  0.148014535564E+03  0.145981215564E+02  0.146348375564E+02
  0.148014535564E+03  0.145961285564E+02  0.146368305564E+02
  0.112400000000E+01  0.946410000000E-01 -0.469250000000E-01
  0.112400000000E+01  0.942040000000E-01 -0.497110000000E-01
  0.147986173211E+03  0.147808583211E+02  0.146392923211E+02
  0.147986647182E+03  0.147804687182E+02  0.146365537182E+02
  0.112400000000E+01 -0.942040000000E-01 -0.497110000000E-01
  0.112400000000E+01 -0.946410000000E-01 -0.469250000000E-01
  0.148014354241E+03  0.145948314241E+02  0.146393244241E+02
  0.148014008799E+03  0.145943598799E+02  0.146420758799E+02
  0.112400000000E+01  0.856350000000E-01 -0.559320000000E-01
  0.112400000000E+01  0.828490000000E-01 -0.554950000000E-01
  0.147988822182E+03  0.147721172182E+02  0.146305502182E+02
  0.147989167623E+03  0.147693657623E+02  0.146310217623E+02
  0.112400000000E+01 -0.828490000000E-01 -0.554950000000E-01
  0.112400000000E+01 -0.856350000000E-01 -0.559320000000E-01
  0.148013534976E+03  0.146061044976E+02  0.146334584976E+02
  0.148014008947E+03  0.146033658947E+02  0.146330688947E+02
  0.112400000000E+01  0.909320000000E-01 -0.542160000000E-01
  0.112400000000E+01  0.884200000000E-01 -0.554950000000E-01
  0.147987790858E+03  0.147773110858E+02  0.146321630858E+02
  0.147988348358E+03  0.147748548358E+02  0.146309398358E+02
  0.112400000000E+01 -0.884200000000E-01 -0.554950000000E-01
  0.112400000000E+01 -0.909320000000E-01 -0.542160000000E-01
  0.148014354241E+03  0.146006154241E+02  0.146335404241E+02
  0.148014535564E+03  0.145981215564E+02  0.146348375564E+02
  0.112400000000E+01  0.770650000000E-01 -0.497110000000E-01
  0.112400000000E+01  0.766280000000E-01 -0.469250000000E-01
  0.147989167623E+03  0.147635817623E+02  0.146368057623E+02
  0.147988822182E+03  0.147631102182E+02  0.146395572182E+02
  0.112400000000E+01 -0.766280000000E-01 -0.469250000000E-01
  0.112400000000E+01 -0.770650000000E-01 -0.497110000000E-01
  0.148011359829E+03  0.146121079829E+02  0.146418109829E+02
  0.148011833799E+03  0.146117183799E+02  0.146390723799E+02
  0.112400000000E+01  0.766280000000E-01 -0.469250000000E-01
  0.112400000000E+01  0.770650000000E-01 -0.441390000000E-01
  0.147988822182E+03  0.147631102182E+02  0.146395572182E+02
  0.147988348211E+03  0.147634998211E+02  0.146422958211E+02
  0.112400000000E+01 -0.770650000000E-01 -0.441390000000E-01
  0.112400000000E+01 -0.766280000000E-01 -0.469250000000E-01
  0.148011014388E+03  0.146116364388E+02  0.146445624388E+02
  0.148011359829E+03  0.146121079829E+02  0.146418109829E+02
  0.112400000000E+01  0.828490000000E-01 -0.554950000000E-01
  0.112400000000E+01  0.803370000000E-01 -0.542160000000E-01
  0.147989167623E+03  0.147693657623E+02  0.146310217623E+02
  0.147989348947E+03  0.147668718947E+02  0.146323188947E+02
  0.112400000000E+01 -0.803370000000E-01 -0.542160000000E-01
  0.112400000000E+01 -0.828490000000E-01 -0.554950000000E-01
  0.148012977476E+03  0.146085607476E+02  0.146346817476E+02
  0.148013534976E+03  0.146061044976E+02  0.146334584976E+02
  0.112400000000E+01  0.884200000000E-01 -0.554950000000E-01
  0.112400000000E+01  0.856350000000E-01 -0.559320000000E-01
  0.147988348358E+03  0.147748548358E+02  0.146309398358E+02
  0.147988822182E+03  0.147721172182E+02  0.146305502182E+02
  0.112400000000E+01 -0.856350000000E-01 -0.559320000000E-01
  0.112400000000E+01 -0.884200000000E-01 -0.554950000000E-01
  0.148014008947E+03  0.146033658947E+02  0.146330688947E+02
  0.148014354241E+03  0.146006154241E+02  0.146335404241E+02
  0.112400000000E+01  0.803370000000E-01 -0.542160000000E-01
  0.112400000000E+01  0.783440000000E-01 -0.522230000000E-01
  0.147989348947E+03  0.147668718947E+02  0.146323188947E+02
  0.147989348947E+03  0.147648788947E+02  0.146343118947E+02
  0.112400000000E+01 -0.783440000000E-01 -0.522230000000E-01
  0.112400000000E+01 -0.803370000000E-01 -0.542160000000E-01
  0.148012391299E+03  0.146104951299E+02  0.146366161299E+02
  0.148012977476E+03  0.146085607476E+02  0.146346817476E+02
  0.112400000000E+01  0.770650000000E-01 -0.441390000000E-01
  0.112400000000E+01  0.783440000000E-01 -0.416280000000E-01
  0.147988348211E+03  0.147634998211E+02  0.146422958211E+02
  0.147987790858E+03  0.147647230858E+02  0.146447510858E+02
  0.112400000000E+01 -0.783440000000E-01 -0.416280000000E-01
  0.112400000000E+01 -0.770650000000E-01 -0.441390000000E-01
  0.148010833211E+03  0.146103393211E+02  0.146470553211E+02
  0.148011014388E+03  0.146116364388E+02  0.146445624388E+02
  0.112400000000E+01  0.942040000000E-01 -0.497110000000E-01
  0.112400000000E+01  0.929250000000E-01 -0.522230000000E-01
  0.147986647182E+03  0.147804687182E+02  0.146365537182E+02
  0.147987204682E+03  0.147792454682E+02  0.146340974682E+02
  0.112400000000E+01 -0.929250000000E-01 -0.522230000000E-01
  0.112400000000E+01 -0.942040000000E-01 -0.497110000000E-01
  0.148014535564E+03  0.145961285564E+02  0.146368305564E+02
  0.148014354241E+03  0.145948314241E+02  0.146393244241E+02
  0.112400000000E+01  0.783440000000E-01 -0.416280000000E-01
  0.112400000000E+01  0.803370000000E-01 -0.396350000000E-01
  0.147987790858E+03  0.147647230858E+02  0.146447510858E+02
  0.147987204682E+03  0.147666574682E+02  0.146466854682E+02
  0.112400000000E+01 -0.803370000000E-01 -0.396350000000E-01
  0.112400000000E+01 -0.783440000000E-01 -0.416280000000E-01
  0.148010833211E+03  0.146083463211E+02  0.146490483211E+02
  0.148010833211E+03  0.146103393211E+02  0.146470553211E+02
  0.112400000000E+01  0.803370000000E-01 -0.396350000000E-01
  0.112400000000E+01  0.828490000000E-01 -0.383560000000E-01
  0.147987204682E+03  0.147666574682E+02  0.146466854682E+02
  0.147986647182E+03  0.147691137182E+02  0.146479087182E+02
  0.112400000000E+01 -0.828490000000E-01 -0.383560000000E-01
  0.112400000000E+01 -0.803370000000E-01 -0.396350000000E-01
  0.148011014535E+03  0.146058524535E+02  0.146503454535E+02
  0.148010833211E+03  0.146083463211E+02  0.146490483211E+02
  0.112400000000E+01  0.828490000000E-01 -0.383560000000E-01
  0.112400000000E+01  0.856350000000E-01 -0.379180000000E-01
  0.147986647182E+03  0.147691137182E+02  0.146479087182E+02
  0.147986173064E+03  0.147718523064E+02  0.146482993064E+02
  0.112400000000E+01 -0.856350000000E-01 -0.379180000000E-01
  0.112400000000E+01 -0.828490000000E-01 -0.383560000000E-01
  0.148011359829E+03  0.146031009829E+02  0.146508179829E+02
  0.148011014535E+03  0.146058524535E+02  0.146503454535E+02
  0.112400000000E+01  0.783440000000E-01 -0.522230000000E-01
[...]
POINT_DATA                 664
SCALARS mu float 1
LOOKUP_TABLE default
 -0.242635890170E-01
  0.000000000000E+00
 -0.242635890170E-01
  0.000000000000E+00
  0.000000000000E+00
 -0.357909347983E-01
  0.000000000000E+00
 -0.357909347983E-01
 -0.402393496722E-03
 -0.283743968078E-03
 -0.402393496722E-03
 -0.283743968078E-03
 -0.193551137813E-02
 -0.224217989372E-02
 -0.193551137813E-02
 -0.224217989372E-02
 -0.305856821425E-03
 -0.419648581739E-03
 -0.305856821425E-03
 -0.419648581739E-03
 -0.249763834772E-02
 -0.264267222829E-02
 -0.249763834772E-02
 -0.264267222829E-02
 -0.604641730902E-04
 -0.305856821425E-03
 -0.604641730902E-04
 -0.305856821425E-03
 -0.264267222829E-02
 -0.263241572769E-02
 -0.264267222829E-02
 -0.263241572769E-02
 -0.283743968078E-03
 -0.104406140100E-03
 -0.283743968078E-03
 -0.104406140100E-03
 -0.162358235938E-02
 -0.193551137813E-02
 -0.162358235938E-02
 -0.193551137813E-02
 -0.419648581739E-03
 -0.402393496722E-03
 -0.419648581739E-03
 -0.402393496722E-03
 -0.224217989372E-02
 -0.249763834772E-02
 -0.224217989372E-02
 -0.249763834772E-02
  0.260376317720E-03
  0.419183544936E-03
  0.260376317720E-03
  0.419183544936E-03
 -0.956622186901E-03
 -0.112944383556E-02
 -0.956622186901E-03
 -0.112944383556E-02
 -0.104406140100E-03
  0.818917135898E-04
 -0.104406140100E-03
  0.818917135898E-04
 -0.135363499791E-02
 -0.162358235938E-02
 -0.135363499791E-02
 -0.162358235938E-02
  0.700674900280E-03
  0.828433047069E-03
  0.700674900280E-03
  0.828433047069E-03
 -0.704589519910E-03
 -0.741941113648E-03
 -0.704589519910E-03
 -0.741941113648E-03
  0.419183544936E-03
  0.562082355910E-03
  0.419183544936E-03
  0.562082355910E-03
 -0.830127922990E-03
 -0.956622186901E-03
 -0.830127922990E-03
 -0.956622186901E-03
  0.116106912945E-02
  0.118856117756E-02
  0.116106912945E-02
  0.118856117756E-02
 -0.113252420141E-02
 -0.915593703290E-03
 -0.113252420141E-02
 -0.915593703290E-03
  0.118856117756E-02
  0.111108530852E-02
  0.118856117756E-02
  0.111108530852E-02
 -0.143835688354E-02
 -0.113252420141E-02
 -0.143835688354E-02
 -0.113252420141E-02
  0.828433047069E-03
  0.957518769135E-03
  0.828433047069E-03
  0.957518769135E-03
 -0.711634835321E-03
 -0.704589519910E-03
 -0.711634835321E-03
 -0.704589519910E-03
  0.562082355910E-03
  0.700674900280E-03
  0.562082355910E-03
  0.700674900280E-03
 -0.741941113648E-03
 -0.830127922990E-03
 -0.741941113648E-03
 -0.830127922990E-03
  0.957518769135E-03
  0.107513230989E-02
  0.957518769135E-03
  0.107513230989E-02
 -0.777538530422E-03
 -0.711634835321E-03
 -0.777538530422E-03
 -0.711634835321E-03
  0.111108530852E-02
  0.920598915654E-03
  0.111108530852E-02
  0.920598915654E-03
 -0.179791173694E-02
 -0.143835688354E-02
 -0.179791173694E-02
 -0.143835688354E-02
  0.818917135898E-04
  0.260376317720E-03
  0.818917135898E-04
  0.260376317720E-03
 -0.112944383556E-02
 -0.135363499791E-02
 -0.112944383556E-02
 -0.135363499791E-02
  0.920598915654E-03
  0.622770342947E-03
  0.920598915654E-03
  0.622770342947E-03
 -0.216403348537E-02
 -0.179791173694E-02
 -0.216403348537E-02
 -0.179791173694E-02
  0.622770342947E-03
  0.269726087986E-03
  0.622770342947E-03
  0.269726087986E-03
 -0.246483522802E-02
 -0.216403348537E-02
 -0.246483522802E-02
 -0.216403348537E-02
  0.269726087986E-03
 -0.604641730902E-04
  0.269726087986E-03
 -0.604641730902E-04
 -0.263241572769E-02
 -0.246483522802E-02
 -0.263241572769E-02
 -0.246483522802E-02
  0.107513230989E-02
  0.116106912945E-02
  0.107513230989E-02
  0.116106912945E-02
 -0.915593703290E-03
 -0.777538530422E-03
 -0.915593703290E-03
 -0.777538530422E-03
 -0.124668558283E-02
 -0.148239600711E-02
 -0.124668558283E-02
 -0.148239600711E-02
 -0.257312427593E-02
 -0.230781207984E-02
 -0.257312427593E-02
 -0.230781207984E-02
 -0.235234106951E-03
 -0.407502288052E-03
 -0.235234106951E-03
 -0.407502288052E-03
 -0.150496121546E-02
 -0.134245686025E-02
 -0.150496121546E-02
 -0.134245686025E-02
 -0.963191530511E-03
 -0.124668558283E-02
 -0.963191530511E-03
 -0.124668558283E-02
 -0.230781207984E-02
 -0.202538608448E-02
 -0.230781207984E-02
 -0.202538608448E-02
 -0.148239600711E-02
 -0.161903075561E-02
 -0.148239600711E-02
 -0.161903075561E-02
 -0.277580400852E-02
 -0.257312427593E-02
 -0.277580400852E-02
 -0.257312427593E-02
 -0.672318614492E-03
 -0.963191530511E-03
 -0.672318614492E-03
 -0.963191530511E-03
 -0.202538608448E-02
 -0.175165199058E-02
 -0.202538608448E-02
 -0.175165199058E-02
 -0.407502288052E-03
 -0.672318614492E-03
 -0.407502288052E-03
 -0.672318614492E-03
 -0.175165199058E-02
 -0.150496121546E-02
 -0.175165199058E-02
 -0.150496121546E-02
 -0.572878315991E-04
 -0.118302476932E-03
 -0.572878315991E-04
 -0.118302476932E-03
 -0.123720314566E-02
 -0.119741337711E-02
 -0.123720314566E-02
 -0.119741337711E-02
 -0.811301267696E-04
 -0.513797252842E-04
 -0.811301267696E-04
 -0.513797252842E-04
 -0.122827351097E-02
 -0.131276650274E-02
 -0.122827351097E-02
 -0.131276650274E-02
 -0.158766419786E-03
 -0.811301267696E-04
 -0.158766419786E-03
 -0.811301267696E-04
 -0.131276650274E-02
 -0.145984385767E-02
 -0.131276650274E-02
 -0.145984385767E-02
 -0.273908169805E-03
 -0.158766419786E-03
 -0.273908169805E-03
 -0.158766419786E-03
 -0.145984385767E-02
 -0.165101470835E-02
 -0.145984385767E-02
 -0.165101470835E-02
 -0.118302476932E-03
 -0.235234106951E-03
 -0.118302476932E-03
 -0.235234106951E-03
 -0.134245686025E-02
 -0.123720314566E-02
 -0.134245686025E-02
 -0.123720314566E-02
 -0.513797252842E-04
 -0.572878315991E-04
 -0.513797252842E-04
 -0.572878315991E-04
 -0.119741337711E-02
 -0.122827351097E-02
 -0.119741337711E-02
 -0.122827351097E-02
 -0.881696446422E-03
 -0.639888898352E-03
 -0.881696446422E-03
 -0.639888898352E-03
 -0.214300534347E-02
 -0.240703055120E-02
 -0.214300534347E-02
 -0.240703055120E-02
 -0.639888898352E-03
 -0.432308981991E-03
 -0.639888898352E-03
 -0.432308981991E-03
 -0.188085752193E-02
 -0.214300534347E-02
 -0.188085752193E-02
 -0.214300534347E-02
 -0.137641910172E-02
 -0.113918977931E-02
 -0.137641910172E-02
 -0.113918977931E-02
 -0.264538076890E-02
 -0.282174180188E-02
 -0.264538076890E-02
 -0.282174180188E-02
 -0.113918977931E-02
 -0.881696446422E-03
 -0.113918977931E-02
 -0.881696446422E-03
 -0.240703055120E-02
 -0.264538076890E-02
 -0.240703055120E-02
 -0.264538076890E-02
 -0.155979065437E-02
 -0.137641910172E-02
 -0.155979065437E-02
 -0.137641910172E-02
 -0.282174180188E-02
 -0.291354866123E-02
 -0.282174180188E-02
 -0.291354866123E-02
 -0.161903075561E-02
 -0.164879642218E-02
 -0.161903075561E-02
 -0.164879642218E-02
 -0.289952649117E-02
 -0.277580400852E-02
 -0.289952649117E-02
 -0.277580400852E-02
 -0.164879642218E-02
 -0.155979065437E-02
 -0.164879642218E-02
 -0.155979065437E-02
 -0.291354866123E-02
 -0.289952649117E-02
 -0.291354866123E-02
 -0.289952649117E-02
 -0.432308981991E-03
 -0.273908169805E-03
 -0.432308981991E-03
 -0.273908169805E-03
 -0.165101470835E-02
 -0.188085752193E-02
 -0.165101470835E-02
 -0.188085752193E-02
 -0.176663551843E-09
  0.000000000000E+00
 -0.176663551843E-09
  0.000000000000E+00
  0.763522682579E-10
 -0.176663551843E-09
  0.763522682579E-10
 -0.176663551843E-09
 -0.104008683610E-09
  0.763522682579E-10
 -0.104008683610E-09
  0.763522682579E-10
  0.000000000000E+00
 -0.104008683610E-09
  0.000000000000E+00
 -0.104008683610E-09
  0.000000000000E+00
  0.000000000000E+00
  0.000000000000E+00
  0.000000000000E+00
  0.000000000000E+00
  0.000000000000E+00
  0.000000000000E+00
  0.000000000000E+00
  0.533637461227E-03
  0.646861520337E-05
  0.533637461227E-03
  0.646861520337E-05
  0.639685314795E-05
 -0.106350640457E-03
  0.639685314795E-05
 -0.106350640457E-03
  0.000000000000E+00
  0.533637461227E-03
  0.000000000000E+00
  0.533637461227E-03
 -0.106350640457E-03
  0.000000000000E+00
 -0.106350640457E-03
  0.000000000000E+00
 -0.242635890170E-01
 -0.643933035518E-02
 -0.242635890170E-01
 -0.643933035518E-02
 -0.182410527486E-01
 -0.357909347983E-01
 -0.182410527486E-01
 -0.357909347983E-01
 -0.643933035518E-02
  0.198458390350E-02
 -0.643933035518E-02
  0.198458390350E-02
 -0.999219068653E-02
 -0.182410527486E-01
 -0.999219068653E-02
 -0.182410527486E-01
  0.198458390350E-02
  0.448527404306E-02
  0.198458390350E-02
  0.448527404306E-02
 -0.543696352605E-02
 -0.999219068653E-02
 -0.543696352605E-02
 -0.999219068653E-02
  0.448527404306E-02
  0.337925825533E-02
  0.448527404306E-02
  0.337925825533E-02
 -0.240972963558E-02
 -0.543696352605E-02
 -0.240972963558E-02
 -0.543696352605E-02
  0.337925825533E-02
  0.000000000000E+00
  0.337925825533E-02
  0.000000000000E+00
  0.000000000000E+00
 -0.240972963558E-02
  0.000000000000E+00
 -0.240972963558E-02
  0.000000000000E+00
  0.146865783218E-01
  0.000000000000E+00
  0.146865783218E-01
  0.137338248109E-01
  0.000000000000E+00
  0.137338248109E-01
  0.000000000000E+00
  0.146865783218E-01
  0.221674142118E-01
  0.146865783218E-01
  0.221674142118E-01
  0.213823214793E-01
  0.137338248109E-01
  0.213823214793E-01
  0.137338248109E-01
  0.221674142118E-01
  0.259847011566E-01
  0.221674142118E-01
  0.259847011566E-01
  0.260199824537E-01
  0.213823214793E-01
  0.260199824537E-01
  0.213823214793E-01
  0.259847011566E-01
  0.277881873366E-01
  0.259847011566E-01
  0.277881873366E-01
  0.279798200785E-01
  0.260199824537E-01
  0.279798200785E-01
  0.260199824537E-01
  0.277881873366E-01
  0.285474030678E-01
  0.277881873366E-01
  0.285474030678E-01
  0.284373498343E-01
  0.279798200785E-01
  0.284373498343E-01
  0.279798200785E-01
  0.285474030678E-01
  0.300478492403E-01
  0.285474030678E-01
  0.300478492403E-01
  0.281744944451E-01
  0.284373498343E-01
  0.281744944451E-01
  0.284373498343E-01
  0.300478492403E-01
  0.302521419967E-01
  0.300478492403E-01
  0.302521419967E-01
  0.267265596273E-01
  0.281744944451E-01
  0.267265596273E-01
  0.281744944451E-01
  0.302521419967E-01
  0.286461816469E-01
  0.302521419967E-01
  0.286461816469E-01
  0.258732849000E-01
  0.267265596273E-01
  0.258732849000E-01
  0.267265596273E-01
  0.286461816469E-01
  0.285904378811E-01
  0.286461816469E-01
  0.285904378811E-01
  0.272824937836E-01
  0.258732849000E-01
  0.272824937836E-01
  0.258732849000E-01
  0.281600323226E-01
  0.258435540460E-01
  0.281600323226E-01
  0.258435540460E-01
  0.279563581495E-01
  0.270225159165E-01
  0.279563581495E-01
  0.270225159165E-01
  0.258435540460E-01
  0.254433351714E-01
  0.258435540460E-01
  0.254433351714E-01
  0.291790776782E-01
  0.279563581495E-01
  0.291790776782E-01
  0.279563581495E-01
  0.254433351714E-01
  0.246446257173E-01
  0.254433351714E-01
  0.246446257173E-01
  0.300353443946E-01
  0.291790776782E-01
  0.300353443946E-01
  0.291790776782E-01
  0.246446257173E-01
  0.235136711757E-01
  0.246446257173E-01
  0.235136711757E-01
  0.286748248251E-01
  0.300353443946E-01
  0.286748248251E-01
  0.300353443946E-01
  0.235136711757E-01
  0.249761765653E-01
  0.235136711757E-01
  0.249761765653E-01
  0.261283447918E-01
  0.286748248251E-01
  0.261283447918E-01
  0.286748248251E-01
  0.249761765653E-01
  0.243139560734E-01
  0.249761765653E-01
  0.243139560734E-01
  0.200623580631E-01
  0.261283447918E-01
  0.200623580631E-01
  0.261283447918E-01
  0.243139560734E-01
  0.211789746100E-01
  0.243139560734E-01
  0.211789746100E-01
  0.144374368046E-01
  0.200623580631E-01
  0.144374368046E-01
  0.200623580631E-01
  0.211789746100E-01
  0.170151542362E-01
  0.211789746100E-01
  0.170151542362E-01
  0.109882171000E-01
  0.144374368046E-01
  0.109882171000E-01
  0.144374368046E-01
  0.170151542362E-01
  0.105709396243E-01
  0.170151542362E-01
  0.105709396243E-01
  0.679294282364E-02
  0.109882171000E-01
  0.679294282364E-02
  0.109882171000E-01
  0.105709396243E-01
 -0.701441318796E-07
  0.105709396243E-01
 -0.701441318796E-07
 -0.599450313702E-07
  0.679294282364E-02
 -0.599450313702E-07
  0.679294282364E-02
  0.000000000000E+00
  0.615428892327E-04
  0.000000000000E+00
  0.615428892327E-04
 -0.729375317207E-08
  0.000000000000E+00
 -0.729375317207E-08
  0.000000000000E+00
 -0.279258560127E-04
 -0.420929164117E-04
 -0.279258560127E-04
 -0.420929164117E-04
 -0.613754263658E-08
 -0.598158307933E-08
 -0.613754263658E-08
 -0.598158307933E-08
  0.615428892327E-04
 -0.141319332747E-04
  0.615428892327E-04
 -0.141319332747E-04
 -0.647996063150E-08
 -0.729375317207E-08
 -0.647996063150E-08
 -0.729375317207E-08
 -0.420929164117E-04
 -0.116778617010E-03
 -0.420929164117E-04
 -0.116778617010E-03
 -0.627530980481E-08
 -0.613754263658E-08
 -0.627530980481E-08
 -0.613754263658E-08
 -0.141319332747E-04
 -0.279258560127E-04
 -0.141319332747E-04
 -0.279258560127E-04
 -0.598158307933E-08
 -0.647996063150E-08
 -0.598158307933E-08
 -0.647996063150E-08
 -0.408065828203E-05
  0.765379108411E-03
 -0.408065828203E-05
  0.765379108411E-03
  0.175321822607E-03
 -0.234826331187E-04
  0.175321822607E-03
 -0.234826331187E-04
  0.352102040632E-03
 -0.408065828203E-05
  0.352102040632E-03
 -0.408065828203E-05
 -0.234826331187E-04
  0.339153057538E-04
 -0.234826331187E-04
  0.339153057538E-04
  0.765379108411E-03
  0.906147103845E-05
  0.765379108411E-03
  0.906147103845E-05
 -0.453513474062E-04
  0.175321822607E-03
 -0.453513474062E-04
  0.175321822607E-03
 -0.116778617010E-03
  0.352102040632E-03
 -0.116778617010E-03
  0.352102040632E-03
  0.339153057538E-04
 -0.627530980481E-08
  0.339153057538E-04
 -0.627530980481E-08
  0.166665715340E-04
 -0.112143171140E-03
  0.166665715340E-04
 -0.112143171140E-03
  0.249269157850E-03
 -0.399022905211E-04
  0.249269157850E-03
 -0.399022905211E-04
  0.906147103845E-05
  0.166665715340E-04
  0.906147103845E-05
  0.166665715340E-04
 -0.399022905211E-04
 -0.453513474062E-04
 -0.399022905211E-04
 -0.453513474062E-04
 -0.112143171140E-03
 -0.701441318796E-07
 -0.112143171140E-03
 -0.701441318796E-07
 -0.599450313702E-07
  0.249269157850E-03
 -0.599450313702E-07
  0.249269157850E-03
  0.285904378811E-01
  0.281600323226E-01
  0.285904378811E-01
  0.281600323226E-01
  0.270225159165E-01
  0.272824937836E-01
  0.270225159165E-01
  0.272824937836E-01
