# vtk DataFile Version 3.0
MachLine results file. Generated by MachLine, USU AeroLab (c) 2022.
ASCII
DATASET POLYDATA
POINTS                  42 float
  0.134039000000E+04  0.301864000000E+02 -0.549270000000E+02
  0.152167000000E+04  0.301864000000E+02 -0.549270000000E+02
  0.134039000000E+04 -0.301864000000E+02 -0.549270000000E+02
  0.152167000000E+04 -0.301864000000E+02 -0.549270000000E+02
  0.134856000000E+04  0.399085000000E+02 -0.548038000000E+02
  0.152167000000E+04  0.399085000000E+02 -0.548038000000E+02
  0.135683000000E+04 -0.497480000000E+02 -0.546791000000E+02
  0.152167000000E+04 -0.497480000000E+02 -0.546791000000E+02
  0.135683000000E+04  0.497480000000E+02 -0.546791000000E+02
  0.152167000000E+04  0.497480000000E+02 -0.546791000000E+02
  0.136727000000E+04 -0.621847000000E+02 -0.546205000000E+02
  0.152167000000E+04 -0.621847000000E+02 -0.546205000000E+02
  0.136727000000E+04  0.621847000000E+02 -0.546205000000E+02
  0.152167000000E+04  0.621847000000E+02 -0.546205000000E+02
  0.137772000000E+04 -0.746216000000E+02 -0.545619000000E+02
  0.152167000000E+04 -0.746216000000E+02 -0.545619000000E+02
  0.137772000000E+04  0.746216000000E+02 -0.545619000000E+02
  0.152167000000E+04  0.746216000000E+02 -0.545619000000E+02
  0.138817000000E+04 -0.870587000000E+02 -0.545033000000E+02
  0.152167000000E+04 -0.870587000000E+02 -0.545033000000E+02
  0.138817000000E+04  0.870587000000E+02 -0.545033000000E+02
  0.152167000000E+04  0.870587000000E+02 -0.545033000000E+02
  0.139861000000E+04 -0.994961000000E+02 -0.544447000000E+02
  0.152167000000E+04 -0.994961000000E+02 -0.544447000000E+02
  0.139861000000E+04  0.994961000000E+02 -0.544447000000E+02
  0.152167000000E+04  0.994961000000E+02 -0.544447000000E+02
  0.145684000000E+04 -0.139870000000E+03 -0.552621000000E+02
  0.152167000000E+04 -0.139870000000E+03 -0.552621000000E+02
  0.147176000000E+04 -0.180244000000E+03 -0.523595000000E+02
  0.152167000000E+04 -0.180244000000E+03 -0.523595000000E+02
  0.148157000000E+04 -0.180244000000E+03 -0.527595000000E+02
  0.152167000000E+04 -0.180244000000E+03 -0.527595000000E+02
  0.148157000000E+04  0.180244000000E+03 -0.527595000000E+02
  0.152167000000E+04  0.180244000000E+03 -0.527595000000E+02
  0.149807000000E+04 -0.180244000000E+03 -0.540389000000E+02
  0.152167000000E+04 -0.180244000000E+03 -0.540389000000E+02
  0.149807000000E+04  0.180244000000E+03 -0.540389000000E+02
  0.152167000000E+04  0.180244000000E+03 -0.540389000000E+02
  0.151507000000E+04 -0.180244000000E+03 -0.560795000000E+02
  0.152167000000E+04 -0.180244000000E+03 -0.560795000000E+02
  0.151507000000E+04  0.180244000000E+03 -0.560795000000E+02
  0.152167000000E+04  0.180244000000E+03 -0.560795000000E+02
POLYGONS                  38                 152
3                  38                  39                  35
3                  38                  35                  34
3                  30                  31                  29
3                  30                  29                  28
3                  34                  35                  31
3                  34                  31                  30
3                  22                  23                  27
3                  22                  27                  26
3                  26                  27                  39
3                  26                  39                  38
3                  14                  15                  19
3                  14                  19                  18
3                  18                  19                  23
3                  18                  23                  22
3                   6                   7                  11
3                   6                  11                  10
3                  10                  11                  15
3                  10                  15                  14
3                  20                  21                  25
3                  20                  25                  24
3                  16                  17                  21
3                  16                  21                  20
3                   8                   9                  13
3                   8                  13                  12
3                  12                  13                  17
3                  12                  17                  16
3                   4                   5                   1
3                   4                   1                   0
3                   8                   9                   5
3                   8                   5                   4
3                  40                  41                  37
3                  40                  37                  36
3                  36                  37                  33
3                  36                  33                  32
3                  24                  25                  41
3                  24                  41                  40
3                   6                   7                   3
3                   6                   3                   2
CELL_DATA                  38
NORMALS normals float
  0.000000000000E+00 -0.100000000000E+01  0.000000000000E+00
  0.000000000000E+00 -0.100000000000E+01  0.000000000000E+00
  0.000000000000E+00 -0.100000000000E+01  0.000000000000E+00
  0.000000000000E+00 -0.100000000000E+01  0.000000000000E+00
  0.000000000000E+00 -0.100000000000E+01  0.000000000000E+00
  0.000000000000E+00 -0.100000000000E+01  0.000000000000E+00
  0.000000000000E+00  0.202416048296E-01 -0.999795117729E+00
  0.000000000000E+00  0.202416048296E-01 -0.999795117729E+00
  0.000000000000E+00  0.202415547149E-01 -0.999795118743E+00
  0.000000000000E+00  0.202415547149E-01 -0.999795118743E+00
  0.000000000000E+00 -0.471165702172E-02 -0.999988900082E+00
 -0.000000000000E+00 -0.471165702172E-02 -0.999988900082E+00
  0.000000000000E+00 -0.471154337532E-02 -0.999988900618E+00
 -0.000000000000E+00 -0.471154337532E-02 -0.999988900618E+00
  0.000000000000E+00 -0.471180855878E-02 -0.999988899368E+00
 -0.000000000000E+00 -0.471180855878E-02 -0.999988899368E+00
  0.000000000000E+00 -0.471173278903E-02 -0.999988899725E+00
 -0.000000000000E+00 -0.471173278903E-02 -0.999988899725E+00
  0.000000000000E+00 -0.471154337532E-02  0.999988900618E+00
  0.000000000000E+00 -0.471154337532E-02  0.999988900618E+00
  0.000000000000E+00 -0.471165702172E-02  0.999988900082E+00
  0.000000000000E+00 -0.471165702172E-02  0.999988900082E+00
  0.000000000000E+00 -0.471180855878E-02  0.999988899368E+00
  0.000000000000E+00 -0.471180855878E-02  0.999988899368E+00
  0.000000000000E+00 -0.471173278903E-02  0.999988899725E+00
  0.000000000000E+00 -0.471173278903E-02  0.999988899725E+00
  0.000000000000E+00  0.126711419591E-01 -0.999919717858E+00
  0.000000000000E+00  0.126711419591E-01 -0.999919717858E+00
  0.000000000000E+00  0.126723905527E-01 -0.999919702035E+00
  0.000000000000E+00  0.126723905527E-01 -0.999919702035E+00
  0.000000000000E+00 -0.100000000000E+01  0.000000000000E+00
  0.000000000000E+00 -0.100000000000E+01  0.000000000000E+00
  0.000000000000E+00 -0.100000000000E+01  0.000000000000E+00
  0.000000000000E+00 -0.100000000000E+01  0.000000000000E+00
 -0.000000000000E+00  0.202415797723E-01  0.999795118236E+00
  0.000000000000E+00  0.202415797723E-01  0.999795118236E+00
 -0.000000000000E+00  0.126717700027E-01  0.999919709899E+00
  0.000000000000E+00  0.126717700027E-01  0.999919709899E+00
POINT_DATA                  42
SCALARS mu float 1
LOOKUP_TABLE default
  0.000000000000E+00
  0.000000000000E+00
  0.000000000000E+00
  0.000000000000E+00
 -0.133299900229E+06
 -0.133299900229E+06
  0.315807767957E+07
  0.315807767957E+07
  0.316451107480E+07
  0.316451107480E+07
 -0.738849489602E+08
 -0.738849489602E+08
 -0.724712494510E+08
 -0.724712494510E+08
  0.119975559812E+09
  0.119975559812E+09
  0.122874478340E+09
  0.122874478340E+09
 -0.289148449676E+08
 -0.289148449676E+08
 -0.286987419571E+08
 -0.286987419571E+08
 -0.424130869300E+09
 -0.424130869300E+09
 -0.424091565177E+09
 -0.424091565177E+09
 -0.211069523783E+09
 -0.211069523783E+09
  0.000000000000E+00
  0.000000000000E+00
  0.916698430372E+05
  0.916698430372E+05
  0.000000000000E+00
  0.000000000000E+00
  0.101613650340E+09
  0.101613650340E+09
  0.100950349930E+09
  0.100950349930E+09
 -0.848194719009E+03
 -0.848194719009E+03
 -0.626764826969E+06
 -0.626764826969E+06
