# vtk DataFile Version 3.0
MachLine results file. Generated by MachLine, USU AeroLab (c) 2022.
ASCII
DATASET POLYDATA
POINTS                1480 float
  0.692354613350E+01  0.599351529310E+00  0.000000000000E+00
  0.680857980080E+01  0.591636943760E+00 -0.971864069370E-01
  0.692354613350E+01  0.591501046560E+00 -0.971640835170E-01
  0.680857980080E+01  0.599489230150E+00  0.000000000000E+00
  0.664959735510E+01  0.591928258270E+00 -0.972342602890E-01
  0.664959735510E+01  0.599784411020E+00  0.000000000000E+00
  0.643313392200E+01  0.592542270680E+00 -0.973351222460E-01
  0.643313392200E+01  0.600406572690E+00  0.000000000000E+00
  0.614455581020E+01  0.593810032860E+00 -0.975433736960E-01
  0.614455581020E+01  0.601691160790E+00  0.000000000000E+00
  0.577046583130E+01  0.596351228070E+00 -0.979608081270E-01
  0.577046583130E+01  0.604266083080E+00  0.000000000000E+00
  0.530275253400E+01  0.601227480630E+00 -0.987618153510E-01
  0.530275253400E+01  0.609207053940E+00  0.000000000000E+00
  0.474373459040E+01  0.610029201970E+00 -0.100207647430E+00
  0.474373459040E+01  0.618125592930E+00  0.000000000000E+00
  0.411048598930E+01  0.624689447940E+00 -0.102615841590E+00
  0.411048598930E+01  0.632980411690E+00  0.000000000000E+00
  0.343533185240E+01  0.646825363460E+00 -0.106252041310E+00
  0.343533185240E+01  0.655410118100E+00  0.000000000000E+00
  0.276048592490E+01  0.685781124520E+00  0.000000000000E+00
  0.276048592490E+01  0.676798561500E+00 -0.111175647680E+00
  0.212813222330E+01  0.722500491640E+00  0.000000000000E+00
  0.212813222330E+01  0.713036967540E+00 -0.117128420760E+00
  0.157051243790E+01  0.762910245070E+00  0.000000000000E+00
  0.157051243790E+01  0.752917422130E+00 -0.123679462120E+00
  0.110480263660E+01  0.806340222540E+00  0.000000000000E+00
  0.110480263660E+01  0.795778540970E+00 -0.130720128160E+00
  0.733468601470E+00  0.851615919250E+00  0.000000000000E+00
  0.733468601470E+00  0.840461203280E+00 -0.138060013630E+00
  0.448528686720E+00  0.897174922060E+00  0.000000000000E+00
  0.448528686720E+00  0.885423460860E+00 -0.145445827350E+00
  0.236904587760E+00  0.942514188580E+00  0.000000000000E+00
  0.236904587760E+00  0.930168860320E+00 -0.152796018460E+00
  0.853014429130E-01  0.989988415640E+00  0.000000000000E+00
  0.853014429130E-01  0.977021255980E+00 -0.160492319440E+00
  0.000000000000E+00  0.105882352940E+01  0.000000000000E+00
  0.000000000000E+00  0.104495474720E+01 -0.171651548070E+00
  0.936496206560E-01  0.110116794060E+01 -0.180885518920E+00
  0.936496206560E-01  0.111578279210E+01  0.000000000000E+00
  0.250196757950E+00  0.112783820950E+01 -0.185266563130E+00
  0.250196757950E+00  0.114280703240E+01  0.000000000000E+00
  0.465956361250E+00  0.114459235740E+01 -0.188018716210E+00
  0.465956361250E+00  0.115978354370E+01  0.000000000000E+00
  0.754417863180E+00  0.115200001670E+01 -0.189235549930E+00
  0.754417863180E+00  0.116728951830E+01  0.000000000000E+00
  0.112847840150E+01  0.114786348700E+01 -0.188556054750E+00
  0.112847840150E+01  0.116309808810E+01  0.000000000000E+00
  0.159584315980E+01  0.112961342040E+01 -0.185558171630E+00
  0.159584315980E+01  0.114460580410E+01  0.000000000000E+00
  0.215391277500E+01  0.109642243470E+01 -0.180105989050E+00
  0.215391277500E+01  0.111097430320E+01  0.000000000000E+00
  0.278557324840E+01  0.104987495410E+01 -0.172459775550E+00
  0.278557324840E+01  0.106380903800E+01  0.000000000000E+00
  0.345851439910E+01  0.991575607090E+00 -0.162883118570E+00
  0.345851439910E+01  0.100473593410E+01  0.000000000000E+00
  0.413071165020E+01  0.937750444130E+00  0.000000000000E+00
  0.413071165020E+01  0.925467512800E+00 -0.152023742360E+00
  0.476036987620E+01  0.868794118330E+00  0.000000000000E+00
  0.476036987620E+01  0.857414397250E+00 -0.140844863400E+00
  0.531566396990E+01  0.803762809860E+00  0.000000000000E+00
  0.531566396990E+01  0.793234888000E+00 -0.130302290000E+00
  0.577992851020E+01  0.746854301720E+00  0.000000000000E+00
  0.577992851020E+01  0.737071784250E+00 -0.121076547230E+00
  0.615107811370E+01  0.699972382850E+00  0.000000000000E+00
  0.615107811370E+01  0.690803938550E+00 -0.113476268500E+00
  0.643729524800E+01  0.663111443160E+00  0.000000000000E+00
  0.643729524800E+01  0.654425814300E+00 -0.107500544330E+00
  0.665194258760E+01  0.635123507460E+00  0.000000000000E+00
  0.665194258760E+01  0.626804472810E+00 -0.102963270310E+00
  0.680956981910E+01  0.614407305030E+00  0.000000000000E+00
  0.680956981910E+01  0.606359617310E+00 -0.996048558830E-01
  0.680857980080E+01  0.568905593070E+00 -0.189399851380E+00
  0.692354613350E+01  0.568774917200E+00 -0.189356346820E+00
  0.664959735510E+01  0.569185714960E+00 -0.189493109460E+00
  0.643313392200E+01  0.569776136320E+00 -0.189689672340E+00
  0.614455581020E+01  0.570995189670E+00 -0.190095519150E+00
  0.577046583130E+01  0.573438749330E+00 -0.190909028180E+00
  0.530275253400E+01  0.578127650830E+00 -0.192470055630E+00
  0.474373459040E+01  0.586591200230E+00 -0.195287737540E+00
  0.411048598930E+01  0.600688183220E+00 -0.199980900190E+00
  0.343533185240E+01  0.621973612190E+00 -0.207067237770E+00
  0.276048592490E+01  0.650795206560E+00 -0.216662512910E+00
  0.212813222330E+01  0.685641292650E+00 -0.228263459720E+00
  0.157051243790E+01  0.723989495740E+00 -0.241030330100E+00
  0.110480263660E+01  0.765203842630E+00 -0.254751396070E+00
  0.733468601470E+00  0.808169747260E+00 -0.269055590040E+00
  0.448528686720E+00  0.851404504800E+00 -0.283449290420E+00
  0.236904587760E+00  0.894430736150E+00 -0.297773568340E+00
  0.853014429130E-01  0.939483010560E+00 -0.312772355800E+00
  0.000000000000E+00  0.100480642130E+01 -0.334519802900E+00
  0.936496206560E-01  0.105885984120E+01 -0.352515248590E+00
  0.250196757950E+00  0.108450540870E+01 -0.361053161940E+00
  0.465956361250E+00  0.110061584360E+01 -0.366416642300E+00
  0.754417863180E+00  0.110773889230E+01 -0.368788045180E+00
  0.112847840150E+01  0.110376129270E+01 -0.367463824120E+00
  0.159584315980E+01  0.108621241390E+01 -0.361621457540E+00
  0.215391277500E+01  0.105429666300E+01 -0.350996076870E+00
  0.278557324840E+01  0.100953758840E+01 -0.336094901410E+00
  0.345851439910E+01  0.953478167280E+00 -0.317431618490E+00
  0.413071165020E+01  0.889910019640E+00 -0.296268532980E+00
  0.476036987620E+01  0.824471580630E+00 -0.274482790710E+00
  0.531566396990E+01  0.762757919640E+00 -0.253937100250E+00
  0.577992851020E+01  0.708752664920E+00 -0.235957689710E+00
  0.615107811370E+01  0.664262481410E+00 -0.221146033350E+00
  0.643729524800E+01  0.629282045230E+00 -0.209500358750E+00
  0.665194258760E+01  0.602721946470E+00 -0.200657979950E+00
  0.680956981910E+01  0.583062605100E+00 -0.194112998880E+00
  0.680857980080E+01  0.532533440820E+00 -0.275402070610E+00
  0.692354613350E+01  0.532411119520E+00 -0.275338811590E+00
  0.664959735510E+01  0.532795653520E+00 -0.275537675090E+00
  0.643313392200E+01  0.533348327150E+00 -0.275823492750E+00
  0.614455581020E+01  0.534489442100E+00 -0.276413625490E+00
  0.577046583130E+01  0.536776776320E+00 -0.277596530700E+00
  0.530275253400E+01  0.541165899720E+00 -0.279866385660E+00
  0.474373459040E+01  0.549088344390E+00 -0.283963513650E+00
  0.411048598930E+01  0.562284057250E+00 -0.290787736070E+00
  0.343533185240E+01  0.582208633260E+00 -0.301091820410E+00
  0.276048592490E+01  0.609187560890E+00 -0.315044094500E+00
  0.212813222330E+01  0.641805813110E+00 -0.331912770750E+00
  0.157051243790E+01  0.677702279560E+00 -0.350476790260E+00
  0.110480263660E+01  0.716281647080E+00 -0.370428284170E+00
  0.733468601470E+00  0.756500589050E+00 -0.391227691390E+00
  0.448528686720E+00  0.796971195200E+00 -0.412157247880E+00
  0.236904587760E+00  0.837246606990E+00 -0.432985858720E+00
  0.853014429130E-01  0.879418529710E+00 -0.454795258750E+00
  0.000000000000E+00  0.940565583140E+00 -0.486417733200E+00
  0.936496206560E-01  0.991163176220E+00 -0.512584506660E+00
  0.250196757950E+00  0.101516913160E+01 -0.524999294730E+00
  0.465956361250E+00  0.103024956920E+01 -0.532798211080E+00
  0.754417863180E+00  0.103691721620E+01 -0.536246414750E+00
  0.112847840150E+01  0.103319391860E+01 -0.534320894650E+00
  0.159584315980E+01  0.101676700190E+01 -0.525825640600E+00
  0.215391277500E+01  0.986891738110E+00 -0.510375513170E+00
  0.278557324840E+01  0.944994269970E+00 -0.488708048570E+00
  0.345851439910E+01  0.892518926430E+00 -0.461570188000E+00
  0.413071165020E+01  0.833014915910E+00 -0.430797420600E+00
  0.476036987620E+01  0.771760188400E+00 -0.399119262010E+00
  0.531566396990E+01  0.713992100630E+00 -0.369244234890E+00
  0.577992851020E+01  0.663439593380E+00 -0.343100777780E+00
  0.615107811370E+01  0.621793825090E+00 -0.321563480890E+00
  0.643729524800E+01  0.589049812260E+00 -0.304629766980E+00
  0.665194258760E+01  0.564187794810E+00 -0.291772262530E+00
  0.680956981910E+01  0.545785344850E+00 -0.282255352540E+00
  0.680857980080E+01  0.483758749720E+00 -0.353954801890E+00
  0.692354613350E+01  0.483647631820E+00 -0.353873499550E+00
  0.664959735510E+01  0.483996946380E+00 -0.354129084730E+00
  0.643313392200E+01  0.484499000690E+00 -0.354496425960E+00
  0.614455581020E+01  0.485535601010E+00 -0.355254881830E+00
  0.577046583130E+01  0.487613438490E+00 -0.356775186220E+00
  0.530275253400E+01  0.491600562470E+00 -0.359692470260E+00
  0.474373459040E+01  0.498797391130E+00 -0.364958219070E+00
  0.411048598930E+01  0.510784509810E+00 -0.373728909460E+00
  0.343533185240E+01  0.528884195640E+00 -0.386972020250E+00
  0.276048592490E+01  0.553392125660E+00 -0.404903891280E+00
  0.212813222330E+01  0.583022875020E+00 -0.426584007720E+00
  0.157051243790E+01  0.615631587260E+00 -0.450443028950E+00
  0.110480263660E+01  0.650677473900E+00 -0.476085272880E+00
  0.733468601470E+00  0.687212766500E+00 -0.502817279820E+00
  0.448528686720E+00  0.723976673390E+00 -0.529716558410E+00
  0.236904587760E+00  0.760563263750E+00 -0.556486098700E+00
[...]
CELL_DATA                2880
SCALARS C_p_inc float 1
LOOKUP_TABLE default
  0.189746234649E+00
  0.189954912536E+00
  0.156152042830E+00
  0.156173991981E+00
  0.150552511582E+00
  0.150549463412E+00
  0.150269508363E+00
  0.150265211751E+00
  0.155168991393E+00
  0.155166533871E+00
  0.168189516762E+00
  0.168188724508E+00
  0.194312906829E+00
  0.194313215073E+00
  0.238974823140E+00
  0.238975776610E+00
  0.304912744665E+00
  0.304913982416E+00
  0.388644126052E+00
  0.388642955249E+00
  0.479747598341E+00
  0.479746664230E+00
  0.565419290510E+00
  0.565418163121E+00
  0.640193815476E+00
  0.640192363201E+00
  0.705914459965E+00
  0.705914743623E+00
  0.769073701959E+00
  0.769084660945E+00
  0.843475349480E+00
  0.843522639421E+00
  0.951945572794E+00
  0.952017062821E+00
  0.753121611184E+00
  0.753083128700E+00
 -0.167244418953E+01
 -0.167246224602E+01
 -0.103925854302E+01
 -0.103958729245E+01
 -0.574920003643E+00
 -0.575101946044E+00
 -0.381415080958E+00
 -0.381487130333E+00
 -0.268545392319E+00
 -0.268576584446E+00
 -0.191110957640E+00
 -0.191126279825E+00
 -0.134320603050E+00
 -0.134328676340E+00
 -0.947393773906E-01
 -0.947443431376E-01
 -0.667915409623E-01
 -0.667953328649E-01
 -0.435088967209E-01
 -0.435058965431E-01
 -0.223047935341E-01
 -0.223026219694E-01
 -0.232107244798E-02
 -0.231987465018E-02
  0.171077211424E-01
  0.171075729143E-01
  0.369565107165E-01
  0.369541980709E-01
  0.587713041394E-01
  0.587655768407E-01
  0.849711265057E-01
  0.849622260103E-01
  0.119920566639E+00
  0.119927177846E+00
  0.188891743741E+00
  0.189074007291E+00
  0.189612620796E+00
  0.189746250279E+00
  0.156141059448E+00
  0.156152006629E+00
  0.150567710451E+00
  0.150552464829E+00
  0.150282037006E+00
  0.150269459643E+00
  0.155176238202E+00
  0.155168948395E+00
  0.168193476821E+00
  0.168189493311E+00
  0.194315155766E+00
  0.194312929006E+00
  0.238976186830E+00
  0.238974933442E+00
  0.304913614433E+00
  0.304912995684E+00
  0.388643359711E+00
  0.388643490136E+00
  0.479747272432E+00
  0.479746959343E+00
  0.565418963975E+00
  0.565418357431E+00
  0.640193478084E+00
  0.640193297279E+00
  0.705916406010E+00
  0.705919895242E+00
  0.769087392140E+00
  0.769106403340E+00
  0.843527649779E+00
  0.843588629105E+00
  0.952023400138E+00
  0.952070599293E+00
  0.753109016090E+00
  0.753709575177E+00
 -0.167293607939E+01
 -0.167209769158E+01
 -0.103943789817E+01
 -0.103924016905E+01
 -0.574841566680E+00
 -0.574917956066E+00
 -0.381381360329E+00
 -0.381415022165E+00
 -0.268532818075E+00
 -0.268545243369E+00
 -0.191104341174E+00
 -0.191109988163E+00
 -0.134315311388E+00
 -0.134318684464E+00
 -0.947346244819E-01
 -0.947366620366E-01
 -0.667867501589E-01
 -0.667879566795E-01
 -0.435015114250E-01
 -0.435007794100E-01
 -0.222974538182E-01
 -0.222972953496E-01
 -0.231406487373E-02
 -0.231487366935E-02
  0.171138961502E-01
  0.171111413573E-01
  0.369609772292E-01
  0.369542314175E-01
  0.587728443219E-01
  0.587589699946E-01
  0.849700283174E-01
  0.849489721689E-01
  0.119935130138E+00
  0.119930360310E+00
  0.189079226180E+00
  0.189192530198E+00
  0.189521387819E+00
  0.189612592402E+00
  0.156153909895E+00
  0.156141009430E+00
  0.150587405433E+00
  0.150567646452E+00
  0.150295395549E+00
  0.150281963164E+00
  0.155184077095E+00
  0.155176161442E+00
  0.168198588039E+00
  0.168193408186E+00
  0.194319154539E+00
  0.194315116828E+00
  0.238979685061E+00
  0.238976214362E+00
  0.304916680829E+00
  0.304913753041E+00
  0.388643722569E+00
  0.388645880174E+00
  0.479747328071E+00
  0.479748612105E+00
  0.565418841460E+00
  0.565420215125E+00
  0.640193969788E+00
  0.640196800840E+00
  0.705920974703E+00
  0.705926809463E+00
  0.769108452234E+00
  0.769119599748E+00
  0.843592803327E+00
  0.843604693734E+00
  0.952075167861E+00
  0.952034020254E+00
  0.753731031359E+00
  0.754560130805E+00
 -0.167378059288E+01
 -0.167275884112E+01
 -0.104007702427E+01
 -0.103942376531E+01
 -0.575008022231E+00
 -0.574840195545E+00
 -0.381453712892E+00
 -0.381381307508E+00
 -0.268568287371E+00
 -0.268532737165E+00
 -0.191121777878E+00
 -0.191103798305E+00
 -0.134323155983E+00
 -0.134314236412E+00
 -0.947385626031E-01
 -0.947330963888E-01
 -0.667892986337E-01
 -0.667847293054E-01
 -0.434984084818E-01
 -0.435023778673E-01
 -0.222944295177E-01
 -0.222979872101E-01
 -0.231155347923E-02
 -0.231515832860E-02
  0.171149036844E-01
  0.171102519348E-01
  0.369585052801E-01
  0.369509054077E-01
  0.587639198551E-01
  0.587506773494E-01
  0.849547223945E-01
  0.849353316332E-01
  0.119936507879E+00
  0.119923089663E+00
  0.189197181062E+00
  0.189281719715E+00
  0.189835494400E+00
  0.189521346990E+00
  0.156203547625E+00
  0.156153867114E+00
  0.150606689792E+00
  0.150587350887E+00
  0.150306001215E+00
  0.150295330922E+00
  0.155190228891E+00
  0.155184006065E+00
  0.168202856179E+00
  0.168198515203E+00
  0.194322829140E+00
  0.194319091189E+00
  0.238983172548E+00
  0.238979654159E+00
  0.304919916647E+00
  0.304916712813E+00
  0.388645984958E+00
  0.388648535110E+00
  0.479748786883E+00
  0.479750545421E+00
  0.565420451917E+00
  0.565422513615E+00
  0.640197137688E+00
  0.640200770735E+00
  0.705927362381E+00
  0.705932639679E+00
  0.769120551390E+00
  0.769123593068E+00
  0.843606005558E+00
  0.843589218527E+00
  0.952033931156E+00
  0.951966220388E+00
  0.754574371683E+00
  0.755262916546E+00
 -0.167460059610E+01
 -0.167378598580E+01
 -0.104070779287E+01
 -0.104006616600E+01
 -0.575232573406E+00
 -0.575005804185E+00
 -0.381557325591E+00
 -0.381453355016E+00
 -0.268618205710E+00
 -0.268568349053E+00
 -0.191146670742E+00
 -0.191121820476E+00
 -0.134335685002E+00
 -0.134323068493E+00
 -0.947460188226E-01
 -0.947383296444E-01
 -0.667950741159E-01
 -0.667889253145E-01
 -0.435018849129E-01
 -0.435070645338E-01
 -0.222973021292E-01
 -0.223016799815E-01
 -0.231425533432E-02
 -0.231819520954E-02
  0.171114228589E-01
  0.171072253542E-01
  0.369524487885E-01
  0.369467060555E-01
  0.587527575232E-01
  0.587434203786E-01
  0.849380854870E-01
  0.849217436518E-01
  0.119926416340E+00
  0.119881611881E+00
  0.189284684533E+00
  0.188979206363E+00
  0.189795689149E+00
  0.189835537642E+00
  0.156237034850E+00
  0.156203519840E+00
  0.150618424402E+00
  0.150606655237E+00
  0.150310798738E+00
  0.150305961278E+00
  0.155192731334E+00
  0.155190184443E+00
  0.168204548821E+00
  0.168202807600E+00
  0.194324297637E+00
  0.194322779163E+00
  0.238984588506E+00
  0.238983129949E+00
  0.304921267313E+00
  0.304919896323E+00
  0.388648581384E+00
  0.388649697964E+00
  0.479750616772E+00
  0.479751414450E+00
  0.565422615180E+00
  0.565423583969E+00
  0.640200924828E+00
  0.640202594341E+00
  0.705932880187E+00
  0.705935145288E+00
  0.769123855557E+00
  0.769124408059E+00
  0.843588984793E+00
  0.843579053122E+00
  0.951964454811E+00
  0.951933333707E+00
  0.755273162046E+00
  0.755540493208E+00
 -0.167498000633E+01
 -0.167465478196E+01
 -0.104095290038E+01
 -0.104070078817E+01
 -0.575327364067E+00
 -0.575230508734E+00
 -0.381603178864E+00
 -0.381556906316E+00
 -0.268640781495E+00
 -0.268618311358E+00
 -0.191158135531E+00
 -0.191146925878E+00
 -0.134341684858E+00
 -0.134335971389E+00
 -0.947497604976E-01
 -0.947462946310E-01
 -0.667981250638E-01
 -0.667953618554E-01
 -0.435072507941E-01
 -0.435095731474E-01
 -0.223018350551E-01
 -0.223037554570E-01
 -0.231828767977E-02
 -0.231997719281E-02
  0.171072438206E-01
  0.171054956491E-01
  0.369469140015E-01
  0.369444891683E-01
  0.587439364727E-01
  0.587394038709E-01
  0.849227400063E-01
  0.849116569894E-01
  0.119883616047E+00
  0.119852763220E+00
  0.188985598746E+00
  0.189023007711E+00
  0.189952003184E+00
  0.189795684857E+00
  0.156248905454E+00
  0.156237025609E+00
  0.150617621303E+00
  0.150618416867E+00
  0.150308324188E+00
  0.150310792534E+00
  0.155190771005E+00
  0.155192725176E+00
  0.168202970037E+00
  0.168204541183E+00
  0.194322820749E+00
  0.194324286108E+00
  0.238983130060E+00
  0.238984570650E+00
  0.304919922350E+00
  0.304921243549E+00
  0.388649723315E+00
  0.388648648614E+00
  0.479751436465E+00
  0.479750659424E+00
  0.565423612325E+00
  0.565422705178E+00
  0.640202644839E+00
  0.640201140465E+00
  0.705935217589E+00
  0.705933425421E+00
  0.769124449450E+00
  0.769125166942E+00
  0.843578874538E+00
  0.843591035803E+00
  0.951932672469E+00
  0.951963134449E+00
  0.755549088852E+00
  0.755292089333E+00
 -0.167469945599E+01
 -0.167497295581E+01
 -0.104067632061E+01
 -0.104095003610E+01
 -0.575221687462E+00
 -0.575326650413E+00
 -0.381555504033E+00
 -0.381603025156E+00
 -0.268618522405E+00
 -0.268640822303E+00
 -0.191147207397E+00
 -0.191158227020E+00
 -0.134336140526E+00
 -0.134341771641E+00
 -0.947463937340E-01
 -0.947498372555E-01
 -0.667955166483E-01
 -0.667982037010E-01
 -0.435094931340E-01
 -0.435072649948E-01
 -0.223036786565E-01
 -0.223017977870E-01
 -0.231990616211E-02
 -0.231830071300E-02
  0.171055687485E-01
  0.171070474342E-01
  0.369445869354E-01
  0.369460437602E-01
  0.587395773673E-01
  0.587405268553E-01
  0.849120435448E-01
  0.849095896440E-01
  0.119853710263E+00
  0.119837584836E+00
  0.189023713646E+00
  0.188871294071E+00
  0.189806012681E+00
  0.189952003625E+00
  0.156224545326E+00
  0.156248919471E+00
  0.150603818264E+00
  0.150617645480E+00
  0.150299203681E+00
  0.150308354837E+00
  0.155185012423E+00
  0.155190805902E+00
  0.168198786999E+00
  0.168203006987E+00
  0.194319149721E+00
  0.194322853860E+00
  0.238979638501E+00
  0.238983147485E+00
  0.304916728726E+00
  0.304919910214E+00
  0.388648635754E+00
  0.388646104555E+00
  0.479750615373E+00
  0.479748864525E+00
  0.565422637820E+00
  0.565420599476E+00
  0.640201051234E+00
  0.640197471723E+00
  0.705933294253E+00
  0.705928148538E+00
  0.769125037911E+00
  0.769122429080E+00
  0.843591245566E+00
  0.843609298651E+00
  0.951964165724E+00
  0.952031865115E+00
  0.755295713232E+00
  0.754613376008E+00
 -0.167384556391E+01
 -0.167463342901E+01
 -0.104002421181E+01
 -0.104067910299E+01
 -0.574992870531E+00
 -0.575222837114E+00
 -0.381451770595E+00
 -0.381555729270E+00
 -0.268568814441E+00
 -0.268618464242E+00
 -0.191122309570E+00
 -0.191147063703E+00
 -0.134323377505E+00
 -0.134335959344E+00
 -0.947385306279E-01
 -0.947462113487E-01
 -0.667892075072E-01
 -0.667953265751E-01
 -0.435069776410E-01
 -0.435018371195E-01
 -0.223015428768E-01
 -0.222971902803E-01
 -0.231810982804E-02
 -0.231422784788E-02
  0.171071425553E-01
  0.171111527589E-01
  0.369460059640E-01
  0.369510948271E-01
  0.587403222529E-01
  0.587474765240E-01
  0.849092392999E-01
  0.849187911849E-01
  0.119837265411E+00
  0.119855561640E+00
  0.188872490692E+00
  0.189014661085E+00
  0.189711695583E+00
  0.189806083854E+00
  0.156185577204E+00
  0.156224592569E+00
  0.150581874620E+00
  0.150603873784E+00
  0.150285972920E+00
  0.150299266684E+00
  0.155177265383E+00
  0.155185080648E+00
  0.168193698854E+00
  0.168198857053E+00
  0.194315173466E+00
  0.194319211452E+00
  0.238976196476E+00
  0.238979670347E+00
  0.304913763463E+00
  0.304916701503E+00
  0.388645991171E+00
  0.388643825076E+00
  0.479748677793E+00
  0.479747386257E+00
  0.565420344869E+00
  0.565418949900E+00
  0.640197114532E+00
  0.640194210238E+00
  0.705927614404E+00
  0.705921519164E+00
  0.769121696471E+00
  0.769109856300E+00
  0.843608716307E+00
  0.843596238302E+00
  0.952032643017E+00
  0.952074604936E+00
  0.754603917597E+00
  0.753773492853E+00
 -0.167280140082E+01
 -0.167383458208E+01
 -0.103938349950E+01
 -0.104003499366E+01
 -0.574831471497E+00
 -0.574995512795E+00
 -0.381381045604E+00
 -0.381452221062E+00
 -0.268533278827E+00
 -0.268568723460E+00
 -0.191104179922E+00
 -0.191122210083E+00
 -0.134314456325E+00
 -0.134323408560E+00
 -0.947332361656E-01
 -0.947387141907E-01
 -0.667849332505E-01
 -0.667895353407E-01
 -0.435023711769E-01
 -0.434983705651E-01
 -0.222979058841E-01
 -0.222943514602E-01
 -0.231514038645E-02
 -0.231154655594E-02
  0.171100096585E-01
  0.171146252447E-01
  0.369496458578E-01
  0.369571456474E-01
  0.587455995269E-01
  0.587588352394E-01
  0.849163481977E-01
  0.849386097090E-01
  0.119852334498E+00
  0.119892467588E+00
  0.189009055481E+00
  0.189106166607E+00
  0.189941033872E+00
  0.189711775254E+00
  0.156176563316E+00
  0.156185648191E+00
  0.150560359135E+00
  0.150581950676E+00
  0.150272081968E+00
  0.150286053381E+00
  0.155169697391E+00
  0.155177346578E+00
  0.168189682899E+00
  0.168193774197E+00
  0.194312964913E+00
  0.194315226804E+00
  0.238974930624E+00
  0.238976196169E+00
  0.304913019385E+00
  0.304913665340E+00
  0.388643546422E+00
  0.388643392864E+00
  0.479746974721E+00
  0.479747275034E+00
  0.565418409710E+00
  0.565418979373E+00
  0.640193448526E+00
  0.640193527657E+00
  0.705920358793E+00
  0.705916558317E+00
  0.769107969116E+00
  0.769087979449E+00
  0.843593210325E+00
  0.843529988405E+00
  0.952072157235E+00
  0.952024958623E+00
  0.753744819980E+00
  0.753134501802E+00
 -0.167210010963E+01
 -0.167298202278E+01
 -0.103922491885E+01
 -0.103940281147E+01
 -0.574917638956E+00
 -0.574834597487E+00
 -0.381415901473E+00
 -0.381381436656E+00
 -0.268545539076E+00
 -0.268533270976E+00
 -0.191110039655E+00
 -0.191104529689E+00
 -0.134318659069E+00
 -0.134315344620E+00
 -0.947366201441E-01
 -0.947345986428E-01
 -0.667879403254E-01
 -0.667867878112E-01
 -0.435009049291E-01
 -0.435015727512E-01
 -0.222973626973E-01
 -0.222974977736E-01
 -0.231497953385E-02
 -0.231412050944E-02
  0.171107887456E-01
  0.171137042904E-01
  0.369528375058E-01
  0.369601613587E-01
  0.587538788546E-01
  0.587698939081E-01
  0.849327542245E-01
  0.849617269606E-01
  0.119885423284E+00
  0.119910531419E+00
  0.189097854431E+00
  0.188892972343E+00
  0.189955057336E+00
  0.189941034531E+00
  0.156174126264E+00
  0.156176616397E+00
  0.150549537775E+00
  0.150560424975E+00
  0.150265234545E+00
  0.150272146834E+00
  0.155166534596E+00
  0.155169754537E+00
  0.168188721658E+00
  0.168189721391E+00
  0.194313216855E+00
  0.194312962398E+00
  0.238975787430E+00
  0.238974847482E+00
  0.304914003421E+00
  0.304912801081E+00
  0.388642958345E+00
  0.388644100225E+00
  0.479746648797E+00
  0.479747575010E+00
  0.565418160996E+00
  0.565419261738E+00
  0.640192370006E+00
  0.640193778724E+00
  0.705914789915E+00
  0.705914472635E+00
  0.769084995745E+00
  0.769073992930E+00
  0.843524579419E+00
  0.843476525042E+00
  0.952019242725E+00
  0.951947291731E+00
  0.753087362794E+00
  0.753120367782E+00
 -0.167246258248E+01
 -0.167246830866E+01
 -0.103959136871E+01
 -0.103924924613E+01
 -0.575103285056E+00
 -0.574920423109E+00
 -0.381487360175E+00
 -0.381416083258E+00
 -0.268576530305E+00
 -0.268545651433E+00
 -0.191126158884E+00
 -0.191110927621E+00
 -0.134328557031E+00
 -0.134320504370E+00
 -0.947442361198E-01
 -0.947392695197E-01
 -0.667952253149E-01
 -0.667914489581E-01
 -0.435060390112E-01
 -0.435089984607E-01
 -0.223027481467E-01
 -0.223048733286E-01
 -0.232001752496E-02
 -0.232111318444E-02
  0.171072663140E-01
  0.171077406495E-01
  0.369531891201E-01
  0.369566258882E-01
  0.587622636782E-01
  0.587715724061E-01
  0.849532561849E-01
  0.849715946056E-01
  0.119901448284E+00
  0.119921126169E+00
  0.188886685958E+00
  0.188892447077E+00
  0.189746284836E+00
  0.189955064066E+00
  0.156152099295E+00
  0.156174132951E+00
  0.150552556018E+00
  0.150549547866E+00
  0.150269528470E+00
  0.150265244355E+00
  0.155168997380E+00
  0.155166542667E+00
  0.168189518101E+00
  0.168188726342E+00
  0.194312907091E+00
  0.194313215416E+00
  0.238974823195E+00
  0.238975776677E+00
  0.304912744680E+00
  0.304913982436E+00
  0.388644126062E+00
  0.388642955254E+00
  0.479747598343E+00
  0.479746664229E+00
  0.565419290511E+00
  0.565418163120E+00
  0.640193815474E+00
  0.640192363204E+00
  0.705914459961E+00
  0.705914743619E+00
  0.769073701963E+00
  0.769084660948E+00
  0.843475349483E+00
  0.843522639422E+00
  0.951945572792E+00
  0.952017062822E+00
  0.753121611154E+00
  0.753083128699E+00
 -0.167244418958E+01
 -0.167246224604E+01
 -0.103925854304E+01
 -0.103958729247E+01
 -0.574920003653E+00
 -0.575101946061E+00
 -0.381415080967E+00
 -0.381487130349E+00
 -0.268545392328E+00
 -0.268576584463E+00
 -0.191110957652E+00
 -0.191126279847E+00
 -0.134320603069E+00
 -0.134328676375E+00
 -0.947393774243E-01
 -0.947443431968E-01
 -0.667915410300E-01
 -0.667953329838E-01
 -0.435088969917E-01
 -0.435058966994E-01
 -0.223047942381E-01
 -0.223026223818E-01
 -0.232107444776E-02
 -0.231987584108E-02
  0.171077153172E-01
  0.171075694137E-01
  0.369564945616E-01
  0.369541884769E-01
  0.587712645442E-01
  0.587655548801E-01
  0.849710479022E-01
  0.849621892748E-01
  0.119920449964E+00
  0.119927138714E+00
  0.188891617352E+00
  0.189073972287E+00
  0.189612439895E+00
  0.189746300606E+00
  0.156141038937E+00
  0.156152063165E+00
  0.150567719472E+00
  0.150552509310E+00
  0.150282044203E+00
  0.150269479774E+00
  0.155176240929E+00
  0.155168954391E+00
  0.168193477546E+00
  0.168189494653E+00
  0.194315155926E+00
  0.194312929270E+00
  0.238976186866E+00
  0.238974933497E+00
  0.304913614449E+00
  0.304912995699E+00
  0.388643359716E+00
  0.388643490132E+00
  0.479747272431E+00
  0.479746959344E+00
  0.565418963974E+00
  0.565418357434E+00
  0.640193478086E+00
  0.640193297277E+00
  0.705916406006E+00
  0.705919895240E+00
  0.769087392142E+00
  0.769106403339E+00
  0.843527649779E+00
  0.843588629106E+00
  0.952023400139E+00
  0.952070599293E+00
  0.753109016089E+00
  0.753709575171E+00
 -0.167293607939E+01
 -0.167209769163E+01
 -0.103943789817E+01
 -0.103924016906E+01
 -0.574841566680E+00
 -0.574917956075E+00
 -0.381381360330E+00
 -0.381415022174E+00
 -0.268532818075E+00
 -0.268545243378E+00
 -0.191104341176E+00
 -0.191109988175E+00
 -0.134315311392E+00
 -0.134318684484E+00
 -0.947346244886E-01
 -0.947366620726E-01
 -0.667867501742E-01
 -0.667879567521E-01
 -0.435015115924E-01
 -0.435007794469E-01
 -0.222974542588E-01
 -0.222972954565E-01
 -0.231406613936E-02
 -0.231487400796E-02
  0.171138924494E-01
  0.171111403119E-01
  0.369609671189E-01
  0.369542285712E-01
  0.587728211262E-01
  0.587589642534E-01
  0.849699889744E-01
  0.849489678897E-01
  0.119935086401E+00
  0.119930387584E+00
  0.189079184521E+00
  0.189192709360E+00
  0.189520902908E+00
  0.189612411603E+00
  0.156153833594E+00
  0.156140988967E+00
  0.150587384284E+00
  0.150567655507E+00
  0.150295390182E+00
  0.150281970384E+00
  0.155184076435E+00
  0.155176164180E+00
  0.168198588092E+00
  0.168193408915E+00
  0.194319154583E+00
  0.194315116989E+00
  0.238979685074E+00
  0.238976214398E+00
  0.304916680834E+00
  0.304913753057E+00
  0.388643722566E+00
  0.388645880173E+00
  0.479747328071E+00
  0.479748612106E+00
  0.565418841463E+00
  0.565420215127E+00
  0.640193969787E+00
  0.640196800834E+00
  0.705920974700E+00
  0.705926809468E+00
  0.769108452233E+00
  0.769119599742E+00
  0.843592803328E+00
  0.843604693738E+00
  0.952075167861E+00
  0.952034020254E+00
  0.753731031354E+00
  0.754560130818E+00
 -0.167378059287E+01
 -0.167275884112E+01
 -0.104007702425E+01
 -0.103942376531E+01
 -0.575008022228E+00
 -0.574840195544E+00
 -0.381453712884E+00
 -0.381381307509E+00
 -0.268568287363E+00
 -0.268532737166E+00
 -0.191121777869E+00
 -0.191103798307E+00
 -0.134323155970E+00
 -0.134314236417E+00
 -0.947385625829E-01
 -0.947330963979E-01
 -0.667892985959E-01
 -0.667847293259E-01
 -0.434984085308E-01
 -0.435023777830E-01
 -0.222944296557E-01
 -0.222979870069E-01
 -0.231155390066E-02
 -0.231515779222E-02
  0.171149024167E-01
  0.171102533983E-01
  0.369585018682E-01
  0.369509093489E-01
  0.587639128280E-01
  0.587506869594E-01
  0.849547156198E-01
  0.849353528099E-01
  0.119936530906E+00
  0.119923158861E+00
  0.189197352671E+00
  0.189282181358E+00
  0.189835808474E+00
  0.189520862115E+00
  0.156203509029E+00
  0.156153790844E+00
  0.150606643810E+00
  0.150587329768E+00
  0.150305983980E+00
  0.150295325577E+00
  0.155190224944E+00
  0.155184005416E+00
  0.168202855562E+00
  0.168198515261E+00