# vtk DataFile Version 3.0
MachLine results file. Generated by MachLine, USU AeroLab (c) 2022.
ASCII
DATASET POLYDATA
POINTS                4617 float
  0.809621762426E+00  0.000000000000E+00  0.000000000000E+00
  0.815864220346E+00  0.347461205579E-01  0.481200948792E-03
  0.819396879769E+00  0.347461888865E-01  0.000000000000E+00
  0.806043666453E+00  0.000000000000E+00  0.487407724249E-03
  0.811959179583E+00  0.347461203483E-01  0.100538639889E-02
  0.802088377061E+00  0.000000000000E+00  0.101833820920E-02
  0.807645697667E+00  0.347461201246E-01  0.156528599810E-02
  0.797719390617E+00  0.000000000000E+00  0.158544242416E-02
  0.802887465477E+00  0.347461200349E-01  0.217132616177E-02
  0.792899931046E+00  0.000000000000E+00  0.219928090822E-02
  0.797645734805E+00  0.347461200541E-01  0.283295843485E-02
  0.787590751606E+00  0.000000000000E+00  0.286942683137E-02
  0.791879865074E+00  0.347461201482E-01  0.356155293625E-02
  0.781750688656E+00  0.000000000000E+00  0.360739661694E-02
  0.785546891901E+00  0.347461202543E-01  0.436515629989E-02
  0.775336224993E+00  0.000000000000E+00  0.442134044255E-02
  0.778601813585E+00  0.347461203435E-01  0.524825545723E-02
  0.768301779986E+00  0.000000000000E+00  0.531580298066E-02
  0.770998400731E+00  0.347461204139E-01  0.621479899520E-02
  0.760600529036E+00  0.000000000000E+00  0.629478362860E-02
  0.762689745034E+00  0.347461204665E-01  0.726819957686E-02
  0.752184960437E+00  0.000000000000E+00  0.736173895891E-02
  0.753628990231E+00  0.347461204892E-01  0.841162480589E-02
  0.743007615142E+00  0.000000000000E+00  0.851987733540E-02
  0.743769755395E+00  0.347461204591E-01  0.964466533096E-02
  0.733021515113E+00  0.000000000000E+00  0.976878414130E-02
  0.733067168639E+00  0.347461203700E-01  0.109635902888E-01
  0.722181211253E+00  0.000000000000E+00  0.111046805040E-01
  0.721479330645E+00  0.347461202263E-01  0.123634917814E-01
  0.710444264946E+00  0.000000000000E+00  0.125225953714E-01
  0.708968587083E+00  0.347461200354E-01  0.138380894988E-01
  0.697772537559E+00  0.000000000000E+00  0.140161676476E-01
  0.695503116226E+00  0.347461198050E-01  0.153808333156E-01
  0.684133797669E+00  0.000000000000E+00  0.155787628779E-01
  0.681058375034E+00  0.347461195465E-01  0.169841655953E-01
  0.669503186633E+00  0.000000000000E+00  0.172027262084E-01
  0.665618950167E+00  0.347461192724E-01  0.186417907305E-01
  0.653865092618E+00  0.000000000000E+00  0.188816810133E-01
  0.649179966998E+00  0.347461189915E-01  0.203472954709E-01
  0.637214578397E+00  0.000000000000E+00  0.206091315261E-01
  0.631748669401E+00  0.347461187131E-01  0.220950934857E-01
  0.619558980947E+00  0.000000000000E+00  0.223794195297E-01
  0.613345801068E+00  0.347461184403E-01  0.238801299504E-01
  0.600919310864E+00  0.000000000000E+00  0.241874251738E-01
  0.594006559837E+00  0.347461181604E-01  0.256966552638E-01
  0.581331218998E+00  0.000000000000E+00  0.260273248614E-01
  0.573781033555E+00  0.347461178568E-01  0.275345905294E-01
  0.560845437684E+00  0.000000000000E+00  0.278889100116E-01
  0.552734845597E+00  0.347461175011E-01  0.293819220014E-01
  0.539528434815E+00  0.000000000000E+00  0.297600123115E-01
  0.530948467174E+00  0.347461170495E-01  0.312183446309E-01
  0.517461716994E+00  0.000000000000E+00  0.316200653965E-01
  0.508516764493E+00  0.347461164577E-01  0.330169177562E-01
  0.494741371027E+00  0.000000000000E+00  0.334417819870E-01
  0.485547692146E+00  0.347461156836E-01  0.347425879407E-01
  0.471476740798E+00  0.000000000000E+00  0.351896575574E-01
  0.462160944993E+00  0.347461146968E-01  0.363555947003E-01
  0.447789061161E+00  0.000000000000E+00  0.368234200220E-01
  0.438485697956E+00  0.347461134809E-01  0.378131785509E-01
  0.423809169328E+00  0.000000000000E+00  0.382997596732E-01
  0.414658545782E+00  0.347461122002E-01  0.390742467732E-01
  0.399675419232E+00  0.000000000000E+00  0.395770985488E-01
  0.375530314779E+00  0.000000000000E+00  0.406194149249E-01
  0.390820187825E+00  0.347461105222E-01  0.401033630851E-01
  0.351517906977E+00  0.000000000000E+00  0.414024029198E-01
  0.367112838079E+00  0.347461084513E-01  0.408764040066E-01
  0.327779510663E+00  0.000000000000E+00  0.419124483944E-01
  0.343676018784E+00  0.347461062854E-01  0.413799699119E-01
  0.304450636737E+00  0.000000000000E+00  0.421526487879E-01
  0.320643519056E+00  0.347461041079E-01  0.416171188950E-01
  0.281657477760E+00  0.000000000000E+00  0.421361060311E-01
  0.298139928548E+00  0.347461019871E-01  0.416007864420E-01
  0.259513990803E+00  0.000000000000E+00  0.418864552926E-01
  0.276277756442E+00  0.347460999830E-01  0.413543074271E-01
  0.238119898205E+00  0.000000000000E+00  0.414330990057E-01
  0.255155458186E+00  0.347460981244E-01  0.409067107608E-01
  0.217559309072E+00  0.000000000000E+00  0.408068438559E-01
  0.234856074399E+00  0.347460964060E-01  0.402884117680E-01
  0.197900152651E+00  0.000000000000E+00  0.400357168369E-01
  0.215446671425E+00  0.347460948103E-01  0.395270813535E-01
  0.179194198511E+00  0.000000000000E+00  0.391459349055E-01
  0.196978361155E+00  0.347460932935E-01  0.386486034284E-01
  0.161477729476E+00  0.000000000000E+00  0.381563201975E-01
  0.179486965404E+00  0.347460917994E-01  0.376715610035E-01
  0.144772371540E+00  0.000000000000E+00  0.370822658363E-01
  0.162993835277E+00  0.347460902735E-01  0.366111516699E-01
  0.129086434908E+00  0.000000000000E+00  0.359336597881E-01
  0.147507175770E+00  0.347460886647E-01  0.354771377708E-01
  0.114416264632E+00  0.000000000000E+00  0.347186477474E-01
  0.133023378131E+00  0.347460869472E-01  0.342775615074E-01
  0.100747574353E+00  0.000000000000E+00  0.334447657003E-01
  0.119528337407E+00  0.347460850934E-01  0.330198631546E-01
  0.880573625099E-01  0.000000000000E+00  0.321180772346E-01
  0.106999344508E+00  0.347460830976E-01  0.317100292746E-01
  0.763148941562E-01  0.000000000000E+00  0.307469048633E-01
  0.954060547143E-01  0.347460809682E-01  0.303562766371E-01
  0.654837499807E-01  0.000000000000E+00  0.293396381697E-01
  0.847125114869E-01  0.347460787270E-01  0.289668882659E-01
  0.555222919913E-01  0.000000000000E+00  0.279073155776E-01
  0.748776058017E-01  0.347460764036E-01  0.275527623289E-01
  0.463860425857E-01  0.000000000000E+00  0.264610029614E-01
  0.658574250805E-01  0.347460740308E-01  0.261248241270E-01
  0.380276778690E-01  0.000000000000E+00  0.250133025977E-01
  0.576052467325E-01  0.347460715203E-01  0.246955158764E-01
  0.304006302444E-01  0.000000000000E+00  0.235661251397E-01
  0.500750958263E-01  0.347460669511E-01  0.232667244229E-01
  0.234882171821E-01  0.000000000000E+00  0.219884352149E-01
  0.432505019978E-01  0.347460564542E-01  0.217090801382E-01
  0.173267853705E-01  0.000000000000E+00  0.200358440448E-01
  0.371673484181E-01  0.347460382321E-01  0.197813000990E-01
  0.120086027554E-01  0.000000000000E+00  0.175270803684E-01
  0.319167282059E-01  0.347460152005E-01  0.173044158128E-01
  0.763104376912E-02  0.000000000000E+00  0.144605951681E-01
  0.275947774802E-01  0.347459926681E-01  0.142768957073E-01
  0.424240364908E-02  0.000000000000E+00  0.109895809508E-01
  0.242491792572E-01  0.347459740821E-01  0.108499837570E-01
  0.184484172869E-02  0.000000000000E+00  0.730232649037E-02
  0.218820672488E-01  0.347459602504E-01  0.720957565049E-02
  0.441030529267E-03  0.000000000000E+00  0.357565662572E-02
  0.204960817612E-01  0.347459517551E-01  0.353024876707E-02
  0.342963135672E-06  0.000000000000E+00  0.234901706760E-22
  0.200609597772E-01  0.347459457915E-01  0.236444071174E-22
  0.204960817612E-01  0.347459517551E-01 -0.353024876707E-02
  0.441030529267E-03  0.000000000000E+00 -0.357565662572E-02
  0.218820672488E-01  0.347459602504E-01 -0.720957565049E-02
  0.184484172869E-02  0.000000000000E+00 -0.730232649037E-02
  0.242491792572E-01  0.347459740821E-01 -0.108499837570E-01
  0.424240364908E-02  0.000000000000E+00 -0.109895809508E-01
  0.275947774802E-01  0.347459926681E-01 -0.142768957073E-01
  0.763104376912E-02  0.000000000000E+00 -0.144605951681E-01
  0.319167282059E-01  0.347460152005E-01 -0.173044158128E-01
  0.120086027554E-01  0.000000000000E+00 -0.175270803684E-01
  0.371673484181E-01  0.347460382321E-01 -0.197813000990E-01
  0.173267853705E-01  0.000000000000E+00 -0.200358440448E-01
  0.432505019978E-01  0.347460564542E-01 -0.217090801382E-01
  0.234882171821E-01  0.000000000000E+00 -0.219884352149E-01
  0.500750958263E-01  0.347460669511E-01 -0.232667244229E-01
  0.304006302444E-01  0.000000000000E+00 -0.235661251397E-01
  0.576052467325E-01  0.347460715203E-01 -0.246955158764E-01
  0.380276778690E-01  0.000000000000E+00 -0.250133025977E-01
  0.658574250805E-01  0.347460740308E-01 -0.261248241270E-01
  0.463860425857E-01  0.000000000000E+00 -0.264610029614E-01
  0.748776058017E-01  0.347460764036E-01 -0.275527623289E-01
  0.555222919913E-01  0.000000000000E+00 -0.279073155776E-01
  0.847125114869E-01  0.347460787270E-01 -0.289668882659E-01
  0.654837499807E-01  0.000000000000E+00 -0.293396381697E-01
  0.954060547143E-01  0.347460809682E-01 -0.303562766371E-01
  0.763148941562E-01  0.000000000000E+00 -0.307469048633E-01
  0.106999344508E+00  0.347460830976E-01 -0.317100292746E-01
  0.880573625099E-01  0.000000000000E+00 -0.321180772346E-01
  0.119528337407E+00  0.347460850934E-01 -0.330198631546E-01
  0.100747574353E+00  0.000000000000E+00 -0.334447657003E-01
  0.133023378131E+00  0.347460869472E-01 -0.342775615074E-01
  0.114416264632E+00  0.000000000000E+00 -0.347186477474E-01
  0.147507175770E+00  0.347460886647E-01 -0.354771377708E-01
  0.129086434908E+00  0.000000000000E+00 -0.359336597881E-01
  0.162993835277E+00  0.347460902735E-01 -0.366111516699E-01
  0.144772371540E+00  0.000000000000E+00 -0.370822658363E-01
  0.179486965404E+00  0.347460917994E-01 -0.376715610035E-01
  0.161477729476E+00  0.000000000000E+00 -0.381563201975E-01
  0.196978361155E+00  0.347460932935E-01 -0.386486034284E-01
[...]
POINT_DATA                4617
SCALARS phi float 1
LOOKUP_TABLE default
  0.000000000000E+00
  0.180411241502E-15
  0.485722573274E-16
 -0.555111512313E-16
  0.312250225676E-16
  0.104083408559E-16
 -0.728583859910E-16
 -0.107552855511E-15
 -0.589805981832E-16
 -0.124900090270E-15
 -0.170002900646E-15
  0.902056207508E-16
  0.589805981832E-16
  0.693889390391E-16
 -0.936750677027E-16
 -0.107552855511E-15
 -0.381639164715E-16
  0.242861286637E-16
  0.971445146547E-16
  0.208166817117E-16
 -0.100613961607E-15
 -0.346944695195E-17
 -0.589805981832E-16
  0.173472347598E-16
 -0.138777878078E-16
 -0.693889390391E-17
 -0.138777878078E-16
  0.111022302463E-15
  0.277555756156E-16
  0.173472347598E-16
 -0.520417042793E-16
 -0.797972798949E-16
 -0.277555756156E-16
  0.867361737988E-16
 -0.832667268469E-16
 -0.135308431126E-15
 -0.312250225676E-16
 -0.902056207508E-16
 -0.346944695195E-16
  0.867361737988E-16
  0.346944695195E-17
 -0.242861286637E-16
 -0.485722573274E-16
 -0.520417042793E-16
  0.451028103754E-16
  0.624500451352E-16
  0.572458747072E-16
 -0.156125112838E-16
 -0.138777878078E-16
 -0.260208521397E-16
 -0.485722573274E-16
 -0.364291929955E-16
 -0.381639164715E-16
 -0.607153216592E-16
  0.381639164715E-16
  0.416333634234E-16
  0.780625564190E-17
  0.130104260698E-16
  0.138777878078E-16
 -0.607153216592E-17
  0.238524477947E-16
  0.114925430283E-16
 -0.758941520740E-17
 -0.498732999343E-17
  0.650521303491E-17
  0.117093834628E-16
 -0.208166817117E-16
 -0.130104260698E-16
  0.251534904017E-16
 -0.346944695195E-17
 -0.381639164715E-16
 -0.346944695195E-17
 -0.329597460436E-16
 -0.138777878078E-16
  0.589805981832E-16
  0.659194920871E-16
  0.346944695195E-16
  0.138777878078E-16
 -0.381639164715E-16
 -0.381639164715E-16
 -0.451028103754E-16
 -0.346944695195E-16
  0.381639164715E-16
  0.832667268469E-16
  0.728583859910E-16
  0.277555756156E-16
  0.159594559790E-15
  0.659194920871E-16
 -0.208166817117E-16
  0.346944695195E-16
 -0.589805981832E-16
  0.693889390391E-17
 -0.346944695195E-17
 -0.312250225676E-16
 -0.416333634234E-16
  0.346944695195E-16
 -0.312250225676E-16
  0.902056207508E-16
  0.693889390391E-17
  0.555111512313E-16
 -0.104083408559E-16
  0.867361737988E-16
  0.121430643318E-15
 -0.104083408559E-16
 -0.832667268469E-16
  0.111022302463E-15
 -0.128369537222E-15
  0.208166817117E-16
  0.104083408559E-15
  0.416333634234E-16
  0.277555756156E-16
 -0.416333634234E-16
 -0.131838984174E-15
  0.263677968348E-15
 -0.263677968348E-15
  0.277555756156E-16
  0.291433543964E-15
  0.693889390391E-16
  0.902056207508E-16
 -0.555111512313E-16
  0.159594559790E-15
 -0.208166817117E-16
 -0.166533453694E-15
 -0.277555756156E-16
  0.145716771982E-15
 -0.138777878078E-16
  0.485722573274E-16
  0.555111512313E-16
 -0.194289029309E-15
 -0.138777878078E-16
 -0.763278329430E-16
 -0.131838984174E-15
  0.693889390391E-17
  0.104083408559E-15
  0.971445146547E-16
 -0.111022302463E-15
  0.555111512313E-16
  0.277555756156E-16
 -0.121430643318E-15
  0.589805981832E-16
  0.128369537222E-15
  0.114491749414E-15
 -0.346944695195E-17
 -0.624500451352E-16
 -0.416333634234E-16
  0.381639164715E-16
  0.693889390391E-17
  0.246330733589E-15
 -0.173472347598E-16
  0.131838984174E-15
 -0.208166817117E-16
  0.218575157973E-15
 -0.902056207508E-16
  0.763278329430E-16
  0.693889390391E-17
 -0.104083408559E-16
 -0.936750677027E-16
  0.451028103754E-16
 -0.138777878078E-16
 -0.138777878078E-16
  0.121430643318E-15
  0.624500451352E-16
  0.381639164715E-16
 -0.138777878078E-16
 -0.381639164715E-16
  0.346944695195E-16
  0.104083408559E-16
 -0.503069808033E-16
  0.520417042793E-17
  0.572458747072E-16
 -0.104083408559E-16
  0.121430643318E-16
 -0.104083408559E-16
 -0.867361737988E-17
  0.216840434497E-16
 -0.954097911787E-17
  0.867361737988E-18
 -0.364291929955E-16
  0.171303943253E-16
  0.260208521397E-17
 -0.498732999343E-17
  0.179232171639E-17
  0.125767452008E-16
  0.910729824888E-17
  0.780625564190E-17
  0.000000000000E+00
  0.867361737988E-17
 -0.954097911787E-17
 -0.277555756156E-16
  0.173472347598E-16
  0.173472347598E-17
  0.104083408559E-16
 -0.329597460436E-16
  0.105818132035E-15
 -0.329597460436E-16
  0.468375338514E-16
 -0.104083408559E-16
 -0.159594559790E-15
 -0.693889390391E-17
  0.242861286637E-16
  0.121430643318E-15
 -0.346944695195E-16
 -0.277555756156E-16
 -0.346944695195E-17
  0.138777878078E-16
 -0.797972798949E-16
  0.485722573274E-16
  0.111022302463E-15
 -0.867361737988E-16
 -0.520417042793E-16
 -0.555111512313E-16
 -0.111022302463E-15
 -0.659194920871E-16
 -0.971445146547E-16
 -0.121430643318E-15
  0.111022302463E-15
  0.173472347598E-16
  0.451028103754E-16
  0.485722573274E-16
  0.104083408559E-16
 -0.624500451352E-16
 -0.173472347598E-16
 -0.242861286637E-16
 -0.117961196366E-15
  0.312250225676E-16
  0.693889390391E-16
  0.104083408559E-16
  0.485722573274E-16
  0.104083408559E-15
  0.277555756156E-16
 -0.163064006742E-15
 -0.971445146547E-16
 -0.971445146547E-16
 -0.346944695195E-16
  0.693889390391E-17
 -0.693889390391E-17
 -0.520417042793E-16
  0.242861286637E-16
 -0.346944695195E-17
 -0.797972798949E-16
 -0.104083408559E-16
  0.624500451352E-16
  0.346944695195E-16
  0.312250225676E-16
  0.138777878078E-16
 -0.128369537222E-15
  0.277555756156E-16
 -0.104083408559E-15
  0.485722573274E-16
  0.520417042793E-16
 -0.728583859910E-16
  0.416333634234E-16
 -0.797972798949E-16
 -0.277555756156E-16
  0.832667268469E-16
  0.346944695195E-17
 -0.346944695195E-16
 -0.135308431126E-15
  0.104083408559E-16
  0.208166817117E-16
 -0.971445146547E-16
  0.936750677027E-16
 -0.312250225676E-16
 -0.346944695195E-16
 -0.346944695195E-16
 -0.381639164715E-16
 -0.116226472890E-15
  0.242861286637E-16
  0.190819582357E-16
 -0.329597460436E-16
 -0.199493199737E-16
  0.238524477947E-17
  0.106251812904E-16
  0.121430643318E-16
  0.867361737988E-18
  0.234187669257E-16
 -0.277555756156E-16
  0.433680868994E-16
 -0.104083408559E-16
  0.346944695195E-17
 -0.797972798949E-16
  0.381639164715E-16
 -0.173472347598E-16
  0.104083408559E-16
  0.124900090270E-15
  0.728583859910E-16
  0.242861286637E-16
 -0.485722573274E-16
 -0.520417042793E-16
  0.000000000000E+00
  0.208166817117E-16
 -0.138777878078E-16
 -0.555111512313E-16
 -0.173472347598E-16
  0.763278329430E-16
  0.902056207508E-16
 -0.201227923213E-15
  0.111022302463E-15
 -0.145716771982E-15
 -0.117961196366E-15
  0.000000000000E+00
  0.416333634234E-16
  0.693889390391E-16
  0.000000000000E+00
 -0.228983498829E-15
  0.555111512313E-16
 -0.291433543964E-15
  0.249800180541E-15
 -0.728583859910E-16
  0.114491749414E-15
 -0.100613961607E-15
 -0.971445146547E-16
 -0.145716771982E-15
  0.728583859910E-16
 -0.104083408559E-15
 -0.936750677027E-16
  0.867361737988E-16
  0.589805981832E-16
  0.277555756156E-16
  0.104083408559E-16
  0.208166817117E-16
  0.381639164715E-16
 -0.624500451352E-16
  0.260208521397E-16
 -0.260208521397E-16
  0.693889390391E-17
 -0.607153216592E-17
  0.121430643318E-16
  0.867361737988E-17
  0.333392168039E-17
  0.125767452008E-16
 -0.954097911787E-17
  0.208166817117E-16
  0.294902990916E-16
 -0.208166817117E-16
 -0.346944695195E-16
 -0.919403442268E-16
  0.346944695195E-17
  0.124900090270E-15
 -0.832667268469E-16
  0.138777878078E-16
 -0.936750677027E-16
  0.936750677027E-16
  0.902056207508E-16
 -0.131838984174E-15
  0.902056207508E-16
  0.659194920871E-16
 -0.555111512313E-16
 -0.166533453694E-15
 -0.277555756156E-16
 -0.555111512313E-16
 -0.867361737988E-16
 -0.693889390391E-17
 -0.242861286637E-16
  0.416333634234E-16
 -0.381639164715E-16
 -0.346944695195E-16
 -0.381639164715E-16
  0.173472347598E-16
 -0.346944695195E-16
 -0.346944695195E-17
  0.346944695195E-16
  0.589805981832E-16
  0.117961196366E-15
 -0.728583859910E-16
 -0.121430643318E-15
 -0.208166817117E-16
 -0.485722573274E-16
  0.000000000000E+00
  0.138777878078E-16
  0.936750677027E-16
  0.797972798949E-16
  0.416333634234E-16
  0.117961196366E-15
  0.312250225676E-16
  0.242861286637E-16
 -0.128369537222E-15
  0.381639164715E-16
 -0.797972798949E-16
  0.104083408559E-15
  0.131838984174E-15
 -0.693889390391E-16
 -0.114491749414E-15
  0.242861286637E-16
  0.000000000000E+00
 -0.312250225676E-16
 -0.485722573274E-16
  0.173472347598E-17
  0.208166817117E-16
  0.112757025938E-16
  0.433680868994E-17
 -0.130104260698E-17
 -0.369983991361E-17
 -0.780625564190E-17
  0.433680868994E-17
 -0.112757025938E-16
  0.520417042793E-17
 -0.416333634234E-16
 -0.260208521397E-16
  0.277555756156E-16
 -0.277555756156E-16
 -0.312250225676E-16
  0.173472347598E-16
  0.346944695195E-16
 -0.277555756156E-16
 -0.242861286637E-16
  0.520417042793E-16
 -0.659194920871E-16
  0.173472347598E-16
  0.485722573274E-16
  0.381639164715E-16
 -0.138777878078E-16
  0.693889390391E-17
 -0.381639164715E-16
  0.138777878078E-15
 -0.159594559790E-15
  0.298372437868E-15
  0.201227923213E-15
 -0.104083408559E-15
  0.693889390391E-16
 -0.346944695195E-16
 -0.555111512313E-16
 -0.159594559790E-15
 -0.228983498829E-15
  0.000000000000E+00
 -0.902056207508E-16
  0.902056207508E-16
  0.138777878078E-15
 -0.346944695195E-16
 -0.242861286637E-16
  0.520417042793E-16
 -0.346944695195E-16
 -0.693889390391E-17
 -0.936750677027E-16
  0.104083408559E-15
  0.763278329430E-16
 -0.242861286637E-16
 -0.104083408559E-15
 -0.693889390391E-16
  0.589805981832E-16
  0.312250225676E-16
  0.156125112838E-16
 -0.711236625150E-16
 -0.416333634234E-16
 -0.537764277553E-16
 -0.572458747072E-16
 -0.234187669257E-16
 -0.138777878078E-16
  0.114925430283E-16
 -0.106251812904E-16
 -0.650521303491E-17
  0.867361737988E-17
 -0.954097911787E-17
  0.537764277553E-16
 -0.850014503229E-16
 -0.641847686111E-16
  0.104083408559E-16
 -0.138777878078E-16
  0.451028103754E-16
 -0.416333634234E-16
  0.277555756156E-16
  0.277555756156E-16
 -0.176941794550E-15
  0.111022302463E-15
  0.138777878078E-16
 -0.104083408559E-15
 -0.797972798949E-16
 -0.416333634234E-16
  0.520417042793E-16
  0.242861286637E-16
 -0.208166817117E-16
  0.159594559790E-15
 -0.346944695195E-17
 -0.208166817117E-16
 -0.867361737988E-16
 -0.242861286637E-16
  0.728583859910E-16
 -0.138777878078E-16
  0.208166817117E-16
  0.902056207508E-16
 -0.138777878078E-16
  0.104083408559E-15
  0.589805981832E-16
 -0.131838984174E-15
 -0.138777878078E-16
  0.693889390391E-17
  0.163064006742E-15
 -0.832667268469E-16
  0.346944695195E-16
  0.589805981832E-16
  0.797972798949E-16
 -0.138777878078E-16
  0.381639164715E-16
 -0.346944695195E-16
 -0.936750677027E-16
 -0.485722573274E-16
  0.277555756156E-16
 -0.173472347598E-16
  0.867361737988E-16
 -0.242861286637E-16
  0.135308431126E-15
  0.728583859910E-16
  0.659194920871E-16
  0.138777878078E-16
  0.135308431126E-15
  0.173472347598E-16
  0.693889390391E-17
 -0.329597460436E-16
 -0.242861286637E-16
 -0.954097911787E-17
 -0.173472347598E-16
 -0.823993651089E-17
  0.498732999343E-17
  0.136609473733E-16
 -0.151788304148E-16
  0.173472347598E-16
  0.867361737988E-17
 -0.555111512313E-16
  0.398986399475E-16
  0.572458747072E-16
  0.104083408559E-16
  0.693889390391E-17
 -0.100613961607E-15
  0.624500451352E-16
 -0.451028103754E-16
 -0.138777878078E-16
  0.867361737988E-16
  0.728583859910E-16
  0.451028103754E-16
 -0.135308431126E-15
 -0.485722573274E-16
 -0.312250225676E-16
  0.451028103754E-16
 -0.152655665886E-15
  0.555111512313E-16
  0.152655665886E-15
 -0.388578058619E-15
  0.000000000000E+00
  0.763278329430E-16
 -0.485722573274E-16
  0.624500451352E-16
  0.208166817117E-16
  0.159594559790E-15
 -0.166533453694E-15
 -0.145716771982E-15
  0.159594559790E-15
  0.000000000000E+00
  0.277555756156E-16
  0.128369537222E-15
 -0.128369537222E-15
 -0.208166817117E-15
 -0.555111512313E-16
 -0.381639164715E-16
 -0.159594559790E-15
  0.107552855511E-15
  0.111022302463E-15
  0.381639164715E-16
  0.346944695195E-16
  0.346944695195E-16
 -0.124900090270E-15
 -0.659194920871E-16
  0.346944695195E-16
 -0.624500451352E-16
  0.225514051877E-16
  0.346944695195E-16
 -0.190819582357E-16
 -0.130104260698E-16
 -0.954097911787E-17
  0.422838847269E-17
 -0.325260651746E-17
 -0.112757025938E-16
  0.182145964978E-16
 -0.381639164715E-16
  0.173472347598E-17
  0.693889390391E-17
  0.138777878078E-16
  0.277555756156E-16
  0.451028103754E-16
  0.693889390391E-17
  0.104083408559E-16
 -0.114491749414E-15
 -0.589805981832E-16
  0.346944695195E-16
 -0.117961196366E-15
 -0.104083408559E-16
 -0.312250225676E-16
  0.163064006742E-15
 -0.416333634234E-16
 -0.173472347598E-16
  0.763278329430E-16
  0.142247325030E-15
  0.100613961607E-15
 -0.100613961607E-15
 -0.121430643318E-15
  0.416333634234E-16
 -0.138777878078E-16
 -0.624500451352E-16
 -0.520417042793E-16
  0.104083408559E-16
 -0.416333634234E-16
 -0.416333634234E-16
 -0.936750677027E-16
 -0.936750677027E-16
 -0.117961196366E-15
  0.138777878078E-16
 -0.173472347598E-16
  0.208166817117E-16
  0.763278329430E-16
 -0.180411241502E-15
 -0.159594559790E-15
  0.728583859910E-16
  0.728583859910E-16
 -0.902056207508E-16
 -0.204697370165E-15
  0.589805981832E-16
  0.416333634234E-16
  0.000000000000E+00
  0.936750677027E-16
 -0.728583859910E-16
  0.555111512313E-16
 -0.867361737988E-16
  0.138777878078E-16
 -0.485722573274E-16
  0.173472347598E-16
  0.659194920871E-16
 -0.572458747072E-16
  0.433680868994E-16
  0.190819582357E-16
 -0.260208521397E-16
 -0.260208521397E-16
 -0.147451495458E-16
  0.277555756156E-16
  0.867361737988E-18
  0.117093834628E-16
  0.954097911787E-17
  0.138777878078E-16
 -0.286229373536E-16
 -0.572458747072E-16
  0.121430643318E-16
 -0.156125112838E-16
  0.867361737988E-17
  0.104083408559E-16
  0.589805981832E-16
  0.208166817117E-16
 -0.659194920871E-16
 -0.589805981832E-16
 -0.659194920871E-16
 -0.121430643318E-15
 -0.589805981832E-16
 -0.277555756156E-16
 -0.104083408559E-16
  0.416333634234E-16
  0.763278329430E-16
 -0.485722573274E-16
  0.381639164715E-16
  0.326128013484E-15
  0.152655665886E-15
  0.555111512313E-16
  0.277555756156E-15
 -0.235922392733E-15
  0.104083408559E-15
 -0.138777878078E-15
  0.117961196366E-15
  0.624500451352E-16
 -0.117961196366E-15
 -0.117961196366E-15
 -0.117961196366E-15
  0.228983498829E-15
 -0.555111512313E-16
 -0.138777878078E-16
 -0.346944695195E-17
  0.131838984174E-15
 -0.111022302463E-15
  0.555111512313E-16
  0.451028103754E-16
  0.416333634234E-16
 -0.381639164715E-16
 -0.416333634234E-16
 -0.797972798949E-16
 -0.104083408559E-16
 -0.242861286637E-16
 -0.381639164715E-16
  0.485722573274E-16
 -0.503069808033E-16
  0.173472347598E-16
  0.260208521397E-17
  0.147451495458E-16
  0.119262238973E-16
  0.845677694539E-17
 -0.737257477290E-17
 -0.242861286637E-16
 -0.303576608296E-16
 -0.451028103754E-16
 -0.294902990916E-16
  0.867361737988E-17
  0.416333634234E-16
 -0.416333634234E-16
 -0.832667268469E-16
 -0.180411241502E-15
 -0.228983498829E-15
  0.170002900646E-15
 -0.111022302463E-15
 -0.832667268469E-16
  0.693889390391E-16
 -0.104083408559E-16
 -0.451028103754E-16
  0.312250225676E-16
  0.346944695195E-17
  0.624500451352E-16
  0.693889390391E-17
  0.763278329430E-16
 -0.797972798949E-16
  0.520417042793E-16
  0.902056207508E-16
 -0.128369537222E-15
  0.936750677027E-16
 -0.208166817117E-16
 -0.312250225676E-16
  0.693889390391E-17
  0.312250225676E-16
 -0.312250225676E-16
 -0.277555756156E-16
  0.763278329430E-16
 -0.693889390391E-16
 -0.312250225676E-16
 -0.693889390391E-17
  0.763278329430E-16
 -0.971445146547E-16
 -0.659194920871E-16
  0.107552855511E-15
  0.145716771982E-15
  0.242861286637E-16
  0.114491749414E-15
  0.277555756156E-16
 -0.100613961607E-15
  0.173472347598E-16
  0.312250225676E-16
  0.138777878078E-15
 -0.170002900646E-15
 -0.180411241502E-15
  0.902056207508E-16
 -0.312250225676E-16
  0.111022302463E-15
  0.173472347598E-15
 -0.138777878078E-16
  0.485722573274E-16
  0.867361737988E-16
 -0.936750677027E-16
  0.312250225676E-16
 -0.208166817117E-16
 -0.433680868994E-16
  0.234187669257E-16
  0.338271077815E-16
 -0.151076796472E-16
 -0.433680868994E-18
  0.780625564190E-17
 -0.182145964978E-16
 -0.190819582357E-16
 -0.381639164715E-16
 -0.138777878078E-16
 -0.173472347598E-17
 -0.156125112838E-16
  0.832667268469E-16
  0.659194920871E-16
 -0.659194920871E-16
 -0.381639164715E-16
  0.000000000000E+00
 -0.346944695195E-16
 -0.520417042793E-16
 -0.156125112838E-15
  0.659194920871E-16
 -0.451028103754E-16
 -0.312250225676E-16
  0.138777878078E-16
  0.693889390391E-16
  0.451028103754E-16
  0.152655665886E-15
  0.228983498829E-15
  0.208166817117E-15
 -0.291433543964E-15
 -0.111022302463E-15
 -0.208166817117E-15
 -0.693889390391E-17
 -0.346944695195E-16
 -0.173472347598E-15
  0.000000000000E+00
 -0.114491749414E-15
 -0.346944695195E-16
  0.277555756156E-16
 -0.104083408559E-16
  0.000000000000E+00
  0.416333634234E-16
 -0.242861286637E-16
  0.416333634234E-16
  0.173472347598E-16
 -0.416333634234E-16
 -0.381639164715E-16
  0.180411241502E-15
  0.277555756156E-16
 -0.693889390391E-17
 -0.329597460436E-16
 -0.346944695195E-16
 -0.294902990916E-16
 -0.867361737988E-17
  0.173472347598E-17
  0.954097911787E-17
  0.260208521397E-17
 -0.119262238973E-16
 -0.574627151417E-17
  0.260208521397E-17
 -0.190819582357E-16
  0.268882138776E-16
  0.346944695195E-17
 -0.520417042793E-17
 -0.121430643318E-16
  0.121430643318E-16
  0.797972798949E-16
 -0.693889390391E-17
  0.763278329430E-16
  0.121430643318E-15
  0.971445146547E-16
  0.114491749414E-15
 -0.971445146547E-16
 -0.242861286637E-16
 -0.114491749414E-15
  0.000000000000E+00
 -0.693889390391E-17
 -0.659194920871E-16
  0.104083408559E-16
  0.104083408559E-16
  0.277555756156E-16
  0.485722573274E-16
  0.135308431126E-15
  0.117961196366E-15
 -0.693889390391E-16
  0.100613961607E-15
  0.104083408559E-16
 -0.520417042793E-16
  0.104083408559E-15
  0.659194920871E-16
  0.693889390391E-17
  0.124900090270E-15
  0.381639164715E-16
 -0.159594559790E-15
 -0.346944695195E-16
  0.163064006742E-15
 -0.170002900646E-15
  0.624500451352E-16
 -0.104083408559E-16
 -0.485722573274E-16
  0.555111512313E-16
 -0.346944695195E-17
 -0.451028103754E-16
  0.173472347598E-16
  0.346944695195E-17
  0.138777878078E-16
  0.416333634234E-16
  0.485722573274E-16
  0.520417042793E-16
  0.242861286637E-16
 -0.659194920871E-16
  0.659194920871E-16
  0.346944695195E-16
  0.693889390391E-17
  0.346944695195E-16
 -0.208166817117E-16
  0.346944695195E-16
  0.555111512313E-16
  0.100613961607E-15
  0.104083408559E-16
  0.355618312575E-16
  0.182145964978E-16
 -0.477048955894E-17
 -0.346944695195E-17
 -0.238524477947E-17
  0.000000000000E+00
 -0.520417042793E-17
  0.147451495458E-16
  0.156125112838E-16
 -0.624500451352E-16
 -0.589805981832E-16
 -0.190819582357E-16
  0.659194920871E-16
  0.346944695195E-17
 -0.381639164715E-16
 -0.763278329430E-16
 -0.173472347598E-16
 -0.135308431126E-15
 -0.173472347598E-16
  0.104083408559E-15
 -0.145716771982E-15
  0.104083408559E-16
 -0.902056207508E-16
 -0.222044604925E-15
  0.173472347598E-16
  0.277555756156E-16
 -0.208166817117E-16
  0.763278329430E-16
  0.000000000000E+00
  0.277555756156E-16
  0.215105711021E-15
  0.277555756156E-16
  0.159594559790E-15
 -0.284494650060E-15
 -0.135308431126E-15
  0.104083408559E-16
 -0.763278329430E-16
 -0.232452945781E-15
 -0.104083408559E-16
  0.693889390391E-17
  0.104083408559E-16
 -0.135308431126E-15
  0.520417042793E-16
  0.138777878078E-16
  0.000000000000E+00
  0.166533453694E-15
 -0.346944695195E-16
  0.111022302463E-15
  0.208166817117E-16
 -0.242861286637E-16
  0.294902990916E-16
  0.607153216592E-16
 -0.121430643318E-16
 -0.381639164715E-16
  0.459701721134E-16
 -0.685215773011E-16
 -0.260208521397E-17
  0.401154803820E-17
  0.000000000000E+00
  0.737257477290E-17
  0.173472347598E-17
 -0.693889390391E-17
  0.277555756156E-16
  0.294902990916E-16
  0.659194920871E-16
 -0.312250225676E-16
  0.433680868994E-16
  0.346944695195E-16
  0.416333634234E-16
  0.277555756156E-16
 -0.659194920871E-16
  0.277555756156E-16
  0.124900090270E-15
  0.589805981832E-16
 -0.520417042793E-16
  0.555111512313E-16
  0.138777878078E-16
  0.173472347598E-16