# vtk DataFile Version 3.0
MachLine results file. Generated by MachLine, USU AeroLab (c) 2022.
ASCII
DATASET POLYDATA
POINTS                1191 float
  0.999577032212E+00  0.000000000000E+00 -0.241343186307E-04
  0.965569811097E+00  0.503720627990E+00 -0.352799084925E-02
  0.999565380286E+00  0.503720627990E+00 -0.247991713494E-04
  0.965574183977E+00  0.000000000000E+00 -0.356385202299E-02
  0.905444347740E+00  0.503720627990E+00 -0.100929149281E-01
  0.905448607052E+00  0.000000000000E+00 -0.101279862584E-01
  0.807819069113E+00  0.503720627990E+00 -0.199158988710E-01
  0.807823188522E+00  0.000000000000E+00 -0.199499331604E-01
  0.666928903411E+00  0.503720627990E+00 -0.322604250211E-01
  0.666933030247E+00  0.000000000000E+00 -0.322943504449E-01
  0.494676924851E+00  0.503720627990E+00 -0.438282603139E-01
  0.494681385611E+00  0.000000000000E+00 -0.439177332557E-01
  0.322141801602E+00  0.000000000000E+00 -0.494845643268E-01
  0.322145638274E+00  0.503720627990E+00 -0.494503862666E-01
  0.180792095243E+00  0.000000000000E+00 -0.463383761914E-01
  0.180800082835E+00  0.503720627990E+00 -0.463045068245E-01
  0.832941794531E-01  0.000000000000E+00 -0.360555759280E-01
  0.833097315590E-01  0.503720627990E+00 -0.360223504026E-01
  0.248339660000E-01  0.000000000000E+00 -0.213455867752E-01
  0.248789269649E-01  0.503720627990E+00 -0.213270161256E-01
  0.425196737892E-03  0.000000000000E+00  0.000000000000E+00
  0.436793664140E-03  0.503720627990E+00  0.000000000000E+00
  0.248789269649E-01  0.503720627990E+00  0.213270161256E-01
  0.248339660000E-01  0.000000000000E+00  0.213455867752E-01
  0.833097315590E-01  0.503720627990E+00  0.360223504026E-01
  0.832941794531E-01  0.000000000000E+00  0.360555759280E-01
  0.180800082835E+00  0.503720627990E+00  0.463045068245E-01
  0.180792095243E+00  0.000000000000E+00  0.463383761914E-01
  0.322145638274E+00  0.503720627990E+00  0.494503862666E-01
  0.322141801602E+00  0.000000000000E+00  0.494845643268E-01
  0.494676924851E+00  0.503720627990E+00  0.438282603139E-01
  0.494681385611E+00  0.000000000000E+00  0.439177332557E-01
  0.666933030247E+00  0.000000000000E+00  0.322943504449E-01
  0.666928903411E+00  0.503720627990E+00  0.322604250211E-01
  0.807823188522E+00  0.000000000000E+00  0.199499331604E-01
  0.807819069113E+00  0.503720627990E+00  0.199158988710E-01
  0.905448607052E+00  0.000000000000E+00  0.101279862584E-01
  0.905444347740E+00  0.503720627990E+00  0.100929149281E-01
  0.965574183977E+00  0.000000000000E+00  0.356385202299E-02
  0.965569811097E+00  0.503720627990E+00  0.352799084925E-02
  0.965563815596E+00  0.110747748820E+01 -0.347452513022E-02
  0.999521558729E+00  0.110747748820E+01 -0.272996062613E-04
  0.905438738582E+00  0.110747748820E+01 -0.100395450655E-01
  0.807814059260E+00  0.110747748820E+01 -0.198627522921E-01
  0.666924813449E+00  0.110747748820E+01 -0.322075899088E-01
  0.494673840399E+00  0.110747748820E+01 -0.437663930796E-01
  0.322145366473E+00  0.110747748820E+01 -0.493973935592E-01
  0.180803487386E+00  0.110747748820E+01 -0.462512330064E-01
  0.833191292416E-01  0.110747748820E+01 -0.359695153943E-01
  0.249039644579E-01  0.110747748820E+01 -0.212793921060E-01
  0.480905014046E-03  0.110747748820E+01  0.000000000000E+00
  0.249039644579E-01  0.110747748820E+01  0.212793921060E-01
  0.833191292416E-01  0.110747748820E+01  0.359695153943E-01
  0.180803487386E+00  0.110747748820E+01  0.462512330064E-01
  0.322145366473E+00  0.110747748820E+01  0.493973935592E-01
  0.494673840399E+00  0.110747748820E+01  0.437663930796E-01
  0.666924813449E+00  0.110747748820E+01  0.322075899088E-01
  0.807814059260E+00  0.110747748820E+01  0.198627522921E-01
  0.905438738582E+00  0.110747748820E+01  0.100395450655E-01
  0.965563815596E+00  0.110747748820E+01  0.347452513022E-02
  0.965562923844E+00  0.175813428970E+01 -0.346657280865E-02
  0.999526716006E+00  0.175813428970E+01 -0.270053347980E-04
  0.905437901511E+00  0.175813428970E+01 -0.100315805190E-01
  0.807813308442E+00  0.175813428970E+01 -0.198547873060E-01
  0.666924200372E+00  0.175813428970E+01 -0.321996700392E-01
  0.494672815807E+00  0.175813428970E+01 -0.437458420394E-01
  0.322145325731E+00  0.175813428970E+01 -0.493894500434E-01
  0.180803997621E+00  0.175813428970E+01 -0.462432489481E-01
  0.833205316902E-01  0.175813428970E+01 -0.359616306435E-01
  0.249076887652E-01  0.175813428970E+01 -0.212723080708E-01
  0.475712610300E-03  0.175813428970E+01  0.000000000000E+00
  0.249076887652E-01  0.175813428970E+01  0.212723080708E-01
  0.833205316902E-01  0.175813428970E+01  0.359616306435E-01
  0.180803997621E+00  0.175813428970E+01  0.462432489481E-01
  0.322145325731E+00  0.175813428970E+01  0.493894500434E-01
  0.494672815807E+00  0.175813428970E+01  0.437458420394E-01
  0.666924200372E+00  0.175813428970E+01  0.321996700392E-01
  0.807813308442E+00  0.175813428970E+01  0.198547873060E-01
  0.905437901511E+00  0.175813428970E+01  0.100315805190E-01
  0.965562923844E+00  0.175813428970E+01  0.346657280865E-02
  0.965567484248E+00  0.238369488720E+01 -0.350724085035E-02
  0.999578640331E+00  0.238369488720E+01 -0.240425602150E-04
  0.905442163204E+00  0.238369488720E+01 -0.100721295592E-01
  0.807817110253E+00  0.238369488720E+01 -0.198951184777E-01
  0.666927306567E+00  0.238369488720E+01 -0.322397966021E-01
  0.494674279262E+00  0.238369488720E+01 -0.437751956963E-01
  0.322145532154E+00  0.238369488720E+01 -0.494296962245E-01
  0.180801414022E+00  0.238369488720E+01 -0.462836766418E-01
  0.833133915906E-01  0.238369488720E+01 -0.360017732231E-01
  0.248886451556E-01  0.238369488720E+01 -0.213085310758E-01
  0.423442423162E-03  0.238369488720E+01  0.000000000000E+00
  0.248886451556E-01  0.238369488720E+01  0.213085310758E-01
  0.833133915906E-01  0.238369488720E+01  0.360017732231E-01
  0.180801414022E+00  0.238369488720E+01  0.462836766418E-01
  0.322145532154E+00  0.238369488720E+01  0.494296962245E-01
  0.494674279262E+00  0.238369488720E+01  0.437751956963E-01
  0.666927306567E+00  0.238369488720E+01  0.322397966021E-01
  0.807817110253E+00  0.238369488720E+01  0.198951184777E-01
  0.905442163204E+00  0.238369488720E+01  0.100721295592E-01
  0.965567484248E+00  0.238369488720E+01  0.350724085035E-02
  0.965575786708E+00  0.292249171970E+01 -0.358127919933E-02
  0.999658244255E+00  0.292249171970E+01 -0.195004023520E-04
  0.905449916320E+00  0.292249171970E+01 -0.101458987048E-01
  0.807824016963E+00  0.292249171970E+01 -0.199683876969E-01
  0.666932938302E+00  0.292249171970E+01 -0.323125487097E-01
  0.494677657529E+00  0.292249171970E+01 -0.438429562137E-01
  0.322145906414E+00  0.292249171970E+01 -0.495026652991E-01
  0.180796720417E+00  0.292249171970E+01 -0.463571213320E-01
  0.833004018774E-01  0.292249171970E+01 -0.360748031009E-01
  0.248539744975E-01  0.292249171970E+01 -0.213744784170E-01
  0.343305720915E-03  0.292249171970E+01  0.000000000000E+00
  0.248539744975E-01  0.292249171970E+01  0.213744784170E-01
  0.833004018774E-01  0.292249171970E+01  0.360748031009E-01
  0.180796720417E+00  0.292249171970E+01  0.463571213320E-01
  0.322145906414E+00  0.292249171970E+01  0.495026652991E-01
  0.494677657529E+00  0.292249171970E+01  0.438429562137E-01
  0.666932938302E+00  0.292249171970E+01  0.323125487097E-01
  0.807824016963E+00  0.292249171970E+01  0.199683876969E-01
  0.905449916320E+00  0.292249171970E+01  0.101458987048E-01
  0.965575786708E+00  0.292249171970E+01  0.358127919933E-02
  0.965585249833E+00  0.334432208550E+01 -0.366566795029E-02
  0.999742510521E+00  0.334432208550E+01 -0.146922137259E-04
  0.905458732950E+00  0.334432208550E+01 -0.102297869380E-01
  0.807831840230E+00  0.334432208550E+01 -0.200513801336E-01
  0.666939290300E+00  0.334432208550E+01 -0.323946053510E-01
  0.494681788586E+00  0.334432208550E+01 -0.439258160338E-01
  0.322146328541E+00  0.334432208550E+01 -0.495849668265E-01
  0.180791403927E+00  0.334432208550E+01 -0.464403128138E-01
  0.832856302576E-01  0.334432208550E+01 -0.361578510921E-01
  0.248144557046E-01  0.334432208550E+01 -0.214496474351E-01
  0.258468098683E-03  0.334432208550E+01  0.000000000000E+00
  0.248144557046E-01  0.334432208550E+01  0.214496474351E-01
  0.832856302576E-01  0.334432208550E+01  0.361578510921E-01
  0.180791403927E+00  0.334432208550E+01  0.464403128138E-01
  0.322146328541E+00  0.334432208550E+01  0.495849668265E-01
  0.494681788586E+00  0.334432208550E+01  0.439258160338E-01
  0.666939290300E+00  0.334432208550E+01  0.323946053510E-01
  0.807831840230E+00  0.334432208550E+01  0.200513801336E-01
  0.905458732950E+00  0.334432208550E+01  0.102297869380E-01
  0.965585249833E+00  0.334432208550E+01  0.366566795029E-02
  0.965593826384E+00  0.365057098370E+01 -0.374215054995E-02
  0.999815635413E+00  0.365057098370E+01 -0.105197459635E-04
  0.905466683695E+00  0.365057098370E+01 -0.103054364645E-01
  0.807838839723E+00  0.365057098370E+01 -0.201256336406E-01
  0.666944928372E+00  0.365057098370E+01 -0.324674393135E-01
  0.494685622096E+00  0.365057098370E+01 -0.440027077239E-01
  0.322146703224E+00  0.365057098370E+01 -0.496580184304E-01
  0.180786647221E+00  0.365057098370E+01 -0.465147449085E-01
  0.832723092206E-01  0.365057098370E+01 -0.362327437154E-01
  0.247786368952E-01  0.365057098370E+01 -0.215177786843E-01
  0.184832685370E-03  0.365057098370E+01  0.000000000000E+00
  0.247786368952E-01  0.365057098370E+01  0.215177786843E-01
  0.832723092206E-01  0.365057098370E+01  0.362327437154E-01
  0.180786647221E+00  0.365057098370E+01  0.465147449085E-01
  0.322146703224E+00  0.365057098370E+01  0.496580184304E-01
  0.494685622096E+00  0.365057098370E+01  0.440027077239E-01
  0.666944928372E+00  0.365057098370E+01  0.324674393135E-01
  0.807838839723E+00  0.365057098370E+01  0.201256336406E-01
  0.905466683695E+00  0.365057098370E+01  0.103054364645E-01
  0.965593826384E+00  0.365057098370E+01  0.374215054995E-02
  0.965600556760E+00  0.386093553560E+01 -0.380216962647E-02
[...]
POINT_DATA                1191
SCALARS phi float 1
LOOKUP_TABLE default
  0.375394160201E-14
 -0.143773881689E-13
 -0.722338855397E-14
 -0.417686718546E-13
 -0.413558076673E-14
 -0.473579508942E-14
 -0.452068937840E-14
 -0.231412111695E-14
  0.178225489922E-13
 -0.461783389305E-14
 -0.181538811761E-14
  0.105367103931E-13
 -0.979077929841E-14
 -0.737257477290E-14
  0.619990170314E-13
  0.275092448820E-13
  0.101654795692E-13
  0.112826414878E-13
  0.134961486431E-13
  0.219269047363E-13
  0.240432673770E-13
 -0.109634523682E-14
  0.117128529098E-13
  0.153488333154E-13
  0.107761022328E-13
 -0.477395900589E-14
  0.368004238194E-13
  0.351073337068E-13
  0.240554104414E-13
  0.111529709079E-13
 -0.380424858282E-14
  0.745237205280E-14
  0.260208521397E-13
  0.170766178975E-13
  0.315164561115E-13
 -0.153176082929E-13
  0.148388246135E-13
 -0.193144111815E-13
 -0.314678838542E-13
  0.603683769640E-14
 -0.330152571948E-13
 -0.323699400617E-14
  0.132255317808E-13
  0.414945855454E-14
 -0.250147125236E-14
 -0.119695919842E-13
 -0.404884459293E-14
  0.333760796778E-14
 -0.270686251191E-13
  0.397945565389E-13
  0.159108837217E-13
  0.242653119820E-13
 -0.953404022397E-14
  0.203552452671E-13
 -0.908019319457E-14
  0.412517242587E-14
 -0.177149961367E-13
  0.415362189088E-13
 -0.160566004936E-13
 -0.213128126259E-13
  0.203378980324E-13
 -0.157582280558E-13
 -0.161849700309E-13
  0.136106403925E-13
 -0.195433946804E-13
 -0.247388914909E-13
 -0.932240395990E-14
 -0.463240557025E-13
 -0.256739074445E-15
 -0.118863252574E-13
  0.299760216649E-14
  0.345626305354E-13
 -0.343475248243E-14
 -0.143531020402E-13
 -0.513499832933E-14
  0.365679708736E-14
 -0.351801920928E-14
 -0.258855437085E-13
 -0.216736351089E-13
  0.109946773907E-13
  0.160080282363E-13
  0.133816568937E-13
 -0.299066327258E-14
 -0.106477326955E-13
 -0.320923843056E-14
 -0.126548077573E-13
  0.100232322442E-13
  0.157686363966E-13
 -0.198729921408E-13
 -0.162023172656E-13
 -0.171668235183E-13
 -0.218783324790E-13
 -0.201227923213E-13
 -0.146167800086E-13
 -0.150849385067E-13
 -0.198712574173E-13
  0.219269047363E-14
  0.163064006742E-15
 -0.723379689482E-14
 -0.437150315946E-15
  0.550323675519E-13
 -0.225514051877E-14
 -0.138951350426E-13
 -0.104916075827E-13
  0.109981468377E-13
 -0.659021448524E-14
 -0.107986536380E-13
 -0.159941504485E-13
 -0.440134040325E-13
  0.133920652345E-14
 -0.172639680329E-13
 -0.193803306736E-13
  0.238697950294E-14
 -0.294833601977E-13
 -0.982785901271E-14
 -0.150643386654E-13
 -0.148700496361E-13
 -0.125836840947E-13
 -0.574887359939E-14
  0.301911273759E-13
 -0.171217207079E-13
  0.743849426499E-14
  0.822952817003E-14
  0.561356516826E-14
  0.101689490162E-13
  0.186040419181E-13
 -0.980812653317E-14
 -0.284147705365E-14
  0.149810719385E-13
 -0.367622599029E-13
 -0.311140002651E-13
 -0.278457812364E-13
 -0.287062040805E-13
 -0.277000644644E-13
 -0.482953520925E-13
 -0.279429257510E-13
 -0.231412111695E-14
  0.172639680329E-13
  0.199562588676E-13
  0.331679128607E-14
  0.205460648495E-13
  0.277208811461E-14
  0.612357387020E-14
 -0.999200722163E-14
  0.354230533794E-14
  0.478783679370E-14
 -0.105644659687E-14
 -0.898586760556E-14
 -0.155570001326E-13
 -0.158761892521E-13
 -0.159525170851E-13
 -0.245428677381E-13
 -0.845851166886E-14
 -0.159941504485E-14
 -0.111345394710E-13
  0.350067197452E-14
 -0.110987607993E-13
 -0.139645239816E-13
  0.503069808033E-15
  0.620684059705E-14
  0.735522753814E-15
  0.600214322688E-15
 -0.100024155625E-13
 -0.886096751529E-14
  0.308260361681E-14
  0.186656246015E-14
 -0.317280923756E-14
 -0.182839854368E-14
 -0.865973959208E-14
  0.922872889220E-15
 -0.176317294098E-13
 -0.155292445569E-13
 -0.239808173319E-13
 -0.109096759404E-13
  0.510282462986E-14
  0.485722573274E-15
  0.218575157973E-15
 -0.785829734617E-14
 -0.332095462241E-13
  0.445476988631E-13
  0.592234594698E-14
  0.438538094727E-14
  0.852096171400E-14
 -0.296637714392E-14
 -0.869443406160E-14
 -0.668042010599E-14
 -0.387277016012E-14
 -0.413558076673E-14
 -0.232799890476E-14
 -0.154286305953E-13
 -0.662317423128E-14
 -0.320229953665E-14
 -0.170974345792E-13
 -0.125940924356E-14
 -0.206621829021E-14
  0.371577768554E-14
  0.757033324916E-14
  0.188599136308E-13
 -0.120736753928E-14
  0.964506252643E-14
 -0.359434704222E-14
  0.105124242644E-14
 -0.586163062533E-14
  0.774207087328E-14
 -0.101880309744E-13
 -0.589285564789E-14
 -0.145577994104E-13
  0.143635103811E-14
 -0.949587630750E-14
 -0.746624984060E-14
 -0.100613961607E-15
 -0.390139309747E-14
 -0.132603075655E-13
 -0.981853487403E-14
 -0.367414432212E-14
  0.479477568760E-14
  0.340005801291E-15
  0.915587050621E-14
  0.434027813689E-14
  0.223883411810E-13
 -0.173645819945E-14
 -0.531345800692E-14
 -0.271657696338E-14
 -0.122835769334E-13
 -0.462303806348E-14
 -0.730318583386E-14
 -0.229330443524E-14
 -0.659888810262E-14
 -0.151788304148E-13
 -0.946465128493E-14
 -0.568463462067E-14
  0.159421087442E-14
 -0.818616008313E-14
  0.486416462664E-14
  0.607500161287E-14
  0.503069808033E-14
 -0.111056996932E-13
  0.120667364989E-13
 -0.662664367823E-15
  0.270616862252E-15
 -0.129549149186E-13
  0.482339862495E-14
 -0.822432399961E-14
  0.740033034852E-14
 -0.354230533794E-14
 -0.115289722213E-13
 -0.768829444553E-14
 -0.851055337314E-14
 -0.489430544703E-14
  0.665613397732E-14
 -0.653990750443E-14
  0.127640953362E-13
  0.154459778301E-13
  0.452762827230E-14
  0.307392999943E-14
  0.109148801108E-13
  0.879157857625E-14
 -0.268882138776E-14
  0.680011602583E-15
 -0.660062282609E-15
 -0.805779054591E-14
 -0.200325867006E-13
 -0.208860706508E-14
  0.933281230076E-15
 -0.122124532709E-14
 -0.799707522425E-14
  0.380923591281E-14
  0.142143241622E-13
  0.449119907930E-14
  0.364638874650E-14
  0.156125112838E-15
  0.619296280924E-14
 -0.436282954208E-14
  0.587724313661E-14
  0.126634813746E-14
  0.668042010599E-14
 -0.139220232565E-13
 -0.490883375615E-14
  0.136522737559E-14
 -0.158449642296E-13
 -0.723379689482E-14
 -0.123581700429E-13
 -0.185303161704E-13
 -0.380424858282E-14
 -0.303403135948E-14
 -0.811850586757E-15
 -0.589979454180E-14
  0.657460197395E-14
  0.287964097012E-14
  0.884535500401E-14
  0.651909082272E-14
  0.147937218031E-13
 -0.488498130835E-14
  0.302535774210E-14
 -0.405925293379E-14
  0.272091377207E-14
  0.991741411216E-14
 -0.398639454779E-14
 -0.108801856413E-13
  0.150573997715E-14
 -0.310515502200E-14
 -0.107587549980E-13
 -0.886790640919E-14
 -0.492661467177E-15
 -0.481906181626E-14
 -0.607500161287E-14
 -0.946465128493E-14
 -0.324913707050E-13
 -0.180931658544E-13
 -0.275231226698E-13
 -0.845504222191E-14
  0.121925039509E-13
  0.598306126864E-14
 -0.100371100320E-13
 -0.119609183669E-14
  0.156801654994E-13
 -0.135134958779E-14
  0.474273398332E-14
  0.374214548238E-13
  0.743502481804E-14
  0.897198981775E-14
  0.124171506410E-13
  0.130160639211E-13
 -0.289698820488E-14
  0.114058068545E-13
  0.203795313958E-13
 -0.674807432155E-14
  0.100544572668E-13
  0.813238365538E-14
  0.341393580072E-14
 -0.118169363184E-13
  0.156402668594E-13
  0.886096751529E-14
  0.281788481438E-13
  0.301841884820E-13
  0.230926389122E-13
  0.154043444667E-13
  0.212746487094E-13
  0.132116539930E-13
  0.990180160088E-14
  0.214689377387E-13
  0.402455846427E-14
  0.184852133600E-13
  0.253894127944E-13
  0.329458682558E-13
  0.360510232778E-13
  0.414876466515E-13
  0.455815940548E-13
  0.372206605814E-13
 -0.140304434737E-13
  0.652949916358E-14
  0.163827285071E-13
  0.263504496001E-13
 -0.117007098455E-14
  0.222599716437E-13
  0.283106871279E-13
  0.249904263949E-13
  0.129028732143E-13
  0.828156987431E-14
  0.152794443764E-13
  0.135447209004E-13
  0.719563297835E-14
 -0.304478664503E-13
  0.193525750980E-13
 -0.171911096469E-13
  0.143877965098E-13
  0.340699690682E-14
 -0.110779441176E-13
  0.167435509901E-13
 -0.250147125236E-13
 -0.177982628635E-14
 -0.137424793767E-13
  0.323005511227E-14
 -0.634908792208E-14
  0.127675647832E-14
 -0.671337985203E-14
  0.231412111695E-14
 -0.127398092076E-13
  0.674113542765E-14
 -0.720951076616E-14
 -0.154563861710E-13
 -0.185094994887E-14
 -0.355271367880E-14
  0.320680981769E-13
 -0.176247905159E-13
 -0.190056304028E-13
 -0.989139326002E-14
  0.560558544027E-13
  0.258473797921E-15
  0.507536720984E-14
  0.251187959321E-14
 -0.209710721011E-13
 -0.434808439254E-14
 -0.287270207622E-14
 -0.712971348626E-14
  0.165457925139E-13
 -0.915933995316E-15
 -0.953404022397E-14
  0.159317004034E-13
 -0.352842755014E-14
 -0.205668815312E-13
  0.418901024979E-13
 -0.104916075827E-13
  0.131838984174E-14
  0.185843094386E-13
  0.190958360236E-13
  0.285882428841E-14
 -0.132116539930E-13
  0.342781358853E-14
  0.104638520071E-13
 -0.117128529098E-13
 -0.260902410787E-14
 -0.155570001326E-13
 -0.301147995430E-14
 -0.410609046764E-14
 -0.126773591624E-13
 -0.203309591384E-14
 -0.136904376724E-13
 -0.269992361801E-13
 -0.888872309091E-14
  0.373741836091E-13
  0.140512601554E-14
  0.185580717460E-13
  0.106026298852E-13
 -0.195295168925E-13
 -0.751048528924E-14
 -0.187870552448E-13
 -0.906913433241E-14
  0.359087759527E-14
 -0.173749903354E-13
  0.379557496544E-14
  0.916888093228E-14
  0.799707522425E-14
 -0.142594269725E-14
  0.269541333697E-13
  0.110328413072E-14
 -0.169413094664E-13
 -0.436803371251E-14
 -0.111785580792E-13
  0.735175809119E-14
  0.852096171400E-14
 -0.191166527053E-14
  0.227595720048E-14
  0.373659436725E-14
 -0.577315972805E-14
 -0.102244601674E-13
 -0.802136135292E-14
 -0.109807996029E-13
  0.502375918643E-14
 -0.539347212725E-14
  0.557540125179E-14
  0.406966127464E-14
 -0.691460777524E-14
  0.107795716797E-13
 -0.363216401400E-13
 -0.367067487517E-14
 -0.433680868994E-14
 -0.145924938799E-13
  0.145855549860E-13
 -0.218852713729E-13
 -0.636990460379E-14
  0.232452945781E-14
 -0.722338855397E-14
  0.899974539337E-14
 -0.748012762841E-14
  0.116018306073E-13
 -0.619643225619E-14
  0.861810622865E-14
  0.428823643261E-14
 -0.166533453694E-14
 -0.132602262504E-13
  0.618255446838E-14
  0.387884169228E-14
 -0.100804781189E-13
  0.829891710907E-14
 -0.774033614981E-14
 -0.178897695269E-13
  0.105696701391E-13
  0.594663207565E-14
  0.866667848598E-14
  0.234187669257E-14
  0.105401798400E-13
 -0.415639744844E-14
 -0.131804289705E-13
 -0.120667364989E-13
 -0.322589177593E-13
  0.159594559790E-15
 -0.153835277850E-13
 -0.318182979964E-13
 -0.119487753025E-13
 -0.121285360227E-13
 -0.919403442268E-15
 -0.397668009633E-13
  0.733788030338E-14
 -0.957654094913E-14
 -0.155604695795E-13
 -0.282066037194E-14
  0.117440779324E-13
 -0.604724603726E-14
  0.724073578873E-14
  0.162751756516E-13
  0.959388818389E-14
  0.163584423785E-13
  0.207299455379E-14
 -0.117371390385E-13
  0.360822483003E-14
 -0.234881558647E-14
 -0.201227923213E-15
  0.163931368480E-15
  0.156125112838E-13
  0.275127143290E-14
  0.133096658694E-14
 -0.348679418671E-14
 -0.155431223448E-13
  0.905525654460E-15
  0.193178806285E-13
 -0.855565618352E-14
 -0.627969898304E-14
  0.184019466332E-13
 -0.106789577181E-13
 -0.147659662275E-13
  0.214290390987E-13
 -0.106642125686E-14
 -0.215105711021E-14
  0.217950657522E-13
 -0.260208521397E-15
  0.129271593430E-13
 -0.119800003251E-13
 -0.537764277553E-14
 -0.109912079438E-13
 -0.541927613895E-14
 -0.136366612447E-13
 -0.297921409764E-13
 -0.639072128550E-14
 -0.110397802011E-13
 -0.320368731543E-13
 -0.227040608536E-13
 -0.403839288399E-13
 -0.140859546249E-14
 -0.152274026721E-13
 -0.927036225562E-14
  0.607847105982E-14
 -0.204350425470E-13
 -0.241473507856E-14
 -0.137528877175E-13
 -0.996772109296E-14
 -0.160219060241E-13
 -0.167305405641E-13
 -0.766400831687E-14
 -0.149741330446E-13
  0.190125692967E-13
 -0.635949626293E-14
 -0.236616282123E-14
 -0.460395610524E-14
  0.179613268703E-13
  0.122089838239E-13
  0.799013633035E-14
  0.106130382260E-13
  0.648786580015E-15
  0.213891404588E-13
  0.167782454596E-13
 -0.612704331715E-14
 -0.190125692967E-14
 -0.294902990916E-15
  0.162959923333E-13
  0.121656157370E-13
  0.593622373479E-14
  0.289560042610E-13
  0.203769293106E-13
  0.189119553351E-13
  0.279290479632E-15
  0.127068494615E-13
  0.131630817357E-13
  0.309995085157E-14
  0.631092400560E-14
  0.926515808519E-14
 -0.109183495578E-13
 -0.188460358430E-13
  0.660929644347E-14
  0.283523204914E-13
  0.140512601554E-14
 -0.272004641033E-13
 -0.490579799006E-14
 -0.122957199977E-13
 -0.563438184997E-14
 -0.119973475599E-13
 -0.596050986346E-14
 -0.733441085643E-14
 -0.277902700851E-14
 -0.354369311673E-13
 -0.187350135405E-13
 -0.148908663178E-13
 -0.151961776496E-13
 -0.618905968142E-14
 -0.143982048506E-13
 -0.222044604925E-13
 -0.936750677027E-14
 -0.121430643318E-14
 -0.138951350426E-13
 -0.647051856539E-15
 -0.152100554374E-13
 -0.133157374016E-13
 -0.100197627972E-13
 -0.339658856596E-14
 -0.149533163629E-14
 -0.167929906092E-13
 -0.136383959681E-13
  0.600214322688E-14
 -0.185511328521E-13
 -0.642541575502E-14
 -0.265169830538E-13
  0.383373888191E-14
 -0.220830298492E-14
  0.127953203588E-13
  0.110883524584E-13
  0.652602971662E-14
 -0.269576028167E-14
  0.137216626950E-13
  0.976996261670E-14
 -0.144086131915E-13
  0.754951656745E-14
  0.179578574233E-13
  0.661276589042E-14
 -0.416333634234E-15
  0.327862736960E-14
  0.154459778301E-13
 -0.530565175128E-14
 -0.115695213826E-14
  0.511049536023E-14
  0.388231113924E-14
 -0.607500161287E-14
  0.402455846427E-14
 -0.614785999886E-14
  0.106720188242E-13
 -0.107275299754E-13
 -0.978730985146E-14
 -0.148839274239E-13
  0.105124242644E-13
 -0.238697950294E-14
 -0.362418428601E-13
 -0.213475070954E-13
 -0.405231403988E-14
 -0.727835760411E-14
 -0.174235625927E-13
 -0.188044024796E-14
 -0.111161080341E-13
 -0.193733917797E-13
 -0.374006381421E-14
 -0.142177936091E-13
 -0.867361737988E-14
 -0.200048311250E-13
 -0.161121116449E-13
 -0.143270811881E-13
 -0.981159598012E-14
 -0.330811766869E-13
 -0.214897544204E-13
 -0.308086889333E-13
 -0.264163690922E-13
 -0.305970526693E-13
 -0.254865573091E-13
 -0.188616483543E-13
 -0.216311343837E-13
 -0.258924826024E-13
 -0.191027749175E-13
  0.192554305833E-14
 -0.292335600172E-13
  0.106512021425E-14
  0.448252546192E-14
 -0.252853293858E-13
  0.183152104594E-13
 -0.117969869984E-13
 -0.304530706208E-13
  0.816707812490E-14
 -0.129861399412E-13
  0.389618892704E-14
  0.154910806405E-13
  0.454497550706E-15
  0.915933995316E-15
  0.173541736537E-13
 -0.549213452494E-14
 -0.203656536080E-13
  0.199319727390E-13
 -0.118967335982E-13
 -0.301147995430E-14
  0.753216933269E-14
 -0.663184784866E-14
 -0.245289899503E-14
 -0.690419943439E-14
 -0.916248413946E-14
 -0.167227343084E-14
 -0.513825093584E-14
 -0.291607016312E-14
 -0.770217223334E-15
 -0.256045185054E-14
 -0.153280166337E-13
 -0.800748356511E-14
 -0.431252256128E-14
 -0.187064990234E-13
 -0.117891807427E-13
 -0.106512021425E-13
 -0.107865105736E-13
 -0.144814715775E-13
 -0.126079702234E-13
 -0.639072128550E-14
 -0.210040318471E-13
 -0.188946081003E-13
 -0.218922102668E-13
 -0.242722508759E-13
 -0.237865283026E-13
  0.915933995316E-15
 -0.256634991036E-13
 -0.314193115969E-13
  0.571070968292E-14
  0.141796296926E-13
 -0.249888000917E-13
 -0.219754769937E-13
 -0.244977649277E-13
 -0.196197225133E-13
 -0.126738897155E-13
 -0.888872309091E-14
 -0.240831660170E-13
 -0.242861286637E-15
  0.166533453694E-14
 -0.290826390748E-13
 -0.113173359573E-13
 -0.500120778124E-14
 -0.960256180127E-14
  0.181139825361E-13
 -0.165579355782E-13
 -0.173125402902E-14
  0.557887069874E-14
 -0.465252836257E-14
  0.477395900589E-14
  0.774033614981E-14
  0.153696499972E-14
  0.162370117351E-14
  0.910729824888E-14
 -0.281025203108E-14
 -0.138777878078E-16
  0.527702881392E-14
 -0.111716191853E-14
  0.375394160201E-14
 -0.447558656802E-14
 -0.680705491973E-14
  0.642541575502E-14
  0.103736463863E-14
  0.840646996458E-14
 -0.303576608296E-14
  0.865280069817E-14
 -0.187870552448E-14
 -0.665092980690E-14
  0.794503351997E-15
  0.998246624251E-14
  0.333403010061E-14
 -0.657807142090E-14
  0.123304144672E-13
  0.128334842753E-13
 -0.159594559790E-14
  0.188737914186E-14
 -0.310862446895E-14
 -0.729277749301E-14
  0.167574287779E-14
  0.419532030643E-14
 -0.964506252643E-14
 -0.178815295904E-13
 -0.110328413072E-13
 -0.161329283266E-14
 -0.453803661316E-14
 -0.110120246255E-13
 -0.157512891619E-13
 -0.787564458093E-15
 -0.108524300657E-13
 -0.145855549860E-13
 -0.553203316489E-14
 -0.222738494315E-14
 -0.132151234400E-13
 -0.718348991402E-14
 -0.222868598576E-13
 -0.978384040451E-15
 -0.218922102668E-14
 -0.175276460013E-13
 -0.317454396104E-14
  0.160635393875E-14
 -0.896591828559E-14
  0.815320033709E-15
 -0.156558793707E-14
 -0.549213452494E-14
  0.572805691768E-14
  0.659194920871E-15
 -0.130416510924E-13
  0.111056996932E-13
  0.415986689539E-14
  0.559968738045E-14
  0.241230646569E-13
  0.487804241445E-14
  0.760502771868E-14
  0.911770658973E-14
  0.633174068732E-14
 -0.447558656802E-15
 -0.729971638691E-14
  0.707767178199E-14
 -0.313291059761E-14
  0.173611125476E-13
 -0.424833779267E-14
 -0.607153216592E-15
 -0.123165366794E-14
  0.765359997601E-14
 -0.523767227506E-14
  0.223258911358E-14
  0.776115283152E-14
  0.874300631892E-15
 -0.100284364146E-13
  0.510355646632E-14
  0.255871712707E-14
  0.687817858225E-15
  0.107483466572E-13
 -0.218575157973E-15
 -0.312597170371E-14
 -0.143617756576E-13
  0.353883589099E-15
 -0.632133234646E-14
 -0.106720188242E-13
  0.154043444667E-14
 -0.362904151174E-14
 -0.100336405850E-13
 -0.881673206665E-15
 -0.131838984174E-15
 -0.106060993321E-13
 -0.534988719991E-14
 -0.213145473493E-13
  0.215105711021E-15
 -0.584948756099E-14
 -0.836310187768E-14
 -0.927730114952E-14
 -0.217326157070E-13
 -0.337577188425E-14
 -0.889739670829E-14
 -0.626842328044E-14
 -0.211636264069E-14
  0.922525944524E-14
 -0.113659082146E-13
 -0.569336244816E-14
  0.533080524168E-14
 -0.291433543964E-15
  0.890346824045E-14
  0.754951656745E-14
  0.181868409221E-13
  0.133183394868E-14
 -0.502549390990E-14
  0.121569421196E-13
  0.351108031538E-14
  0.111785580792E-13
  0.795370713735E-14
 -0.390312782095E-14
  0.162439506290E-13
  0.143982048506E-15
  0.104118103028E-13
  0.752523043879E-14
  0.346250805805E-14
 -0.215105711021E-15
  0.120146947946E-13
 -0.115185638805E-14
  0.740033034852E-14
 -0.136366612447E-13
  0.965547086729E-14
  0.793635990259E-14
 -0.422340114270E-14
 -0.663531729561E-14
  0.130971622436E-13
 -0.100648656076E-13
 -0.622592255528E-14
  0.929117893733E-14
 -0.717221421143E-14
 -0.811677114410E-14
 -0.411129463807E-14
 -0.288484514055E-14
 -0.621031004400E-15
 -0.465155258061E-14
 -0.546437894933E-14
 -0.630398511170E-14
 -0.669603261727E-15
 -0.127051147381E-13
 -0.649480469406E-14
 -0.489538964921E-14
 -0.981506542708E-14
 -0.130884886262E-13
 -0.171182512609E-13
 -0.138240113801E-13
  0.256218657402E-14
 -0.575928194024E-15
  0.777069381064E-14
  0.399506816517E-14
 -0.478523470848E-14
  0.740726924242E-14
 -0.116243278024E-13
 -0.859208537651E-14
  0.780105147147E-14
 -0.346944695195E-17
 -0.173645819945E-13
 -0.600734739731E-14
 -0.146757606068E-14
 -0.259514632006E-14
  0.599520433298E-14
  0.204523897818E-14
  0.657807142090E-14
  0.701869118380E-14
 -0.372965547335E-15
  0.881933415187E-14
 -0.344863027024E-14
 -0.899801066989E-14
  0.153349555276E-14
 -0.201227923213E-15
  0.780625564190E-14
  0.915933995316E-15
  0.574887359939E-14
  0.444089209850E-15
  0.699267033166E-14
 -0.429170587957E-14
  0.418241830058E-14
 -0.844203179584E-14
 -0.114491749414E-13
  0.379318972066E-14
 -0.247371567674E-14
  0.108767161944E-14
 -0.152707707590E-13
  0.173125402902E-14
 -0.152482193538E-13
  0.956179579958E-14
 -0.995182397861E-14
 -0.836830604811E-14
  0.206432093641E-14
 -0.684521883620E-14
  0.112548859121E-13
  0.415292800149E-14
 -0.836830604811E-14
  0.763278329430E-16
 -0.955138745873E-14
  0.703603841856E-14
 -0.559621793350E-14
 -0.788952236874E-14
 -0.879678274668E-14
 -0.108073272553E-13
 -0.227109997475E-13
 -0.383720832886E-14
 -0.660756172000E-14
 -0.718869408445E-14
 -0.130173649637E-13
 -0.408527378593E-14