# vtk DataFile Version 3.0
MachLine results file. Generated by MachLine, USU AeroLab (c) 2022.
ASCII
DATASET POLYDATA
POINTS                4031 float
  0.100000000000E+01  0.000000000000E+00  0.000000000000E+00
  0.985311378880E+00  0.224100846140E+00 -0.170449895420E-02
  0.100000000000E+01  0.224100846140E+00  0.000000000000E+00
  0.985311378880E+00  0.000000000000E+00 -0.170449895420E-02
  0.965617092460E+00  0.224100846140E+00 -0.394962905220E-02
  0.965617092460E+00  0.000000000000E+00 -0.394962905220E-02
  0.939523307000E+00  0.224100846140E+00 -0.685472369040E-02
  0.939523307000E+00  0.000000000000E+00 -0.685472369040E-02
  0.905490052860E+00  0.224100846140E+00 -0.105277887700E-01
  0.905490052860E+00  0.000000000000E+00 -0.105277887700E-01
  0.862001352470E+00  0.224100846140E+00 -0.150370898030E-01
  0.862001352470E+00  0.000000000000E+00 -0.150370898030E-01
  0.807861744690E+00  0.224100846140E+00 -0.203686189510E-01
  0.807861744690E+00  0.000000000000E+00 -0.203686189510E-01
  0.742610019070E+00  0.224100846140E+00 -0.263731107280E-01
  0.742610019070E+00  0.000000000000E+00 -0.263731107280E-01
  0.666965306180E+00  0.224100846140E+00 -0.327306847400E-01
  0.666965306180E+00  0.000000000000E+00 -0.327306847400E-01
  0.583124116380E+00  0.224100846140E+00 -0.389242397680E-01
  0.583124116380E+00  0.000000000000E+00 -0.389242397680E-01
  0.494699909170E+00  0.224100846140E+00 -0.442892746710E-01
  0.494699909170E+00  0.000000000000E+00 -0.442892746710E-01
  0.406197046100E+00  0.000000000000E+00 -0.481351698480E-01
  0.406197046100E+00  0.224100846140E+00 -0.481351698480E-01
  0.322148057390E+00  0.000000000000E+00 -0.499220386450E-01
  0.322148057390E+00  0.224100846140E+00 -0.499220386450E-01
  0.246240745400E+00  0.000000000000E+00 -0.494246641260E-01
  0.246240745400E+00  0.224100846140E+00 -0.494246641260E-01
  0.180771082860E+00  0.000000000000E+00 -0.467582932350E-01
  0.180771082860E+00  0.224100846140E+00 -0.467582932350E-01
  0.126557836510E+00  0.000000000000E+00 -0.422895365970E-01
  0.126557836510E+00  0.224100846140E+00 -0.422895365970E-01
  0.832331623890E-01  0.000000000000E+00 -0.364528323560E-01
  0.832331623890E-01  0.224100846140E+00 -0.364528323560E-01
  0.497093485250E-01  0.000000000000E+00 -0.295749625020E-01
  0.497093485250E-01  0.224100846140E+00 -0.295749625020E-01
  0.246816596840E-01  0.000000000000E+00 -0.217022398280E-01
  0.246816596840E-01  0.224100846140E+00 -0.217022398280E-01
  0.732365982350E-02  0.000000000000E+00 -0.122714258330E-01
  0.732365982350E-02  0.224100846140E+00 -0.122714258330E-01
  0.000000000000E+00  0.000000000000E+00  0.000000000000E+00
  0.000000000000E+00  0.224100846140E+00  0.000000000000E+00
  0.732365982350E-02  0.224100846140E+00  0.122714258330E-01
  0.732365982350E-02  0.000000000000E+00  0.122714258330E-01
  0.246816596840E-01  0.224100846140E+00  0.217022398280E-01
  0.246816596840E-01  0.000000000000E+00  0.217022398280E-01
  0.497093485250E-01  0.224100846140E+00  0.295749625020E-01
  0.497093485250E-01  0.000000000000E+00  0.295749625020E-01
  0.832331623890E-01  0.224100846140E+00  0.364528323560E-01
  0.832331623890E-01  0.000000000000E+00  0.364528323560E-01
  0.126557836510E+00  0.224100846140E+00  0.422895365970E-01
  0.126557836510E+00  0.000000000000E+00  0.422895365970E-01
  0.180771082860E+00  0.224100846140E+00  0.467582932350E-01
  0.180771082860E+00  0.000000000000E+00  0.467582932350E-01
  0.246240745400E+00  0.224100846140E+00  0.494246641260E-01
  0.246240745400E+00  0.000000000000E+00  0.494246641260E-01
  0.322148057390E+00  0.224100846140E+00  0.499220386450E-01
  0.322148057390E+00  0.000000000000E+00  0.499220386450E-01
  0.406197046100E+00  0.224100846140E+00  0.481351698480E-01
  0.406197046100E+00  0.000000000000E+00  0.481351698480E-01
  0.494699909170E+00  0.224100846140E+00  0.442892746710E-01
  0.494699909170E+00  0.000000000000E+00  0.442892746710E-01
  0.583124116380E+00  0.000000000000E+00  0.389242397680E-01
  0.583124116380E+00  0.224100846140E+00  0.389242397680E-01
  0.666965306180E+00  0.000000000000E+00  0.327306847400E-01
  0.666965306180E+00  0.224100846140E+00  0.327306847400E-01
  0.742610019070E+00  0.000000000000E+00  0.263731107280E-01
  0.742610019070E+00  0.224100846140E+00  0.263731107280E-01
  0.807861744690E+00  0.000000000000E+00  0.203686189510E-01
  0.807861744690E+00  0.224100846140E+00  0.203686189510E-01
  0.862001352470E+00  0.000000000000E+00  0.150370898030E-01
  0.862001352470E+00  0.224100846140E+00  0.150370898030E-01
  0.905490052860E+00  0.000000000000E+00  0.105277887700E-01
  0.905490052860E+00  0.224100846140E+00  0.105277887700E-01
  0.939523307000E+00  0.000000000000E+00  0.685472369040E-02
  0.939523307000E+00  0.224100846140E+00  0.685472369040E-02
  0.965617092460E+00  0.000000000000E+00  0.394962905220E-02
  0.965617092460E+00  0.224100846140E+00  0.394962905220E-02
  0.985311378880E+00  0.000000000000E+00  0.170449895420E-02
  0.985311378880E+00  0.224100846140E+00  0.170449895420E-02
  0.985311378880E+00  0.474396230640E+00 -0.170449895420E-02
  0.100000000000E+01  0.474396230640E+00  0.000000000000E+00
  0.965617092460E+00  0.474396230640E+00 -0.394962905220E-02
  0.939523307000E+00  0.474396230640E+00 -0.685472369040E-02
  0.905490052860E+00  0.474396230640E+00 -0.105277887700E-01
  0.862001352470E+00  0.474396230640E+00 -0.150370898030E-01
  0.807861744690E+00  0.474396230640E+00 -0.203686189510E-01
  0.742610019070E+00  0.474396230640E+00 -0.263731107280E-01
  0.666965306180E+00  0.474396230640E+00 -0.327306847400E-01
  0.583124116380E+00  0.474396230640E+00 -0.389242397680E-01
  0.494699909170E+00  0.474396230640E+00 -0.442892746710E-01
  0.406197046100E+00  0.474396230640E+00 -0.481351698480E-01
  0.322148057390E+00  0.474396230640E+00 -0.499220386450E-01
  0.246240745400E+00  0.474396230640E+00 -0.494246641260E-01
  0.180771082860E+00  0.474396230640E+00 -0.467582932350E-01
  0.126557836510E+00  0.474396230640E+00 -0.422895365970E-01
  0.832331623890E-01  0.474396230640E+00 -0.364528323560E-01
  0.497093485250E-01  0.474396230640E+00 -0.295749625020E-01
  0.246816596840E-01  0.474396230640E+00 -0.217022398280E-01
  0.732365982350E-02  0.474396230640E+00 -0.122714258330E-01
  0.000000000000E+00  0.474396230640E+00  0.000000000000E+00
  0.732365982350E-02  0.474396230640E+00  0.122714258330E-01
  0.246816596840E-01  0.474396230640E+00  0.217022398280E-01
  0.497093485250E-01  0.474396230640E+00  0.295749625020E-01
  0.832331623890E-01  0.474396230640E+00  0.364528323560E-01
  0.126557836510E+00  0.474396230640E+00  0.422895365970E-01
  0.180771082860E+00  0.474396230640E+00  0.467582932350E-01
  0.246240745400E+00  0.474396230640E+00  0.494246641260E-01
  0.322148057390E+00  0.474396230640E+00  0.499220386450E-01
  0.406197046100E+00  0.474396230640E+00  0.481351698480E-01
  0.494699909170E+00  0.474396230640E+00  0.442892746710E-01
  0.583124116380E+00  0.474396230640E+00  0.389242397680E-01
  0.666965306180E+00  0.474396230640E+00  0.327306847400E-01
  0.742610019070E+00  0.474396230640E+00  0.263731107280E-01
  0.807861744690E+00  0.474396230640E+00  0.203686189510E-01
  0.862001352470E+00  0.474396230640E+00  0.150370898030E-01
  0.905490052860E+00  0.474396230640E+00  0.105277887700E-01
  0.939523307000E+00  0.474396230640E+00  0.685472369040E-02
  0.965617092460E+00  0.474396230640E+00  0.394962905220E-02
  0.985311378880E+00  0.474396230640E+00  0.170449895420E-02
  0.985311378880E+00  0.748095716550E+00 -0.170449895420E-02
  0.100000000000E+01  0.748095716550E+00  0.000000000000E+00
  0.965617092460E+00  0.748095716550E+00 -0.394962905220E-02
  0.939523307000E+00  0.748095716550E+00 -0.685472369040E-02
  0.905490052860E+00  0.748095716550E+00 -0.105277887700E-01
  0.862001352470E+00  0.748095716550E+00 -0.150370898030E-01
  0.807861744690E+00  0.748095716550E+00 -0.203686189510E-01
  0.742610019070E+00  0.748095716550E+00 -0.263731107280E-01
  0.666965306180E+00  0.748095716550E+00 -0.327306847400E-01
  0.583124116380E+00  0.748095716550E+00 -0.389242397680E-01
  0.494699909170E+00  0.748095716550E+00 -0.442892746710E-01
  0.406197046100E+00  0.748095716550E+00 -0.481351698480E-01
  0.322148057390E+00  0.748095716550E+00 -0.499220386450E-01
  0.246240745400E+00  0.748095716550E+00 -0.494246641260E-01
  0.180771082860E+00  0.748095716550E+00 -0.467582932350E-01
  0.126557836510E+00  0.748095716550E+00 -0.422895365970E-01
  0.832331623890E-01  0.748095716550E+00 -0.364528323560E-01
  0.497093485250E-01  0.748095716550E+00 -0.295749625020E-01
  0.246816596840E-01  0.748095716550E+00 -0.217022398280E-01
  0.732365982350E-02  0.748095716550E+00 -0.122714258330E-01
  0.000000000000E+00  0.748095716550E+00  0.000000000000E+00
  0.732365982350E-02  0.748095716550E+00  0.122714258330E-01
  0.246816596840E-01  0.748095716550E+00  0.217022398280E-01
  0.497093485250E-01  0.748095716550E+00  0.295749625020E-01
  0.832331623890E-01  0.748095716550E+00  0.364528323560E-01
  0.126557836510E+00  0.748095716550E+00  0.422895365970E-01
  0.180771082860E+00  0.748095716550E+00  0.467582932350E-01
  0.246240745400E+00  0.748095716550E+00  0.494246641260E-01
  0.322148057390E+00  0.748095716550E+00  0.499220386450E-01
  0.406197046100E+00  0.748095716550E+00  0.481351698480E-01
  0.494699909170E+00  0.748095716550E+00  0.442892746710E-01
  0.583124116380E+00  0.748095716550E+00  0.389242397680E-01
  0.666965306180E+00  0.748095716550E+00  0.327306847400E-01
  0.742610019070E+00  0.748095716550E+00  0.263731107280E-01
  0.807861744690E+00  0.748095716550E+00  0.203686189510E-01
  0.862001352470E+00  0.748095716550E+00  0.150370898030E-01
  0.905490052860E+00  0.748095716550E+00  0.105277887700E-01
  0.939523307000E+00  0.748095716550E+00  0.685472369040E-02
  0.965617092460E+00  0.748095716550E+00  0.394962905220E-02
  0.985311378880E+00  0.748095716550E+00  0.170449895420E-02
  0.985311378880E+00  0.104054975430E+01 -0.170449895420E-02
[...]
CELL_DATA                1976
SCALARS C_p_inc float 1
LOOKUP_TABLE default
  0.307308048346E+00
  0.156564892435E+00
  0.966532638056E-01
  0.382358330556E-01
  0.647204389139E-02
 -0.282240117453E-01
 -0.566001924038E-01
 -0.827134618447E-01
 -0.111130452578E+00
 -0.133461730617E+00
 -0.162704565066E+00
 -0.183756517077E+00
 -0.213917284340E+00
 -0.235086936782E+00
 -0.266070879332E+00
 -0.288405794658E+00
 -0.320221536917E+00
 -0.343936360320E+00
 -0.376175363514E+00
 -0.398483886675E+00
 -0.430652123254E+00
 -0.455883892651E+00
 -0.484359579918E+00
 -0.512936408803E+00
 -0.541854263916E+00
 -0.571172122817E+00
 -0.598139299900E+00
 -0.622988337266E+00
 -0.638899934406E+00
 -0.646933459864E+00
 -0.635558981275E+00
 -0.611186464766E+00
 -0.559752312906E+00
 -0.496796766401E+00
 -0.409442420720E+00
 -0.322271358387E+00
 -0.202863236091E+00
 -0.870273500642E-01
  0.433057421268E+00
  0.768470391135E+00
  0.824253334960E+00
  0.505431375008E+00
 -0.180223362256E-01
 -0.145244690802E+00
 -0.274211522570E+00
 -0.362541890420E+00
 -0.450648770113E+00
 -0.513341360346E+00
 -0.564793455701E+00
 -0.589978595323E+00
 -0.601953467345E+00
 -0.595602051543E+00
 -0.580799982160E+00
 -0.558348659035E+00
 -0.533017626050E+00
 -0.506914816715E+00
 -0.480279323906E+00
 -0.456030678318E+00
 -0.430647770548E+00
 -0.411368809871E+00
 -0.385950272948E+00
 -0.366026731377E+00
 -0.343941212966E+00
 -0.322305219441E+00
 -0.302192898613E+00
 -0.281529157036E+00
 -0.263230877825E+00
 -0.243356075245E+00
 -0.225823260688E+00
 -0.206363920773E+00
 -0.188330134490E+00
 -0.169672202238E+00
 -0.149546399343E+00
 -0.132454469230E+00
 -0.107913316010E+00
 -0.933187369036E-01
 -0.597068158088E-01
 -0.475945969876E-01
  0.116910489330E-01
 -0.123342101940E-01
  0.395895849185E+00
  0.222358814022E+00
  0.137145345950E+00
  0.745434700723E-01
  0.293357687640E-01
 -0.107394784809E-01
 -0.461652823926E-01
 -0.774997781903E-01
 -0.109338818291E+00
 -0.136075365611E+00
 -0.166435807629E+00
 -0.190559777451E+00
 -0.220361922285E+00
 -0.243181188725E+00
 -0.272998985333E+00
 -0.295834627325E+00
 -0.326136576941E+00
 -0.349721187606E+00
 -0.380674455467E+00
 -0.404903031205E+00
 -0.435603041248E+00
 -0.462576386315E+00
 -0.492288024188E+00
 -0.519279578706E+00
 -0.549570941524E+00
 -0.574561401400E+00
 -0.602815134008E+00
 -0.620757875347E+00
 -0.637049320643E+00
 -0.638199797934E+00
 -0.625680892296E+00
 -0.598660335658E+00
 -0.543673649183E+00
 -0.484481866367E+00
 -0.388489728600E+00
 -0.311687499126E+00
 -0.176588891668E+00
 -0.891349684405E-01
  0.398122711062E+00
  0.769293150289E+00
  0.829292237469E+00
  0.478177178367E+00
 -0.155966034787E-01
 -0.117354353753E+00
 -0.261673189797E+00
 -0.340158264556E+00
 -0.436350554169E+00
 -0.495355512498E+00
 -0.549952028525E+00
 -0.577829956649E+00
 -0.590609429185E+00
 -0.591148960245E+00
 -0.575534510790E+00
 -0.559917362489E+00
 -0.532695878689E+00
 -0.510702166610E+00
 -0.481841012865E+00
 -0.458652041123E+00
 -0.430878010665E+00
 -0.408686518922E+00
 -0.383204532181E+00
 -0.360460056102E+00
 -0.337306673560E+00
 -0.315535476821E+00
 -0.294408660201E+00
 -0.274186761017E+00
 -0.254897020296E+00
 -0.236523539769E+00
 -0.218568708328E+00
 -0.202239216848E+00
 -0.185048298312E+00
 -0.171263938059E+00
 -0.154124428594E+00
 -0.143164734817E+00
 -0.124977707468E+00
 -0.117321670452E+00
 -0.963816381568E-01
 -0.953955973126E-01
 -0.798752435397E-01
 -0.126682507693E+00
  0.357547997853E+00
  0.226654502336E+00
  0.124570778727E+00
  0.774777802877E-01
  0.238568027243E-01
 -0.805714986695E-02
 -0.471097688705E-01
 -0.750939306029E-01
 -0.107285958483E+00
 -0.134099611316E+00
 -0.162792323425E+00
 -0.189257620992E+00
 -0.216352919188E+00
 -0.242628896054E+00
 -0.269387052224E+00
 -0.295837599510E+00
 -0.323113916802E+00
 -0.349923092003E+00
 -0.378001864850E+00
 -0.405283674956E+00
 -0.435547679504E+00
 -0.459745772298E+00
 -0.491750021535E+00
 -0.515529883822E+00
 -0.547040926624E+00
 -0.569612140861E+00
 -0.597796805335E+00
 -0.615273805287E+00
 -0.630567154432E+00
 -0.633562167735E+00
 -0.619900634970E+00
 -0.596091472880E+00
 -0.540524869935E+00
 -0.484244672618E+00
 -0.388656263200E+00
 -0.313328826198E+00
 -0.180279261761E+00
 -0.903748406325E-01
  0.393300164067E+00
  0.768287824356E+00
  0.828663494470E+00
  0.476548152271E+00
 -0.165946379813E-01
 -0.119381688182E+00
 -0.263353039057E+00
 -0.339364859936E+00
 -0.436157817675E+00
 -0.491217367563E+00
 -0.547382049781E+00
 -0.570996014776E+00
 -0.586005617550E+00
 -0.583568313099E+00
 -0.570199934379E+00
 -0.553737711028E+00
 -0.528127961450E+00
 -0.506946845878E+00
 -0.478906261814E+00
 -0.456864174717E+00
 -0.429510723031E+00
 -0.407253206034E+00
 -0.381191277731E+00
 -0.359889491873E+00
 -0.335363660938E+00
 -0.316261998244E+00
 -0.293130846156E+00
 -0.276226726637E+00
 -0.254600527855E+00
 -0.239577089027E+00
 -0.219470965661E+00
 -0.205462686730E+00
 -0.187076165227E+00
 -0.173281258789E+00
 -0.156962562206E+00
 -0.142322142278E+00
 -0.128366046842E+00
 -0.111780138209E+00
 -0.100632726775E+00
 -0.815151169088E-01
 -0.862616587199E-01
 -0.766282263028E-01
  0.327674744799E+00
  0.188152712566E+00
  0.109214076363E+00
  0.592194687549E-01
  0.155789022200E-01
 -0.168743982394E-01
 -0.508817606971E-01
 -0.776409304449E-01
 -0.107722529179E+00
 -0.132357095998E+00
 -0.160782345320E+00
 -0.184876908647E+00
 -0.212756271309E+00
 -0.237018709104E+00
 -0.264982664310E+00
 -0.290001415347E+00
 -0.318446502067E+00
 -0.344338506136E+00
 -0.373321640171E+00
 -0.399992946873E+00
 -0.430255550727E+00
 -0.455123698111E+00
 -0.486598785130E+00
 -0.511156948737E+00
 -0.542187150494E+00
 -0.565893809582E+00
 -0.593707853332E+00
 -0.612571577919E+00
 -0.627679236846E+00
 -0.631946586243E+00
 -0.618311975009E+00
 -0.595259711780E+00
 -0.539842943267E+00
 -0.483610790691E+00
 -0.388108089302E+00
 -0.312165090949E+00
 -0.179042081987E+00
 -0.880674967849E-01
  0.395223521095E+00
  0.770076411993E+00
  0.826695074832E+00
  0.474251063009E+00
 -0.184039708572E-01
 -0.120886121863E+00
 -0.264345164418E+00
 -0.340609556268E+00
 -0.437172139388E+00
 -0.492059039221E+00
 -0.547998147023E+00
 -0.570836878468E+00
 -0.585726325393E+00
 -0.582155218206E+00
 -0.568839998833E+00
 -0.551347612184E+00
 -0.525904293532E+00
 -0.504251860467E+00
 -0.476363896045E+00
 -0.454659765952E+00
 -0.427324856617E+00
 -0.406297135605E+00
 -0.380910734351E+00
 -0.359148817913E+00
 -0.336612919803E+00
 -0.316395860389E+00
 -0.295593792432E+00
 -0.276860192265E+00
 -0.257592564699E+00
 -0.239980053332E+00
 -0.221772857487E+00
 -0.204662313943E+00
 -0.187054378190E+00
 -0.170236231599E+00
 -0.152719894317E+00
 -0.135966852434E+00
 -0.117604970722E+00
 -0.100702904341E+00
 -0.795166346139E-01
 -0.625013996118E-01
 -0.404703967212E-01
 -0.373475075830E-01
  0.367424054778E+00
  0.205685327371E+00
  0.127560355988E+00
  0.688997379433E-01
  0.265777496550E-01
 -0.110986654162E-01
 -0.445172695045E-01
 -0.745300723295E-01
 -0.104689614185E+00
 -0.131048806254E+00
 -0.159974059460E+00
 -0.184534363959E+00
 -0.213089972212E+00
 -0.236885811621E+00
 -0.265547811624E+00
 -0.289553691935E+00
 -0.318668775660E+00
 -0.343332083427E+00
 -0.372988730199E+00
 -0.398371339657E+00
 -0.428707594129E+00
 -0.454366314910E+00
 -0.484788548165E+00
 -0.510321004490E+00
 -0.540555739368E+00
 -0.565265748582E+00
 -0.592548166789E+00
 -0.612266364010E+00
 -0.627025679290E+00
 -0.631864480561E+00
 -0.617974698160E+00
 -0.595178010401E+00
 -0.539524271146E+00
 -0.483300880686E+00
 -0.387481683335E+00
 -0.311378172830E+00
 -0.177632882602E+00
 -0.863223983451E-01
  0.397489383410E+00
  0.771494163364E+00
  0.825308363839E+00
  0.472319275149E+00
 -0.191075908668E-01
 -0.121451711761E+00
 -0.264131897330E+00
 -0.340774999917E+00
 -0.436917365366E+00
 -0.492179791586E+00
 -0.547620755813E+00
 -0.570604530128E+00
 -0.584900836005E+00
 -0.581216857273E+00
 -0.567256819635E+00
 -0.549469836482E+00
 -0.523356900828E+00
 -0.501390272614E+00
 -0.472811087218E+00
 -0.450972099136E+00
 -0.422897670922E+00
 -0.402071989874E+00
 -0.376946274054E+00
 -0.354050112826E+00
 -0.332318699309E+00
 -0.310750040226E+00
 -0.291062026105E+00
 -0.270962066171E+00
 -0.253043235687E+00
 -0.234427480732E+00
 -0.217679018533E+00
 -0.200383211954E+00
 -0.184144495264E+00
 -0.168361847181E+00
 -0.151853678722E+00
 -0.137718911238E+00
 -0.119748719659E+00
 -0.107648207668E+00
 -0.862136412645E-01
 -0.782080266403E-01
 -0.571550823273E-01
 -0.841095003298E-01
  0.370714505997E+00
  0.224783797978E+00
  0.133272695420E+00
  0.801263470710E-01
  0.317754514410E-01
 -0.351069608247E-02
 -0.397181092483E-01
 -0.693865090884E-01
 -0.100304502995E+00
 -0.127672808121E+00
 -0.156088689926E+00
 -0.182414759100E+00
 -0.209781497554E+00
 -0.235577821384E+00
 -0.262833394720E+00
 -0.288683760944E+00
 -0.316504470326E+00
 -0.342650569356E+00
 -0.371300607522E+00
 -0.397749367479E+00
 -0.427926799487E+00
 -0.453034350720E+00
 -0.484100489916E+00
 -0.509346706465E+00
 -0.540098719301E+00
 -0.564597129454E+00
 -0.592302014929E+00
 -0.611751247471E+00
 -0.626856600017E+00
 -0.631296812601E+00
 -0.617692253165E+00
 -0.594360934936E+00
 -0.538964333045E+00
 -0.482130170725E+00
 -0.386523965095E+00
 -0.309693873263E+00
 -0.175903498929E+00
 -0.831263092925E-01
  0.400265784575E+00
  0.774429479719E+00
  0.822817266591E+00
  0.470214405682E+00
 -0.209586372071E-01
 -0.121922527908E+00
 -0.264409182644E+00
 -0.340655988271E+00
 -0.436953200812E+00
 -0.491937654341E+00
 -0.547524401762E+00
 -0.570120548689E+00
 -0.584492511168E+00
 -0.580279998387E+00
 -0.566348289447E+00
 -0.547875212835E+00
 -0.521805335457E+00
 -0.498998439990E+00
 -0.470571758443E+00
 -0.447771002902E+00
 -0.420031361826E+00
 -0.398121071788E+00
 -0.372575666816E+00
 -0.350425976331E+00
 -0.327491125173E+00
 -0.306959661616E+00
 -0.286052396994E+00
 -0.267242047406E+00
 -0.248236932314E+00
 -0.230994851015E+00
 -0.213574565738E+00
 -0.197380304482E+00
 -0.181308624864E+00
 -0.165848016259E+00
 -0.150931048246E+00
 -0.135729244271E+00
 -0.121603498705E+00
 -0.106303540351E+00
 -0.924315192700E-01
 -0.778923832130E-01
 -0.737768401467E-01
 -0.821991109570E-01
  0.355853159813E+00
  0.212531984217E+00
  0.128210876169E+00
  0.760456750165E-01
  0.307755877579E-01
 -0.372565120488E-02
 -0.382073401045E-01
 -0.670717116647E-01
 -0.970436170633E-01
 -0.123704638730E+00
 -0.151715542000E+00
 -0.177583475753E+00
 -0.204942160762E+00
 -0.230606881061E+00
 -0.258121773397E+00
 -0.284131366540E+00
 -0.312351323398E+00
 -0.338837371630E+00
 -0.367908918998E+00
 -0.394788994291E+00
 -0.425176166803E+00
 -0.450580145156E+00
 -0.482047705396E+00
 -0.507420187024E+00
 -0.538516935003E+00
 -0.562969140226E+00
 -0.590940042361E+00
 -0.610158384724E+00
 -0.625444751652E+00
 -0.629480016758E+00
 -0.615983427423E+00
 -0.592119645614E+00
 -0.536818747104E+00
 -0.479416026823E+00
 -0.383845323296E+00
 -0.306231036215E+00
 -0.171717741384E+00
 -0.767006208698E-01
  0.407027762844E+00
  0.780513462890E+00
  0.817692415390E+00
  0.464563705909E+00
 -0.257322931460E-01
 -0.124535248741E+00
 -0.266089204222E+00
 -0.341778000193E+00
 -0.437991591202E+00
 -0.492726298078E+00
 -0.548310301020E+00
 -0.570625368736E+00
 -0.584891562495E+00
 -0.580377568288E+00
 -0.566219283075E+00
 -0.547454381817E+00
 -0.521050415381E+00
 -0.497995526896E+00
 -0.469154524669E+00
 -0.446213750094E+00
 -0.418006782206E+00
 -0.396174981066E+00
 -0.370302204263E+00
 -0.347734041848E+00
 -0.325080076047E+00
 -0.303942795454E+00
 -0.283542173247E+00
 -0.263896246041E+00
 -0.245523871235E+00
 -0.227145145204E+00
 -0.210319301571E+00
 -0.192675932083E+00
 -0.176968152656E+00
 -0.159836177696E+00
 -0.144835464155E+00
 -0.127902118851E+00
 -0.112920775536E+00
 -0.959479893939E-01
 -0.797167400255E-01
 -0.632675858512E-01
 -0.515342614578E-01
 -0.544172952737E-01
  0.372396040389E+00
  0.217777363851E+00
  0.137656433738E+00
  0.811342592986E-01
  0.382354034621E-01
  0.116144501499E-02
 -0.320673476949E-01
 -0.624453948126E-01
 -0.919423446383E-01
 -0.119371316574E+00
 -0.147424284995E+00
 -0.173551102208E+00
 -0.201259371412E+00
 -0.226898097881E+00
 -0.254915121974E+00
 -0.280807720268E+00
 -0.309574317058E+00
 -0.335969315419E+00
 -0.365549012822E+00
 -0.392379795761E+00
 -0.423151192610E+00
 -0.448785386294E+00
 -0.480343567629E+00
 -0.505815761780E+00
 -0.536961770794E+00
 -0.561362975961E+00
 -0.589313888296E+00
 -0.608328222234E+00
 -0.623507103659E+00
 -0.627204280420E+00
 -0.613516503864E+00
 -0.589240842265E+00
 -0.533751012332E+00
 -0.475967534541E+00
 -0.380148213420E+00
 -0.301890612065E+00
 -0.165913130250E+00
 -0.683849060763E-01
  0.416765941710E+00
  0.788519078692E+00
  0.810868596619E+00
  0.456243494087E+00
 -0.320803141673E-01
 -0.128432185669E+00
 -0.268201928330E+00
 -0.343385916818E+00
 -0.439122634363E+00
 -0.493775606551E+00
 -0.548999735701E+00
 -0.571212059409E+00
 -0.584938483164E+00
 -0.580323621313E+00
 -0.565400223669E+00
 -0.546588755142E+00
 -0.519179617845E+00
 -0.496172549803E+00
 -0.466078995608E+00
 -0.443330729595E+00
 -0.413661450876E+00
 -0.392237815400E+00
 -0.365969648206E+00
 -0.341847015772E+00
 -0.319831692450E+00
 -0.297016383973E+00
 -0.277550539031E+00
 -0.256228909823E+00
 -0.239019041272E+00
 -0.219146076694E+00
 -0.203559047195E+00
 -0.184828480483E+00
 -0.170220039400E+00
 -0.152649228577E+00
 -0.138339291425E+00
 -0.121878555962E+00
 -0.106865794212E+00
 -0.916602693214E-01
 -0.742859198628E-01
 -0.618922677227E-01
 -0.471457338606E-01
 -0.644200919249E-01
  0.385450855681E+00
  0.233264139072E+00
  0.147929221782E+00
  0.920127208749E-01
  0.471477962839E-01
  0.988056943059E-02
 -0.240864129494E-01
 -0.552476095394E-01
 -0.847428233974E-01
 -0.113333776580E+00
 -0.140925549116E+00
 -0.168409057511E+00
 -0.195411849346E+00
 -0.222459173541E+00
 -0.249699562723E+00
 -0.276958724348E+00
 -0.305001205205E+00
 -0.332666423486E+00
 -0.361620176857E+00
 -0.389560320676E+00
 -0.420562618298E+00
 -0.445524189658E+00
 -0.478051787109E+00
 -0.502913208146E+00
 -0.534810662589E+00
 -0.558596153786E+00
 -0.587050545592E+00
 -0.605410279937E+00
 -0.620858023671E+00
 -0.623845831441E+00
 -0.610225903039E+00
 -0.585227335003E+00
 -0.529741136972E+00
 -0.471330220299E+00
 -0.375412503796E+00
 -0.296204060554E+00
 -0.158595755485E+00
 -0.576160426187E-01
  0.429017677557E+00
  0.798764817261E+00
  0.801810947476E+00
  0.445601436167E+00
 -0.405724025323E-01
 -0.133462587131E+00
 -0.271205170127E+00
 -0.345433868624E+00
 -0.440760480472E+00
 -0.494980574586E+00
 -0.549927912026E+00
 -0.571681720880E+00
 -0.584870585529E+00
 -0.579801844400E+00
 -0.564028197678E+00
 -0.544827649696E+00
 -0.516265995249E+00
 -0.492971916283E+00
 -0.461464763943E+00
 -0.438562360317E+00
 -0.407332480443E+00
 -0.385907040819E+00
 -0.358816881511E+00
 -0.333458369181E+00
 -0.311438529660E+00
 -0.287559747410E+00
 -0.268296994152E+00
 -0.246201466174E+00
 -0.229408289939E+00
 -0.209066027548E+00
 -0.194142588092E+00
 -0.175158730173E+00
 -0.161559076580E+00
 -0.143780498795E+00
 -0.131004993195E+00
 -0.114166009658E+00
 -0.101514987314E+00
 -0.855332793806E-01
 -0.719688403412E-01
 -0.582708690226E-01
 -0.516876444321E-01
 -0.670007050234E-01
  0.387351261733E+00
  0.237342704728E+00
  0.153070744544E+00
  0.979832366770E-01
  0.537587995857E-01
  0.168395174067E-01
 -0.165448284058E-01
 -0.476629464739E-01
 -0.765548575665E-01
 -0.105394419189E+00
 -0.132353084831E+00
 -0.160397780264E+00
 -0.186741286653E+00
 -0.214662841427E+00
 -0.241218604580E+00
 -0.269631288831E+00
 -0.296975936811E+00
 -0.326007768507E+00
 -0.354256006155E+00
 -0.383654401132E+00
 -0.414968865809E+00
 -0.439074734240E+00
 -0.473133230243E+00
 -0.497177763065E+00
 -0.530404049250E+00
 -0.553412294925E+00
 -0.582849490130E+00
 -0.600447070775E+00
 -0.616487581207E+00
 -0.618692836168E+00
 -0.605294537456E+00
 -0.579522670352E+00
 -0.524063935638E+00
 -0.465006795248E+00
 -0.368890200850E+00
 -0.288564199109E+00
 -0.148676044187E+00
 -0.432508047155E-01
  0.445347732424E+00
  0.812092281600E+00
  0.789215714910E+00
  0.430832435374E+00
 -0.526444463419E-01
 -0.140868362755E+00
 -0.276020000573E+00
 -0.348838331654E+00
 -0.443698392486E+00
 -0.497164906493E+00
 -0.551766928173E+00
 -0.572737948859E+00
 -0.585152863516E+00
 -0.579336871780E+00
 -0.562280413731E+00
 -0.542490346911E+00
 -0.512155630158E+00
 -0.488533021963E+00
 -0.454846853329E+00
 -0.431963589606E+00
 -0.398356905267E+00
 -0.377374476867E+00
 -0.349233190044E+00
 -0.321997756925E+00
 -0.300667444486E+00
 -0.275102443789E+00
 -0.256899737412E+00
 -0.233415929943E+00
 -0.217897927551E+00
 -0.196413567379E+00
 -0.182812585897E+00
 -0.162820409377E+00
 -0.150482359691E+00
 -0.131729253013E+00
 -0.120120528089E+00
 -0.102282525813E+00
 -0.907071395992E-01
 -0.736400602906E-01
 -0.610254259829E-01
 -0.459689258466E-01
 -0.398828446611E-01
 -0.522293126489E-01
  0.398543919037E+00
  0.244089463022E+00
  0.162009124416E+00
  0.105620384008E+00
  0.625200512538E-01
  0.250094632745E-01
 -0.777916114896E-02
 -0.390854368796E-01
 -0.676232165960E-01
 -0.964381828247E-01
 -0.123074837761E+00
 -0.151076358264E+00
 -0.176957156915E+00
 -0.205017133397E+00
 -0.230854972364E+00
 -0.259777391167E+00
 -0.286142587538E+00
 -0.316182626253E+00
 -0.343274754450E+00
 -0.374136731589E+00
 -0.405776754823E+00
 -0.428605090943E+00
 -0.464730494788E+00
 -0.487679225402E+00
 -0.522947211561E+00
 -0.545105746093E+00
 -0.576171440477E+00
 -0.593117556750E+00
 -0.610160463628E+00
 -0.611802275457E+00
 -0.598734763337E+00
 -0.572448683241E+00
 -0.516867486199E+00
 -0.457437177496E+00
 -0.360745024563E+00
 -0.279386771173E+00
 -0.136169867413E+00
 -0.256156396954E-01
  0.465902003620E+00
  0.828108028597E+00
  0.772659340642E+00
  0.411157925508E+00
 -0.687530370157E-01
 -0.151232218438E+00
 -0.283096588409E+00
 -0.354101181615E+00
 -0.448373921608E+00
 -0.500769098550E+00
 -0.554811198557E+00
 -0.574618203792E+00
 -0.585744148915E+00
 -0.578786977856E+00
 -0.559594829913E+00
 -0.538917266275E+00
 -0.505656466743E+00
 -0.481604515051E+00
 -0.444411063881E+00
 -0.421700478001E+00
 -0.384427571807E+00
 -0.364292794326E+00
 -0.334869227371E+00
 -0.304835865421E+00
 -0.284908306757E+00
 -0.256993243788E+00
 -0.240687789302E+00
 -0.215414178858E+00
 -0.202003207805E+00
 -0.179238649811E+00
 -0.167672987279E+00
 -0.146845460963E+00
 -0.136265238204E+00
 -0.117112597632E+00
 -0.106843455000E+00
 -0.891147714061E-01
 -0.783386826179E-01
 -0.620450421999E-01
 -0.495035398981E-01
 -0.363144761159E-01
 -0.291580453813E-01
 -0.483714455865E-01
  0.413815739788E+00
  0.256761149629E+00
  0.172477061962E+00
  0.115806577698E+00
  0.716202946925E-01
  0.342418964434E-01
  0.708757612247E-03
 -0.302522291585E-01
 -0.591717831895E-01
 -0.874916858046E-01
 -0.114049319750E+00
 -0.141494311414E+00
 -0.166698947380E+00
 -0.194304811123E+00
 -0.218760263391E+00
 -0.247611029876E+00
 -0.271930748470E+00
 -0.302631396825E+00
 -0.327271810814E+00
 -0.359732903561E+00
 -0.391325038076E+00
 -0.411925976315E+00
 -0.451068481436E+00
 -0.472296982946E+00
 -0.510999689812E+00
 -0.532133122134E+00
 -0.566202495153E+00
 -0.582722208058E+00
 -0.601744453916E+00
 -0.603284755977E+00
 -0.590957143642E+00
 -0.564669191940E+00
 -0.508851209932E+00
 -0.449512650387E+00
 -0.351730815270E+00
 -0.269575778209E+00
 -0.121846767888E+00
 -0.574403901340E-02
  0.489755368646E+00
  0.845883068809E+00
  0.752088033764E+00
  0.386529321905E+00
 -0.891886694567E-01
 -0.164947136776E+00
 -0.293064916014E+00
 -0.361794060539E+00
 -0.455492475998E+00
 -0.506341252182E+00
 -0.559603829289E+00
 -0.577614795700E+00
 -0.586736055384E+00
 -0.577940467154E+00
 -0.555385204892E+00
 -0.533246669251E+00
 -0.495497802417E+00
 -0.470706962856E+00
 -0.428479262945E+00
 -0.405919946738E+00
 -0.363923075943E+00
 -0.344778174742E+00
 -0.313865315898E+00
 -0.280986455477E+00
 -0.262778668804E+00
 -0.233104195593E+00
 -0.218888211412E+00
 -0.192854799457E+00
 -0.181551475713E+00
 -0.158767589448E+00