# vtk DataFile Version 3.0
MachLine results file. Generated by MachLine, USU AeroLab (c) 2022.
ASCII
DATASET POLYDATA
POINTS                4031 float
  0.999998120393E+00  0.000000000000E+00 -0.108327420918E-06
  0.985311172601E+00  0.224100846140E+00 -0.170270554547E-02
  0.999998168950E+00  0.224100846140E+00 -0.105528976470E-06
  0.985311184047E+00  0.000000000000E+00 -0.170280002531E-02
  0.965616887796E+00  0.224100846140E+00 -0.394781249641E-02
  0.965616899138E+00  0.000000000000E+00 -0.394790636524E-02
  0.939523104585E+00  0.224100846140E+00 -0.685287732738E-02
  0.939523115769E+00  0.000000000000E+00 -0.685297025985E-02
  0.905489853566E+00  0.224100846140E+00 -0.105259052041E-01
  0.905489864525E+00  0.000000000000E+00 -0.105259968279E-01
  0.862001157585E+00  0.224100846140E+00 -0.150351618221E-01
  0.862001168281E+00  0.000000000000E+00 -0.150352518453E-01
  0.807861556312E+00  0.224100846140E+00 -0.203666411822E-01
  0.807861566769E+00  0.000000000000E+00 -0.203667296274E-01
  0.742609840476E+00  0.224100846140E+00 -0.263710819728E-01
  0.742609850756E+00  0.000000000000E+00 -0.263711694377E-01
  0.666965142390E+00  0.224100846140E+00 -0.327286103206E-01
  0.666965152684E+00  0.000000000000E+00 -0.327286980389E-01
  0.583123974636E+00  0.224100846140E+00 -0.389221326890E-01
  0.583123985097E+00  0.000000000000E+00 -0.389222222209E-01
  0.494699801128E+00  0.224100846140E+00 -0.442871993638E-01
  0.494699819758E+00  0.000000000000E+00 -0.442875572159E-01
  0.406196973255E+00  0.000000000000E+00 -0.481331493512E-01
  0.406196977811E+00  0.224100846140E+00 -0.481330591164E-01
  0.322148033505E+00  0.000000000000E+00 -0.499200461759E-01
  0.322148042091E+00  0.224100846140E+00 -0.499199578357E-01
  0.246240780347E+00  0.000000000000E+00 -0.494227158799E-01
  0.246240793517E+00  0.224100846140E+00 -0.494226281075E-01
  0.180771186326E+00  0.000000000000E+00 -0.467563983930E-01
  0.180771204913E+00  0.224100846140E+00 -0.467563102858E-01
  0.126558019933E+00  0.000000000000E+00 -0.422876985852E-01
  0.126558045535E+00  0.224100846140E+00 -0.422876101204E-01
  0.832334436165E-01  0.000000000000E+00 -0.364510526575E-01
  0.832334793461E-01  0.224100846140E+00 -0.364509650159E-01
  0.497097617411E-01  0.000000000000E+00 -0.295732478160E-01
  0.497098144463E-01  0.224100846140E+00 -0.295731645202E-01
  0.246822848412E-01  0.000000000000E+00 -0.217006231552E-01
  0.246823735591E-01  0.224100846140E+00 -0.217005571165E-01
  0.732472657991E-02  0.000000000000E+00 -0.122700906396E-01
  0.732490952579E-02  0.224100846140E+00 -0.122701246293E-01
  0.189063492641E-05  0.000000000000E+00  0.000000000000E+00
  0.184137002823E-05  0.224100846140E+00  0.000000000000E+00
  0.732490952579E-02  0.224100846140E+00  0.122701246293E-01
  0.732472657991E-02  0.000000000000E+00  0.122700906396E-01
  0.246823735591E-01  0.224100846140E+00  0.217005571165E-01
  0.246822848412E-01  0.000000000000E+00  0.217006231552E-01
  0.497098144463E-01  0.224100846140E+00  0.295731645202E-01
  0.497097617411E-01  0.000000000000E+00  0.295732478160E-01
  0.832334793461E-01  0.224100846140E+00  0.364509650159E-01
  0.832334436165E-01  0.000000000000E+00  0.364510526575E-01
  0.126558045535E+00  0.224100846140E+00  0.422876101204E-01
  0.126558019933E+00  0.000000000000E+00  0.422876985852E-01
  0.180771204913E+00  0.224100846140E+00  0.467563102858E-01
  0.180771186326E+00  0.000000000000E+00  0.467563983930E-01
  0.246240793517E+00  0.224100846140E+00  0.494226281075E-01
  0.246240780347E+00  0.000000000000E+00  0.494227158799E-01
  0.322148042091E+00  0.224100846140E+00  0.499199578357E-01
  0.322148033505E+00  0.000000000000E+00  0.499200461759E-01
  0.406196977811E+00  0.224100846140E+00  0.481330591164E-01
  0.406196973255E+00  0.000000000000E+00  0.481331493512E-01
  0.494699801128E+00  0.224100846140E+00  0.442871993638E-01
  0.494699819758E+00  0.000000000000E+00  0.442875572159E-01
  0.583123985097E+00  0.000000000000E+00  0.389222222209E-01
  0.583123974636E+00  0.224100846140E+00  0.389221326890E-01
  0.666965152684E+00  0.000000000000E+00  0.327286980389E-01
  0.666965142390E+00  0.224100846140E+00  0.327286103206E-01
  0.742609850756E+00  0.000000000000E+00  0.263711694377E-01
  0.742609840476E+00  0.224100846140E+00  0.263710819728E-01
  0.807861566769E+00  0.000000000000E+00  0.203667296274E-01
  0.807861556312E+00  0.224100846140E+00  0.203666411822E-01
  0.862001168281E+00  0.000000000000E+00  0.150352518453E-01
  0.862001157585E+00  0.224100846140E+00  0.150351618221E-01
  0.905489864525E+00  0.000000000000E+00  0.105259968279E-01
  0.905489853566E+00  0.224100846140E+00  0.105259052041E-01
  0.939523115769E+00  0.000000000000E+00  0.685297025985E-02
  0.939523104585E+00  0.224100846140E+00  0.685287732738E-02
  0.965616899138E+00  0.000000000000E+00  0.394790636524E-02
  0.965616887796E+00  0.224100846140E+00  0.394781249641E-02
  0.985311184047E+00  0.000000000000E+00  0.170280002531E-02
  0.985311172601E+00  0.224100846140E+00  0.170270554547E-02
  0.985311151845E+00  0.474396230640E+00 -0.170252508941E-02
  0.999997993514E+00  0.474396230640E+00 -0.115639882531E-06
  0.965616867478E+00  0.474396230640E+00 -0.394763215726E-02
  0.939523084838E+00  0.474396230640E+00 -0.685269719959E-02
  0.905489834544E+00  0.474396230640E+00 -0.105257254262E-01
  0.862001139465E+00  0.474396230640E+00 -0.150349825696E-01
  0.807861539305E+00  0.474396230640E+00 -0.203664626318E-01
  0.742609824829E+00  0.474396230640E+00 -0.263709042350E-01
  0.666965128418E+00  0.474396230640E+00 -0.327284333560E-01
  0.583123962768E+00  0.474396230640E+00 -0.389219562562E-01
  0.494699791724E+00  0.474396230640E+00 -0.442870187160E-01
  0.406196972092E+00  0.474396230640E+00 -0.481328823772E-01
  0.322148040786E+00  0.474396230640E+00 -0.499197803250E-01
  0.246240797732E+00  0.474396230640E+00 -0.494224497319E-01
  0.180771215932E+00  0.474396230640E+00 -0.467561312658E-01
  0.126558064970E+00  0.474396230640E+00 -0.422874310053E-01
  0.832335095989E-01  0.474396230640E+00 -0.364507867833E-01
  0.497098599022E-01  0.474396230640E+00 -0.295729891066E-01
  0.246824444365E-01  0.474396230640E+00 -0.217003900478E-01
  0.732503535479E-02  0.474396230640E+00 -0.122699936147E-01
  0.201798827982E-05  0.474396230640E+00  0.000000000000E+00
  0.732503535479E-02  0.474396230640E+00  0.122699936147E-01
  0.246824444365E-01  0.474396230640E+00  0.217003900478E-01
  0.497098599022E-01  0.474396230640E+00  0.295729891066E-01
  0.832335095989E-01  0.474396230640E+00  0.364507867833E-01
  0.126558064970E+00  0.474396230640E+00  0.422874310053E-01
  0.180771215932E+00  0.474396230640E+00  0.467561312658E-01
  0.246240797732E+00  0.474396230640E+00  0.494224497319E-01
  0.322148040786E+00  0.474396230640E+00  0.499197803250E-01
  0.406196972092E+00  0.474396230640E+00  0.481328823772E-01
  0.494699791724E+00  0.474396230640E+00  0.442870187160E-01
  0.583123962768E+00  0.474396230640E+00  0.389219562562E-01
  0.666965128418E+00  0.474396230640E+00  0.327284333560E-01
  0.742609824829E+00  0.474396230640E+00  0.263709042350E-01
  0.807861539305E+00  0.474396230640E+00  0.203664626318E-01
  0.862001139465E+00  0.474396230640E+00  0.150349825696E-01
  0.905489834544E+00  0.474396230640E+00  0.105257254262E-01
  0.939523084838E+00  0.474396230640E+00  0.685269719959E-02
  0.965616867478E+00  0.474396230640E+00  0.394763215726E-02
  0.985311151845E+00  0.474396230640E+00  0.170252508941E-02
  0.985311134199E+00  0.748095716550E+00 -0.170237167158E-02
  0.999997848520E+00  0.748095716550E+00 -0.123996333094E-06
  0.965616850202E+00  0.748095716550E+00 -0.394747881531E-02
  0.939523068043E+00  0.748095716550E+00 -0.685254399892E-02
  0.905489818359E+00  0.748095716550E+00 -0.105255724640E-01
  0.862001124040E+00  0.748095716550E+00 -0.150348299703E-01
  0.807861524817E+00  0.748095716550E+00 -0.203663105229E-01
  0.742609811489E+00  0.748095716550E+00 -0.263707526983E-01
  0.666965116496E+00  0.748095716550E+00 -0.327282823664E-01
  0.583123952636E+00  0.748095716550E+00 -0.389218056409E-01
  0.494699783479E+00  0.748095716550E+00 -0.442868603532E-01
  0.406196967211E+00  0.748095716550E+00 -0.481327315004E-01
  0.322148039673E+00  0.748095716550E+00 -0.499196288694E-01
  0.246240801326E+00  0.748095716550E+00 -0.494222976514E-01
  0.180771225319E+00  0.748095716550E+00 -0.467559787569E-01
  0.126558081514E+00  0.748095716550E+00 -0.422872785231E-01
  0.832335353391E-01  0.748095716550E+00 -0.364506351359E-01
  0.497098985630E-01  0.748095716550E+00 -0.295728399154E-01
  0.246825047033E-01  0.748095716550E+00 -0.217002479899E-01
  0.732514232988E-02  0.748095716550E+00 -0.122698822311E-01
  0.216395827701E-05  0.748095716550E+00  0.000000000000E+00
  0.732514232988E-02  0.748095716550E+00  0.122698822311E-01
  0.246825047033E-01  0.748095716550E+00  0.217002479899E-01
  0.497098985630E-01  0.748095716550E+00  0.295728399154E-01
  0.832335353391E-01  0.748095716550E+00  0.364506351359E-01
  0.126558081514E+00  0.748095716550E+00  0.422872785231E-01
  0.180771225319E+00  0.748095716550E+00  0.467559787569E-01
  0.246240801326E+00  0.748095716550E+00  0.494222976514E-01
  0.322148039673E+00  0.748095716550E+00  0.499196288694E-01
  0.406196967211E+00  0.748095716550E+00  0.481327315004E-01
  0.494699783479E+00  0.748095716550E+00  0.442868603532E-01
  0.583123952636E+00  0.748095716550E+00  0.389218056409E-01
  0.666965116496E+00  0.748095716550E+00  0.327282823664E-01
  0.742609811489E+00  0.748095716550E+00  0.263707526983E-01
  0.807861524817E+00  0.748095716550E+00  0.203663105229E-01
  0.862001124040E+00  0.748095716550E+00  0.150348299703E-01
  0.905489818359E+00  0.748095716550E+00  0.105255724640E-01
  0.939523068043E+00  0.748095716550E+00  0.685254399892E-02
  0.965616850202E+00  0.748095716550E+00  0.394747881531E-02
  0.985311134199E+00  0.748095716550E+00  0.170237167158E-02
  0.985311121147E+00  0.104054975430E+01 -0.170225819975E-02
[...]
POINT_DATA                4031
SCALARS phi float 1
LOOKUP_TABLE default
  0.206917816215E-13
  0.168788594213E-12
 -0.159813134948E-12
  0.983102488306E-13
  0.158831281460E-13
 -0.527355936697E-15
  0.430211422042E-15
 -0.415431578027E-13
 -0.234777475239E-13
 -0.273947531326E-13
 -0.192103277730E-13
 -0.447211712107E-14
 -0.404572209067E-13
  0.307323611004E-13
  0.225965079981E-13
 -0.429517532652E-14
 -0.668562427641E-14
 -0.428303226219E-13
 -0.192278484801E-12
 -0.491759410970E-13
 -0.217013906845E-13
 -0.279836917527E-13
  0.120376798807E-13
 -0.547955777974E-13
 -0.889011086969E-13
 -0.221801743638E-13
 -0.124206200880E-13
 -0.302979863420E-12
 -0.317627868451E-13
 -0.131249178192E-13
 -0.531449884100E-13
  0.558303403508E-13
 -0.671546152020E-13
 -0.151961776496E-12
 -0.282274204011E-13
 -0.498767693813E-13
 -0.100419672577E-12
 -0.579605807793E-13
 -0.401068067646E-13
 -0.567879077096E-13
 -0.595634652711E-13
 -0.397321064938E-13
 -0.742808592413E-13
 -0.730179805508E-13
  0.331609739668E-13
 -0.632896512975E-13
 -0.556568680032E-13
 -0.777780617689E-13
 -0.466848781855E-13
 -0.609096106885E-13
  0.194740057413E-13
 -0.833569324676E-13
 -0.247059317449E-13
 -0.196696825494E-12
 -0.120138274329E-12
 -0.265468202976E-12
 -0.944940740238E-13
 -0.101088408477E-12
  0.188980775473E-13
 -0.159941504485E-14
  0.135873950979E-12
  0.264024913044E-13
 -0.496130914129E-15
 -0.233736641153E-13
 -0.219060880546E-13
  0.823022205942E-13
 -0.179578574233E-13
 -0.485306239639E-13
  0.311764503103E-13
 -0.445823933326E-13
 -0.362210261784E-14
 -0.128008714739E-12
 -0.242167397246E-13
 -0.969641034132E-13
 -0.276167977376E-14
 -0.510945452614E-13
  0.621135087808E-13
  0.485722573274E-16
  0.868610738891E-13
  0.147035161824E-12
  0.359157148466E-13
  0.614092110496E-15
  0.122124532709E-13
  0.165145674913E-13
 -0.968322644290E-14
  0.128716481917E-14
  0.280296619248E-13
  0.198244198835E-13
  0.139922795572E-13
 -0.440446290551E-13
 -0.910313491254E-13
 -0.436488952621E-13
 -0.583821185840E-13
 -0.359816343387E-13
 -0.695728197275E-13
 -0.123526189277E-12
 -0.643859965344E-13
 -0.742877981352E-13
 -0.174096848049E-13
 -0.325503513032E-13
 -0.349373308062E-13
 -0.777850006628E-13
 -0.658223475725E-13
 -0.839606162373E-14
  0.172778458207E-13
 -0.634908792208E-15
  0.680705491973E-14
 -0.140130962389E-12
 -0.105307689652E-12
 -0.469260047486E-13
 -0.684903522785E-13
 -0.469069227904E-14
 -0.543072531389E-13
 -0.320576898361E-13
  0.294451962812E-13
 -0.137320710358E-13
  0.503277974850E-13
  0.737743199863E-13
  0.387988252637E-13
 -0.244526621174E-13
 -0.112271303365E-13
  0.362418428601E-13
  0.139124822773E-13
 -0.386496390448E-14
  0.174513181683E-13
  0.295700963715E-13
  0.222287466212E-13
 -0.135724764760E-13
  0.887831475005E-14
  0.380598330629E-13
 -0.142889172716E-13
  0.370656196708E-13
 -0.654806070477E-13
 -0.309266501297E-13
 -0.693542445696E-14
 -0.267633137874E-13
 -0.970820646096E-13
  0.648092690625E-14
 -0.631716901012E-13
 -0.199076866103E-13
 -0.735800309570E-13
 -0.474342787271E-13
 -0.125593979661E-14
 -0.467334504428E-13
  0.124900090270E-15
 -0.756131268709E-13
 -0.332199545650E-13
 -0.450767895233E-13
 -0.890927956410E-13
  0.186465426433E-13
 -0.807340305720E-14
 -0.175207071074E-14
  0.198868699286E-13
  0.128820565326E-13
 -0.311799197572E-13
 -0.166949787328E-13
 -0.158137392070E-13
 -0.117614251671E-13
  0.388231113924E-14
 -0.423966417529E-14
  0.222391549620E-14
  0.288484514055E-13
  0.426117474639E-13
 -0.420947998681E-13
  0.208721928630E-13
  0.497553387380E-13
 -0.134094124693E-13
  0.407937572611E-13
  0.466432448221E-13
 -0.118984683217E-13
 -0.808901556848E-14
 -0.453892565894E-13
 -0.502774905042E-13
 -0.709120262510E-13
 -0.575407776982E-13
  0.129757316003E-14
 -0.345140582780E-13
 -0.836414271177E-13
  0.264718802434E-13
 -0.884431416992E-13
 -0.182839854368E-13
 -0.453664883437E-13
 -0.180688797258E-13
 -0.336328187522E-13
 -0.938624178382E-13
 -0.489157325756E-13
 -0.516045539634E-13
 -0.134267597041E-14
 -0.240656019418E-13
 -0.455139398392E-13
 -0.407660016855E-13
 -0.418554080284E-13
 -0.265412691824E-14
  0.244214370948E-13
  0.384414722276E-13
  0.541094946627E-13
  0.728861415666E-13
 -0.414945855454E-14
  0.425805224413E-13
  0.177011183489E-13
  0.362140872845E-13
 -0.178364267800E-13
 -0.248412401760E-14
  0.127259314198E-13
 -0.143288159116E-14
 -0.652394804845E-13
 -0.241820452551E-14
  0.284355872182E-13
  0.123061283386E-13
 -0.864239235732E-14
  0.137069175454E-13
 -0.891437531431E-13
  0.276948602940E-13
 -0.153245471868E-13
 -0.136141098395E-13
 -0.205252481678E-13
 -0.596675486797E-13
  0.970751257157E-14
 -0.164798730218E-13
 -0.347707973525E-13
 -0.100405794790E-13
 -0.232036612147E-13
  0.210526041045E-13
  0.106303854608E-13
 -0.564340241205E-13
  0.750094431012E-14
  0.147000467354E-13
  0.221350715535E-14
  0.326177886784E-13
  0.376955411330E-14
  0.250893056331E-13
 -0.175276460013E-13
  0.988445436612E-14
 -0.405578348683E-13
 -0.433680868994E-15
 -0.215036322082E-13
 -0.577662917500E-14
  0.250736931218E-13
  0.349373308062E-13
  0.174270320397E-13
 -0.245463371851E-13
  0.112791720408E-13
  0.272906697241E-13
  0.338687411450E-13
  0.360510232778E-13
  0.208999484386E-13
  0.936750677027E-16
 -0.102348685083E-14
  0.195052307639E-13
 -0.156437363064E-13
  0.993129189997E-15
  0.188093898096E-13
 -0.395013882715E-13
 -0.314574755134E-13
 -0.407798794733E-13
 -0.214619988448E-13
 -0.891647866652E-14
 -0.713318293322E-14
 -0.526662047307E-14
 -0.798944244096E-13
 -0.245706233137E-13
 -0.863892291036E-14
 -0.155223056630E-13
 -0.353675422282E-13
  0.377892162007E-13
  0.954791801178E-14
 -0.337403716077E-13
  0.344273221042E-13
 -0.155350992487E-13
 -0.200343214241E-13
  0.146167800086E-13
 -0.365228680632E-13
  0.337230243730E-14
 -0.248863429864E-13
 -0.246885845101E-13
 -0.217326157070E-13
  0.425076640553E-13
  0.265239219477E-13
  0.137008460133E-13
  0.163757896132E-14
 -0.157131252454E-13
 -0.179960213398E-13
 -0.663358257214E-14
  0.228914109890E-13
  0.994343496430E-14
 -0.137459488236E-13
  0.138535016792E-13
  0.163064006742E-14
 -0.266800470605E-14
  0.550254286580E-14
 -0.129367003221E-13
  0.113002055629E-13
 -0.367067487517E-14
  0.794503351997E-15
  0.160427227058E-13
 -0.382679998800E-13
  0.514172038280E-14
  0.222669105376E-13
 -0.609928774153E-13
 -0.251049181443E-13
  0.569683189511E-14
 -0.527564103514E-13
  0.148145384848E-13
 -0.518335374622E-14
  0.702216063075E-14
  0.415362189088E-13
  0.485028683883E-14
  0.452294451891E-13
 -0.283562236192E-14
  0.411129463807E-14
  0.409394740331E-15
  0.449709713912E-13
 -0.979771819232E-14
  0.160496615997E-13
  0.569683189511E-14
  0.250008347358E-13
  0.122228616117E-13
  0.308572611907E-13
 -0.182978632246E-13
 -0.610275718849E-14
  0.637510877421E-13
  0.459354776439E-14
  0.194948224230E-13
 -0.981853487403E-15
 -0.139020739365E-13
  0.386149445752E-14
 -0.165145674913E-13
  0.272767919363E-13
 -0.396210841913E-14
 -0.203656536080E-14
  0.265299934799E-13
  0.286073248423E-13
 -0.138309502740E-13
  0.138777878078E-13
 -0.359781648918E-14
  0.395794508279E-13
 -0.108107967023E-13
 -0.239114283929E-13
  0.451721993144E-14
 -0.425909307822E-13
 -0.693889390391E-15
  0.217187379192E-14
  0.448946435583E-14
  0.317523785043E-13
 -0.124900090270E-13
  0.151476053922E-13
  0.225132412712E-13
  0.409082490105E-13
  0.772387796083E-13
 -0.100119565416E-13
 -0.221836438108E-13
  0.353883589099E-13
  0.295076463264E-13
  0.501682029252E-14
 -0.544703171457E-15
  0.221420104474E-13
 -0.356312201966E-13
  0.369149155688E-13
  0.257016630201E-13
 -0.476008121808E-14
  0.816013923099E-14
 -0.124726617923E-13
  0.279047618346E-13
 -0.359400009753E-13
 -0.187350135405E-13
  0.182492909673E-13
  0.156749613289E-13
  0.147833134623E-13
 -0.314401282786E-13
 -0.386739251734E-13
  0.194280355692E-13
 -0.216406753628E-15
 -0.136522737559E-13
 -0.337785355242E-13
 -0.330499516643E-13
 -0.601393934652E-13
 -0.309266501297E-13
  0.215036322082E-13
  0.165145674913E-14
 -0.844324610227E-13
 -0.178884684843E-13
  0.850708392619E-14
  0.285743650963E-13
  0.995592497333E-13
  0.339450689779E-13
  0.214966933143E-13
 -0.314713533012E-13
 -0.204784106339E-13
 -0.390147983365E-13
  0.208114775413E-13
 -0.406653877238E-13
  0.414598910758E-14
  0.505151476204E-14
  0.579744585671E-14
  0.107552855511E-13
 -0.313429837639E-13
 -0.332338323528E-13
 -0.204974925921E-13
  0.298580604685E-13
  0.307878722516E-13
  0.427817503645E-13
 -0.605765437811E-14
  0.143635103811E-14
  0.201817729195E-13
 -0.430211422042E-14
  0.995384330515E-14
 -0.475314232418E-14
 -0.581826253843E-14
  0.199111560573E-13
 -0.778890840714E-14
 -0.255620177803E-13
  0.390538296147E-13
  0.355895868331E-13
 -0.646947773131E-13
  0.518751708256E-13
  0.283939538548E-13
 -0.974012537291E-13
  0.684313716803E-13
 -0.314956394298E-13
  0.346944695195E-15
  0.117961196366E-15
  0.647953912747E-13
  0.189778748272E-13
  0.612912498532E-13
  0.646635522905E-13
  0.215348572308E-13
  0.382957554557E-13
 -0.444592279658E-13
  0.716158903014E-14
  0.347898793107E-14
 -0.587724313661E-14
 -0.361204122168E-13
 -0.166880398389E-14
  0.407798794733E-13
  0.146480050311E-13
 -0.556499291093E-14
  0.390312782095E-14
 -0.443013681295E-13
 -0.211011763618E-13
 -0.379904441239E-14
  0.302050051637E-13
  0.817401701880E-14
  0.315719672628E-13
 -0.201574867909E-13
 -0.423411306016E-13
 -0.186170523442E-13
  0.300280633692E-13
 -0.589112092442E-14
  0.218575157973E-15
  0.439492192639E-13
 -0.477387226971E-13
  0.292212001124E-13
  0.148075995909E-13
 -0.152239332252E-13
  0.396384314261E-13
  0.206362704702E-13
  0.308503222968E-13
 -0.260902410787E-14
  0.267494359996E-13
 -0.274363864960E-13
 -0.168615121865E-14
  0.300592883917E-13
  0.164174229766E-13
  0.142247325030E-14
  0.285882428841E-14
 -0.312250225676E-16
  0.374283937177E-13
 -0.154772028527E-13
  0.102457105300E-13
 -0.219607318441E-13
 -0.533427468863E-14
  0.329944405131E-14
 -0.222287466212E-13
  0.695971058562E-14
  0.301009217551E-13
  0.296984659087E-14
  0.156472057533E-14
  0.252020626590E-13
  0.440793235246E-13
  0.404572209067E-13
  0.767441665772E-14
 -0.225444662938E-13
 -0.523886489745E-15
  0.162647673108E-13
 -0.153869972319E-13
 -0.305658276467E-14
  0.209623984837E-13
 -0.482947015712E-14
 -0.446830072942E-13
 -0.236772407236E-13
  0.117423432089E-13
 -0.223230722102E-13
  0.289317181323E-13
  0.769523333943E-14
 -0.191513471748E-13
 -0.857647286523E-14
 -0.334732241924E-13
  0.413349909856E-13
 -0.193040028407E-13
  0.318772785945E-13
  0.203656536080E-13
  0.250979792504E-13
 -0.418831636040E-13
 -0.202199368360E-13
 -0.680011602583E-14
 -0.243208231332E-13
 -0.479200013004E-13
  0.104846686888E-13
  0.589363627346E-13
  0.190906318531E-14
  0.294105018117E-13
  0.145404521756E-13
 -0.933281230076E-15
 -0.767788610467E-14
 -0.549213452494E-14
  0.171286596018E-13
 -0.138222766566E-13
 -0.289490653671E-13
 -0.122714338691E-13
  0.815320033709E-14
 -0.429517532652E-14
 -0.175900960464E-13
 -0.413558076673E-14
  0.659194920871E-14
  0.962771529167E-14
  0.185788884277E-13
 -0.149880108324E-14
  0.181521464526E-13
  0.110501885420E-13
 -0.105714048626E-13
 -0.176950468167E-13
  0.835464510074E-14
 -0.176039738342E-13
 -0.204454508879E-13
 -0.293515212135E-14
  0.230718222305E-13
  0.115671361378E-13
 -0.317107451409E-14
  0.180550019380E-13
 -0.564132074388E-14
  0.159455781912E-13
 -0.362210261784E-14
 -0.143635103811E-13
 -0.100822128424E-13
  0.111230469280E-13
 -0.216771045558E-13
 -0.402108901731E-14
  0.132029803757E-13
  0.308715726594E-14
  0.792595156174E-14
  0.672378819289E-14
  0.390486254442E-13
 -0.137390099297E-14
 -0.378100328824E-13
 -0.699093560819E-14
  0.327897431429E-13
 -0.726155247044E-14
 -0.157686363966E-13
 -0.135308431126E-14
  0.375290076793E-13
  0.234916253117E-13
  0.918709552877E-14
  0.415292800149E-14
  0.245706233137E-13
 -0.129410371308E-13
  0.257432963835E-14
 -0.115220333274E-13
  0.138396238913E-13
  0.923566778610E-14
  0.151649526270E-13
  0.117354043150E-13
 -0.518682319317E-15
  0.180237769154E-14
 -0.616173778667E-14
 -0.419456136491E-14
 -0.679317713193E-14
  0.187488913284E-13
 -0.175207071074E-13
  0.652256026967E-14
  0.145022882592E-14
 -0.302050051637E-13
  0.391353616180E-14
  0.286923262927E-13
  0.163966062949E-13
  0.191999194321E-13
 -0.833014213164E-14
  0.143843270628E-13
 -0.125073562618E-14
  0.242422184757E-13
  0.111083017784E-13
  0.451028103754E-15
  0.434374758385E-14
  0.128959343204E-13
  0.642506881032E-13
 -0.527355936697E-15
 -0.650521303491E-14
  0.413558076673E-14
  0.850708392619E-14
  0.397355759407E-13
  0.178121406513E-13
  0.435068647775E-14
  0.136592126498E-13
  0.942301792151E-14
 -0.354577478490E-14
 -0.110952913523E-13
  0.217534323887E-14
 -0.155049584283E-13
  0.232661112598E-13
  0.520417042793E-14
  0.592408067046E-14
 -0.249852222245E-13
 -0.826487316086E-14
 -0.369929781252E-13
 -0.242514341942E-14
 -0.847585890362E-14
  0.254032905822E-13
 -0.146618828190E-13
  0.557887069874E-14
 -0.256045185054E-14
 -0.138777878078E-13
 -0.204281036531E-13
  0.135169653248E-13
  0.204697370165E-14
 -0.916627884706E-14
  0.241126563161E-13
 -0.123269450203E-13
  0.326128013484E-14
 -0.107084480172E-13
 -0.150253887023E-13
 -0.847238945667E-14
  0.277139422522E-13
  0.158102697601E-13
  0.930158727819E-14
 -0.165145674913E-13
  0.241855147021E-13
 -0.272004641033E-13
  0.167296732023E-13
  0.154980195344E-13
  0.629010732389E-14
 -0.267147415300E-15
 -0.260208521397E-14
  0.683481049535E-14
  0.298233659990E-13
  0.740726924242E-14
  0.322172843958E-13
 -0.182319437325E-13
 -0.200187089128E-13
  0.312389003554E-13
 -0.142247325030E-14
 -0.163966062949E-13
  0.814279199624E-14
 -0.229406337676E-13
  0.960689860996E-14
 -0.277104728053E-13
 -0.737604421985E-14
  0.892688700738E-14
  0.929811783124E-15
  0.261041188665E-13
  0.245706233137E-13
 -0.835442826030E-14
  0.136279876273E-13
 -0.791033905045E-15
 -0.171043734731E-13
  0.479477568760E-14
 -0.804564748158E-14
  0.188703219717E-13
 -0.523366072702E-14
  0.210491346575E-13
  0.127148996627E-13
  0.429083851783E-14
 -0.794503351997E-15
 -0.291433543964E-14
  0.408180433897E-13
  0.202893257750E-13
 -0.205391259556E-14
 -0.587377368966E-14
 -0.118897947043E-13
  0.548554257573E-13
  0.547131784323E-14
  0.246816456162E-13
  0.447905601497E-14
 -0.340699690682E-14
  0.506539254985E-14
 -0.130416510924E-13
  0.129028732143E-13
  0.126183785643E-13
 -0.854177839571E-14
 -0.773339725590E-14
 -0.175848918760E-13
 -0.733094140948E-14
  0.126313889903E-13
 -0.154145359671E-13
 -0.228810026481E-14
 -0.954791801178E-14
 -0.246989928510E-13
 -0.767094721077E-14
 -0.195676808090E-13
 -0.950628464835E-15
  0.138361544444E-13
  0.334246519351E-13
  0.122679644221E-13
 -0.612704331715E-14
 -0.929811783124E-15
  0.446864767412E-14
  0.326787208405E-13
 -0.284494650060E-15
  0.191548166217E-13
  0.215149079108E-13
  0.176454445673E-13
  0.161190505388E-13
  0.617214612753E-14
  0.274537337308E-13
  0.228948804359E-13
  0.388404586271E-13
  0.295145852203E-13
  0.602434768737E-13
  0.123547005959E-13
 -0.161294588796E-13
  0.000000000000E+00
 -0.103389519168E-13
 -0.493008411873E-14
 -0.216805740028E-13
  0.287096735274E-13
 -0.908648156717E-14
  0.416680578930E-14
 -0.317107451409E-14
 -0.283904844078E-13
  0.272733224893E-13
  0.182839854368E-14
 -0.278718020885E-13
 -0.136913050341E-13
  0.879092805495E-14
 -0.189275678464E-13
 -0.381118747672E-14
 -0.159525170851E-13
 -0.288172263829E-13
 -0.215903683820E-13
  0.482947015712E-14
 -0.550948175970E-14
 -0.128438926161E-13
  0.437150315946E-14
  0.180966353014E-13
 -0.316413562018E-14
  0.157721058436E-13
  0.305241942833E-13
  0.121916365892E-13
  0.171633540713E-13
  0.115298395831E-13
 -0.233734472749E-13
  0.334281213821E-14
  0.150487261541E-13
  0.247371567674E-13
 -0.325434124093E-14
  0.439544234343E-13
  0.160600699406E-13
  0.589805981832E-16
  0.233875419031E-13
  0.226763052780E-13
 -0.214342432692E-13
 -0.160670088345E-13
  0.312250225676E-16
 -0.116209125656E-13
 -0.105471187339E-13
  0.175207071074E-13
  0.237206088105E-13
  0.257328880426E-13
 -0.274086309204E-14
 -0.114699916232E-13
 -0.133434929772E-13
  0.152482193538E-13
 -0.195616092769E-13
 -0.115613898663E-13
 -0.859382009999E-14
  0.997986415729E-14
  0.100960906302E-13
 -0.500988139862E-14
  0.154008750197E-13
  0.346944695195E-17
  0.685562717706E-14
  0.479477568760E-14
  0.338340466755E-13
  0.132498179095E-13
  0.147035161824E-13
  0.357804064155E-13
  0.160531310467E-13
  0.228289609439E-14
  0.222790536020E-13
  0.249123638385E-13
  0.736932216638E-14
 -0.181105130892E-14
  0.103458908107E-13
  0.693368973348E-14
  0.155708779204E-13
  0.167817149066E-13
  0.181694936874E-13
  0.563542268406E-13
  0.330464822174E-13
  0.278527201303E-13
  0.205113703799E-13
 -0.511223008370E-14
  0.106980396763E-13
  0.280504786065E-13
  0.116920362281E-13
  0.270616862252E-14
  0.204870842513E-13
 -0.506539254985E-15
 -0.154286305953E-13
  0.155864904317E-13
 -0.142073852683E-13
 -0.196734989411E-13
 -0.139641445109E-13
 -0.253529836014E-14
  0.882974249272E-15
 -0.226901830658E-13
  0.644970188368E-14
 -0.600214322688E-14
 -0.162855839925E-13
 -0.942648736846E-14
 -0.129410371308E-14
  0.249453235845E-14
  0.354542784020E-13
  0.213856710118E-13
  0.388231113924E-13
  0.174964209787E-13
  0.167626329484E-13
 -0.359781648918E-14
  0.118456134658E-13
  0.825728374565E-15
  0.139159517243E-13
  0.103337477464E-13
  0.211393402783E-13
  0.110016162846E-13
  0.254414544987E-13
  0.300211244753E-13
  0.163202784620E-13
 -0.152655665886E-14
  0.972139035937E-14
 -0.163098701211E-13
  0.277208811461E-14
  0.100960906302E-13
  0.386843335143E-14
  0.769870278639E-14
  0.238351005599E-13
  0.152360762895E-13
  0.176785669437E-13
  0.640980324373E-14
 -0.199614630381E-13
  0.717047948795E-14
 -0.308713016088E-14
 -0.782360287666E-14
  0.106754882712E-13
  0.619122808576E-14
 -0.376504383226E-13
  0.108905939822E-13
  0.139055433834E-13
  0.107934494675E-13
  0.670297151117E-14
  0.208721928630E-13
 -0.290739654574E-14
  0.106165076730E-13
  0.233771335623E-13
 -0.149706635977E-13
  0.218453727330E-13
  0.151207171784E-13
  0.146530135370E-14
  0.466553878864E-14
 -0.506886199680E-14
  0.190021609558E-13
  0.104256880906E-13
 -0.281719092499E-14
  0.227422247701E-13
  0.322866733349E-13
  0.414945855454E-13
  0.176872405611E-13
  0.191166527053E-14
 -0.483987849798E-15
 -0.126045007764E-13
  0.181105130892E-13
 -0.336883299035E-14
  0.231689667451E-13
  0.626929064218E-14
  0.482079653974E-14
  0.496130914129E-15
 -0.982894321488E-14
 -0.459007831743E-14
  0.470543742859E-14
 -0.103280014749E-13
  0.321184051577E-14
 -0.658327559133E-14
  0.795544186083E-14
 -0.784095011142E-14
  0.195503335743E-13
 -0.698399671428E-14
  0.132949207199E-13
  0.862504512256E-14
  0.506886199680E-14
  0.391214838302E-13
  0.334107741473E-13
  0.170627401097E-13
  0.118897947043E-13
  0.232626418128E-14
  0.284737511347E-13
  0.302419764578E-13
  0.992088355911E-14
  0.277694534034E-13
  0.147312717580E-13
  0.272577099780E-13
  0.176178516220E-13
  0.287235513152E-13
  0.192137972199E-13
  0.136314570742E-13
  0.218852713729E-13
  0.184366411027E-13
  0.841340885849E-15
  0.166013036651E-14
  0.221593576821E-13
  0.104291575376E-13
  0.222356855151E-13
  0.574887359939E-14
  0.204281036531E-13
 -0.110276371368E-13
 -0.136314570742E-13
  0.332147503945E-13
 -0.250268555879E-13
 -0.490677377202E-14
 -0.858688120609E-16
 -0.103909936211E-14
 -0.270963806948E-14
  0.157859836314E-14
  0.790340015655E-14
  0.385108611667E-14
  0.144328993201E-14
  0.506539254985E-14
  0.957914303434E-14
  0.359087759527E-13
  0.127640953362E-13
 -0.167851843536E-13
  0.218002699226E-13
  0.226988566832E-13
  0.183290882472E-13
 -0.700915020468E-14
  0.114400676432E-13
  0.802309607639E-14
 -0.301026564786E-13
  0.688511747615E-14
  0.353189699709E-14
  0.283176260218E-13
  0.179162240599E-13