# vtk DataFile Version 3.0
MachLine results file. Generated by MachLine, USU AeroLab (c) 2022.
ASCII
DATASET POLYDATA
POINTS                 117 float
  0.100000000000E+01  0.000000000000E+00  0.000000000000E+00
  0.198118811881E+02  0.000000000000E+00  0.188118811881E+01
  0.100000000000E+01  0.224100846140E+00  0.000000000000E+00
  0.198118811881E+02  0.224100846140E+00  0.188118811881E+01
  0.100000000000E+01  0.474396230640E+00  0.000000000000E+00
  0.198118811881E+02  0.474396230640E+00  0.188118811881E+01
  0.100000000000E+01  0.748095716550E+00  0.000000000000E+00
  0.198118811881E+02  0.748095716550E+00  0.188118811881E+01
  0.100000000000E+01  0.104054975430E+01  0.000000000000E+00
  0.198118811881E+02  0.104054975430E+01  0.188118811881E+01
  0.100000000000E+01  0.134542656080E+01  0.000000000000E+00
  0.198118811881E+02  0.134542656080E+01  0.188118811881E+01
  0.100000000000E+01  0.165518621560E+01  0.000000000000E+00
  0.198118811881E+02  0.165518621560E+01  0.188118811881E+01
  0.100000000000E+01  0.196179351870E+01  0.000000000000E+00
  0.198118811881E+02  0.196179351870E+01  0.188118811881E+01
  0.100000000000E+01  0.225753433710E+01  0.000000000000E+00
  0.198118811881E+02  0.225753433710E+01  0.188118811881E+01
  0.100000000000E+01  0.253576450510E+01  0.000000000000E+00
  0.198118811881E+02  0.253576450510E+01  0.188118811881E+01
  0.100000000000E+01  0.279144373280E+01  0.000000000000E+00
  0.198118811881E+02  0.279144373280E+01  0.188118811881E+01
  0.100000000000E+01  0.302137760410E+01  0.000000000000E+00
  0.198118811881E+02  0.302137760410E+01  0.188118811881E+01
  0.100000000000E+01  0.322417505490E+01  0.000000000000E+00
  0.198118811881E+02  0.322417505490E+01  0.188118811881E+01
  0.100000000000E+01  0.339999274540E+01  0.000000000000E+00
  0.198118811881E+02  0.339999274540E+01  0.188118811881E+01
  0.100000000000E+01  0.355016448900E+01  0.000000000000E+00
  0.198118811881E+02  0.355016448900E+01  0.188118811881E+01
  0.100000000000E+01  0.367680651800E+01  0.000000000000E+00
  0.198118811881E+02  0.367680651800E+01  0.188118811881E+01
  0.100000000000E+01  0.378246253770E+01  0.000000000000E+00
  0.198118811881E+02  0.378246253770E+01  0.188118811881E+01
  0.100000000000E+01  0.386982167210E+01  0.000000000000E+00
  0.198118811881E+02  0.386982167210E+01  0.188118811881E+01
  0.100000000000E+01  0.394151741400E+01  0.000000000000E+00
  0.198118811881E+02  0.394151741400E+01  0.188118811881E+01
  0.100000000000E+01  0.400000000000E+01  0.000000000000E+00
  0.198118811881E+02  0.400000000000E+01  0.188118811881E+01
  0.104059405941E+02  0.112050423070E+00  0.940594059406E+00
  0.104059405941E+02  0.224100846140E+00  0.940594059406E+00
  0.198118811881E+02  0.112050423070E+00  0.188118811881E+01
  0.104059405941E+02  0.000000000000E+00  0.940594059406E+00
  0.100000000000E+01  0.112050423070E+00  0.000000000000E+00
  0.104059405941E+02  0.349248538390E+00  0.940594059406E+00
  0.104059405941E+02  0.474396230640E+00  0.940594059406E+00
  0.198118811881E+02  0.349248538390E+00  0.188118811881E+01
  0.100000000000E+01  0.349248538390E+00  0.000000000000E+00
  0.104059405941E+02  0.611245973595E+00  0.940594059406E+00
  0.104059405941E+02  0.748095716550E+00  0.940594059406E+00
  0.198118811881E+02  0.611245973595E+00  0.188118811881E+01
  0.100000000000E+01  0.611245973595E+00  0.000000000000E+00
  0.104059405941E+02  0.894322735425E+00  0.940594059406E+00
  0.104059405941E+02  0.104054975430E+01  0.940594059406E+00
  0.198118811881E+02  0.894322735425E+00  0.188118811881E+01
  0.100000000000E+01  0.894322735425E+00  0.000000000000E+00
  0.104059405941E+02  0.119298815755E+01  0.940594059406E+00
  0.104059405941E+02  0.134542656080E+01  0.940594059406E+00
  0.198118811881E+02  0.119298815755E+01  0.188118811881E+01
  0.100000000000E+01  0.119298815755E+01  0.000000000000E+00
  0.104059405941E+02  0.150030638820E+01  0.940594059406E+00
  0.104059405941E+02  0.165518621560E+01  0.940594059406E+00
  0.198118811881E+02  0.150030638820E+01  0.188118811881E+01
  0.100000000000E+01  0.150030638820E+01  0.000000000000E+00
  0.104059405941E+02  0.180848986715E+01  0.940594059406E+00
  0.104059405941E+02  0.196179351870E+01  0.940594059406E+00
  0.198118811881E+02  0.180848986715E+01  0.188118811881E+01
  0.100000000000E+01  0.180848986715E+01  0.000000000000E+00
  0.104059405941E+02  0.210966392790E+01  0.940594059406E+00
  0.104059405941E+02  0.225753433710E+01  0.940594059406E+00
  0.198118811881E+02  0.210966392790E+01  0.188118811881E+01
  0.100000000000E+01  0.210966392790E+01  0.000000000000E+00
  0.104059405941E+02  0.239664942110E+01  0.940594059406E+00
  0.104059405941E+02  0.253576450510E+01  0.940594059406E+00
  0.198118811881E+02  0.239664942110E+01  0.188118811881E+01
  0.100000000000E+01  0.239664942110E+01  0.000000000000E+00
  0.104059405941E+02  0.266360411895E+01  0.940594059406E+00
  0.104059405941E+02  0.279144373280E+01  0.940594059406E+00
  0.198118811881E+02  0.266360411895E+01  0.188118811881E+01
  0.100000000000E+01  0.266360411895E+01  0.000000000000E+00
  0.104059405941E+02  0.290641066845E+01  0.940594059406E+00
  0.104059405941E+02  0.302137760410E+01  0.940594059406E+00
  0.198118811881E+02  0.290641066845E+01  0.188118811881E+01
  0.100000000000E+01  0.290641066845E+01  0.000000000000E+00
  0.104059405941E+02  0.312277632950E+01  0.940594059406E+00
  0.104059405941E+02  0.322417505490E+01  0.940594059406E+00
  0.198118811881E+02  0.312277632950E+01  0.188118811881E+01
  0.100000000000E+01  0.312277632950E+01  0.000000000000E+00
  0.104059405941E+02  0.331208390015E+01  0.940594059406E+00
  0.104059405941E+02  0.339999274540E+01  0.940594059406E+00
  0.198118811881E+02  0.331208390015E+01  0.188118811881E+01
  0.100000000000E+01  0.331208390015E+01  0.000000000000E+00
  0.104059405941E+02  0.347507861720E+01  0.940594059406E+00
  0.104059405941E+02  0.355016448900E+01  0.940594059406E+00
  0.198118811881E+02  0.347507861720E+01  0.188118811881E+01
  0.100000000000E+01  0.347507861720E+01  0.000000000000E+00
  0.104059405941E+02  0.361348550350E+01  0.940594059406E+00
  0.104059405941E+02  0.367680651800E+01  0.940594059406E+00
  0.198118811881E+02  0.361348550350E+01  0.188118811881E+01
  0.100000000000E+01  0.361348550350E+01  0.000000000000E+00
  0.104059405941E+02  0.372963452785E+01  0.940594059406E+00
  0.104059405941E+02  0.378246253770E+01  0.940594059406E+00
  0.198118811881E+02  0.372963452785E+01  0.188118811881E+01
  0.100000000000E+01  0.372963452785E+01  0.000000000000E+00
  0.104059405941E+02  0.382614210490E+01  0.940594059406E+00
  0.104059405941E+02  0.386982167210E+01  0.940594059406E+00
  0.198118811881E+02  0.382614210490E+01  0.188118811881E+01
  0.100000000000E+01  0.382614210490E+01  0.000000000000E+00
  0.104059405941E+02  0.390566954305E+01  0.940594059406E+00
  0.104059405941E+02  0.394151741400E+01  0.940594059406E+00
  0.198118811881E+02  0.390566954305E+01  0.188118811881E+01
  0.100000000000E+01  0.390566954305E+01  0.000000000000E+00
  0.104059405941E+02  0.397075870700E+01  0.940594059406E+00
  0.104059405941E+02  0.400000000000E+01  0.940594059406E+00
  0.198118811881E+02  0.397075870700E+01  0.188118811881E+01
  0.100000000000E+01  0.397075870700E+01  0.000000000000E+00
POLYGONS                  38                 152
3                   2                   3                   1
3                   2                   1                   0
3                   4                   5                   3
3                   4                   3                   2
3                   6                   7                   5
3                   6                   5                   4
3                   8                   9                   7
3                   8                   7                   6
3                  10                  11                   9
3                  10                   9                   8
3                  12                  13                  11
3                  12                  11                  10
3                  14                  15                  13
3                  14                  13                  12
3                  16                  17                  15
3                  16                  15                  14
3                  18                  19                  17
3                  18                  17                  16
3                  20                  21                  19
3                  20                  19                  18
3                  22                  23                  21
3                  22                  21                  20
3                  24                  25                  23
3                  24                  23                  22
3                  26                  27                  25
3                  26                  25                  24
3                  28                  29                  27
3                  28                  27                  26
3                  30                  31                  29
3                  30                  29                  28
3                  32                  33                  31
3                  32                  31                  30
3                  34                  35                  33
3                  34                  33                  32
3                  36                  37                  35
3                  36                  35                  34
3                  38                  39                  37
3                  38                  37                  36
CELL_DATA                  38
NORMALS normals float
  0.995037190210E-01  0.000000000000E+00 -0.995037190210E+00
  0.995037190210E-01  0.000000000000E+00 -0.995037190210E+00
  0.995037190210E-01  0.000000000000E+00 -0.995037190210E+00
  0.995037190210E-01  0.000000000000E+00 -0.995037190210E+00
  0.995037190210E-01  0.000000000000E+00 -0.995037190210E+00
  0.995037190210E-01  0.000000000000E+00 -0.995037190210E+00
  0.995037190210E-01  0.000000000000E+00 -0.995037190210E+00
  0.995037190210E-01  0.000000000000E+00 -0.995037190210E+00
  0.995037190210E-01  0.000000000000E+00 -0.995037190210E+00
  0.995037190210E-01  0.000000000000E+00 -0.995037190210E+00
  0.995037190210E-01  0.000000000000E+00 -0.995037190210E+00
  0.995037190210E-01  0.000000000000E+00 -0.995037190210E+00
  0.995037190210E-01  0.000000000000E+00 -0.995037190210E+00
  0.995037190210E-01  0.000000000000E+00 -0.995037190210E+00
  0.995037190210E-01  0.000000000000E+00 -0.995037190210E+00
  0.995037190210E-01  0.000000000000E+00 -0.995037190210E+00
  0.995037190210E-01  0.000000000000E+00 -0.995037190210E+00
  0.995037190210E-01  0.000000000000E+00 -0.995037190210E+00
  0.995037190210E-01  0.000000000000E+00 -0.995037190210E+00
  0.995037190210E-01  0.000000000000E+00 -0.995037190210E+00
  0.995037190210E-01  0.000000000000E+00 -0.995037190210E+00
  0.995037190210E-01  0.000000000000E+00 -0.995037190210E+00
  0.995037190210E-01  0.000000000000E+00 -0.995037190210E+00
  0.995037190210E-01  0.000000000000E+00 -0.995037190210E+00
  0.995037190210E-01  0.000000000000E+00 -0.995037190210E+00
  0.995037190210E-01  0.000000000000E+00 -0.995037190210E+00
  0.995037190210E-01  0.000000000000E+00 -0.995037190210E+00
  0.995037190210E-01  0.000000000000E+00 -0.995037190210E+00
  0.995037190210E-01  0.000000000000E+00 -0.995037190210E+00
  0.995037190210E-01  0.000000000000E+00 -0.995037190210E+00
  0.995037190210E-01  0.000000000000E+00 -0.995037190210E+00
  0.995037190210E-01  0.000000000000E+00 -0.995037190210E+00
  0.995037190210E-01  0.000000000000E+00 -0.995037190210E+00
  0.995037190210E-01  0.000000000000E+00 -0.995037190210E+00
  0.995037190210E-01  0.000000000000E+00 -0.995037190210E+00
  0.995037190210E-01  0.000000000000E+00 -0.995037190210E+00
  0.995037190210E-01  0.000000000000E+00 -0.995037190210E+00
  0.995037190210E-01  0.000000000000E+00 -0.995037190210E+00
POINT_DATA                 117
SCALARS mu float 1
LOOKUP_TABLE default
 -0.439202071697E-03
 -0.439202071697E-03
 -0.963103753512E-03
 -0.963103753512E-03
 -0.540890280616E-03
 -0.540890280616E-03
 -0.470881783036E-03
 -0.470881783036E-03
 -0.633050705692E-03
 -0.633050705692E-03
 -0.605746690857E-03
 -0.605746690857E-03
 -0.574585462905E-03
 -0.574585462905E-03
 -0.611974622450E-03
 -0.611974622450E-03
 -0.636078636645E-03
 -0.636078636645E-03
 -0.653891569430E-03
 -0.653891569430E-03
 -0.688624545773E-03
 -0.688624545773E-03
 -0.735509945580E-03
 -0.735509945580E-03
 -0.785866429076E-03
 -0.785866429076E-03
 -0.841431861642E-03
 -0.841431861642E-03
 -0.932659817695E-03
 -0.932659817695E-03
 -0.941242787375E-03
 -0.941242787375E-03
 -0.917606952855E-03
 -0.917606952855E-03
 -0.161046266937E-02
 -0.161046266937E-02
 -0.200253076644E-02
 -0.200253076644E-02
  0.000000000000E+00
  0.000000000000E+00
  0.127158964174E-03
 -0.963103753512E-03
  0.127158964174E-03
 -0.439202071697E-03
  0.127158964174E-03
  0.128675620823E-03
 -0.540890280616E-03
  0.128675620823E-03
  0.128675620823E-03
  0.972261806639E-04
 -0.470881783036E-03
  0.972261806639E-04
  0.972261806639E-04
  0.103894642458E-03
 -0.633050705692E-03
  0.103894642458E-03
  0.103894642458E-03
  0.112187996837E-03
 -0.605746690857E-03
  0.112187996837E-03
  0.112187996837E-03
  0.108884607946E-03
 -0.574585462905E-03
  0.108884607946E-03
  0.108884607946E-03
  0.110559247628E-03
 -0.611974622450E-03
  0.110559247628E-03
  0.110559247628E-03
  0.116119457248E-03
 -0.636078636645E-03
  0.116119457248E-03
  0.116119457248E-03
  0.121030116530E-03
 -0.653891569430E-03
  0.121030116530E-03
  0.121030116530E-03
  0.127497240870E-03
 -0.688624545773E-03
  0.127497240870E-03
  0.127497240870E-03
  0.136683114924E-03
 -0.735509945580E-03
  0.136683114924E-03
  0.136683114924E-03
  0.147595012033E-03
 -0.785866429076E-03
  0.147595012033E-03
  0.147595012033E-03
  0.160336979635E-03
 -0.841431861642E-03
  0.160336979635E-03
  0.160336979635E-03
  0.175917978490E-03
 -0.932659817695E-03
  0.175917978490E-03
  0.175917978490E-03
  0.186077727416E-03
 -0.941242787375E-03
  0.186077727416E-03
  0.186077727416E-03
  0.206176451275E-03
 -0.917606952855E-03
  0.206176451275E-03
  0.206176451275E-03
  0.284938129418E-03
 -0.161046266937E-02
  0.284938129418E-03
  0.284938129418E-03
  0.283192141024E-03
 -0.200253076644E-02
  0.283192141024E-03
  0.283192141024E-03
  0.806683985689E-05
  0.000000000000E+00
  0.806683985689E-05
  0.806683985689E-05
