# vtk DataFile Version 3.0
MachLine results file. Generated by MachLine, USU AeroLab (c) 2022.
ASCII
DATASET POLYDATA
POINTS                  40 float
  0.100000000000E+01  0.279144373280E+01  0.000000000000E+00
  0.198118811881E+02  0.279144373280E+01  0.188118811881E+01
  0.100000000000E+01  0.253576450510E+01  0.000000000000E+00
  0.198118811881E+02  0.253576450510E+01  0.188118811881E+01
  0.100000000000E+01  0.224100846140E+00  0.000000000000E+00
  0.198118811881E+02  0.224100846140E+00  0.188118811881E+01
  0.100000000000E+01  0.000000000000E+00  0.000000000000E+00
  0.198118811881E+02  0.000000000000E+00  0.188118811881E+01
  0.100000000000E+01  0.104054975430E+01  0.000000000000E+00
  0.198118811881E+02  0.104054975430E+01  0.188118811881E+01
  0.100000000000E+01  0.748095716550E+00  0.000000000000E+00
  0.198118811881E+02  0.748095716550E+00  0.188118811881E+01
  0.100000000000E+01  0.196179351870E+01  0.000000000000E+00
  0.198118811881E+02  0.196179351870E+01  0.188118811881E+01
  0.100000000000E+01  0.165518621560E+01  0.000000000000E+00
  0.198118811881E+02  0.165518621560E+01  0.188118811881E+01
  0.100000000000E+01  0.355016448900E+01  0.000000000000E+00
  0.198118811881E+02  0.355016448900E+01  0.188118811881E+01
  0.100000000000E+01  0.339999274540E+01  0.000000000000E+00
  0.198118811881E+02  0.339999274540E+01  0.188118811881E+01
  0.100000000000E+01  0.386982167210E+01  0.000000000000E+00
  0.198118811881E+02  0.386982167210E+01  0.188118811881E+01
  0.100000000000E+01  0.378246253770E+01  0.000000000000E+00
  0.198118811881E+02  0.378246253770E+01  0.188118811881E+01
  0.100000000000E+01  0.302137760410E+01  0.000000000000E+00
  0.198118811881E+02  0.302137760410E+01  0.188118811881E+01
  0.100000000000E+01  0.134542656080E+01  0.000000000000E+00
  0.198118811881E+02  0.134542656080E+01  0.188118811881E+01
  0.100000000000E+01  0.225753433710E+01  0.000000000000E+00
  0.198118811881E+02  0.225753433710E+01  0.188118811881E+01
  0.100000000000E+01  0.474396230640E+00  0.000000000000E+00
  0.198118811881E+02  0.474396230640E+00  0.188118811881E+01
  0.100000000000E+01  0.367680651800E+01  0.000000000000E+00
  0.198118811881E+02  0.367680651800E+01  0.188118811881E+01
  0.100000000000E+01  0.394151741400E+01  0.000000000000E+00
  0.198118811881E+02  0.394151741400E+01  0.188118811881E+01
  0.100000000000E+01  0.322417505490E+01  0.000000000000E+00
  0.198118811881E+02  0.322417505490E+01  0.188118811881E+01
  0.100000000000E+01  0.400000000000E+01  0.000000000000E+00
  0.198118811881E+02  0.400000000000E+01  0.188118811881E+01
POLYGONS                  38                 152
3                   4                   5                   7
3                   4                   7                   6
3                  30                  31                   5
3                  30                   5                   4
3                  10                  11                  31
3                  10                  31                  30
3                   8                   9                  11
3                   8                  11                  10
3                  26                  27                   9
3                  26                   9                   8
3                  14                  15                  27
3                  14                  27                  26
3                  12                  13                  15
3                  12                  15                  14
3                  28                  29                  13
3                  28                  13                  12
3                   2                   3                  29
3                   2                  29                  28
3                   0                   1                   3
3                   0                   3                   2
3                  24                  25                   1
3                  24                   1                   0
3                  36                  37                  25
3                  36                  25                  24
3                  18                  19                  37
3                  18                  37                  36
3                  16                  17                  19
3                  16                  19                  18
3                  32                  33                  17
3                  32                  17                  16
3                  22                  23                  33
3                  22                  33                  32
3                  20                  21                  23
3                  20                  23                  22
3                  34                  35                  21
3                  34                  21                  20
3                  38                  39                  35
3                  38                  35                  34
CELL_DATA                  38
NORMALS normals float
  0.995037190210E-01  0.000000000000E+00 -0.995037190210E+00
  0.995037190210E-01  0.000000000000E+00 -0.995037190210E+00
  0.995037190210E-01  0.000000000000E+00 -0.995037190210E+00
  0.995037190210E-01  0.000000000000E+00 -0.995037190210E+00
  0.995037190210E-01  0.000000000000E+00 -0.995037190210E+00
  0.995037190210E-01  0.000000000000E+00 -0.995037190210E+00
  0.995037190210E-01  0.000000000000E+00 -0.995037190210E+00
  0.995037190210E-01  0.000000000000E+00 -0.995037190210E+00
  0.995037190210E-01  0.000000000000E+00 -0.995037190210E+00
  0.995037190210E-01  0.000000000000E+00 -0.995037190210E+00
  0.995037190210E-01  0.000000000000E+00 -0.995037190210E+00
  0.995037190210E-01  0.000000000000E+00 -0.995037190210E+00
  0.995037190210E-01  0.000000000000E+00 -0.995037190210E+00
  0.995037190210E-01  0.000000000000E+00 -0.995037190210E+00
  0.995037190210E-01  0.000000000000E+00 -0.995037190210E+00
  0.995037190210E-01  0.000000000000E+00 -0.995037190210E+00
  0.995037190210E-01  0.000000000000E+00 -0.995037190210E+00
  0.995037190210E-01  0.000000000000E+00 -0.995037190210E+00
  0.995037190210E-01  0.000000000000E+00 -0.995037190210E+00
  0.995037190210E-01  0.000000000000E+00 -0.995037190210E+00
  0.995037190210E-01  0.000000000000E+00 -0.995037190210E+00
  0.995037190210E-01  0.000000000000E+00 -0.995037190210E+00
  0.995037190210E-01  0.000000000000E+00 -0.995037190210E+00
  0.995037190210E-01  0.000000000000E+00 -0.995037190210E+00
  0.995037190210E-01  0.000000000000E+00 -0.995037190210E+00
  0.995037190210E-01  0.000000000000E+00 -0.995037190210E+00
  0.995037190210E-01  0.000000000000E+00 -0.995037190210E+00
  0.995037190210E-01  0.000000000000E+00 -0.995037190210E+00
  0.995037190210E-01  0.000000000000E+00 -0.995037190210E+00
  0.995037190210E-01  0.000000000000E+00 -0.995037190210E+00
  0.995037190210E-01  0.000000000000E+00 -0.995037190210E+00
  0.995037190210E-01  0.000000000000E+00 -0.995037190210E+00
  0.995037190210E-01  0.000000000000E+00 -0.995037190210E+00
  0.995037190210E-01  0.000000000000E+00 -0.995037190210E+00
  0.995037190210E-01  0.000000000000E+00 -0.995037190210E+00
  0.995037190210E-01  0.000000000000E+00 -0.995037190210E+00
  0.995037190210E-01  0.000000000000E+00 -0.995037190210E+00
  0.995037190210E-01  0.000000000000E+00 -0.995037190210E+00
POINT_DATA                  40
SCALARS mu float 1
LOOKUP_TABLE default
 -0.226058645720E+00
 -0.226058645720E+00
 -0.237771719585E+00
 -0.237771719585E+00
 -0.274267327581E+00
 -0.274267327581E+00
 -0.274487473054E+00
 -0.274487473054E+00
 -0.269724409487E+00
 -0.269724409487E+00
 -0.272057943414E+00
 -0.272057943414E+00
 -0.255404548771E+00
 -0.255404548771E+00
 -0.261605961509E+00
 -0.261605961509E+00
 -0.158733383906E+00
 -0.158733383906E+00
 -0.178650379884E+00
 -0.178650379884E+00
 -0.833265521394E-01
 -0.833265521394E-01
 -0.111849692745E+00
 -0.111849692745E+00
 -0.212308704564E+00
 -0.212308704564E+00
 -0.266310068837E+00
 -0.266310068837E+00
 -0.247513856038E+00
 -0.247513856038E+00
 -0.273511021635E+00
 -0.273511021635E+00
 -0.136613092077E+00
 -0.136613092077E+00
 -0.483081473909E-01
 -0.483081473909E-01
 -0.196503326711E+00
 -0.196503326711E+00
  0.000000000000E+00
  0.000000000000E+00
