# vtk DataFile Version 3.0
MachLine results file. Generated by MachLine, USU AeroLab (c) 2022.
ASCII
DATASET POLYDATA
POINTS                3668 float
  0.999999109371E+00  0.000000000000E+00 -0.515361390082E-07
  0.999999109371E+00  0.000000000000E+00  0.515361390082E-07
  0.993202396927E+00  0.105801853900E+00 -0.791401596615E-03
  0.999999168341E+00  0.105801853900E+00 -0.481238596305E-07
  0.999999168341E+00  0.105801853900E+00  0.481238596305E-07
  0.993202411132E+00  0.000000000000E+00 -0.791523350857E-03
  0.985311283809E+00  0.105801853900E+00 -0.170367316949E-02
  0.985311264214E+00  0.000000000000E+00 -0.170350149926E-02
  0.976172304837E+00  0.105801853900E+00 -0.275117001582E-02
  0.976172310335E+00  0.000000000000E+00 -0.275121685787E-02
  0.965616996867E+00  0.105801853900E+00 -0.394878158453E-02
  0.965617001378E+00  0.000000000000E+00 -0.394881999208E-02
  0.953464289062E+00  0.105801853900E+00 -0.531152943977E-02
  0.953464293598E+00  0.000000000000E+00 -0.531156833201E-02
  0.939523211894E+00  0.105801853900E+00 -0.685385739573E-02
  0.939523216935E+00  0.000000000000E+00 -0.685390119828E-02
  0.923597151856E+00  0.105801853900E+00 -0.858877885305E-02
  0.923597157521E+00  0.000000000000E+00 -0.858882887949E-02
  0.905489957747E+00  0.105801853900E+00 -0.105268913077E-01
  0.905489964168E+00  0.000000000000E+00 -0.105269490998E-01
  0.885014138768E+00  0.105801853900E+00 -0.126752536163E-01
  0.885014146082E+00  0.000000000000E+00 -0.126753209237E-01
  0.862001257296E+00  0.105801853900E+00 -0.150361502413E-01
  0.862001265642E+00  0.000000000000E+00 -0.150362289687E-01
  0.836314281025E+00  0.105801853900E+00 -0.176048609421E-01
  0.836314290525E+00  0.000000000000E+00 -0.176049530587E-01
  0.807861649875E+00  0.105801853900E+00 -0.203676260001E-01
  0.807861660607E+00  0.000000000000E+00 -0.203677334068E-01
  0.776612258983E+00  0.105801853900E+00 -0.233011461733E-01
  0.776612270969E+00  0.000000000000E+00 -0.233012705323E-01
  0.742609925894E+00  0.105801853900E+00 -0.263720559775E-01
  0.742609939086E+00  0.000000000000E+00 -0.263721985167E-01
  0.705985557470E+00  0.105801853900E+00 -0.295350543313E-01
  0.705985571732E+00  0.000000000000E+00 -0.295352156461E-01
  0.666965217511E+00  0.105801853900E+00 -0.327295669856E-01
  0.666965232574E+00  0.000000000000E+00 -0.327297468644E-01
  0.625872633680E+00  0.105801853900E+00 -0.358849761088E-01
  0.625872649170E+00  0.000000000000E+00 -0.358851734046E-01
  0.583124037019E+00  0.105801853900E+00 -0.389230686903E-01
  0.583124052479E+00  0.000000000000E+00 -0.389232812701E-01
  0.539215030403E+00  0.105801853900E+00 -0.417537669276E-01
  0.539215045261E+00  0.000000000000E+00 -0.417539917179E-01
  0.494699849429E+00  0.105801853900E+00 -0.442881395351E-01
  0.494699847910E+00  0.000000000000E+00 -0.442881106849E-01
  0.450164519890E+00  0.000000000000E+00 -0.464407150960E-01
  0.450164511034E+00  0.105801853900E+00 -0.464404771702E-01
  0.406197008232E+00  0.000000000000E+00 -0.481340819805E-01
  0.406197001280E+00  0.105801853900E+00 -0.481338098075E-01
  0.363356875963E+00  0.000000000000E+00 -0.493076325635E-01
  0.363356874359E+00  0.105801853900E+00 -0.493074502246E-01
  0.322148046478E+00  0.000000000000E+00 -0.499209727479E-01
  0.322148047530E+00  0.105801853900E+00 -0.499207927535E-01
  0.282997354718E+00  0.000000000000E+00 -0.499580028224E-01
  0.282997358610E+00  0.105801853900E+00 -0.499578281378E-01
  0.246240766201E+00  0.000000000000E+00 -0.494236370226E-01
  0.246240772988E+00  0.105801853900E+00 -0.494234703659E-01
  0.212117381414E+00  0.000000000000E+00 -0.483424630397E-01
  0.212117391002E+00  0.105801853900E+00 -0.483423067230E-01
  0.180771139192E+00  0.000000000000E+00 -0.467573137653E-01
  0.180771151388E+00  0.105801853900E+00 -0.467571695723E-01
  0.152257673567E+00  0.000000000000E+00 -0.447210108782E-01
  0.152257688129E+00  0.105801853900E+00 -0.447208799927E-01
  0.126557932623E+00  0.000000000000E+00 -0.422886062889E-01
  0.126557949257E+00  0.105801853900E+00 -0.422884892752E-01
  0.103591450294E+00  0.000000000000E+00 -0.395167363373E-01
  0.103591468787E+00  0.105801853900E+00 -0.395166331893E-01
  0.832333056555E-01  0.000000000000E+00 -0.364519487818E-01
  0.832333258718E-01  0.105801853900E+00 -0.364518590163E-01
  0.653288732562E-01  0.000000000000E+00 -0.331311124169E-01
  0.653288952523E-01  0.105801853900E+00 -0.331310352255E-01
  0.497095541952E-01  0.000000000000E+00 -0.295741245417E-01
  0.497095783348E-01  0.105801853900E+00 -0.295740589957E-01
  0.362091480667E-01  0.000000000000E+00 -0.257762223970E-01
  0.362091751409E-01  0.105801853900E+00 -0.257761677236E-01
  0.246819631561E-01  0.000000000000E+00 -0.217014583725E-01
  0.246819948373E-01  0.105801853900E+00 -0.217014145151E-01
  0.150384039196E-01  0.000000000000E+00 -0.172587342757E-01
  0.150384434347E-01  0.105801853900E+00 -0.172587032543E-01
  0.732416098171E-02  0.000000000000E+00 -0.122707764734E-01
  0.732421396813E-02  0.105801853900E+00 -0.122707669152E-01
  0.195633780458E-02  0.000000000000E+00 -0.646578487658E-02
  0.195640230692E-02  0.105801853900E+00 -0.646581963405E-02
  0.895749585882E-06  0.000000000000E+00  0.000000000000E+00
  0.104627251489E-05  0.105801853900E+00  0.000000000000E+00
  0.195622708008E-02  0.105801853900E+00  0.646591996057E-02
  0.195608618105E-02  0.000000000000E+00  0.646595576460E-02
  0.732419574709E-02  0.105801853900E+00  0.122707885813E-01
  0.732427171867E-02  0.000000000000E+00  0.122706329895E-01
  0.150384269050E-01  0.105801853900E+00  0.172587333084E-01
  0.150383946293E-01  0.000000000000E+00  0.172587521602E-01
  0.246819791737E-01  0.105801853900E+00  0.217014530866E-01
  0.246819543713E-01  0.000000000000E+00  0.217014809937E-01
  0.362091598600E-01  0.105801853900E+00  0.257762159239E-01
  0.362091394986E-01  0.000000000000E+00  0.257762504851E-01
  0.497095633294E-01  0.105801853900E+00  0.295741179903E-01
  0.497095457434E-01  0.000000000000E+00  0.295741589766E-01
  0.653288806267E-01  0.105801853900E+00  0.331311060467E-01
  0.653288649242E-01  0.000000000000E+00  0.331311541853E-01
  0.832333118690E-01  0.105801853900E+00  0.364519423860E-01
  0.832332975265E-01  0.000000000000E+00  0.364519989161E-01
  0.103591455752E+00  0.105801853900E+00  0.395167293225E-01
  0.103591442523E+00  0.000000000000E+00  0.395167958306E-01
  0.126557937586E+00  0.105801853900E+00  0.422885976904E-01
  0.126557925423E+00  0.000000000000E+00  0.422886759867E-01
  0.152257678219E+00  0.105801853900E+00  0.447209993648E-01
  0.152257667198E+00  0.000000000000E+00  0.447210913534E-01
  0.180771143577E+00  0.105801853900E+00  0.467572976497E-01
  0.180771133934E+00  0.000000000000E+00  0.467574051838E-01
  0.212117385507E+00  0.105801853900E+00  0.483424403441E-01
  0.212117377540E+00  0.000000000000E+00  0.483425650374E-01
  0.246240769863E+00  0.105801853900E+00  0.494236055787E-01
  0.246240763941E+00  0.000000000000E+00  0.494237486092E-01
  0.282997357711E+00  0.105801853900E+00  0.499579604429E-01
  0.282997354215E+00  0.000000000000E+00  0.499581223487E-01
  0.322148048517E+00  0.105801853900E+00  0.499209174364E-01
  0.322148047760E+00  0.000000000000E+00  0.499210979395E-01
  0.363356876738E+00  0.105801853900E+00  0.493075627470E-01
  0.363356878937E+00  0.000000000000E+00  0.493077606322E-01
  0.406197007440E+00  0.105801853900E+00  0.481339967369E-01
  0.406197012682E+00  0.000000000000E+00  0.481342098072E-01
  0.450164508803E+00  0.105801853900E+00  0.464404258097E-01
  0.450164516999E+00  0.000000000000E+00  0.464406509350E-01
  0.494699849429E+00  0.105801853900E+00  0.442881395403E-01
  0.494699847910E+00  0.000000000000E+00  0.442881106858E-01
  0.539215049072E+00  0.000000000000E+00  0.417540558331E-01
  0.539215033519E+00  0.105801853900E+00  0.417538182618E-01
  0.583124043971E+00  0.000000000000E+00  0.389231536508E-01
  0.583124024374E+00  0.105801853900E+00  0.389228821014E-01
  0.625872639847E+00  0.000000000000E+00  0.358850456400E-01
  0.625872625383E+00  0.105801853900E+00  0.358848638733E-01
  0.666965222778E+00  0.000000000000E+00  0.327296220477E-01
  0.666965207650E+00  0.105801853900E+00  0.327294426880E-01
  0.705985561802E+00  0.000000000000E+00  0.295350965292E-01
  0.705985546379E+00  0.105801853900E+00  0.295349224810E-01
  0.742609929338E+00  0.000000000000E+00  0.263720873304E-01
  0.742609913991E+00  0.105801853900E+00  0.263719212399E-01
  0.776612261668E+00  0.000000000000E+00  0.233011688821E-01
  0.776612246717E+00  0.105801853900E+00  0.233010129846E-01
  0.807861651951E+00  0.000000000000E+00  0.203676422421E-01
  0.807861637675E+00  0.105801853900E+00  0.203674982413E-01
  0.836314282646E+00  0.000000000000E+00  0.176048727120E-01
  0.836314269274E+00  0.105801853900E+00  0.176047417089E-01
  0.862001258610E+00  0.000000000000E+00  0.150361592490E-01
  0.862001246304E+00  0.105801853900E+00  0.150360417248E-01
  0.885014139912E+00  0.000000000000E+00  0.126752612392E-01
  0.885014128753E+00  0.105801853900E+00  0.126751570915E-01
  0.905489958833E+00  0.000000000000E+00  0.105268985892E-01
  0.905489948835E+00  0.105801853900E+00  0.105268072134E-01
  0.923597152961E+00  0.000000000000E+00  0.858878653352E-02
  0.923597144089E+00  0.105801853900E+00  0.858870693492E-02
  0.939523213077E+00  0.000000000000E+00  0.685386595966E-02
  0.939523205251E+00  0.105801853900E+00  0.685379688362E-02
  0.953464290357E+00  0.000000000000E+00  0.531153917004E-02
  0.953464283469E+00  0.105801853900E+00  0.531147922946E-02
  0.965616998672E+00  0.000000000000E+00  0.394879595145E-02
  0.965616992598E+00  0.105801853900E+00  0.394874373892E-02
  0.976172308084E+00  0.000000000000E+00  0.275119708559E-02
  0.976172302698E+00  0.105801853900E+00  0.275115126040E-02
  0.985311285181E+00  0.000000000000E+00  0.170368388894E-02
  0.985311280363E+00  0.105801853900E+00  0.170364323560E-02
  0.993202373200E+00  0.000000000000E+00  0.791196149073E-03
[...]
POINT_DATA                3668
SCALARS phi float 1
LOOKUP_TABLE default
 -0.902056207508E-16
 -0.135308431126E-15
 -0.693889390391E-16
 -0.346944695195E-16
 -0.520417042793E-16
 -0.693889390391E-16
 -0.260208521397E-15
 -0.128369537222E-15
 -0.253269627493E-15
 -0.166533453694E-15
 -0.329597460436E-15
 -0.211636264069E-15
 -0.274086309204E-15
 -0.308780778724E-15
 -0.353883589099E-15
 -0.312250225676E-15
 -0.489192020225E-15
 -0.385108611667E-15
 -0.700828284295E-15
 -0.451028103754E-15
 -0.582867087928E-15
 -0.516947595841E-15
 -0.697358837343E-15
 -0.749400541622E-15
 -0.967975699595E-15
 -0.759808882478E-15
 -0.985322934355E-15
 -0.881239525796E-15
 -0.108940634291E-14
 -0.117961196366E-14
 -0.126634813746E-14
 -0.119695919842E-14
 -0.116920362281E-14
 -0.115532583500E-14
 -0.163410951437E-14
 -0.132185928869E-14
 -0.166880398389E-14
 -0.149533163629E-14
 -0.168441649517E-14
 -0.150920942410E-14
 -0.176421377507E-14
 -0.163931368480E-14
 -0.180931658544E-14
 -0.169222275082E-14
 -0.160418553441E-14
 -0.163584423785E-14
 -0.155387855361E-14
 -0.175315491291E-14
 -0.160895602397E-14
 -0.168441649517E-14
 -0.146237189025E-14
 -0.157686363966E-14
 -0.150573997715E-14
 -0.164798730218E-14
 -0.124553145575E-14
 -0.152308721191E-14
 -0.136696209907E-14
 -0.125247034966E-14
 -0.102695629778E-14
 -0.103736463863E-14
 -0.860422844084E-15
 -0.905525654460E-15
 -0.825728374565E-15
 -0.742461647718E-15
 -0.471844785466E-15
 -0.763278329430E-15
 -0.194289029309E-15
 -0.451028103754E-15
 -0.117961196366E-15
 -0.902056207508E-16
 -0.201227923213E-15
  0.138777878078E-15
  0.256739074445E-15
  0.124900090270E-15
  0.381639164715E-15
  0.360822483003E-15
  0.395516952523E-15
  0.520417042793E-15
  0.735522753814E-15
  0.520417042793E-15
  0.101307850997E-14
  0.102695629778E-14
  0.135308431126E-14
  0.127675647832E-14
  0.134614541736E-14
  0.146410661372E-14
  0.163064006742E-14
  0.172084568817E-14
  0.174860126378E-14
  0.206085148946E-14
  0.206085148946E-14
  0.213717932240E-14
  0.217881268583E-14
  0.213024042850E-14
  0.246330733589E-14
  0.241473507856E-14
  0.261596300177E-14
  0.242167397246E-14
  0.279637424327E-14
  0.266453525910E-14
  0.273045475119E-14
  0.275127143290E-14
  0.295943825002E-14
  0.301494940125E-14
  0.317107451409E-14
  0.319536064275E-14
  0.327862736960E-14
  0.321964677141E-14
  0.344169137634E-14
  0.326995375222E-14
  0.352495810318E-14
  0.343475248243E-14
  0.359955121265E-14
  0.353189699709E-14
  0.367479484342E-14
  0.352690966710E-14
  0.361082691525E-14
  0.349980461278E-14
  0.372965547335E-14
  0.360909219177E-14
  0.361169427698E-14
  0.359261231875E-14
  0.364291929955E-14
  0.354924423185E-14
  0.343128303548E-14
  0.346597750500E-14
  0.320576898361E-14
  0.339311911901E-14
  0.295943825002E-14
  0.306005221162E-14
  0.290739654574E-14
  0.290045765183E-14
  0.263677968348E-14
  0.254310461578E-14
  0.223085439011E-14
  0.234534613952E-14
  0.202268757299E-14
  0.209901540593E-14
  0.154737334057E-14
  0.174860126378E-14
  0.153349555276E-14
  0.179717352111E-14
  0.104777297949E-14
  0.135308431126E-14
  0.107552855511E-14
  0.999200722163E-15
  0.895117313604E-15
  0.714706072102E-15
  0.516947595841E-15
  0.738992200766E-15
  0.426741975090E-15
  0.398986399475E-15
  0.621031004400E-15
  0.503069808033E-15
  0.235922392733E-15
  0.398986399475E-15
  0.728583859910E-16
  0.693889390391E-16
 -0.346944695195E-16
  0.346944695195E-16
 -0.138777878078E-16
  0.208166817117E-16
 -0.145716771982E-15
 -0.277555756156E-16
 -0.797972798949E-16
 -0.232452945781E-15
 -0.173472347598E-15
 -0.281025203108E-15
 -0.426741975090E-15
 -0.520417042793E-15
 -0.496130914129E-15
 -0.680011602583E-15
 -0.843075609325E-15
 -0.107899800206E-14
 -0.100613961607E-14
 -0.120736753928E-14
 -0.145022882592E-14
 -0.146063716677E-14
 -0.176941794550E-14
 -0.181799020282E-14
 -0.199493199737E-14
 -0.213544459893E-14
 -0.210768902331E-14
 -0.224039536922E-14
 -0.224039536922E-14
 -0.219290731407E-14
 -0.209207651203E-14
 -0.191860416443E-14
 -0.184748050192E-14
 -0.166533453694E-14
 -0.155084278752E-14
 -0.143982048506E-14
 -0.112410081243E-14
 -0.922872889220E-15
 -0.770217223334E-15
 -0.624500451352E-15
 -0.319189119580E-15
 -0.277555756156E-15
 -0.152655665886E-15
  0.256739074445E-15
  0.305311331772E-15
  0.492661467177E-15
  0.922872889220E-15
  0.131145094784E-14
  0.137390099297E-14
  0.179023462721E-14
  0.198452365652E-14
  0.215105711021E-14
  0.233146835171E-14
  0.228983498829E-14
  0.261596300177E-14
  0.279637424327E-14
  0.294902990916E-14
  0.309821612809E-14
  0.340005801291E-14
  0.359434704222E-14
  0.360302065960E-14
  0.377996245415E-14
  0.401761957036E-14
  0.401913745340E-14
  0.407139599812E-14
  0.399246607996E-14
  0.398119037737E-14
  0.398639454779E-14
  0.393782229047E-14
  0.372618602640E-14
  0.330985239216E-14
  0.329250515740E-14
  0.330638294521E-14
  0.263677968348E-14
  0.262290189568E-14
  0.225514051877E-14
  0.165839564303E-14
  0.138083988688E-14
  0.136696209907E-14
  0.120042864538E-14
  0.936750677027E-15
  0.666133814775E-15
  0.423272528138E-15
  0.402455846427E-15
  0.374700270811E-15
  0.107552855511E-15
 -0.832667268469E-16
 -0.253269627493E-15
 -0.346944695195E-16
 -0.312250225676E-16
 -0.166533453694E-15
 -0.253269627493E-15
 -0.478783679370E-15
 -0.621031004400E-15
 -0.551642065361E-15
 -0.742461647718E-15
 -0.100960906302E-14
 -0.121430643318E-14
 -0.128369537222E-14
 -0.172778458207E-14
 -0.183880688454E-14
 -0.221003770839E-14
 -0.226554885963E-14
 -0.263331023653E-14
 -0.278943534937E-14
 -0.295943825002E-14
 -0.323699400617E-14
 -0.319362591927E-14
 -0.320316689839E-14
 -0.335538888341E-14
 -0.319774588753E-14
 -0.317801340799E-14
 -0.287964097012E-14
 -0.273045475119E-14
 -0.261249355482E-14
 -0.217534323887E-14
 -0.201574867909E-14
 -0.185615411930E-14
 -0.133226762955E-14
 -0.117961196366E-14
 -0.102695629778E-14
 -0.596744875736E-15
 -0.700828284295E-15
  0.832667268469E-16
  0.693889390391E-17
  0.305311331772E-15
  0.562050406216E-15
  0.673072708679E-15
  0.936750677027E-15
  0.161676227961E-14
  0.154043444667E-14
  0.204697370165E-14
  0.205391259556E-14
  0.243555176027E-14
  0.277555756156E-14
  0.295596880306E-14
  0.327515792264E-14
  0.346944695195E-14
  0.357006091356E-14
  0.389965837400E-14
  0.418415302406E-14
  0.426221558048E-14
  0.458660887048E-14
  0.473579508942E-14
  0.482903647625E-14
  0.511396480718E-14
  0.502202446295E-14
  0.498039109953E-14
  0.490579799006E-14
  0.478783679370E-14
  0.456232274182E-14
  0.431599200823E-14
  0.417721413015E-14
  0.378169717763E-14
  0.340005801291E-14
  0.307392999943E-14
  0.268535194081E-14
  0.217881268583E-14
  0.197758476261E-14
  0.179717352111E-14
  0.143635103811E-14
  0.111716191853E-14
  0.784095011142E-15
  0.704297731247E-15
  0.398986399475E-15
  0.249800180541E-15
  0.763278329430E-16
 -0.201227923213E-15
 -0.107552855511E-15
 -0.277555756156E-16
 -0.555111512313E-16
 -0.451028103754E-15
 -0.568989300120E-15
 -0.839606162373E-15
 -0.100960906302E-14
 -0.131838984174E-14
 -0.167227343084E-14
 -0.222391549620E-14
 -0.267841304691E-14
 -0.316413562018E-14
 -0.364985819346E-14
 -0.422925583443E-14
 -0.461089499915E-14
 -0.511396480718E-14
 -0.555458457008E-14
 -0.573152636463E-14
 -0.596744875736E-14
 -0.628663787694E-14
 -0.634735319860E-14
 -0.635689417772E-14
 -0.612010442325E-14
 -0.595877513998E-14
 -0.577662917500E-14
 -0.537243860510E-14
 -0.508794395504E-14
 -0.451721993144E-14
 -0.414945855454E-14
 -0.364985819346E-14
 -0.312944115066E-14
 -0.289351875793E-14
 -0.222738494315E-14
 -0.204003480775E-14
 -0.155431223448E-14
 -0.138777878078E-14
 -0.950628464835E-15
 -0.610622663544E-15
  0.971445146547E-16
  0.194289029309E-15
  0.589805981832E-15
  0.117961196366E-14
  0.165839564303E-14
  0.192901250529E-14
  0.231065167000E-14
  0.266453525910E-14
  0.286576318231E-14
  0.351108031538E-14
  0.360128593613E-14
  0.406619182769E-14
  0.429517532652E-14
  0.474620343027E-14
  0.518335374622E-14
  0.556846235789E-14
  0.594663207565E-14
  0.646357967149E-14
  0.678103406759E-14
  0.702042590728E-14
  0.741681022154E-14
  0.751655682141E-14
  0.756859852569E-14
  0.754084295007E-14
  0.735869698509E-14
  0.710195791065E-14
  0.701175228990E-14
  0.638031294464E-14
  0.591193760613E-14
  0.537417332858E-14
  0.485028683883E-14
  0.408700850940E-14
  0.392047505571E-14
  0.312250225676E-14
  0.268535194081E-14
  0.221350715535E-14
  0.147104550763E-14
  0.144328993201E-14
  0.108940634291E-14
  0.659194920871E-15
  0.607153216592E-15
  0.267147415300E-15
  0.249800180541E-15
 -0.325434124093E-14
 -0.589805981832E-16
 -0.270616862252E-15
 -0.581826253843E-14
 -0.826769208651E-14
 -0.104395658784E-13
 -0.123547005959E-13
 -0.139888101103E-13
 -0.154147528075E-13
 -0.167713065657E-13
 -0.177496906062E-13
 -0.184990911478E-13
 -0.190090998498E-13
 -0.195052307639E-13
 -0.198834004816E-13
 -0.199389116329E-13
 -0.198938088225E-13
 -0.196752336645E-13
 -0.194323723779E-13
 -0.189050164412E-13
 -0.182371479029E-13
 -0.174296341249E-13
 -0.166494422416E-13
 -0.157762258118E-13
 -0.149168871699E-13
 -0.139506461938E-13
 -0.128265453814E-13
 -0.119140808330E-13
 -0.109426356865E-13
 -0.957567358739E-14
 -0.862157567560E-14
 -0.770911112724E-14
 -0.662664367823E-14
 -0.614092110496E-14
 -0.481559236931E-14
 -0.419109191796E-14
 -0.346250805805E-14
 -0.260208521397E-14
 -0.174166236988E-14
 -0.929811783124E-15
  0.152655665886E-15
  0.117267306976E-14
  0.184574577844E-14
  0.260902410787E-14
  0.313638004457E-14
  0.417027523625E-14
  0.466987559733E-14
  0.528049826087E-14
  0.623112672571E-14
  0.709154956979E-14
  0.797278909559E-14
  0.874647576588E-14
  0.979077929841E-14
  0.106789577181E-13
  0.116903015046E-13
  0.125333771139E-13
  0.135820174552E-13
  0.144279119901E-13
  0.155340150465E-13
  0.163116048446E-13
  0.171182512609E-13
  0.176855058376E-13
  0.180862269605E-13
  0.184782744661E-13
  0.184054160801E-13
  0.182909243307E-13
  0.174131542519E-13
  0.164382396584E-13
  0.140304434737E-13
  0.107934494675E-13
  0.784095011142E-14
  0.584948756099E-14
  0.452415882535E-14
  0.369843045078E-14
  0.315025783237E-14
  0.239044894990E-14
  0.157512891619E-14
  0.125940924356E-14
  0.829197821517E-15
  0.392047505571E-15
  0.135308431126E-15
 -0.200880978518E-12
 -0.496130914129E-15
 -0.388578058619E-15
 -0.221739293593E-12
 -0.209922357275E-12
 -0.192502264129E-12
 -0.174981557022E-12
 -0.157908408571E-12
 -0.141796296926E-12
 -0.127307886455E-12
 -0.113811737812E-12
 -0.102258479462E-12
 -0.919368747798E-13
 -0.828989654700E-13
 -0.313291059761E-14
 -0.303923552991E-14
 -0.313291059761E-14
 -0.323699400617E-14
 -0.324740234703E-14
 -0.324219817660E-14
 -0.312770642719E-14
 -0.302535774210E-14
 -0.299196431519E-14
 -0.275018723073E-14
 -0.257953380878E-14
 -0.237483643861E-14
 -0.231585584043E-14
 -0.196717642176E-14
 -0.175900960464E-14
 -0.148839274239E-14
 -0.129757316003E-14
 -0.119348975147E-14
 -0.112410081243E-14
 -0.881239525796E-15
 -0.575928194024E-15
 -0.228983498829E-15
  0.902056207508E-16
  0.693889390391E-16
  0.520417042793E-15
  0.791033905045E-15
  0.867361737988E-15
  0.102695629778E-14
  0.139471767469E-14
  0.140165656859E-14
  0.180411241502E-14
  0.217187379192E-14
  0.215105711021E-14
  0.255351295664E-14
  0.261596300177E-14
  0.281719092499E-14
  0.294209101526E-14
  0.310515502200E-14
  0.342434414158E-14
  0.355965257270E-14
  0.378169717763E-14
  0.399853761213E-14
  0.424486834572E-14
  0.433702553038E-14
  0.463865057476E-14
  0.481212292236E-14
  0.484855211536E-14
  0.515039400018E-14
  0.517641485231E-14
  0.543315392676E-14
  0.548519563104E-14
  0.545397060847E-14
  0.589459037137E-14
  0.630051566475E-14
  0.745931094670E-14
  0.931199561904E-14
  0.116573417586E-13
  0.131838984174E-13
  0.146757606068E-13
  0.163272173559E-13
  0.181694936874E-13
  0.200603422762E-13
  0.219893547815E-13
  0.243104147923E-13
  0.264614719026E-13
  0.280296619248E-13
  0.271518918460E-13
 -0.173472347598E-15
 -0.728583859910E-16
 -0.239391839685E-15
 -0.138777878078E-15
 -0.249800180541E-15
 -0.319189119580E-15
 -0.444089209850E-15
 -0.405925293379E-15
 -0.589805981832E-15
 -0.666133814775E-15
 -0.718175519054E-15
 -0.954097911787E-15
 -0.922872889220E-15
 -0.109981468377E-14
 -0.127328703137E-14
 -0.139124822773E-14
 -0.157165946923E-14
 -0.162717062047E-14
 -0.175554015769E-14
 -0.181799020282E-14
 -0.183880688454E-14
 -0.182492909673E-14
 -0.186482773668E-14
 -0.176573165811E-14
 -0.163410951437E-14
 -0.155604695795E-14
 -0.134788014083E-14
 -0.128369537222E-14
 -0.117614251671E-14
 -0.839606162373E-15
 -0.662664367823E-15
 -0.742461647718E-15
 -0.541233724505E-15
 -0.423272528138E-15
 -0.263677968348E-15
  0.152655665886E-15
  0.194289029309E-15
  0.444089209850E-15
  0.596744875736E-15
  0.714706072102E-15
  0.659194920871E-15
  0.131145094784E-14
  0.137390099297E-14
  0.173472347598E-14
  0.186656246015E-14
  0.170696790036E-14
  0.199840144433E-14
  0.222044604925E-14
  0.233146835171E-14
  0.261596300177E-14
  0.255698240359E-14
  0.276167977376E-14
  0.292127433354E-14
  0.319189119580E-14
  0.318842174885E-14
  0.328383154002E-14
  0.350240669800E-14
  0.361559740480E-14
  0.359564808483E-14
  0.370276725947E-14
  0.376955411330E-14
  0.384414722276E-14
  0.374006381421E-14
  0.372271657945E-14
  0.373659436725E-14
  0.378863607153E-14
  0.333066907388E-14
  0.361516372394E-14
  0.377822773068E-14
  0.373659436725E-14
  0.369843045078E-14
  0.381639164715E-14
  0.351108031538E-14
  0.307392999943E-14
  0.267494359996E-14
  0.259861576701E-14
  0.218922102668E-14
  0.190472637662E-14
  0.139471767469E-14
  0.967975699595E-15
  0.530825383649E-15
 -0.260208521397E-15
 -0.555111512313E-16
 -0.117961196366E-15
 -0.225514051877E-15
 -0.308780778724E-15
 -0.281025203108E-15
 -0.454497550706E-15
 -0.499600361081E-15
 -0.735522753814E-15
 -0.777156117238E-15
 -0.822258927613E-15
 -0.929811783124E-15
 -0.860422844084E-15
 -0.121430643318E-14
 -0.138083988688E-14
 -0.141900380335E-14
 -0.169309011255E-14
 -0.180064296806E-14
 -0.181452075587E-14
 -0.184227633149E-14
 -0.197758476261E-14
 -0.204176953122E-14
 -0.202051916864E-14
 -0.187350135405E-14
 -0.175033598726E-14
 -0.173645819945E-14
 -0.160461921528E-14
 -0.144328993201E-14
 -0.130451205393E-14
 -0.119695919842E-14
 -0.105471187339E-14
 -0.791033905045E-15
 -0.589805981832E-15
 -0.499600361081E-15
 -0.340005801291E-15
 -0.111022302463E-15
  0.242861286637E-15
  0.180411241502E-15
  0.263677968348E-15
  0.631439345256E-15
  0.811850586757E-15
  0.102695629778E-14
  0.111716191853E-14
  0.155431223448E-14
  0.151267887105E-14
  0.179023462721E-14
  0.223432383706E-14
  0.201227923213E-14
  0.215799600412E-14
  0.240779618466E-14
  0.250147125236E-14
  0.267147415300E-14
  0.288657986403E-14
  0.299066327258E-14
  0.322658566532E-14
  0.329944405131E-14
  0.347465112238E-14
  0.360453854265E-14
  0.369322628035E-14
  0.375741104897E-14
  0.379730968891E-14
  0.377302356025E-14
  0.335842464949E-14
  0.374006381421E-14
  0.343475248243E-14
  0.327168847569E-14
  0.316413562018E-14
  0.309474668114E-14
  0.249106291150E-14
  0.240432673770E-14
  0.217187379192E-14
  0.195676808090E-14
  0.144328993201E-14
  0.133920652345E-14
  0.134267597041E-14
  0.964506252643E-15
  0.752869988574E-15
  0.336536354340E-15
  0.239391839685E-15
  0.121430643318E-15
 -0.104083408559E-16
 -0.232452945781E-15
 -0.693889390391E-16
 -0.971445146547E-16
 -0.315719672628E-15
 -0.246330733589E-15
 -0.461436444610E-15
 -0.631439345256E-15
 -0.648786580015E-15
 -0.811850586757E-15
 -0.843075609325E-15
 -0.118655085757E-14
 -0.145022882592E-14
 -0.156819002228E-14
 -0.189431803577E-14
 -0.211289319374E-14
 -0.224126273096E-14
 -0.254310461578E-14
 -0.278943534937E-14
 -0.289698820488E-14
 -0.304097025339E-14
 -0.307046055248E-14
 -0.321097315403E-14
 -0.299326535780E-14
 -0.306503954162E-14
 -0.290739654574E-14
 -0.268188249386E-14
 -0.237657116209E-14
 -0.216840434497E-14
 -0.204003480775E-14
 -0.182492909673E-14
 -0.171737624122E-14
 -0.137390099297E-14
 -0.126287869051E-14
 -0.915933995316E-15
 -0.714706072102E-15
 -0.499600361081E-15
 -0.277555756156E-15
  0.270616862252E-15
  0.270616862252E-15
  0.298372437868E-15
  0.700828284295E-15
  0.104777297949E-14
  0.126287869051E-14
  0.137390099297E-14
  0.149880108324E-14
  0.187350135405E-14
  0.203309591384E-14
  0.220656826144E-14
  0.241473507856E-14
  0.264371857739E-14
  0.273045475119E-14
  0.299066327258E-14
  0.317107451409E-14
  0.328556626350E-14
  0.349720252757E-14
  0.375047215506E-14
  0.384414722276E-14
  0.397663672824E-14
  0.409871789286E-14
  0.401935429384E-14
  0.418415302406E-14
  0.429864477347E-14
  0.412170297892E-14
  0.398292510084E-14
  0.383026943496E-14
  0.347638584586E-14
  0.343475248243E-14
  0.290739654574E-14
  0.286923262927E-14
  0.248065457065E-14
  0.224820162487E-14
  0.194982918700E-14
  0.151961776496E-14
  0.138083988688E-14
  0.107899800206E-14
  0.829197821517E-15
  0.624500451352E-15
  0.395516952523E-15
  0.163064006742E-15
  0.936750677027E-16
 -0.138777878078E-16
 -0.270616862252E-15
 -0.319189119580E-15
 -0.180411241502E-15
 -0.426741975090E-15
 -0.704297731247E-15
 -0.105471187339E-14
 -0.120042864538E-14
 -0.154390389362E-14
 -0.183533743758E-14
 -0.239738784380E-14
 -0.280331313718E-14
 -0.343128303548E-14
 -0.374006381421E-14
 -0.448252546192E-14
 -0.475314232418E-14
 -0.541233724505E-14
 -0.572111802377E-14
 -0.608540995373E-14
 -0.627622953608E-14
 -0.647919218277E-14
 -0.651909082272E-14
 -0.637337405074E-14
 -0.624673923699E-14
 -0.611012976326E-14
 -0.578009862195E-14
 -0.546090950237E-14
 -0.503763697424E-14
 -0.439925873508E-14
 -0.422578638748E-14
 -0.359434704222E-14
 -0.307392999943E-14
 -0.286576318231E-14
 -0.242861286637E-14
 -0.205391259556E-14
 -0.162370117351E-14
 -0.134614541736E-14
 -0.120736753928E-14
 -0.659194920871E-15
 -0.145716771982E-15
  0.555111512313E-16
  0.194289029309E-15
  0.673072708679E-15
  0.109634523682E-14
  0.150573997715E-14
  0.161676227961E-14
  0.190125692967E-14
  0.214411821631E-14
  0.249106291150E-14
  0.279637424327E-14
  0.316413562018E-14
  0.323005511227E-14
  0.374700270811E-14
  0.388231113924E-14
  0.423966417529E-14
  0.438711567075E-14
  0.453803661316E-14
  0.480778611367E-14
  0.499014891908E-14
  0.509705125329E-14
  0.509835229590E-14
  0.516080234103E-14
  0.508273978461E-14
  0.494396190653E-14
  0.509661757242E-14
  0.486763407359E-14
  0.464905891562E-14
  0.443048375764E-14
  0.437150315946E-14
  0.371230823859E-14
  0.364291929955E-14
  0.326821902874E-14
  0.278249645547E-14
  0.222044604925E-14
  0.179023462721E-14
  0.163410951437E-14
  0.130104260698E-14
  0.725114412958E-15
  0.607153216592E-15
  0.326128013484E-15
  0.211636264069E-15
  0.346944695195E-17
 -0.466987559733E-14
 -0.319189119580E-15
 -0.315719672628E-15
 -0.772992780895E-14
 -0.107448772102E-13
 -0.133573707650E-13
 -0.158172086540E-13
 -0.178849990373E-13
 -0.199180949512E-13
 -0.213683237771E-13
 -0.228671248603E-13
 -0.238975506051E-13
 -0.244908260338E-13
 -0.249765486071E-13
 -0.248481790699E-13
 -0.247579734491E-13
 -0.245047038216E-13
 -0.238732644764E-13
 -0.231342722756E-13
 -0.221263979361E-13
 -0.213926099057E-13
 -0.202407535177E-13
 -0.192016541556E-13
 -0.178470519613E-13
 -0.166932440093E-13
 -0.155760820908E-13
 -0.141605477344E-13
 -0.128716481917E-13
 -0.118793863635E-13
 -0.106338549077E-13
 -0.965200142033E-14
 -0.843769498715E-14
 -0.754951656745E-14
 -0.655031584529E-14
 -0.546784839628E-14
 -0.455191440096E-14
 -0.385108611667E-14
 -0.294209101526E-14
 -0.242167397246E-14
 -0.146410661372E-14
 -0.832667268469E-15
  0.319189119580E-15
  0.936750677027E-15
  0.203309591384E-14
  0.270616862252E-14
  0.318495230189E-14
  0.379557496544E-14
  0.453109771925E-14
  0.512090370108E-14
  0.547478729018E-14
  0.649827414101E-14
  0.690766888134E-14
  0.724073578873E-14
  0.759114993087E-14
  0.772645836200E-14
  0.771084585072E-14
  0.763625274125E-14