# vtk DataFile Version 3.0
MachLine results file. Generated by MachLine, USU AeroLab (c) 2022.
ASCII
DATASET POLYDATA
POINTS                  57 float
  0.100000000000E+01  0.000000000000E+00  0.000000000000E+00
  0.184311926606E+02  0.000000000000E+00  0.522935779817E+01
  0.100000000000E+01  0.503720627990E+00  0.000000000000E+00
  0.184311926606E+02  0.503720627990E+00  0.522935779817E+01
  0.100000000000E+01  0.110747748820E+01  0.000000000000E+00
  0.184311926606E+02  0.110747748820E+01  0.522935779817E+01
  0.100000000000E+01  0.175813428970E+01  0.000000000000E+00
  0.184311926606E+02  0.175813428970E+01  0.522935779817E+01
  0.100000000000E+01  0.238369488720E+01  0.000000000000E+00
  0.184311926606E+02  0.238369488720E+01  0.522935779817E+01
  0.100000000000E+01  0.292249171970E+01  0.000000000000E+00
  0.184311926606E+02  0.292249171970E+01  0.522935779817E+01
  0.100000000000E+01  0.334432208550E+01  0.000000000000E+00
  0.184311926606E+02  0.334432208550E+01  0.522935779817E+01
  0.100000000000E+01  0.365057098370E+01  0.000000000000E+00
  0.184311926606E+02  0.365057098370E+01  0.522935779817E+01
  0.100000000000E+01  0.386093553560E+01  0.000000000000E+00
  0.184311926606E+02  0.386093553560E+01  0.522935779817E+01
  0.100000000000E+01  0.400000000000E+01  0.000000000000E+00
  0.184311926606E+02  0.400000000000E+01  0.522935779817E+01
  0.971559633028E+01  0.251860313995E+00  0.261467889908E+01
  0.971559633028E+01  0.503720627990E+00  0.261467889908E+01
  0.184311926606E+02  0.251860313995E+00  0.522935779817E+01
  0.971559633028E+01  0.000000000000E+00  0.261467889908E+01
  0.100000000000E+01  0.251860313995E+00  0.000000000000E+00
  0.971559633028E+01  0.805599058095E+00  0.261467889908E+01
  0.971559633028E+01  0.110747748820E+01  0.261467889908E+01
  0.184311926606E+02  0.805599058095E+00  0.522935779817E+01
  0.100000000000E+01  0.805599058095E+00  0.000000000000E+00
  0.971559633028E+01  0.143280588895E+01  0.261467889908E+01
  0.971559633028E+01  0.175813428970E+01  0.261467889908E+01
  0.184311926606E+02  0.143280588895E+01  0.522935779817E+01
  0.100000000000E+01  0.143280588895E+01  0.000000000000E+00
  0.971559633028E+01  0.207091458845E+01  0.261467889908E+01
  0.971559633028E+01  0.238369488720E+01  0.261467889908E+01
  0.184311926606E+02  0.207091458845E+01  0.522935779817E+01
  0.100000000000E+01  0.207091458845E+01  0.000000000000E+00
  0.971559633028E+01  0.265309330345E+01  0.261467889908E+01
  0.971559633028E+01  0.292249171970E+01  0.261467889908E+01
  0.184311926606E+02  0.265309330345E+01  0.522935779817E+01
  0.100000000000E+01  0.265309330345E+01  0.000000000000E+00
  0.971559633028E+01  0.313340690260E+01  0.261467889908E+01
  0.971559633028E+01  0.334432208550E+01  0.261467889908E+01
  0.184311926606E+02  0.313340690260E+01  0.522935779817E+01
  0.100000000000E+01  0.313340690260E+01  0.000000000000E+00
  0.971559633028E+01  0.349744653460E+01  0.261467889908E+01
  0.971559633028E+01  0.365057098370E+01  0.261467889908E+01
  0.184311926606E+02  0.349744653460E+01  0.522935779817E+01
  0.100000000000E+01  0.349744653460E+01  0.000000000000E+00
  0.971559633028E+01  0.375575325965E+01  0.261467889908E+01
  0.971559633028E+01  0.386093553560E+01  0.261467889908E+01
  0.184311926606E+02  0.375575325965E+01  0.522935779817E+01
  0.100000000000E+01  0.375575325965E+01  0.000000000000E+00
  0.971559633028E+01  0.393046776780E+01  0.261467889908E+01
  0.971559633028E+01  0.400000000000E+01  0.261467889908E+01
  0.184311926606E+02  0.393046776780E+01  0.522935779817E+01
  0.100000000000E+01  0.393046776780E+01  0.000000000000E+00
POLYGONS                  72                 288
3                  21                  22                  20
3                  21                   3                  22
3                  22                   1                  20
3                  20                   2                  21
3                  20                  23                  24
3                  20                   1                  23
3                  23                   0                  24
3                  24                   2                  20
3                  26                  27                  25
3                  26                   5                  27
3                  27                   3                  25
3                  25                   4                  26
3                  25                  21                  28
3                  25                   3                  21
3                  21                   2                  28
3                  28                   4                  25
3                  30                  31                  29
3                  30                   7                  31
3                  31                   5                  29
3                  29                   6                  30
3                  29                  26                  32
3                  29                   5                  26
3                  26                   4                  32
3                  32                   6                  29
3                  34                  35                  33
3                  34                   9                  35
3                  35                   7                  33
3                  33                   8                  34
3                  33                  30                  36
3                  33                   7                  30
3                  30                   6                  36
3                  36                   8                  33
3                  38                  39                  37
3                  38                  11                  39
3                  39                   9                  37
3                  37                  10                  38
3                  37                  34                  40
3                  37                   9                  34
3                  34                   8                  40
3                  40                  10                  37
3                  42                  43                  41
3                  42                  13                  43
3                  43                  11                  41
3                  41                  12                  42
3                  41                  38                  44
3                  41                  11                  38
3                  38                  10                  44
3                  44                  12                  41
3                  46                  47                  45
3                  46                  15                  47
3                  47                  13                  45
3                  45                  14                  46
3                  45                  42                  48
3                  45                  13                  42
3                  42                  12                  48
3                  48                  14                  45
3                  50                  51                  49
3                  50                  17                  51
3                  51                  15                  49
3                  49                  16                  50
3                  49                  46                  52
3                  49                  15                  46
3                  46                  14                  52
3                  52                  16                  49
3                  54                  55                  53
3                  54                  19                  55
3                  55                  17                  53
3                  53                  18                  54
3                  53                  50                  56
3                  53                  17                  50
3                  50                  16                  56
3                  56                  18                  53
CELL_DATA                  72
NORMALS normals float
  0.287347885566E+00  0.000000000000E+00 -0.957826285221E+00
  0.287347885566E+00  0.000000000000E+00 -0.957826285221E+00
  0.287347885566E+00  0.000000000000E+00 -0.957826285221E+00
  0.287347885566E+00  0.000000000000E+00 -0.957826285221E+00
  0.287347885566E+00  0.000000000000E+00 -0.957826285221E+00
  0.287347885566E+00  0.000000000000E+00 -0.957826285221E+00
  0.287347885566E+00  0.000000000000E+00 -0.957826285221E+00
  0.287347885566E+00  0.000000000000E+00 -0.957826285221E+00
  0.287347885566E+00  0.000000000000E+00 -0.957826285221E+00
  0.287347885566E+00  0.000000000000E+00 -0.957826285221E+00
  0.287347885566E+00  0.000000000000E+00 -0.957826285221E+00
  0.287347885566E+00  0.000000000000E+00 -0.957826285221E+00
  0.287347885566E+00  0.000000000000E+00 -0.957826285221E+00
  0.287347885566E+00  0.000000000000E+00 -0.957826285221E+00
  0.287347885566E+00  0.000000000000E+00 -0.957826285221E+00
  0.287347885566E+00  0.000000000000E+00 -0.957826285221E+00
  0.287347885566E+00  0.000000000000E+00 -0.957826285221E+00
  0.287347885566E+00  0.000000000000E+00 -0.957826285221E+00
  0.287347885566E+00  0.000000000000E+00 -0.957826285221E+00
  0.287347885566E+00  0.000000000000E+00 -0.957826285221E+00
  0.287347885566E+00  0.000000000000E+00 -0.957826285221E+00
  0.287347885566E+00  0.000000000000E+00 -0.957826285221E+00
  0.287347885566E+00  0.000000000000E+00 -0.957826285221E+00
  0.287347885566E+00  0.000000000000E+00 -0.957826285221E+00
  0.287347885566E+00  0.000000000000E+00 -0.957826285221E+00
  0.287347885566E+00  0.000000000000E+00 -0.957826285221E+00
  0.287347885566E+00  0.000000000000E+00 -0.957826285221E+00
  0.287347885566E+00  0.000000000000E+00 -0.957826285221E+00
  0.287347885566E+00  0.000000000000E+00 -0.957826285221E+00
  0.287347885566E+00  0.000000000000E+00 -0.957826285221E+00
  0.287347885566E+00  0.000000000000E+00 -0.957826285221E+00
  0.287347885566E+00  0.000000000000E+00 -0.957826285221E+00
  0.287347885566E+00  0.000000000000E+00 -0.957826285221E+00
  0.287347885566E+00  0.000000000000E+00 -0.957826285221E+00
  0.287347885566E+00  0.000000000000E+00 -0.957826285221E+00
  0.287347885566E+00  0.000000000000E+00 -0.957826285221E+00
  0.287347885566E+00  0.000000000000E+00 -0.957826285221E+00
  0.287347885566E+00  0.000000000000E+00 -0.957826285221E+00
  0.287347885566E+00  0.000000000000E+00 -0.957826285221E+00
  0.287347885566E+00  0.000000000000E+00 -0.957826285221E+00
  0.287347885566E+00  0.000000000000E+00 -0.957826285221E+00
  0.287347885566E+00  0.000000000000E+00 -0.957826285221E+00
  0.287347885566E+00  0.000000000000E+00 -0.957826285221E+00
  0.287347885566E+00  0.000000000000E+00 -0.957826285221E+00
  0.287347885566E+00  0.000000000000E+00 -0.957826285221E+00
  0.287347885566E+00  0.000000000000E+00 -0.957826285221E+00
  0.287347885566E+00  0.000000000000E+00 -0.957826285221E+00
  0.287347885566E+00  0.000000000000E+00 -0.957826285221E+00
  0.287347885566E+00  0.000000000000E+00 -0.957826285221E+00
  0.287347885566E+00  0.000000000000E+00 -0.957826285221E+00
  0.287347885566E+00  0.000000000000E+00 -0.957826285221E+00
  0.287347885566E+00  0.000000000000E+00 -0.957826285221E+00
  0.287347885566E+00  0.000000000000E+00 -0.957826285221E+00
  0.287347885566E+00  0.000000000000E+00 -0.957826285221E+00
  0.287347885566E+00  0.000000000000E+00 -0.957826285221E+00
  0.287347885566E+00  0.000000000000E+00 -0.957826285221E+00
  0.287347885566E+00  0.000000000000E+00 -0.957826285221E+00
  0.287347885566E+00  0.000000000000E+00 -0.957826285221E+00
  0.287347885566E+00  0.000000000000E+00 -0.957826285221E+00
  0.287347885566E+00  0.000000000000E+00 -0.957826285221E+00
  0.287347885566E+00  0.000000000000E+00 -0.957826285221E+00
  0.287347885566E+00  0.000000000000E+00 -0.957826285221E+00
  0.287347885566E+00  0.000000000000E+00 -0.957826285221E+00
  0.287347885566E+00  0.000000000000E+00 -0.957826285221E+00
  0.287347885566E+00  0.000000000000E+00 -0.957826285221E+00
  0.287347885566E+00  0.000000000000E+00 -0.957826285221E+00
  0.287347885566E+00  0.000000000000E+00 -0.957826285221E+00
  0.287347885566E+00  0.000000000000E+00 -0.957826285221E+00
  0.287347885566E+00  0.000000000000E+00 -0.957826285221E+00
  0.287347885566E+00  0.000000000000E+00 -0.957826285221E+00
  0.287347885566E+00  0.000000000000E+00 -0.957826285221E+00
  0.287347885566E+00  0.000000000000E+00 -0.957826285221E+00
POINT_DATA                  57
SCALARS mu float 1
LOOKUP_TABLE default
 -0.327515594989E-02
 -0.327515594989E-02
 -0.312541779027E-02
 -0.312541779027E-02
 -0.397729409464E-02
 -0.397729409464E-02
 -0.590780178390E-02
 -0.590780178390E-02
 -0.952552712680E-02
 -0.952552712680E-02
 -0.138126183460E-01
 -0.138126183460E-01
 -0.159434427819E-01
 -0.159434427819E-01
 -0.139077270498E-01
 -0.139077270498E-01
 -0.859650922810E-02
 -0.859650922810E-02
  0.000000000000E+00
  0.000000000000E+00
  0.189607876457E-03
 -0.312541779027E-02
  0.189607876457E-03
 -0.327515594989E-02
  0.189607876457E-03
  0.235055690411E-03
 -0.397729409464E-02
  0.235055690411E-03
  0.235055690411E-03
  0.324460602646E-03
 -0.590780178390E-02
  0.324460602646E-03
  0.324460602646E-03
  0.497971847033E-03
 -0.952552712680E-02
  0.497971847033E-03
  0.497971847033E-03
  0.730984177694E-03
 -0.138126183460E-01
  0.730984177694E-03
  0.730984177694E-03
  0.888459720482E-03
 -0.159434427819E-01
  0.888459720482E-03
  0.888459720482E-03
  0.832838127944E-03
 -0.139077270498E-01
  0.832838127944E-03
  0.832838127944E-03
  0.576656024499E-03
 -0.859650922810E-02
  0.576656024499E-03
  0.576656024499E-03
  0.231479733626E-03
  0.000000000000E+00
  0.231479733626E-03
  0.231479733626E-03
