# vtk DataFile Version 3.0
MachLine results file. Generated by MachLine, USU AeroLab (c) 2022.
ASCII
DATASET POLYDATA
POINTS                1191 float
  0.999730831720E+00  0.000000000000E+00 -0.153585998915E-04
  0.982792700503E+00  0.251860313995E+00 -0.183687191221E-02
  0.982791649681E+00  0.000000000000E+00 -0.182772413126E-02
  0.982772756722E+00  0.251860313995E+00  0.166325429689E-02
  0.965572242234E+00  0.503720627990E+00 -0.354967086269E-02
  0.982761120857E+00  0.503720627990E+00 -0.156196000168E-02
  0.935488292132E+00  0.805599058095E+00 -0.664201849063E-02
  0.965541753257E+00  0.805599058095E+00 -0.327778111647E-02
  0.999394129687E+00  0.503720627990E+00 -0.345706400978E-04
  0.999724433292E+00  0.251860313995E+00 -0.157236908534E-04
  0.982714971438E+00  0.805599058095E+00 -0.116021311126E-02
  0.982751479143E+00  0.503720627990E+00  0.147802550270E-02
  0.982684386621E+00  0.805599058095E+00  0.893961536666E-03
  0.999724433292E+00  0.251860313995E+00  0.157236908534E-04
  0.965572708972E+00  0.000000000000E+00 -0.355059071196E-02
  0.935535519488E+00  0.251860313995E+00 -0.707369561884E-02
  0.965614917343E+00  0.251860313995E+00 -0.393023214070E-02
  0.935507970513E+00  0.000000000000E+00 -0.682188684948E-02
  0.905458500004E+00  0.503720627990E+00 -0.102275705056E-01
  0.935536432413E+00  0.503720627990E+00 -0.708204012404E-02
  0.905442982743E+00  0.805599058095E+00 -0.100799272913E-01
  0.856635592581E+00  0.805599058095E+00 -0.150483366291E-01
  0.905422419857E+00  0.000000000000E+00 -0.987537430442E-02
  0.856629487800E+00  0.251860313995E+00 -0.149877726911E-01
  0.905460008287E+00  0.251860313995E+00 -0.102419214741E-01
  0.856602400394E+00  0.000000000000E+00 -0.147190456039E-01
  0.807835383554E+00  0.503720627990E+00 -0.200889691738E-01
  0.856652639632E+00  0.503720627990E+00 -0.152174559755E-01
  0.807835599680E+00  0.805599058095E+00 -0.200912619270E-01
  0.737392256645E+00  0.805599058095E+00 -0.263072411640E-01
  0.807806108072E+00  0.000000000000E+00 -0.197644546207E-01
  0.807802672917E+00  0.251860313995E+00 -0.197419612780E-01
  0.737367176725E+00  0.251860313995E+00 -0.260213931964E-01
  0.737355723313E+00  0.000000000000E+00 -0.258908531249E-01
  0.666928976554E+00  0.503720627990E+00 -0.322613698943E-01
  0.737383454880E+00  0.503720627990E+00 -0.262069231996E-01
  0.580783702105E+00  0.805599058095E+00 -0.377811072878E-01
  0.666938846589E+00  0.805599058095E+00 -0.323888733887E-01
  0.666905951616E+00  0.000000000000E+00 -0.319282778272E-01
  0.666933322646E+00  0.251860313995E+00 -0.323175137588E-01
  0.580791877641E+00  0.251860313995E+00 -0.379029527653E-01
  0.580790769915E+00  0.000000000000E+00 -0.378864435822E-01
  0.494670608233E+00  0.503720627990E+00 -0.437015629976E-01
  0.580798549603E+00  0.503720627990E+00 -0.380023894715E-01
  0.494664428558E+00  0.805599058095E+00 -0.435776124643E-01
  0.494655135853E+00  0.000000000000E+00 -0.433912214555E-01
  0.494664564578E+00  0.251860313995E+00 -0.435803407182E-01
  0.408392469717E+00  0.000000000000E+00 -0.461402826984E-01
  0.322134923170E+00  0.000000000000E+00 -0.490035477905E-01
  0.408395299618E+00  0.251860313995E+00 -0.462269727668E-01
  0.322143703911E+00  0.251860313995E+00 -0.490732456109E-01
  0.251481777358E+00  0.000000000000E+00 -0.473478005738E-01
  0.322144505901E+00  0.503720627990E+00 -0.492296087803E-01
  0.408400742682E+00  0.503720627990E+00 -0.463937134304E-01
  0.322143948070E+00  0.805599058095E+00 -0.491208490497E-01
  0.408394879315E+00  0.805599058095E+00 -0.462140973609E-01
  0.180820810288E+00  0.000000000000E+00 -0.457645270935E-01
  0.251478134073E+00  0.251860313995E+00 -0.475106065077E-01
  0.180826546600E+00  0.251860313995E+00 -0.458904065649E-01
  0.132100717218E+00  0.000000000000E+00 -0.406723962182E-01
  0.180823474489E+00  0.503720627990E+00 -0.459384784030E-01
  0.251478290700E+00  0.503720627990E+00 -0.475036074048E-01
  0.251477853929E+00  0.805599058095E+00 -0.475231251966E-01
  0.180833313249E+00  0.805599058095E+00 -0.457845232484E-01
  0.833833730588E-01  0.000000000000E+00 -0.354748738949E-01
  0.132096824587E+00  0.251860313995E+00 -0.407092387415E-01
  0.834038550834E-01  0.251860313995E+00 -0.354931755579E-01
  0.542174906828E-01  0.000000000000E+00 -0.280451671154E-01
  0.833821392358E-01  0.503720627990E+00 -0.356152649119E-01
  0.132105669362E+00  0.503720627990E+00 -0.406255257503E-01
  0.834270986899E-01  0.805599058095E+00 -0.353624969424E-01
  0.132117127707E+00  0.805599058095E+00 -0.405170761437E-01
  0.251266131268E-01  0.000000000000E+00 -0.206603000852E-01
  0.251580474397E-01  0.251860313995E+00 -0.207960987959E-01
  0.541999750286E-01  0.251860313995E+00 -0.281146943478E-01
  0.131500630790E-01  0.000000000000E+00 -0.993079005316E-02
  0.250897536183E-01  0.503720627990E+00 -0.209260010302E-01
  0.542123546432E-01  0.503720627990E+00 -0.280655542851E-01
  0.541967649966E-01  0.805599058095E+00 -0.281274363578E-01
  0.250998344974E-01  0.805599058095E+00 -0.209068261079E-01
  0.112950256057E-02  0.000000000000E+00  0.000000000000E+00
  0.114488738857E-02  0.251860313995E+00  0.000000000000E+00
  0.130700335350E-01  0.251860313995E+00 -0.100218065559E-01
  0.130596781873E-01  0.251860313995E+00  0.100335835508E-01
  0.130978665626E-01  0.000000000000E+00  0.999015243535E-02
  0.804010887942E-03  0.503720627990E+00  0.000000000000E+00
  0.130017831979E-01  0.503720627990E+00 -0.100994267281E-01
  0.128950872318E-01  0.805599058095E+00 -0.102207705869E-01
  0.824662689975E-03  0.805599058095E+00  0.000000000000E+00
  0.129535727457E-01  0.805599058095E+00  0.101542558142E-01
  0.250627570681E-01  0.503720627990E+00  0.209773513883E-01
  0.130391104600E-01  0.503720627990E+00  0.100569749449E-01
  0.541702848817E-01  0.805599058095E+00  0.282325474245E-01
  0.252022189533E-01  0.805599058095E+00  0.207120798001E-01
  0.250993824068E-01  0.000000000000E+00  0.207240657889E-01
  0.251294233892E-01  0.251860313995E+00  0.208505448358E-01
  0.541799668519E-01  0.251860313995E+00  0.281941154835E-01
  0.541786268948E-01  0.000000000000E+00  0.281994343545E-01
  0.833622778450E-01  0.503720627990E+00  0.357269282654E-01
  0.542098799418E-01  0.503720627990E+00  0.280753774488E-01
  0.833667520091E-01  0.805599058095E+00  0.357017739262E-01
  0.132081381202E+00  0.805599058095E+00  0.408554054868E-01
  0.833786639853E-01  0.000000000000E+00  0.355055326908E-01
  0.833909923501E-01  0.251860313995E+00  0.355654915379E-01
  0.132088415185E+00  0.251860313995E+00  0.407888310659E-01
  0.132095238445E+00  0.000000000000E+00  0.407242510731E-01
  0.180813010641E+00  0.503720627990E+00  0.461022148309E-01
  0.132088449379E+00  0.503720627990E+00  0.407885074243E-01
  0.180809273824E+00  0.805599058095E+00  0.461606878719E-01
  0.251468894560E+00  0.805599058095E+00  0.479234888093E-01
  0.180819061228E+00  0.000000000000E+00  0.457994807564E-01
  0.180820299078E+00  0.251860313995E+00  0.459881666692E-01
  0.251477370570E+00  0.251860313995E+00  0.475447248772E-01
  0.251480904164E+00  0.000000000000E+00  0.473868206013E-01
  0.322145332193E+00  0.503720627990E+00  0.493907099276E-01
  0.251474303553E+00  0.503720627990E+00  0.476817793961E-01
  0.322146391302E+00  0.805599058095E+00  0.495972032870E-01
  0.408415023407E+00  0.805599058095E+00  0.468311834769E-01
  0.322136923159E+00  0.000000000000E+00  0.491434092965E-01
  0.322144005738E+00  0.251860313995E+00  0.491320926584E-01
  0.408403790191E+00  0.251860313995E+00  0.464870695932E-01
  0.408399752601E+00  0.000000000000E+00  0.463633836823E-01
  0.494677195854E+00  0.503720627990E+00  0.438336960505E-01
  0.408403318111E+00  0.503720627990E+00  0.464726080873E-01
  0.494672729830E+00  0.805599058095E+00  0.437441175329E-01
  0.494670088136E+00  0.000000000000E+00  0.436911310104E-01
  0.494680004170E+00  0.251860313995E+00  0.438900246165E-01
  0.580808756111E+00  0.000000000000E+00  0.381545038891E-01
  0.666942846142E+00  0.000000000000E+00  0.324270503032E-01
  0.580813692275E+00  0.251860313995E+00  0.382280708459E-01
  0.666950014843E+00  0.251860313995E+00  0.325331475685E-01
  0.737376536129E+00  0.000000000000E+00  0.261280668507E-01
  0.666936138148E+00  0.503720627990E+00  0.323538850941E-01
  0.580792578238E+00  0.503720627990E+00  0.379133942342E-01
  0.666890803246E+00  0.805599058095E+00  0.317682379352E-01
  0.580795207024E+00  0.805599058095E+00  0.379525727830E-01
  0.807818870308E+00  0.000000000000E+00  0.199030411878E-01
  0.737388260994E+00  0.251860313995E+00  0.262617008048E-01
  0.807832883702E+00  0.251860313995E+00  0.200624497209E-01
  0.856599025927E+00  0.000000000000E+00  0.146855683974E-01
  0.807813522031E+00  0.503720627990E+00  0.198570531487E-01
  0.737386624047E+00  0.503720627990E+00  0.262430437286E-01
  0.737351587246E+00  0.805599058095E+00  0.258437123676E-01
  0.807804888145E+00  0.805599058095E+00  0.197654613281E-01
  0.905423494712E+00  0.000000000000E+00  0.988574277863E-02
  0.856626100060E+00  0.251860313995E+00  0.149541638021E-01
  0.905418293665E+00  0.251860313995E+00  0.984501631261E-02
  0.935484607155E+00  0.000000000000E+00  0.660833631181E-02
  0.905432575813E+00  0.503720627990E+00  0.998090771227E-02
  0.856649078851E+00  0.503720627990E+00  0.151821303959E-01
  0.905423581086E+00  0.805599058095E+00  0.989532492822E-02
  0.856619717193E+00  0.805599058095E+00  0.148908410503E-01
  0.965541929049E+00  0.000000000000E+00  0.327385785174E-02
  0.935494528665E+00  0.251860313995E+00  0.669902291937E-02
  0.965574599874E+00  0.251860313995E+00  0.357069544273E-02
  0.982787516301E+00  0.000000000000E+00  0.179174161121E-02
  0.965538990790E+00  0.503720627990E+00  0.325314642874E-02
  0.935507131623E+00  0.503720627990E+00  0.681421905370E-02
  0.935460594648E+00  0.805599058095E+00  0.638885229107E-02
  0.965507358048E+00  0.805599058095E+00  0.297105701354E-02
  0.965501234927E+00  0.110747748820E+01 -0.291645321882E-02
[...]
POINT_DATA                1191
SCALARS phi float 1
LOOKUP_TABLE default
 -0.381639164715E-16
 -0.312250225676E-16
  0.728583859910E-16
  0.277555756156E-16
 -0.485722573274E-16
 -0.381639164715E-16
 -0.208166817117E-16
 -0.555111512313E-16
 -0.659194920871E-16
  0.346944695195E-17
 -0.104083408559E-16
  0.000000000000E+00
 -0.693889390391E-16
 -0.104083408559E-16
 -0.173472347598E-16
  0.138777878078E-16
  0.277555756156E-16
  0.277555756156E-16
  0.104083408559E-16
  0.000000000000E+00
 -0.416333634234E-16
  0.000000000000E+00
 -0.728583859910E-16
  0.312250225676E-16
 -0.346944695195E-17
 -0.555111512313E-16
 -0.520417042793E-16
 -0.242861286637E-16
  0.624500451352E-16
  0.173472347598E-16
 -0.451028103754E-16
 -0.242861286637E-16
  0.346944695195E-16
 -0.138777878078E-16
 -0.312250225676E-16
  0.277555756156E-16
 -0.242861286637E-16
 -0.242861286637E-16
 -0.173472347598E-16
  0.242861286637E-16
  0.381639164715E-16
  0.381639164715E-16
 -0.173472347598E-16
  0.485722573274E-16
  0.520417042793E-17
 -0.121430643318E-16
  0.104083408559E-16
 -0.531259064518E-17
  0.000000000000E+00
 -0.181061762805E-16
 -0.607153216592E-16
 -0.381639164715E-16
  0.173472347598E-16
  0.158293517183E-16
 -0.971445146547E-16
 -0.758941520740E-17
 -0.346944695195E-17
  0.451028103754E-16
  0.416333634234E-16
 -0.832667268469E-16
  0.867361737988E-16
  0.000000000000E+00
 -0.277555756156E-16
 -0.346944695195E-17
  0.693889390391E-17
 -0.763278329430E-16
 -0.138777878078E-16
  0.902056207508E-16
  0.763278329430E-16
 -0.138777878078E-16
 -0.208166817117E-16
  0.208166817117E-16
 -0.693889390391E-16
 -0.152655665886E-15
 -0.902056207508E-16
  0.693889390391E-16
  0.131838984174E-15
  0.138777878078E-16
 -0.902056207508E-16
  0.104083408559E-15
  0.000000000000E+00
 -0.693889390391E-16
 -0.208166817117E-16
  0.693889390391E-17
 -0.763278329430E-16
  0.215105711021E-15
  0.277555756156E-16
 -0.416333634234E-16
  0.277555756156E-16
  0.624500451352E-16
 -0.763278329430E-16
  0.277555756156E-16
  0.346944695195E-16
  0.902056207508E-16
  0.124900090270E-15
 -0.693889390391E-17
 -0.832667268469E-16
 -0.138777878078E-16
  0.152655665886E-15
 -0.693889390391E-17
  0.277555756156E-16
  0.346944695195E-16
 -0.208166817117E-16
  0.277555756156E-16
 -0.346944695195E-16
 -0.693889390391E-16
 -0.693889390391E-17
  0.555111512313E-16
  0.485722573274E-16
 -0.329597460436E-16
  0.277555756156E-16
 -0.693889390391E-17
  0.173472347598E-16
  0.156125112838E-16
 -0.310081821331E-16
  0.260208521397E-16
  0.368628738645E-17
 -0.494396190653E-16
  0.320923843056E-16
  0.477048955894E-17
 -0.277555756156E-16
  0.867361737988E-18
  0.346944695195E-17
 -0.364291929955E-16
 -0.242861286637E-16
  0.433680868994E-16
  0.832667268469E-16
  0.485722573274E-16
  0.971445146547E-16
  0.381639164715E-16
 -0.971445146547E-16
 -0.346944695195E-17
 -0.936750677027E-16
 -0.312250225676E-16
 -0.312250225676E-16
 -0.100613961607E-15
 -0.624500451352E-16
 -0.451028103754E-16
 -0.346944695195E-17
  0.277555756156E-16
 -0.589805981832E-16
 -0.451028103754E-16
 -0.208166817117E-16
  0.346944695195E-16
 -0.693889390391E-16
  0.277555756156E-16
 -0.346944695195E-17
 -0.104083408559E-16
  0.346944695195E-16
  0.138777878078E-16
  0.346944695195E-16
  0.693889390391E-16
 -0.485722573274E-16
  0.589805981832E-16
 -0.277555756156E-16
  0.346944695195E-17
 -0.242861286637E-16
  0.000000000000E+00
 -0.312250225676E-16
 -0.693889390391E-17
  0.485722573274E-16
 -0.142247325030E-15
 -0.312250225676E-16
 -0.312250225676E-16
 -0.138777878078E-16
 -0.346944695195E-17
 -0.312250225676E-16
  0.693889390391E-17
  0.173472347598E-16
 -0.555111512313E-16
  0.728583859910E-16
 -0.589805981832E-16
 -0.277555756156E-16
  0.242861286637E-16
  0.208166817117E-16
  0.346944695195E-17
 -0.277555756156E-16
 -0.138777878078E-16
  0.277555756156E-16
 -0.138777878078E-16
 -0.104083408559E-16
 -0.693889390391E-17
 -0.104083408559E-16
 -0.624500451352E-16
 -0.251534904017E-16
 -0.121430643318E-16
 -0.160461921528E-16
 -0.488975179791E-16
 -0.277555756156E-16
  0.000000000000E+00
 -0.520417042793E-16
  0.693889390391E-17
 -0.381639164715E-16
  0.624500451352E-16
 -0.138777878078E-15
  0.000000000000E+00
 -0.208166817117E-16
 -0.208166817117E-16
  0.832667268469E-16
 -0.277555756156E-16
 -0.111022302463E-15
  0.693889390391E-17
  0.117961196366E-15
 -0.485722573274E-16
 -0.124900090270E-15
 -0.346944695195E-16
  0.277555756156E-16
 -0.277555756156E-16
  0.555111512313E-16
  0.832667268469E-16
 -0.693889390391E-17
 -0.485722573274E-16
  0.346944695195E-16
 -0.381639164715E-16
  0.693889390391E-16
 -0.381639164715E-16
 -0.346944695195E-16
 -0.520417042793E-17
  0.823993651089E-17
 -0.451028103754E-16
  0.127935856353E-16
 -0.277555756156E-16
  0.364291929955E-16
 -0.121430643318E-16
  0.156125112838E-16
  0.624500451352E-16
 -0.138777878078E-16
  0.138777878078E-16
  0.346944695195E-16
 -0.381639164715E-16
  0.416333634234E-16
 -0.693889390391E-17
  0.346944695195E-17
 -0.170002900646E-15
 -0.416333634234E-16
 -0.832667268469E-16
 -0.693889390391E-16
  0.346944695195E-17
 -0.693889390391E-17
 -0.451028103754E-16
  0.520417042793E-16
 -0.138777878078E-16
  0.416333634234E-16
 -0.381639164715E-16
 -0.208166817117E-16
 -0.381639164715E-16
 -0.138777878078E-16
 -0.138777878078E-16
  0.208166817117E-16
 -0.381639164715E-16
  0.277555756156E-16
  0.104083408559E-16
  0.624500451352E-16
 -0.485722573274E-16
  0.000000000000E+00
  0.312250225676E-16
 -0.451028103754E-16
 -0.346944695195E-17
  0.381639164715E-16
  0.971445146547E-16
 -0.693889390391E-17
 -0.173472347598E-16
 -0.693889390391E-17
  0.867361737988E-16
  0.208166817117E-16
 -0.260208521397E-17
  0.988792381307E-16
 -0.253703308362E-16
  0.520417042793E-17
 -0.607153216592E-16
  0.555111512313E-16
  0.867361737988E-16
 -0.624500451352E-16
  0.138777878078E-16
  0.832667268469E-16
 -0.152655665886E-15
  0.277555756156E-16
  0.277555756156E-16
  0.104083408559E-15
 -0.346944695195E-16
  0.117961196366E-15
 -0.416333634234E-16
 -0.555111512313E-16
 -0.277555756156E-16
  0.138777878078E-16
 -0.832667268469E-16
  0.555111512313E-16
 -0.104083408559E-15
  0.416333634234E-16
  0.485722573274E-16
  0.104083408559E-15
  0.138777878078E-16
  0.277555756156E-16
  0.138777878078E-16
 -0.104083408559E-16
  0.312250225676E-16
 -0.485722573274E-16
 -0.520417042793E-17
 -0.138777878078E-16
 -0.429344060304E-16
 -0.312250225676E-16
  0.637510877421E-16
 -0.173472347598E-17
 -0.156125112838E-16
 -0.555111512313E-16
 -0.364291929955E-16
  0.208166817117E-16
 -0.693889390391E-16
 -0.208166817117E-16
  0.242861286637E-16
  0.728583859910E-16
 -0.485722573274E-16
  0.111022302463E-15
  0.416333634234E-16
  0.867361737988E-16
 -0.190819582357E-15
 -0.589805981832E-16
 -0.416333634234E-16
 -0.104083408559E-16
 -0.208166817117E-16
  0.312250225676E-16
 -0.346944695195E-16
 -0.555111512313E-16
  0.277555756156E-16
 -0.346944695195E-16
 -0.832667268469E-16
  0.589805981832E-16
 -0.520417042793E-16
 -0.693889390391E-16
 -0.104083408559E-16
  0.693889390391E-17
 -0.312250225676E-16
 -0.173472347598E-16
 -0.346944695195E-17
 -0.381639164715E-16
 -0.138777878078E-16
 -0.242861286637E-16
  0.104083408559E-16
 -0.416333634234E-16
  0.173472347598E-16
  0.242861286637E-16
  0.242861286637E-16
  0.138777878078E-16
  0.242861286637E-16
  0.251534904017E-16
 -0.104083408559E-16
  0.598479599212E-16
 -0.208166817117E-16
  0.539932681898E-16
  0.572458747072E-16
 -0.106251812904E-16
 -0.346944695195E-16
  0.728583859910E-16
  0.520417042793E-16
  0.381639164715E-16
 -0.346944695195E-16
  0.693889390391E-17
  0.124900090270E-15
  0.763278329430E-16
 -0.145716771982E-15
  0.111022302463E-15
 -0.346944695195E-16
 -0.416333634234E-16
  0.832667268469E-16
 -0.277555756156E-16
  0.693889390391E-16
  0.693889390391E-17
 -0.624500451352E-16
  0.416333634234E-16
  0.111022302463E-15
 -0.208166817117E-16
 -0.693889390391E-17
  0.902056207508E-16
  0.555111512313E-16
 -0.624500451352E-16
 -0.208166817117E-16
  0.693889390391E-17
 -0.104083408559E-16
  0.312250225676E-16
 -0.225514051877E-16
 -0.219008838842E-16
  0.225514051877E-16
  0.429344060304E-16
 -0.381639164715E-16
 -0.225514051877E-16
  0.234187669257E-16
  0.624500451352E-16
 -0.173472347598E-16
 -0.173472347598E-16
  0.242861286637E-16
  0.555111512313E-16
 -0.728583859910E-16
  0.693889390391E-17
 -0.121430643318E-15
  0.104083408559E-16
 -0.242861286637E-16
 -0.346944695195E-16
  0.451028103754E-16
  0.208166817117E-16
 -0.589805981832E-16
  0.173472347598E-16
 -0.416333634234E-16
  0.104083408559E-16
  0.277555756156E-16
  0.936750677027E-16
  0.277555756156E-16
  0.416333634234E-16
 -0.693889390391E-17
  0.659194920871E-16
  0.520417042793E-16
 -0.277555756156E-16
  0.138777878078E-16
 -0.485722573274E-16
  0.000000000000E+00
  0.104083408559E-16
 -0.138777878078E-16
 -0.763278329430E-16
  0.346944695195E-17
 -0.416333634234E-16
 -0.173472347598E-16
 -0.131838984174E-15
 -0.277555756156E-16
 -0.138777878078E-16
 -0.277555756156E-16
  0.156125112838E-16
 -0.381639164715E-16
  0.468375338514E-16
 -0.260208521397E-16
  0.867361737988E-17
 -0.574627151417E-17
  0.563785129692E-16
 -0.451028103754E-16
 -0.242861286637E-16
 -0.659194920871E-16
  0.138777878078E-16
  0.555111512313E-16
  0.624500451352E-16
 -0.555111512313E-16
 -0.277555756156E-16
  0.159594559790E-15
 -0.208166817117E-16
 -0.277555756156E-16
 -0.416333634234E-16
 -0.138777878078E-16
  0.124900090270E-15
  0.111022302463E-15
 -0.277555756156E-16
 -0.138777878078E-16
  0.104083408559E-15
  0.693889390391E-16
 -0.624500451352E-16
 -0.277555756156E-16
 -0.693889390391E-17
 -0.902056207508E-16
 -0.277555756156E-16
  0.242861286637E-16
 -0.208166817117E-16
 -0.589805981832E-16
 -0.312250225676E-16
 -0.346944695195E-16
  0.867361737988E-17
 -0.513911829758E-16
 -0.121430643318E-16
  0.349113099540E-16
 -0.442354486374E-16
  0.225514051877E-16
  0.633174068732E-16
 -0.156125112838E-16
  0.693889390391E-17
  0.242861286637E-16
 -0.589805981832E-16
 -0.242861286637E-16
 -0.381639164715E-16
  0.107552855511E-15
  0.381639164715E-16
  0.381639164715E-16
  0.208166817117E-16
  0.693889390391E-17
 -0.104083408559E-16
  0.589805981832E-16
  0.624500451352E-16
  0.867361737988E-16
  0.138777878078E-16
  0.312250225676E-16
  0.346944695195E-17
  0.381639164715E-16
  0.693889390391E-17
  0.173472347598E-16
 -0.346944695195E-17
 -0.208166817117E-16
  0.000000000000E+00
 -0.104083408559E-16
 -0.208166817117E-16
 -0.763278329430E-16
  0.624500451352E-16
 -0.485722573274E-16
  0.242861286637E-16
  0.624500451352E-16
  0.381639164715E-16
 -0.346944695195E-16
 -0.693889390391E-16
 -0.728583859910E-16
  0.104083408559E-16
 -0.104083408559E-16
  0.520417042793E-17
 -0.104083408559E-16
 -0.130104260698E-16
  0.520417042793E-17
  0.693889390391E-17
  0.503069808033E-16
  0.140946282423E-17
  0.481385764584E-16
 -0.503069808033E-16
 -0.277555756156E-16
 -0.173472347598E-16
  0.485722573274E-16
 -0.693889390391E-17
  0.104083408559E-15
  0.485722573274E-16
 -0.485722573274E-16
 -0.797972798949E-16
 -0.485722573274E-16
 -0.485722573274E-16
  0.000000000000E+00
 -0.902056207508E-16
  0.104083408559E-15
 -0.971445146547E-16
 -0.117961196366E-15
 -0.971445146547E-16
  0.485722573274E-16
 -0.208166817117E-16
 -0.555111512313E-16
  0.555111512313E-16
  0.485722573274E-16
 -0.693889390391E-17
  0.346944695195E-16
 -0.346944695195E-17
  0.104083408559E-16
  0.346944695195E-16
 -0.173472347598E-16
  0.728583859910E-16
  0.867361737988E-17
 -0.197324795392E-16
 -0.173472347598E-17
 -0.238524477947E-16
 -0.581132364452E-16
  0.416333634234E-16
  0.789299181569E-16
  0.711236625150E-16
  0.346944695195E-16
 -0.138777878078E-16
 -0.451028103754E-16
 -0.763278329430E-16
  0.208166817117E-16
  0.000000000000E+00
 -0.208166817117E-16
  0.312250225676E-16
  0.208166817117E-16
 -0.346944695195E-17
  0.797972798949E-16
  0.000000000000E+00
 -0.104083408559E-16
  0.312250225676E-16
 -0.867361737988E-16
 -0.485722573274E-16
 -0.346944695195E-17
 -0.173472347598E-16
 -0.138777878078E-16
  0.346944695195E-17
  0.520417042793E-16
  0.104083408559E-16
 -0.520417042793E-16
 -0.381639164715E-16
 -0.381639164715E-16
 -0.971445146547E-16
 -0.104083408559E-16
  0.346944695195E-16
 -0.208166817117E-16
  0.416333634234E-16
 -0.346944695195E-17
 -0.346944695195E-17
  0.346944695195E-16
  0.208166817117E-16
  0.173472347598E-16
 -0.485722573274E-16
  0.173472347598E-17
  0.693889390391E-17
 -0.268882138776E-16
  0.173472347598E-16
 -0.121430643318E-16
  0.000000000000E+00
  0.291650384399E-16
  0.183230167150E-16
 -0.433680868994E-16
  0.277555756156E-16
  0.381639164715E-16
  0.451028103754E-16
 -0.659194920871E-16
  0.485722573274E-16
 -0.381639164715E-16
 -0.166533453694E-15
  0.104083408559E-16
  0.000000000000E+00
  0.624500451352E-16
  0.208166817117E-16
 -0.832667268469E-16
 -0.346944695195E-16
  0.693889390391E-16
 -0.971445146547E-16
 -0.485722573274E-16
 -0.131838984174E-15
 -0.117961196366E-15
 -0.693889390391E-17
  0.693889390391E-17
  0.555111512313E-16
 -0.589805981832E-16
 -0.693889390391E-17
  0.277555756156E-16
 -0.242861286637E-16
  0.971445146547E-16
  0.208166817117E-16
  0.173472347598E-16
  0.112757025938E-16
  0.123599047663E-16
  0.208166817117E-16
 -0.307913416986E-16
  0.468375338514E-16
  0.346944695195E-17
 -0.199493199737E-16
 -0.433680868994E-16
  0.173472347598E-16
  0.000000000000E+00
  0.135308431126E-15
  0.763278329430E-16
  0.346944695195E-16
  0.000000000000E+00
 -0.104083408559E-16
 -0.416333634234E-16
 -0.242861286637E-16
 -0.381639164715E-16
  0.000000000000E+00
  0.693889390391E-17
  0.138777878078E-16
 -0.173472347598E-16
 -0.242861286637E-16
  0.000000000000E+00
 -0.659194920871E-16
  0.624500451352E-16
 -0.173472347598E-16
 -0.138777878078E-16
  0.451028103754E-16
 -0.104083408559E-15
  0.902056207508E-16
 -0.693889390391E-17
 -0.242861286637E-16
  0.728583859910E-16
  0.242861286637E-16
 -0.346944695195E-17
 -0.312250225676E-16
 -0.555111512313E-16
 -0.104083408559E-16
 -0.346944695195E-17
  0.242861286637E-16
 -0.485722573274E-16
  0.121430643318E-16
  0.346944695195E-17
 -0.138777878078E-16
 -0.520417042793E-17
  0.520417042793E-17
  0.173472347598E-16
 -0.346944695195E-17
 -0.294902990916E-16
 -0.542101086243E-17
  0.304660810468E-16
 -0.164798730218E-16
 -0.728583859910E-16
  0.867361737988E-17
  0.138777878078E-16
  0.693889390391E-17
 -0.104083408559E-15
  0.659194920871E-16
  0.416333634234E-16
 -0.971445146547E-16
  0.138777878078E-16
  0.346944695195E-16
 -0.111022302463E-15
  0.763278329430E-16
 -0.693889390391E-17
 -0.104083408559E-15
  0.138777878078E-16
 -0.763278329430E-16
  0.131838984174E-15
 -0.693889390391E-16
 -0.173472347598E-15
 -0.124900090270E-15
  0.346944695195E-17
  0.277555756156E-16
 -0.693889390391E-17
 -0.277555756156E-16
  0.381639164715E-16
  0.121430643318E-16
 -0.138777878078E-16
  0.346944695195E-17
 -0.867361737988E-18
  0.350874928071E-16
  0.000000000000E+00
  0.780625564190E-17
  0.108691267792E-16
 -0.346944695195E-17
 -0.147451495458E-16
  0.693889390391E-17
  0.485722573274E-16
  0.242861286637E-16
 -0.936750677027E-16
 -0.346944695195E-17
 -0.346944695195E-16
 -0.451028103754E-16
 -0.381639164715E-16
 -0.728583859910E-16
  0.416333634234E-16
 -0.693889390391E-17
 -0.693889390391E-17
 -0.208166817117E-16
  0.693889390391E-17
 -0.693889390391E-17
  0.277555756156E-16
 -0.173472347598E-16
 -0.187350135405E-15
  0.499600361081E-15
  0.763278329430E-16
  0.728583859910E-16
 -0.156125112838E-16
 -0.693889390391E-16
 -0.176941794550E-15
 -0.105471187339E-14
  0.176941794550E-15
 -0.137563571645E-14
 -0.643582409587E-15
  0.570724023596E-15
  0.346944695195E-17
  0.693889390391E-17
 -0.173472347598E-16
 -0.277555756156E-16
  0.242861286637E-16
 -0.173472347598E-16
 -0.138777878078E-16
 -0.346944695195E-17
 -0.225514051877E-16
 -0.364291929955E-16
 -0.693889390391E-17
 -0.277555756156E-16
  0.173472347598E-17
 -0.607153216592E-17
  0.121430643318E-16
 -0.173472347598E-17
 -0.294902990916E-16
  0.650521303491E-18
 -0.780625564190E-17
 -0.346944695195E-17
  0.242861286637E-16
  0.433680868994E-16
  0.190819582357E-16
  0.208166817117E-16
 -0.416333634234E-16
  0.138777878078E-16
  0.277555756156E-16
 -0.104083408559E-16
  0.693889390391E-17
  0.000000000000E+00
  0.208166817117E-16
  0.242861286637E-16
  0.138777878078E-16
  0.346944695195E-17
 -0.832667268469E-16
 -0.763278329430E-16
 -0.346944695195E-17
  0.277555756156E-16
  0.138777878078E-16
  0.485722573274E-16
  0.346944695195E-17
 -0.520417042793E-16
  0.104083408559E-16
  0.000000000000E+00
 -0.346944695195E-17
  0.346944695195E-17
  0.416333634234E-16
 -0.451028103754E-16
  0.000000000000E+00
 -0.190819582357E-16
  0.190819582357E-16
 -0.138777878078E-16
  0.124683249836E-16
  0.190819582357E-16
 -0.113570177568E-16
  0.312250225676E-16
 -0.190819582357E-16
  0.130104260698E-16
  0.520417042793E-17
  0.346944695195E-17
  0.346944695195E-16
 -0.190819582357E-16
 -0.312250225676E-16
 -0.208166817117E-16
 -0.346944695195E-17
 -0.104083408559E-16
 -0.104083408559E-16
  0.277555756156E-16
  0.624500451352E-16
  0.104083408559E-16
 -0.173472347598E-16
 -0.173472347598E-16
  0.138777878078E-16
  0.138777878078E-16
  0.659194920871E-16
 -0.246330733589E-15
 -0.749400541622E-15
 -0.173472347598E-16
  0.763278329430E-16
  0.173472347598E-16
  0.451028103754E-16
 -0.242861286637E-16
 -0.277555756156E-16
 -0.346944695195E-16
  0.485722573274E-16
  0.156125112838E-16
  0.104083408559E-16
 -0.520417042793E-17
 -0.381639164715E-16
  0.000000000000E+00
 -0.260208521397E-16
 -0.867361737988E-18
 -0.104083408559E-16
 -0.173472347598E-16
 -0.346944695195E-17
 -0.379470760370E-18
 -0.783336069621E-17
  0.954097911787E-17
 -0.277555756156E-16
  0.173472347598E-17
 -0.173472347598E-17
  0.485722573274E-16
 -0.208166817117E-16
  0.277555756156E-16
 -0.693889390391E-17
 -0.693889390391E-17
 -0.277555756156E-16
 -0.416333634234E-16
  0.242861286637E-16
  0.346944695195E-17
 -0.242861286637E-16
 -0.346944695195E-17
 -0.208166817117E-16
 -0.104083408559E-16
 -0.346944695195E-17
  0.346944695195E-16
 -0.329597460436E-16
  0.693889390391E-17
  0.693889390391E-17
  0.520417042793E-17
 -0.104083408559E-16
 -0.260208521397E-17
 -0.972393823448E-17
 -0.520417042793E-17
 -0.487890977618E-18
 -0.260208521397E-17
 -0.156125112838E-16
 -0.867361737988E-18
 -0.555111512313E-16
 -0.173472347598E-16
 -0.173472347598E-16
  0.364291929955E-16
 -0.693889390391E-17
 -0.104083408559E-16
  0.173472347598E-16
  0.416333634234E-16
 -0.104083408559E-16
  0.242861286637E-16
  0.589805981832E-16
  0.346944695195E-16
  0.520417042793E-16
  0.693889390391E-16
  0.485722573274E-16
 -0.131838984174E-15
 -0.242861286637E-16
 -0.381639164715E-16
  0.832667268469E-16
  0.225514051877E-15
 -0.589805981832E-16
 -0.589805981832E-16
 -0.485722573274E-16
  0.381639164715E-16
  0.208166817117E-16
  0.346944695195E-17
 -0.555111512313E-16
 -0.173472347598E-16
 -0.190819582357E-16
 -0.867361737988E-17
  0.867361737988E-17
  0.277555756156E-16
  0.000000000000E+00
 -0.173472347598E-16
 -0.138777878078E-16
 -0.104083408559E-16
 -0.156125112838E-16
 -0.684402621381E-17
  0.195156391047E-17
 -0.121430643318E-16
  0.416333634234E-16
 -0.260208521397E-16
  0.693889390391E-17
 -0.225514051877E-16
  0.104083408559E-16
 -0.173472347598E-16
  0.763278329430E-16
  0.000000000000E+00
 -0.555111512313E-16
 -0.416333634234E-16
  0.104083408559E-16
  0.693889390391E-17
 -0.277555756156E-16
 -0.208166817117E-16
  0.346944695195E-16
  0.277555756156E-16
 -0.346944695195E-17
  0.555111512313E-16
 -0.346944695195E-16
  0.346944695195E-17
 -0.225514051877E-16
 -0.104083408559E-16
  0.346944695195E-17
  0.104083408559E-16
  0.693889390391E-17
  0.147451495458E-16
  0.127935856353E-16
  0.260208521397E-17
 -0.173472347598E-17
 -0.346944695195E-17
  0.000000000000E+00
 -0.520417042793E-17
 -0.104083408559E-16
 -0.173472347598E-16
  0.156125112838E-16
  0.138777878078E-16
 -0.624500451352E-16
  0.555111512313E-16
  0.346944695195E-16
 -0.138777878078E-16
 -0.485722573274E-16