# vtk DataFile Version 3.0
MachLine results file. Generated by MachLine, USU AeroLab (c) 2022.
ASCII
DATASET POLYDATA
POINTS                1191 float
  0.100000000000E+01  0.000000000000E+00  0.000000000000E+00
  0.965617092460E+00  0.503720627990E+00 -0.394962905220E-02
  0.100000000000E+01  0.503720627990E+00  0.000000000000E+00
  0.965617092460E+00  0.000000000000E+00 -0.394962905220E-02
  0.905490052860E+00  0.503720627990E+00 -0.105277887700E-01
  0.905490052860E+00  0.000000000000E+00 -0.105277887700E-01
  0.807861744690E+00  0.503720627990E+00 -0.203686189510E-01
  0.807861744690E+00  0.000000000000E+00 -0.203686189510E-01
  0.666965306180E+00  0.503720627990E+00 -0.327306847400E-01
  0.666965306180E+00  0.000000000000E+00 -0.327306847400E-01
  0.494699909170E+00  0.503720627990E+00 -0.442892746710E-01
  0.494699909170E+00  0.000000000000E+00 -0.442892746710E-01
  0.322148057390E+00  0.000000000000E+00 -0.499220386450E-01
  0.322148057390E+00  0.503720627990E+00 -0.499220386450E-01
  0.180771082860E+00  0.000000000000E+00 -0.467582932350E-01
  0.180771082860E+00  0.503720627990E+00 -0.467582932350E-01
  0.832331623890E-01  0.000000000000E+00 -0.364528323560E-01
  0.832331623890E-01  0.503720627990E+00 -0.364528323560E-01
  0.246816596840E-01  0.000000000000E+00 -0.217022398280E-01
  0.246816596840E-01  0.503720627990E+00 -0.217022398280E-01
  0.000000000000E+00  0.000000000000E+00  0.000000000000E+00
  0.000000000000E+00  0.503720627990E+00  0.000000000000E+00
  0.246816596840E-01  0.503720627990E+00  0.217022398280E-01
  0.246816596840E-01  0.000000000000E+00  0.217022398280E-01
  0.832331623890E-01  0.503720627990E+00  0.364528323560E-01
  0.832331623890E-01  0.000000000000E+00  0.364528323560E-01
  0.180771082860E+00  0.503720627990E+00  0.467582932350E-01
  0.180771082860E+00  0.000000000000E+00  0.467582932350E-01
  0.322148057390E+00  0.503720627990E+00  0.499220386450E-01
  0.322148057390E+00  0.000000000000E+00  0.499220386450E-01
  0.494699909170E+00  0.503720627990E+00  0.442892746710E-01
  0.494699909170E+00  0.000000000000E+00  0.442892746710E-01
  0.666965306180E+00  0.000000000000E+00  0.327306847400E-01
  0.666965306180E+00  0.503720627990E+00  0.327306847400E-01
  0.807861744690E+00  0.000000000000E+00  0.203686189510E-01
  0.807861744690E+00  0.503720627990E+00  0.203686189510E-01
  0.905490052860E+00  0.000000000000E+00  0.105277887700E-01
  0.905490052860E+00  0.503720627990E+00  0.105277887700E-01
  0.965617092460E+00  0.000000000000E+00  0.394962905220E-02
  0.965617092460E+00  0.503720627990E+00  0.394962905220E-02
  0.965617092460E+00  0.110747748820E+01 -0.394962905220E-02
  0.100000000000E+01  0.110747748820E+01  0.000000000000E+00
  0.905490052860E+00  0.110747748820E+01 -0.105277887700E-01
  0.807861744690E+00  0.110747748820E+01 -0.203686189510E-01
  0.666965306180E+00  0.110747748820E+01 -0.327306847400E-01
  0.494699909170E+00  0.110747748820E+01 -0.442892746710E-01
  0.322148057390E+00  0.110747748820E+01 -0.499220386450E-01
  0.180771082860E+00  0.110747748820E+01 -0.467582932350E-01
  0.832331623890E-01  0.110747748820E+01 -0.364528323560E-01
  0.246816596840E-01  0.110747748820E+01 -0.217022398280E-01
  0.000000000000E+00  0.110747748820E+01  0.000000000000E+00
  0.246816596840E-01  0.110747748820E+01  0.217022398280E-01
  0.832331623890E-01  0.110747748820E+01  0.364528323560E-01
  0.180771082860E+00  0.110747748820E+01  0.467582932350E-01
  0.322148057390E+00  0.110747748820E+01  0.499220386450E-01
  0.494699909170E+00  0.110747748820E+01  0.442892746710E-01
  0.666965306180E+00  0.110747748820E+01  0.327306847400E-01
  0.807861744690E+00  0.110747748820E+01  0.203686189510E-01
  0.905490052860E+00  0.110747748820E+01  0.105277887700E-01
  0.965617092460E+00  0.110747748820E+01  0.394962905220E-02
  0.965617092460E+00  0.175813428970E+01 -0.394962905220E-02
  0.100000000000E+01  0.175813428970E+01  0.000000000000E+00
  0.905490052860E+00  0.175813428970E+01 -0.105277887700E-01
  0.807861744690E+00  0.175813428970E+01 -0.203686189510E-01
  0.666965306180E+00  0.175813428970E+01 -0.327306847400E-01
  0.494699909170E+00  0.175813428970E+01 -0.442892746710E-01
  0.322148057390E+00  0.175813428970E+01 -0.499220386450E-01
  0.180771082860E+00  0.175813428970E+01 -0.467582932350E-01
  0.832331623890E-01  0.175813428970E+01 -0.364528323560E-01
  0.246816596840E-01  0.175813428970E+01 -0.217022398280E-01
  0.000000000000E+00  0.175813428970E+01  0.000000000000E+00
  0.246816596840E-01  0.175813428970E+01  0.217022398280E-01
  0.832331623890E-01  0.175813428970E+01  0.364528323560E-01
  0.180771082860E+00  0.175813428970E+01  0.467582932350E-01
  0.322148057390E+00  0.175813428970E+01  0.499220386450E-01
  0.494699909170E+00  0.175813428970E+01  0.442892746710E-01
  0.666965306180E+00  0.175813428970E+01  0.327306847400E-01
  0.807861744690E+00  0.175813428970E+01  0.203686189510E-01
  0.905490052860E+00  0.175813428970E+01  0.105277887700E-01
  0.965617092460E+00  0.175813428970E+01  0.394962905220E-02
  0.965617092460E+00  0.238369488720E+01 -0.394962905220E-02
  0.100000000000E+01  0.238369488720E+01  0.000000000000E+00
  0.905490052860E+00  0.238369488720E+01 -0.105277887700E-01
  0.807861744690E+00  0.238369488720E+01 -0.203686189510E-01
  0.666965306180E+00  0.238369488720E+01 -0.327306847400E-01
  0.494699909170E+00  0.238369488720E+01 -0.442892746710E-01
  0.322148057390E+00  0.238369488720E+01 -0.499220386450E-01
  0.180771082860E+00  0.238369488720E+01 -0.467582932350E-01
  0.832331623890E-01  0.238369488720E+01 -0.364528323560E-01
  0.246816596840E-01  0.238369488720E+01 -0.217022398280E-01
  0.000000000000E+00  0.238369488720E+01  0.000000000000E+00
  0.246816596840E-01  0.238369488720E+01  0.217022398280E-01
  0.832331623890E-01  0.238369488720E+01  0.364528323560E-01
  0.180771082860E+00  0.238369488720E+01  0.467582932350E-01
  0.322148057390E+00  0.238369488720E+01  0.499220386450E-01
  0.494699909170E+00  0.238369488720E+01  0.442892746710E-01
  0.666965306180E+00  0.238369488720E+01  0.327306847400E-01
  0.807861744690E+00  0.238369488720E+01  0.203686189510E-01
  0.905490052860E+00  0.238369488720E+01  0.105277887700E-01
  0.965617092460E+00  0.238369488720E+01  0.394962905220E-02
  0.965617092460E+00  0.292249171970E+01 -0.394962905220E-02
  0.100000000000E+01  0.292249171970E+01  0.000000000000E+00
  0.905490052860E+00  0.292249171970E+01 -0.105277887700E-01
  0.807861744690E+00  0.292249171970E+01 -0.203686189510E-01
  0.666965306180E+00  0.292249171970E+01 -0.327306847400E-01
  0.494699909170E+00  0.292249171970E+01 -0.442892746710E-01
  0.322148057390E+00  0.292249171970E+01 -0.499220386450E-01
  0.180771082860E+00  0.292249171970E+01 -0.467582932350E-01
  0.832331623890E-01  0.292249171970E+01 -0.364528323560E-01
  0.246816596840E-01  0.292249171970E+01 -0.217022398280E-01
  0.000000000000E+00  0.292249171970E+01  0.000000000000E+00
  0.246816596840E-01  0.292249171970E+01  0.217022398280E-01
  0.832331623890E-01  0.292249171970E+01  0.364528323560E-01
  0.180771082860E+00  0.292249171970E+01  0.467582932350E-01
  0.322148057390E+00  0.292249171970E+01  0.499220386450E-01
  0.494699909170E+00  0.292249171970E+01  0.442892746710E-01
  0.666965306180E+00  0.292249171970E+01  0.327306847400E-01
  0.807861744690E+00  0.292249171970E+01  0.203686189510E-01
  0.905490052860E+00  0.292249171970E+01  0.105277887700E-01
  0.965617092460E+00  0.292249171970E+01  0.394962905220E-02
  0.965617092460E+00  0.334432208550E+01 -0.394962905220E-02
  0.100000000000E+01  0.334432208550E+01  0.000000000000E+00
  0.905490052860E+00  0.334432208550E+01 -0.105277887700E-01
  0.807861744690E+00  0.334432208550E+01 -0.203686189510E-01
  0.666965306180E+00  0.334432208550E+01 -0.327306847400E-01
  0.494699909170E+00  0.334432208550E+01 -0.442892746710E-01
  0.322148057390E+00  0.334432208550E+01 -0.499220386450E-01
  0.180771082860E+00  0.334432208550E+01 -0.467582932350E-01
  0.832331623890E-01  0.334432208550E+01 -0.364528323560E-01
  0.246816596840E-01  0.334432208550E+01 -0.217022398280E-01
  0.000000000000E+00  0.334432208550E+01  0.000000000000E+00
  0.246816596840E-01  0.334432208550E+01  0.217022398280E-01
  0.832331623890E-01  0.334432208550E+01  0.364528323560E-01
  0.180771082860E+00  0.334432208550E+01  0.467582932350E-01
  0.322148057390E+00  0.334432208550E+01  0.499220386450E-01
  0.494699909170E+00  0.334432208550E+01  0.442892746710E-01
  0.666965306180E+00  0.334432208550E+01  0.327306847400E-01
  0.807861744690E+00  0.334432208550E+01  0.203686189510E-01
  0.905490052860E+00  0.334432208550E+01  0.105277887700E-01
  0.965617092460E+00  0.334432208550E+01  0.394962905220E-02
  0.965617092460E+00  0.365057098370E+01 -0.394962905220E-02
  0.100000000000E+01  0.365057098370E+01  0.000000000000E+00
  0.905490052860E+00  0.365057098370E+01 -0.105277887700E-01
  0.807861744690E+00  0.365057098370E+01 -0.203686189510E-01
  0.666965306180E+00  0.365057098370E+01 -0.327306847400E-01
  0.494699909170E+00  0.365057098370E+01 -0.442892746710E-01
  0.322148057390E+00  0.365057098370E+01 -0.499220386450E-01
  0.180771082860E+00  0.365057098370E+01 -0.467582932350E-01
  0.832331623890E-01  0.365057098370E+01 -0.364528323560E-01
  0.246816596840E-01  0.365057098370E+01 -0.217022398280E-01
  0.000000000000E+00  0.365057098370E+01  0.000000000000E+00
  0.246816596840E-01  0.365057098370E+01  0.217022398280E-01
  0.832331623890E-01  0.365057098370E+01  0.364528323560E-01
  0.180771082860E+00  0.365057098370E+01  0.467582932350E-01
  0.322148057390E+00  0.365057098370E+01  0.499220386450E-01
  0.494699909170E+00  0.365057098370E+01  0.442892746710E-01
  0.666965306180E+00  0.365057098370E+01  0.327306847400E-01
  0.807861744690E+00  0.365057098370E+01  0.203686189510E-01
  0.905490052860E+00  0.365057098370E+01  0.105277887700E-01
  0.965617092460E+00  0.365057098370E+01  0.394962905220E-02
  0.965617092460E+00  0.386093553560E+01 -0.394962905220E-02
[...]
CELL_DATA                 576
SCALARS C_p_inc float 1
LOOKUP_TABLE default
  0.247767275437E+00
  0.674557090320E-01
 -0.121814283051E-01
 -0.876672865735E-01
 -0.138699298203E+00
 -0.191157888216E+00
 -0.244771677347E+00
 -0.292503622080E+00
 -0.352639217741E+00
 -0.400411598084E+00
 -0.466277477574E+00
 -0.524096669476E+00
 -0.581012334613E+00
 -0.636106498078E+00
 -0.660000945352E+00
 -0.651286263222E+00
 -0.499475504960E+00
 -0.347335911113E+00
  0.181042560542E+00
  0.556674524261E+00
  0.654881360134E+00
  0.265224300014E+00
 -0.275606365975E+00
 -0.440517558430E+00
 -0.590154236302E+00
 -0.609144168221E+00
 -0.586752870676E+00
 -0.543829785843E+00
 -0.491725527684E+00
 -0.448619085879E+00
 -0.397908266928E+00
 -0.355586175305E+00
 -0.314573592383E+00
 -0.275174735972E+00
 -0.236402842871E+00
 -0.203257547243E+00
 -0.158878351608E+00
 -0.133824218852E+00
 -0.613968483973E-01
 -0.860290785841E-01
  0.342901823613E+00
  0.141893676363E+00
  0.300765421229E-01
 -0.524030592797E-01
 -0.118238090653E+00
 -0.181001984533E+00
 -0.239308704057E+00
 -0.296726347653E+00
 -0.354478164119E+00
 -0.411526032343E+00
 -0.472101155794E+00
 -0.527839251760E+00
 -0.584135341118E+00
 -0.635213456891E+00
 -0.651185074316E+00
 -0.647557055130E+00
 -0.490424014780E+00
 -0.371428629091E+00
  0.103179966928E+00
  0.527319540610E+00
  0.685538542017E+00
  0.242699879322E+00
 -0.260684707869E+00
 -0.401840485816E+00
 -0.558070042455E+00
 -0.576020166273E+00
 -0.562955972019E+00
 -0.526374904330E+00
 -0.476170325341E+00
 -0.434734039463E+00
 -0.391214141413E+00
 -0.346442793434E+00
 -0.310682006971E+00
 -0.276692054020E+00
 -0.245420396946E+00
 -0.221546997578E+00
 -0.192646802019E+00
 -0.180184713152E+00
 -0.163702352140E+00
 -0.204276385344E+00
  0.327902487972E+00
  0.153618354288E+00
  0.312847381640E-01
 -0.418882405623E-01
 -0.111929952583E+00
 -0.171317170406E+00
 -0.230026667364E+00
 -0.288273358691E+00
 -0.344852049491E+00
 -0.405163070055E+00
 -0.464675151130E+00
 -0.520386374941E+00
 -0.580746092736E+00
 -0.631796449062E+00
 -0.653263112634E+00
 -0.647249823907E+00
 -0.498294991138E+00
 -0.370781234455E+00
  0.871345127723E-01
  0.524088158313E+00
  0.687967878221E+00
  0.254957718841E+00
 -0.259729515627E+00
 -0.397323265434E+00
 -0.557648866616E+00
 -0.567989559033E+00
 -0.559988858613E+00
 -0.516956514660E+00
 -0.471646991477E+00
 -0.426642649179E+00
 -0.383279069284E+00
 -0.342061385985E+00
 -0.307119520465E+00
 -0.272251611454E+00
 -0.245130795473E+00
 -0.214805409053E+00
 -0.194965751589E+00
 -0.168548790233E+00
 -0.169312266500E+00
 -0.172223951331E+00
  0.316588649582E+00
  0.136037153006E+00
  0.311171898149E-01
 -0.438853686147E-01
 -0.106757772560E+00
 -0.166291059325E+00
 -0.222253235839E+00
 -0.279979438615E+00
 -0.336732710727E+00
 -0.396793813569E+00
 -0.456831030028E+00
 -0.513685870966E+00
 -0.574088322279E+00
 -0.625229766691E+00
 -0.646332678412E+00
 -0.638700226275E+00
 -0.489040479529E+00
 -0.357718717620E+00
  0.104558771417E+00
  0.545512992815E+00
  0.671572279248E+00
  0.241570766085E+00
 -0.267743849478E+00
 -0.403146500883E+00
 -0.561763102706E+00
 -0.571376579693E+00
 -0.560497116617E+00
 -0.517013153873E+00
 -0.467617158375E+00
 -0.423347426343E+00
 -0.378373496147E+00
 -0.331807029889E+00
 -0.298247180776E+00
 -0.257562305218E+00
 -0.230922014910E+00
 -0.195809523028E+00
 -0.172912319768E+00
 -0.144025506893E+00
 -0.129628394168E+00
 -0.134635539852E+00
  0.349725311621E+00
  0.156562785972E+00
  0.541006513634E-01
 -0.270090966005E-01
 -0.875146010716E-01
 -0.151910302753E+00
 -0.206007430170E+00
 -0.268190067821E+00
 -0.323373865693E+00
 -0.387699984678E+00
 -0.449588413394E+00
 -0.504336052970E+00
 -0.568128862579E+00
 -0.617341710185E+00
 -0.639493362937E+00
 -0.629846376289E+00
 -0.479519566279E+00
 -0.344947046446E+00
  0.124690659005E+00
  0.568905780303E+00
  0.653387754311E+00
  0.227195073998E+00
 -0.273082423557E+00
 -0.405996117992E+00
 -0.561251430911E+00
 -0.570025712472E+00
 -0.552747905967E+00
 -0.509390151308E+00
 -0.450648702494E+00
 -0.408605761737E+00
 -0.360924159116E+00
 -0.306440490472E+00
 -0.277647464008E+00
 -0.232132058230E+00
 -0.211039775007E+00
 -0.174593617677E+00
 -0.156629946036E+00
 -0.130149650358E+00
 -0.121107943221E+00
 -0.142340179869E+00
  0.376873582152E+00
  0.185893981448E+00
  0.769857595480E-01
 -0.285403039428E-02
 -0.657387479731E-01
 -0.129132099062E+00
 -0.182310882797E+00
 -0.245185144026E+00
 -0.294785031016E+00
 -0.364807977615E+00
 -0.427664847175E+00
 -0.474951808789E+00
 -0.550870642427E+00
 -0.594841946625E+00
 -0.625345019419E+00
 -0.612727186795E+00
 -0.464237243206E+00
 -0.324154896677E+00
  0.155042288984E+00
  0.607350943543E+00
  0.618728254356E+00
  0.202585620625E+00
 -0.289564970246E+00
 -0.412912767355E+00
 -0.564430900229E+00
 -0.566003362528E+00
 -0.536185734279E+00
 -0.489780574207E+00
 -0.413272320071E+00
 -0.374560399821E+00
 -0.321547947679E+00
 -0.258255962782E+00
 -0.239070142905E+00
 -0.191168250837E+00
 -0.179585410219E+00
 -0.144390387605E+00
 -0.134373232287E+00
 -0.110784892867E+00
 -0.112871513880E+00
 -0.140525532003E+00
  0.414197333891E+00
  0.203895242941E+00
  0.850505582211E-01
  0.956773403829E-02
 -0.642787601191E-01
 -0.116580940174E+00
 -0.172026639757E+00
 -0.221090216990E+00
 -0.257542017710E+00
 -0.318869987394E+00
 -0.373749380498E+00
 -0.403837287119E+00
 -0.502166659836E+00
 -0.540347434414E+00
 -0.596047610699E+00
 -0.588135642461E+00
 -0.444127747965E+00
 -0.304014101497E+00
  0.199717379212E+00
  0.656946641834E+00
  0.561733812732E+00
  0.153760465917E+00
 -0.326839500993E+00
 -0.434251775343E+00
 -0.573745980937E+00
 -0.560789811272E+00
 -0.498743833486E+00
 -0.447339395694E+00
 -0.343466340213E+00
 -0.310069923409E+00
 -0.254785055475E+00
 -0.195648142848E+00
 -0.183521607951E+00
 -0.143748842655E+00
 -0.140014661294E+00
 -0.113102945566E+00
 -0.110598668948E+00
 -0.991448790914E-01
 -0.105235845877E+00
 -0.178854149271E+00
  0.392240816135E+00
  0.198765540024E+00
  0.512765055206E-01
 -0.112781885574E-01
 -0.920550259760E-01
 -0.131773549087E+00
 -0.171347200330E+00
 -0.207843044465E+00
 -0.223982714821E+00
 -0.264209734465E+00
 -0.291860446034E+00
 -0.306588618431E+00
 -0.398809418882E+00
 -0.426016987271E+00
 -0.535294070532E+00
 -0.537667263505E+00
 -0.434885203572E+00
 -0.309791802121E+00
  0.233657506343E+00
  0.690280408527E+00
  0.499176742042E+00
  0.893870069555E-01
 -0.381105174568E+00
 -0.467143032852E+00
 -0.549793278420E+00
 -0.526749675646E+00
 -0.403678506275E+00
 -0.360937090684E+00
 -0.263687160352E+00
 -0.236710305526E+00
 -0.199854985604E+00
 -0.163086217659E+00
 -0.143183467956E+00
 -0.113364719698E+00
 -0.105311581899E+00
 -0.855526350301E-01
 -0.884546938189E-01
 -0.804979190735E-01
 -0.106801718767E+00
 -0.172947623688E+00
  0.172218414638E+00
  0.121909892985E+00
 -0.139537214708E-01
 -0.554952367678E-01
 -0.941122995189E-01
 -0.128643055356E+00
 -0.141420127630E+00
 -0.175543917451E+00
 -0.188089557856E+00
 -0.224161460768E+00
 -0.242852875460E+00
 -0.263002676414E+00
 -0.306893240135E+00
 -0.316565070584E+00
 -0.387831972763E+00
 -0.349567383057E+00
 -0.356044439824E+00
 -0.231045591896E+00
  0.242655843238E+00
  0.667575845106E+00
  0.449780681418E+00
  0.466401564832E-01
 -0.314264794368E+00
 -0.400491792099E+00
 -0.368853554373E+00
 -0.392639692897E+00
 -0.310279708333E+00
 -0.287645054779E+00
 -0.238227878457E+00
 -0.209278113938E+00
 -0.184311324383E+00
 -0.152079392612E+00
 -0.126894117087E+00
 -0.100741052467E+00
 -0.811101647241E-01
 -0.620116009524E-01
 -0.651548201865E-01
 -0.517520664552E-01
 -0.803688352170E-01
  0.728905184513E-02
 -0.226285419115E-01
 -0.802989502567E-01
 -0.625486093352E-01
 -0.134728331688E+00
 -0.130768221968E+00
 -0.164232106355E+00
 -0.169479980513E+00
 -0.191684159461E+00
 -0.206272052991E+00
 -0.227398700485E+00
 -0.246794761581E+00
 -0.263098005046E+00
 -0.266619685161E+00
 -0.269639754732E+00
 -0.250683858722E+00
 -0.178623006814E+00
 -0.161694565496E+00
  0.262707133561E+00
  0.106097480726E+00
 -0.232836846886E+00
 -0.239849651650E+00
 -0.274935982535E+00
 -0.288909024517E+00
 -0.267093076738E+00
 -0.256435379587E+00
 -0.229703620060E+00
 -0.202872918572E+00
 -0.177876155851E+00
 -0.162411186406E+00
 -0.135107324487E+00
 -0.130873745601E+00
 -0.104769760393E+00
 -0.106549480879E+00
 -0.736691290002E-01
 -0.885279544477E-01
 -0.682686668732E-01
 -0.115821141765E+00
 -0.151355857006E+00
 -0.127583643156E+00
 -0.157042108125E+00
 -0.158395807328E+00
 -0.171387656479E+00
 -0.181526495181E+00
 -0.191449059416E+00
 -0.208013454510E+00
 -0.222772652540E+00
 -0.234117914042E+00
 -0.245574564027E+00
 -0.246306209304E+00
 -0.250688188205E+00
 -0.237474578711E+00
 -0.214172863986E+00
 -0.216224972082E+00
  0.884007329305E-01
 -0.203155522791E-01
 -0.257858829553E+00
 -0.253596606955E+00
 -0.250833264281E+00
 -0.265809837754E+00
 -0.246476641289E+00
 -0.242960461218E+00
 -0.223612179888E+00
 -0.205545790174E+00
 -0.188824761206E+00
 -0.174320695352E+00
 -0.157707048193E+00
 -0.150131409596E+00
 -0.135164848740E+00
 -0.133467534156E+00
 -0.128810339276E+00
 -0.139556517458E+00
 -0.828892791612E-01
 -0.142070119398E+00
 -0.153880026798E+00
 -0.159278448132E+00
 -0.151193533146E+00
 -0.162233460816E+00
 -0.164312612721E+00
 -0.179171187818E+00
 -0.183476455082E+00
 -0.201537224219E+00
 -0.211271786198E+00
 -0.219009404105E+00
 -0.227286537410E+00
 -0.227279007082E+00
 -0.230625160448E+00
 -0.221088096616E+00
 -0.223398782500E+00
 -0.243835593501E+00
  0.828320779391E-02
 -0.631105389127E-01
 -0.261396290107E+00
 -0.241361092595E+00
 -0.222374552724E+00
 -0.238691717459E+00
 -0.226587159116E+00
 -0.228204222428E+00
 -0.215565479430E+00
 -0.204837348913E+00
 -0.194006434384E+00
 -0.180438019750E+00
 -0.169079148049E+00
 -0.159258546437E+00
 -0.149301446038E+00
 -0.143947446908E+00
 -0.146371317893E+00
 -0.153469257706E+00
 -0.954335857878E-01
 -0.131681835843E+00
 -0.129940840856E+00
 -0.147739440215E+00
 -0.134129058874E+00
 -0.150394701994E+00
 -0.152395157506E+00
 -0.168652729114E+00
 -0.173850168908E+00
 -0.190897003552E+00
 -0.198601664569E+00
 -0.205020467359E+00
 -0.211878976579E+00
 -0.211410621188E+00
 -0.211028428500E+00
 -0.202539236260E+00
 -0.213205036728E+00
 -0.256315937623E+00
 -0.432926366438E-01
 -0.869948213896E-01
 -0.257879008914E+00
 -0.214063382991E+00
 -0.195382922100E+00
 -0.211771581523E+00
 -0.209943562033E+00
 -0.214700462184E+00
 -0.206552331771E+00
 -0.201501031901E+00
 -0.193029762558E+00
 -0.180266779589E+00
 -0.169772653808E+00
 -0.158585117747E+00
 -0.146799213870E+00
 -0.139182244218E+00
 -0.132776787671E+00
 -0.138013109343E+00
 -0.841119937906E-01
 -0.103627793181E+00
 -0.100064807274E+00
 -0.117635396612E+00
 -0.117695474247E+00
 -0.132686103104E+00
 -0.142992939249E+00
 -0.156584491440E+00
 -0.167461608627E+00
 -0.180651512846E+00
 -0.189114650611E+00
 -0.195288685407E+00
 -0.201142470157E+00
 -0.199900999848E+00
 -0.193542911741E+00
 -0.183808367919E+00
 -0.193988271091E+00
 -0.257477042750E+00
 -0.769637438977E-01
 -0.100058482628E+00
 -0.254008375867E+00
 -0.185789949839E+00
 -0.175766976975E+00
 -0.189936081710E+00
 -0.198372966031E+00
 -0.204078558996E+00
 -0.197778118193E+00
 -0.196157637775E+00
 -0.186917947143E+00
 -0.174834759977E+00
 -0.162697876577E+00
 -0.150787645306E+00
 -0.134080657677E+00
 -0.124921047406E+00
 -0.104758569900E+00
 -0.107690030589E+00
 -0.675085398933E-01
 -0.740484429193E-01
 -0.840491707684E-01
 -0.890797368796E-01
 -0.110818684332E+00
 -0.119469462361E+00
 -0.140462465044E+00
 -0.149251313449E+00
 -0.166429220798E+00
 -0.175057011715E+00
 -0.185626221127E+00
 -0.191921520128E+00
 -0.195845094757E+00
 -0.193649293687E+00
 -0.180918229762E+00
 -0.169601937303E+00
 -0.175512329842E+00
 -0.254689285505E+00
 -0.962833284841E-01
 -0.104046258809E+00
 -0.255488830659E+00
 -0.167975908724E+00
 -0.168640023713E+00
 -0.177669761565E+00
 -0.193157369683E+00
 -0.197449618289E+00
 -0.192295000275E+00
 -0.190227011781E+00
 -0.178963328835E+00
 -0.166928130807E+00
 -0.153711377370E+00
 -0.140535012021E+00
 -0.121441594751E+00
 -0.109657240981E+00
 -0.836648862776E-01
 -0.806634245219E-01
 -0.613188926076E-01
SCALARS sigma float 1
LOOKUP_TABLE default
 -0.147013900125E-01
 -0.147013900125E-01
 -0.930217382907E-02
 -0.930217382907E-02
 -0.790968950867E-03
 -0.790968950867E-03
  0.121537910022E-01
  0.121537910022E-01
  0.326656899402E-01
  0.326656899402E-01
  0.669861511670E-01
  0.669861511670E-01
  0.121740263380E+00
  0.121740263380E+00
  0.203502595334E+00
  0.203502595334E+00
  0.339568726751E+00
  0.339568726751E+00
  0.731773857035E+00
  0.731773857035E+00
  0.582323380637E+00
  0.582323380637E+00
  0.146590881523E+00
  0.146590881523E+00
  0.559672084848E-02
  0.559672084848E-02
 -0.772173640440E-01
 -0.772173640440E-01
 -0.131915338025E+00
 -0.131915338025E+00
 -0.165895280940E+00
 -0.165895280940E+00
 -0.186092054355E+00
 -0.186092054355E+00
 -0.198795046236E+00
 -0.198795046236E+00
 -0.207129206792E+00
 -0.207129206792E+00
 -0.212408675107E+00
 -0.212408675107E+00
 -0.147013900125E-01
 -0.147013900125E-01
 -0.930217382907E-02
 -0.930217382907E-02
 -0.790968950867E-03
 -0.790968950867E-03
  0.121537910022E-01
  0.121537910022E-01
  0.326656899402E-01
  0.326656899402E-01
  0.669861511670E-01
  0.669861511670E-01
  0.121740263380E+00
  0.121740263380E+00
  0.203502595334E+00
  0.203502595334E+00
  0.339568726751E+00
  0.339568726751E+00
  0.731773857035E+00
  0.731773857035E+00
  0.582323380637E+00
  0.582323380637E+00
  0.146590881523E+00
  0.146590881523E+00
  0.559672084848E-02
  0.559672084848E-02
 -0.772173640440E-01
 -0.772173640440E-01
 -0.131915338025E+00
 -0.131915338025E+00
 -0.165895280940E+00
 -0.165895280940E+00
 -0.186092054355E+00
 -0.186092054355E+00
 -0.198795046236E+00
 -0.198795046236E+00
 -0.207129206792E+00
 -0.207129206792E+00
 -0.212408675107E+00
 -0.212408675107E+00
 -0.147013900125E-01
 -0.147013900125E-01
 -0.930217382907E-02
 -0.930217382907E-02
 -0.790968950867E-03
 -0.790968950867E-03
  0.121537910022E-01
  0.121537910022E-01
  0.326656899402E-01
  0.326656899402E-01
  0.669861511670E-01
  0.669861511670E-01
  0.121740263380E+00
  0.121740263380E+00
  0.203502595334E+00
  0.203502595334E+00
  0.339568726751E+00
  0.339568726751E+00
  0.731773857035E+00
  0.731773857035E+00
  0.582323380637E+00
  0.582323380637E+00
  0.146590881523E+00
  0.146590881523E+00
  0.559672084848E-02
  0.559672084848E-02
 -0.772173640440E-01
 -0.772173640440E-01
 -0.131915338025E+00
 -0.131915338025E+00
 -0.165895280940E+00
 -0.165895280940E+00
 -0.186092054355E+00
 -0.186092054355E+00
 -0.198795046236E+00
 -0.198795046236E+00
 -0.207129206792E+00
 -0.207129206792E+00
 -0.212408675107E+00
 -0.212408675107E+00
 -0.147013900125E-01
 -0.147013900125E-01
 -0.930217382907E-02
 -0.930217382907E-02
 -0.790968950867E-03
 -0.790968950867E-03
  0.121537910022E-01
  0.121537910022E-01
  0.326656899402E-01
  0.326656899402E-01
  0.669861511670E-01
  0.669861511670E-01
  0.121740263380E+00
  0.121740263380E+00
  0.203502595334E+00
  0.203502595334E+00
  0.339568726751E+00
  0.339568726751E+00
  0.731773857035E+00
  0.731773857035E+00
  0.582323380637E+00
  0.582323380637E+00
  0.146590881523E+00
  0.146590881523E+00
  0.559672084848E-02
  0.559672084848E-02
 -0.772173640440E-01
 -0.772173640440E-01
 -0.131915338025E+00
 -0.131915338025E+00
 -0.165895280940E+00
 -0.165895280940E+00
 -0.186092054355E+00
 -0.186092054355E+00
 -0.198795046236E+00
 -0.198795046236E+00
 -0.207129206792E+00
 -0.207129206792E+00
 -0.212408675107E+00
 -0.212408675107E+00
 -0.147013900125E-01
 -0.147013900125E-01
 -0.930217382907E-02
 -0.930217382907E-02
 -0.790968950867E-03
 -0.790968950867E-03
  0.121537910022E-01
  0.121537910022E-01
  0.326656899402E-01
  0.326656899402E-01
  0.669861511670E-01
  0.669861511670E-01
  0.121740263380E+00
  0.121740263380E+00
  0.203502595334E+00
  0.203502595334E+00
  0.339568726751E+00
  0.339568726751E+00
  0.731773857035E+00
  0.731773857035E+00
  0.582323380637E+00
  0.582323380637E+00
  0.146590881523E+00
  0.146590881523E+00
  0.559672084848E-02
  0.559672084848E-02
 -0.772173640440E-01
 -0.772173640440E-01
 -0.131915338025E+00
 -0.131915338025E+00
 -0.165895280940E+00
 -0.165895280940E+00
 -0.186092054355E+00
 -0.186092054355E+00
 -0.198795046236E+00
 -0.198795046236E+00
 -0.207129206792E+00
 -0.207129206792E+00
 -0.212408675107E+00
 -0.212408675107E+00
 -0.147013900125E-01
 -0.147013900125E-01
 -0.930217382907E-02
 -0.930217382907E-02
 -0.790968950867E-03
 -0.790968950867E-03
  0.121537910022E-01
  0.121537910022E-01
  0.326656899402E-01
  0.326656899402E-01
  0.669861511670E-01
  0.669861511670E-01
  0.121740263380E+00
  0.121740263380E+00
  0.203502595334E+00
  0.203502595334E+00
  0.339568726751E+00
  0.339568726751E+00
  0.731773857035E+00
  0.731773857035E+00
  0.582323380637E+00
  0.582323380637E+00
  0.146590881523E+00
  0.146590881523E+00
  0.559672084848E-02
  0.559672084848E-02
 -0.772173640440E-01
 -0.772173640440E-01
 -0.131915338025E+00
 -0.131915338025E+00
 -0.165895280940E+00
 -0.165895280940E+00
 -0.186092054355E+00
 -0.186092054355E+00
 -0.198795046236E+00
 -0.198795046236E+00
 -0.207129206792E+00
 -0.207129206792E+00
 -0.212408675107E+00
 -0.212408675107E+00
 -0.147013900125E-01
 -0.147013900125E-01
 -0.930217382907E-02
 -0.930217382907E-02
 -0.790968950867E-03
 -0.790968950867E-03
  0.121537910022E-01
  0.121537910022E-01
  0.326656899402E-01
  0.326656899402E-01
  0.669861511670E-01
  0.669861511670E-01
  0.121740263380E+00
  0.121740263380E+00
  0.203502595334E+00
  0.203502595334E+00
  0.339568726751E+00
  0.339568726751E+00
  0.731773857035E+00
  0.731773857035E+00
  0.582323380637E+00
  0.582323380637E+00
  0.146590881523E+00
  0.146590881523E+00
  0.559672084848E-02
  0.559672084848E-02
 -0.772173640440E-01
 -0.772173640440E-01
 -0.131915338025E+00
 -0.131915338025E+00
 -0.165895280940E+00
 -0.165895280940E+00
 -0.186092054355E+00
 -0.186092054355E+00
 -0.198795046236E+00
 -0.198795046236E+00
 -0.207129206792E+00
 -0.207129206792E+00
 -0.212408675107E+00
 -0.212408675107E+00
 -0.147013900125E-01
 -0.147013900125E-01
 -0.930217382907E-02
 -0.930217382907E-02
 -0.790968950867E-03
 -0.790968950867E-03
  0.121537910022E-01
  0.121537910022E-01
  0.326656899402E-01
  0.326656899402E-01
  0.669861511670E-01
  0.669861511670E-01
  0.121740263380E+00
  0.121740263380E+00
  0.203502595334E+00
  0.203502595334E+00
  0.339568726751E+00
  0.339568726751E+00
  0.731773857035E+00
  0.731773857035E+00
  0.582323380637E+00
  0.582323380637E+00
  0.146590881523E+00
  0.146590881523E+00
  0.559672084848E-02
  0.559672084848E-02
 -0.772173640440E-01
 -0.772173640440E-01
 -0.131915338025E+00
 -0.131915338025E+00
 -0.165895280940E+00
 -0.165895280940E+00
 -0.186092054355E+00
 -0.186092054355E+00
 -0.198795046236E+00
 -0.198795046236E+00
 -0.207129206792E+00
 -0.207129206792E+00
 -0.212408675107E+00
 -0.212408675107E+00
 -0.147013900125E-01
 -0.147013900125E-01
 -0.930217382907E-02
 -0.930217382907E-02
 -0.790968950867E-03
 -0.790968950867E-03
  0.121537910022E-01
  0.121537910022E-01
  0.326656899402E-01
  0.326656899402E-01
  0.669861511670E-01
  0.669861511670E-01
  0.121740263380E+00
  0.121740263380E+00
  0.203502595334E+00
  0.203502595334E+00
  0.339568726751E+00
  0.339568726751E+00
  0.731773857035E+00
  0.731773857035E+00
  0.582323380637E+00
  0.582323380637E+00
  0.146590881523E+00
  0.146590881523E+00
  0.559672084848E-02
  0.559672084848E-02
 -0.772173640440E-01
 -0.772173640440E-01
 -0.131915338025E+00
 -0.131915338025E+00
 -0.165895280940E+00
 -0.165895280940E+00
 -0.186092054355E+00
 -0.186092054355E+00
 -0.198795046236E+00
 -0.198795046236E+00
 -0.207129206792E+00
 -0.207129206792E+00
 -0.212408675107E+00
 -0.212408675107E+00
 -0.145718170126E-01
 -0.922008979625E-02
 -0.922008963553E-02
 -0.783976856041E-03
 -0.783976953429E-03
  0.120460949974E-01
  0.120460950257E-01
  0.323753272534E-01
  0.323753272402E-01
  0.663886998933E-01