# vtk DataFile Version 3.0
MachLine results file. Generated by MachLine, USU AeroLab (c) 2022.
ASCII
DATASET POLYDATA
POINTS                1191 float
  0.100000000000E+01  0.000000000000E+00  0.000000000000E+00
  0.100000000000E+01  0.000000000000E+00  0.000000000000E+00
  0.965617092460E+00  0.503720627990E+00 -0.394962905220E-02
  0.100000000000E+01  0.503720627990E+00  0.000000000000E+00
  0.100000000000E+01  0.503720627990E+00  0.000000000000E+00
  0.965617092460E+00  0.000000000000E+00 -0.394962905220E-02
  0.905490052860E+00  0.503720627990E+00 -0.105277887700E-01
  0.905490052860E+00  0.000000000000E+00 -0.105277887700E-01
  0.807861744690E+00  0.503720627990E+00 -0.203686189510E-01
  0.807861744690E+00  0.000000000000E+00 -0.203686189510E-01
  0.666965306180E+00  0.503720627990E+00 -0.327306847400E-01
  0.666965306180E+00  0.000000000000E+00 -0.327306847400E-01
  0.494699909170E+00  0.503720627990E+00 -0.442892746710E-01
  0.494699909170E+00  0.000000000000E+00 -0.442892746710E-01
  0.322148057390E+00  0.000000000000E+00 -0.499220386450E-01
  0.322148057390E+00  0.503720627990E+00 -0.499220386450E-01
  0.180771082860E+00  0.000000000000E+00 -0.467582932350E-01
  0.180771082860E+00  0.503720627990E+00 -0.467582932350E-01
  0.832331623890E-01  0.000000000000E+00 -0.364528323560E-01
  0.832331623890E-01  0.503720627990E+00 -0.364528323560E-01
  0.246816596840E-01  0.000000000000E+00 -0.217022398280E-01
  0.246816596840E-01  0.503720627990E+00 -0.217022398280E-01
  0.000000000000E+00  0.000000000000E+00  0.000000000000E+00
  0.000000000000E+00  0.503720627990E+00  0.000000000000E+00
  0.246816596840E-01  0.503720627990E+00  0.217022398280E-01
  0.246816596840E-01  0.000000000000E+00  0.217022398280E-01
  0.832331623890E-01  0.503720627990E+00  0.364528323560E-01
  0.832331623890E-01  0.000000000000E+00  0.364528323560E-01
  0.180771082860E+00  0.503720627990E+00  0.467582932350E-01
  0.180771082860E+00  0.000000000000E+00  0.467582932350E-01
  0.322148057390E+00  0.503720627990E+00  0.499220386450E-01
  0.322148057390E+00  0.000000000000E+00  0.499220386450E-01
  0.494699909170E+00  0.503720627990E+00  0.442892746710E-01
  0.494699909170E+00  0.000000000000E+00  0.442892746710E-01
  0.666965306180E+00  0.000000000000E+00  0.327306847400E-01
  0.666965306180E+00  0.503720627990E+00  0.327306847400E-01
  0.807861744690E+00  0.000000000000E+00  0.203686189510E-01
  0.807861744690E+00  0.503720627990E+00  0.203686189510E-01
  0.905490052860E+00  0.000000000000E+00  0.105277887700E-01
  0.905490052860E+00  0.503720627990E+00  0.105277887700E-01
  0.965617092460E+00  0.000000000000E+00  0.394962905220E-02
  0.965617092460E+00  0.503720627990E+00  0.394962905220E-02
  0.965617092460E+00  0.110747748820E+01 -0.394962905220E-02
  0.100000000000E+01  0.110747748820E+01  0.000000000000E+00
  0.100000000000E+01  0.110747748820E+01  0.000000000000E+00
  0.905490052860E+00  0.110747748820E+01 -0.105277887700E-01
  0.807861744690E+00  0.110747748820E+01 -0.203686189510E-01
  0.666965306180E+00  0.110747748820E+01 -0.327306847400E-01
  0.494699909170E+00  0.110747748820E+01 -0.442892746710E-01
  0.322148057390E+00  0.110747748820E+01 -0.499220386450E-01
  0.180771082860E+00  0.110747748820E+01 -0.467582932350E-01
  0.832331623890E-01  0.110747748820E+01 -0.364528323560E-01
  0.246816596840E-01  0.110747748820E+01 -0.217022398280E-01
  0.000000000000E+00  0.110747748820E+01  0.000000000000E+00
  0.246816596840E-01  0.110747748820E+01  0.217022398280E-01
  0.832331623890E-01  0.110747748820E+01  0.364528323560E-01
  0.180771082860E+00  0.110747748820E+01  0.467582932350E-01
  0.322148057390E+00  0.110747748820E+01  0.499220386450E-01
  0.494699909170E+00  0.110747748820E+01  0.442892746710E-01
  0.666965306180E+00  0.110747748820E+01  0.327306847400E-01
  0.807861744690E+00  0.110747748820E+01  0.203686189510E-01
  0.905490052860E+00  0.110747748820E+01  0.105277887700E-01
  0.965617092460E+00  0.110747748820E+01  0.394962905220E-02
  0.965617092460E+00  0.175813428970E+01 -0.394962905220E-02
  0.100000000000E+01  0.175813428970E+01  0.000000000000E+00
  0.100000000000E+01  0.175813428970E+01  0.000000000000E+00
  0.905490052860E+00  0.175813428970E+01 -0.105277887700E-01
  0.807861744690E+00  0.175813428970E+01 -0.203686189510E-01
  0.666965306180E+00  0.175813428970E+01 -0.327306847400E-01
  0.494699909170E+00  0.175813428970E+01 -0.442892746710E-01
  0.322148057390E+00  0.175813428970E+01 -0.499220386450E-01
  0.180771082860E+00  0.175813428970E+01 -0.467582932350E-01
  0.832331623890E-01  0.175813428970E+01 -0.364528323560E-01
  0.246816596840E-01  0.175813428970E+01 -0.217022398280E-01
  0.000000000000E+00  0.175813428970E+01  0.000000000000E+00
  0.246816596840E-01  0.175813428970E+01  0.217022398280E-01
  0.832331623890E-01  0.175813428970E+01  0.364528323560E-01
  0.180771082860E+00  0.175813428970E+01  0.467582932350E-01
  0.322148057390E+00  0.175813428970E+01  0.499220386450E-01
  0.494699909170E+00  0.175813428970E+01  0.442892746710E-01
  0.666965306180E+00  0.175813428970E+01  0.327306847400E-01
  0.807861744690E+00  0.175813428970E+01  0.203686189510E-01
  0.905490052860E+00  0.175813428970E+01  0.105277887700E-01
  0.965617092460E+00  0.175813428970E+01  0.394962905220E-02
  0.965617092460E+00  0.238369488720E+01 -0.394962905220E-02
  0.100000000000E+01  0.238369488720E+01  0.000000000000E+00
  0.100000000000E+01  0.238369488720E+01  0.000000000000E+00
  0.905490052860E+00  0.238369488720E+01 -0.105277887700E-01
  0.807861744690E+00  0.238369488720E+01 -0.203686189510E-01
  0.666965306180E+00  0.238369488720E+01 -0.327306847400E-01
  0.494699909170E+00  0.238369488720E+01 -0.442892746710E-01
  0.322148057390E+00  0.238369488720E+01 -0.499220386450E-01
  0.180771082860E+00  0.238369488720E+01 -0.467582932350E-01
  0.832331623890E-01  0.238369488720E+01 -0.364528323560E-01
  0.246816596840E-01  0.238369488720E+01 -0.217022398280E-01
  0.000000000000E+00  0.238369488720E+01  0.000000000000E+00
  0.246816596840E-01  0.238369488720E+01  0.217022398280E-01
  0.832331623890E-01  0.238369488720E+01  0.364528323560E-01
  0.180771082860E+00  0.238369488720E+01  0.467582932350E-01
  0.322148057390E+00  0.238369488720E+01  0.499220386450E-01
  0.494699909170E+00  0.238369488720E+01  0.442892746710E-01
  0.666965306180E+00  0.238369488720E+01  0.327306847400E-01
  0.807861744690E+00  0.238369488720E+01  0.203686189510E-01
  0.905490052860E+00  0.238369488720E+01  0.105277887700E-01
  0.965617092460E+00  0.238369488720E+01  0.394962905220E-02
  0.965617092460E+00  0.292249171970E+01 -0.394962905220E-02
  0.100000000000E+01  0.292249171970E+01  0.000000000000E+00
  0.100000000000E+01  0.292249171970E+01  0.000000000000E+00
  0.905490052860E+00  0.292249171970E+01 -0.105277887700E-01
  0.807861744690E+00  0.292249171970E+01 -0.203686189510E-01
  0.666965306180E+00  0.292249171970E+01 -0.327306847400E-01
  0.494699909170E+00  0.292249171970E+01 -0.442892746710E-01
  0.322148057390E+00  0.292249171970E+01 -0.499220386450E-01
  0.180771082860E+00  0.292249171970E+01 -0.467582932350E-01
  0.832331623890E-01  0.292249171970E+01 -0.364528323560E-01
  0.246816596840E-01  0.292249171970E+01 -0.217022398280E-01
  0.000000000000E+00  0.292249171970E+01  0.000000000000E+00
  0.246816596840E-01  0.292249171970E+01  0.217022398280E-01
  0.832331623890E-01  0.292249171970E+01  0.364528323560E-01
  0.180771082860E+00  0.292249171970E+01  0.467582932350E-01
  0.322148057390E+00  0.292249171970E+01  0.499220386450E-01
  0.494699909170E+00  0.292249171970E+01  0.442892746710E-01
  0.666965306180E+00  0.292249171970E+01  0.327306847400E-01
  0.807861744690E+00  0.292249171970E+01  0.203686189510E-01
  0.905490052860E+00  0.292249171970E+01  0.105277887700E-01
  0.965617092460E+00  0.292249171970E+01  0.394962905220E-02
  0.965617092460E+00  0.334432208550E+01 -0.394962905220E-02
  0.100000000000E+01  0.334432208550E+01  0.000000000000E+00
  0.100000000000E+01  0.334432208550E+01  0.000000000000E+00
  0.905490052860E+00  0.334432208550E+01 -0.105277887700E-01
  0.807861744690E+00  0.334432208550E+01 -0.203686189510E-01
  0.666965306180E+00  0.334432208550E+01 -0.327306847400E-01
  0.494699909170E+00  0.334432208550E+01 -0.442892746710E-01
  0.322148057390E+00  0.334432208550E+01 -0.499220386450E-01
  0.180771082860E+00  0.334432208550E+01 -0.467582932350E-01
  0.832331623890E-01  0.334432208550E+01 -0.364528323560E-01
  0.246816596840E-01  0.334432208550E+01 -0.217022398280E-01
  0.000000000000E+00  0.334432208550E+01  0.000000000000E+00
  0.246816596840E-01  0.334432208550E+01  0.217022398280E-01
  0.832331623890E-01  0.334432208550E+01  0.364528323560E-01
  0.180771082860E+00  0.334432208550E+01  0.467582932350E-01
  0.322148057390E+00  0.334432208550E+01  0.499220386450E-01
  0.494699909170E+00  0.334432208550E+01  0.442892746710E-01
  0.666965306180E+00  0.334432208550E+01  0.327306847400E-01
  0.807861744690E+00  0.334432208550E+01  0.203686189510E-01
  0.905490052860E+00  0.334432208550E+01  0.105277887700E-01
  0.965617092460E+00  0.334432208550E+01  0.394962905220E-02
  0.965617092460E+00  0.365057098370E+01 -0.394962905220E-02
  0.100000000000E+01  0.365057098370E+01  0.000000000000E+00
  0.100000000000E+01  0.365057098370E+01  0.000000000000E+00
  0.905490052860E+00  0.365057098370E+01 -0.105277887700E-01
  0.807861744690E+00  0.365057098370E+01 -0.203686189510E-01
  0.666965306180E+00  0.365057098370E+01 -0.327306847400E-01
  0.494699909170E+00  0.365057098370E+01 -0.442892746710E-01
  0.322148057390E+00  0.365057098370E+01 -0.499220386450E-01
  0.180771082860E+00  0.365057098370E+01 -0.467582932350E-01
  0.832331623890E-01  0.365057098370E+01 -0.364528323560E-01
  0.246816596840E-01  0.365057098370E+01 -0.217022398280E-01
  0.000000000000E+00  0.365057098370E+01  0.000000000000E+00
  0.246816596840E-01  0.365057098370E+01  0.217022398280E-01
  0.832331623890E-01  0.365057098370E+01  0.364528323560E-01
[...]
CELL_DATA                2304
SCALARS C_p_inc float 1
LOOKUP_TABLE default
 -0.318437441457E+00
 -0.318437441457E+00
 -0.318437441457E+00
 -0.318437441457E+00
 -0.680053755357E+00
 -0.680053755357E+00
 -0.680053755357E+00
 -0.680053755357E+00
 -0.234311056641E+00
 -0.234311056641E+00
 -0.234311056641E+00
 -0.234311056641E+00
 -0.137153103122E+00
 -0.137153103122E+00
 -0.137153103122E+00
 -0.137153103122E+00
 -0.678245972572E-01
 -0.678245972572E-01
 -0.678245972572E-01
 -0.678245972572E-01
 -0.571382522309E-01
 -0.571382522309E-01
 -0.571382522309E-01
 -0.571382522309E-01
 -0.501026165135E-01
 -0.501026165135E-01
 -0.501026165135E-01
 -0.501026165135E-01
 -0.501304517449E-01
 -0.501304517449E-01
 -0.501304517449E-01
 -0.501304517449E-01
 -0.531897351507E-01
 -0.531897351507E-01
 -0.531897351507E-01
 -0.531897351507E-01
 -0.486540182016E-01
 -0.486540182016E-01
 -0.486540182016E-01
 -0.486540182016E-01
 -0.444206360854E-01
 -0.444206360854E-01
 -0.444206360854E-01
 -0.444206360854E-01
 -0.445199227521E-01
 -0.445199227521E-01
 -0.445199227521E-01
 -0.445199227521E-01
 -0.192559521326E-01
 -0.192559521326E-01
 -0.192559521326E-01
 -0.192559521326E-01
  0.117322340020E-02
  0.117322340020E-02
  0.117322340020E-02
  0.117322340020E-02
  0.718906657839E-01
  0.718906657839E-01
  0.718906657839E-01
  0.718906657839E-01
  0.124325192259E+00
  0.124325192259E+00
  0.124325192259E+00
  0.124325192259E+00
  0.292779246065E+00
  0.292779246065E+00
  0.292779246065E+00
  0.292779246065E+00
  0.455898573692E+00
  0.455898573692E+00
  0.455898573692E+00
  0.455898573692E+00
  0.908582444759E+00
  0.908582444759E+00
  0.908582444759E+00
  0.908582444759E+00
  0.959252905710E+00
  0.959252905710E+00
  0.959252905710E+00
  0.959252905710E+00
 -0.144311466583E+01
 -0.144311466583E+01
 -0.144311466583E+01
 -0.144311466583E+01
 -0.186585848048E+01
 -0.186585848048E+01
 -0.186585848048E+01
 -0.186585848048E+01
 -0.158156741237E+01
 -0.158156741237E+01
 -0.158156741237E+01
 -0.158156741237E+01
 -0.138397300224E+01
 -0.138397300224E+01
 -0.138397300224E+01
 -0.138397300224E+01
 -0.103342499008E+01
 -0.103342499008E+01
 -0.103342499008E+01
 -0.103342499008E+01
 -0.911984996920E+00
 -0.911984996920E+00
 -0.911984996920E+00
 -0.911984996920E+00
 -0.715986758744E+00
 -0.715986758744E+00
 -0.715986758744E+00
 -0.715986758744E+00
 -0.633319696207E+00
 -0.633319696207E+00
 -0.633319696207E+00
 -0.633319696207E+00
 -0.494173707231E+00
 -0.494173707231E+00
 -0.494173707231E+00
 -0.494173707231E+00
 -0.425792250759E+00
 -0.425792250759E+00
 -0.425792250759E+00
 -0.425792250759E+00
 -0.321686211176E+00
 -0.321686211176E+00
 -0.321686211176E+00
 -0.321686211176E+00
 -0.280225408085E+00
 -0.280225408085E+00
 -0.280225408085E+00
 -0.280225408085E+00
 -0.200494239220E+00
 -0.200494239220E+00
 -0.200494239220E+00
 -0.200494239220E+00
 -0.166321082730E+00
 -0.166321082730E+00
 -0.166321082730E+00
 -0.166321082730E+00
 -0.111825087008E+00
 -0.111825087008E+00
 -0.111825087008E+00
 -0.111825087008E+00
 -0.923560173535E-01
 -0.923560173535E-01
 -0.923560173535E-01
 -0.923560173535E-01
 -0.898000287343E-01
 -0.898000287343E-01
 -0.898000287343E-01
 -0.898000287343E-01
 -0.133638184972E+00
 -0.133638184972E+00
 -0.133638184972E+00
 -0.133638184972E+00
 -0.398344044869E+00
 -0.398344044869E+00
 -0.398344044869E+00
 -0.398344044869E+00
 -0.289618219983E-01
 -0.289618219983E-01
 -0.289618219983E-01
 -0.289618219983E-01
 -0.318730095229E+00
 -0.318730095229E+00
 -0.318730095229E+00
 -0.318730095229E+00
 -0.678891356512E+00
 -0.678891356512E+00
 -0.678891356512E+00
 -0.678891356512E+00
 -0.234625557131E+00
 -0.234625557131E+00
 -0.234625557131E+00
 -0.234625557131E+00
 -0.136567060524E+00
 -0.136567060524E+00
 -0.136567060524E+00
 -0.136567060524E+00
 -0.687859833739E-01
 -0.687859833739E-01
 -0.687859833739E-01
 -0.687859833739E-01
 -0.573919490811E-01
 -0.573919490811E-01
 -0.573919490811E-01
 -0.573919490811E-01
 -0.522346034457E-01
 -0.522346034457E-01
 -0.522346034457E-01
 -0.522346034457E-01
 -0.523057488299E-01
 -0.523057488299E-01
 -0.523057488299E-01
 -0.523057488299E-01
 -0.583905312570E-01
 -0.583905312570E-01
 -0.583905312570E-01
 -0.583905312570E-01
 -0.582348740788E-01
 -0.582348740788E-01
 -0.582348740788E-01
 -0.582348740788E-01
 -0.586439694334E-01
 -0.586439694334E-01
 -0.586439694334E-01
 -0.586439694334E-01
 -0.537445173700E-01
 -0.537445173700E-01
 -0.537445173700E-01
 -0.537445173700E-01
 -0.317051731000E-01
 -0.317051731000E-01
 -0.317051731000E-01
 -0.317051731000E-01
 -0.819063581568E-02
 -0.819063581568E-02
 -0.819063581568E-02
 -0.819063581568E-02
  0.558911528821E-01
  0.558911528821E-01
  0.558911528821E-01
  0.558911528821E-01
  0.112764445154E+00
  0.112764445154E+00
  0.112764445154E+00
  0.112764445154E+00
  0.271929703143E+00
  0.271929703143E+00
  0.271929703143E+00
  0.271929703143E+00
  0.457782504589E+00
  0.457782504589E+00
  0.457782504589E+00
  0.457782504589E+00
  0.925158124982E+00
  0.925158124982E+00
  0.925158124982E+00
  0.925158124982E+00
  0.958742895639E+00
  0.958742895639E+00
  0.958742895639E+00
  0.958742895639E+00
 -0.139092440968E+01
 -0.139092440968E+01
 -0.139092440968E+01
 -0.139092440968E+01
 -0.174331249567E+01
 -0.174331249567E+01
 -0.174331249567E+01
 -0.174331249567E+01
 -0.154897109011E+01
 -0.154897109011E+01
 -0.154897109011E+01
 -0.154897109011E+01
 -0.141537300783E+01
 -0.141537300783E+01
 -0.141537300783E+01
 -0.141537300783E+01
 -0.104103035358E+01
 -0.104103035358E+01
 -0.104103035358E+01
 -0.104103035358E+01
 -0.930527811411E+00
 -0.930527811411E+00
 -0.930527811411E+00
 -0.930527811411E+00
 -0.721550252308E+00
 -0.721550252308E+00
 -0.721550252308E+00
 -0.721550252308E+00
 -0.645594199522E+00
 -0.645594199522E+00
 -0.645594199522E+00
 -0.645594199522E+00
 -0.500414033468E+00
 -0.500414033468E+00
 -0.500414033468E+00
 -0.500414033468E+00
 -0.439695198503E+00
 -0.439695198503E+00
 -0.439695198503E+00
 -0.439695198503E+00
 -0.330148942682E+00
 -0.330148942682E+00
 -0.330148942682E+00
 -0.330148942682E+00
 -0.282807220811E+00
 -0.282807220811E+00
 -0.282807220811E+00
 -0.282807220811E+00
 -0.201230555007E+00
 -0.201230555007E+00
 -0.201230555007E+00
 -0.201230555007E+00
 -0.166353251785E+00
 -0.166353251785E+00
 -0.166353251785E+00
 -0.166353251785E+00
 -0.111003568027E+00
 -0.111003568027E+00
 -0.111003568027E+00
 -0.111003568027E+00
 -0.917776227147E-01
 -0.917776227147E-01
 -0.917776227147E-01
 -0.917776227147E-01
 -0.885113320551E-01
 -0.885113320551E-01
 -0.885113320551E-01
 -0.885113320551E-01
 -0.132824182772E+00
 -0.132824182772E+00
 -0.132824182772E+00
 -0.132824182772E+00
 -0.396637166145E+00
 -0.396637166145E+00
 -0.396637166145E+00
 -0.396637166145E+00
 -0.283084656162E-01
 -0.283084656162E-01
 -0.283084656162E-01
 -0.283084656162E-01
 -0.320550689432E+00
 -0.320550689432E+00
 -0.320550689432E+00
 -0.320550689432E+00
 -0.680881001955E+00
 -0.680881001955E+00
 -0.680881001955E+00
 -0.680881001955E+00
 -0.236542405512E+00
 -0.236542405512E+00
 -0.236542405512E+00
 -0.236542405512E+00
 -0.138364030463E+00
 -0.138364030463E+00
 -0.138364030463E+00
 -0.138364030463E+00
 -0.710404056289E-01
 -0.710404056289E-01
 -0.710404056289E-01
 -0.710404056289E-01
 -0.596142424138E-01
 -0.596142424138E-01
 -0.596142424138E-01
 -0.596142424138E-01
 -0.551819238018E-01
 -0.551819238018E-01
 -0.551819238018E-01
 -0.551819238018E-01
 -0.553203526939E-01
 -0.553203526939E-01
 -0.553203526939E-01
 -0.553203526939E-01
 -0.622852578471E-01
 -0.622852578471E-01
 -0.622852578471E-01
 -0.622852578471E-01
 -0.623992223275E-01
 -0.623992223275E-01
 -0.623992223275E-01
 -0.623992223275E-01
 -0.635103770119E-01
 -0.635103770119E-01
 -0.635103770119E-01
 -0.635103770119E-01
 -0.590615046711E-01
 -0.590615046711E-01
 -0.590615046711E-01
 -0.590615046711E-01
 -0.373229686591E-01
 -0.373229686591E-01
 -0.373229686591E-01
 -0.373229686591E-01
 -0.148406244804E-01
 -0.148406244804E-01
 -0.148406244804E-01
 -0.148406244804E-01
  0.493112087667E-01
  0.493112087667E-01
  0.493112087667E-01
  0.493112087667E-01
  0.104129867252E+00
  0.104129867252E+00
  0.104129867252E+00
  0.104129867252E+00
  0.263988855642E+00
  0.263988855642E+00
  0.263988855642E+00
  0.263988855642E+00
  0.446701746780E+00
  0.446701746780E+00
  0.446701746780E+00
  0.446701746780E+00
  0.920216318886E+00
  0.920216318886E+00
  0.920216318886E+00
  0.920216318886E+00
  0.963608244788E+00
  0.963608244788E+00
  0.963608244788E+00
  0.963608244788E+00
 -0.134343743946E+01
 -0.134343743946E+01
 -0.134343743946E+01
 -0.134343743946E+01
 -0.171068604310E+01
 -0.171068604310E+01
 -0.171068604310E+01
 -0.171068604310E+01
 -0.152325870356E+01
 -0.152325870356E+01
 -0.152325870356E+01
 -0.152325870356E+01
 -0.139884990282E+01
 -0.139884990282E+01
 -0.139884990282E+01
 -0.139884990282E+01
 -0.102695489980E+01
 -0.102695489980E+01
 -0.102695489980E+01
 -0.102695489980E+01
 -0.921999163931E+00
 -0.921999163931E+00
 -0.921999163931E+00
 -0.921999163931E+00
 -0.712603247877E+00
 -0.712603247877E+00
 -0.712603247877E+00
 -0.712603247877E+00
 -0.640765110842E+00
 -0.640765110842E+00
 -0.640765110842E+00
 -0.640765110842E+00
 -0.494484093067E+00
 -0.494484093067E+00
 -0.494484093067E+00
 -0.494484093067E+00
 -0.437014358772E+00
 -0.437014358772E+00
 -0.437014358772E+00
 -0.437014358772E+00
 -0.328038294218E+00
 -0.328038294218E+00
 -0.328038294218E+00
 -0.328038294218E+00
 -0.279231492808E+00
 -0.279231492808E+00
 -0.279231492808E+00
 -0.279231492808E+00
 -0.199632817290E+00
 -0.199632817290E+00
 -0.199632817290E+00
 -0.199632817290E+00
 -0.163897089171E+00
 -0.163897089171E+00
 -0.163897089171E+00
 -0.163897089171E+00
 -0.109821173955E+00
 -0.109821173955E+00
 -0.109821173955E+00
 -0.109821173955E+00
 -0.900945762590E-01
 -0.900945762590E-01
 -0.900945762590E-01
 -0.900945762590E-01
 -0.876095768167E-01
 -0.876095768167E-01
 -0.876095768167E-01
 -0.876095768167E-01
 -0.131570541320E+00
 -0.131570541320E+00
 -0.131570541320E+00
 -0.131570541320E+00
 -0.395670656220E+00
 -0.395670656220E+00
 -0.395670656220E+00
 -0.395670656220E+00
 -0.272735571239E-01
 -0.272735571239E-01
 -0.272735571239E-01
 -0.272735571239E-01
 -0.321265540669E+00
 -0.321265540669E+00
 -0.321265540669E+00
 -0.321265540669E+00
 -0.682285988601E+00
 -0.682285988601E+00
 -0.682285988601E+00
 -0.682285988601E+00
 -0.238567250130E+00
 -0.238567250130E+00
 -0.238567250130E+00
 -0.238567250130E+00
 -0.140446345414E+00
 -0.140446345414E+00
 -0.140446345414E+00
 -0.140446345414E+00
 -0.740709918018E-01
 -0.740709918018E-01
 -0.740709918018E-01
 -0.740709918018E-01
 -0.626091218977E-01
 -0.626091218977E-01
 -0.626091218977E-01
 -0.626091218977E-01
 -0.595440467169E-01
 -0.595440467169E-01
 -0.595440467169E-01
 -0.595440467169E-01
 -0.594997861290E-01
 -0.594997861290E-01
 -0.594997861290E-01
 -0.594997861290E-01
 -0.683085859867E-01
 -0.683085859867E-01
 -0.683085859867E-01
 -0.683085859867E-01
 -0.680588590860E-01
 -0.680588590860E-01
 -0.680588590860E-01
 -0.680588590860E-01
 -0.702509120334E-01
 -0.702509120334E-01
 -0.702509120334E-01
 -0.702509120334E-01
 -0.678565611370E-01
 -0.678565611370E-01
 -0.678565611370E-01
 -0.678565611370E-01
 -0.462029605899E-01
 -0.462029605899E-01
 -0.462029605899E-01
 -0.462029605899E-01
 -0.264910428017E-01
 -0.264910428017E-01
 -0.264910428017E-01
 -0.264910428017E-01
  0.374616468795E-01
  0.374616468795E-01
  0.374616468795E-01
  0.374616468795E-01
  0.884283046885E-01
  0.884283046885E-01
  0.884283046885E-01
  0.884283046885E-01
  0.247761930193E+00
  0.247761930193E+00
  0.247761930193E+00
  0.247761930193E+00
  0.426138186971E+00
  0.426138186971E+00
  0.426138186971E+00
  0.426138186971E+00
  0.909750295276E+00
  0.909750295276E+00
  0.909750295276E+00
  0.909750295276E+00
  0.971303139028E+00
  0.971303139028E+00
  0.971303139028E+00
  0.971303139028E+00
 -0.125790845558E+01
 -0.125790845558E+01
 -0.125790845558E+01
 -0.125790845558E+01
 -0.164926850676E+01
 -0.164926850676E+01
 -0.164926850676E+01
 -0.164926850676E+01
 -0.147616260442E+01
 -0.147616260442E+01
 -0.147616260442E+01
 -0.147616260442E+01
 -0.136726986076E+01
 -0.136726986076E+01
 -0.136726986076E+01
 -0.136726986076E+01
 -0.100043283762E+01
 -0.100043283762E+01
 -0.100043283762E+01
 -0.100043283762E+01
 -0.903103500217E+00
 -0.903103500217E+00
 -0.903103500217E+00
 -0.903103500217E+00
 -0.694809645501E+00
 -0.694809645501E+00
 -0.694809645501E+00
 -0.694809645501E+00
 -0.627901200477E+00
 -0.627901200477E+00
 -0.627901200477E+00
 -0.627901200477E+00
 -0.481768485365E+00
 -0.481768485365E+00
 -0.481768485365E+00
 -0.481768485365E+00
 -0.427911447809E+00
 -0.427911447809E+00
 -0.427911447809E+00
 -0.427911447809E+00
 -0.320716601731E+00
 -0.320716601731E+00
 -0.320716601731E+00
 -0.320716601731E+00
 -0.271059569956E+00
 -0.271059569956E+00
 -0.271059569956E+00
 -0.271059569956E+00
 -0.194572332607E+00
 -0.194572332607E+00
 -0.194572332607E+00
 -0.194572332607E+00
 -0.158302129625E+00
 -0.158302129625E+00
 -0.158302129625E+00
 -0.158302129625E+00
 -0.106479250061E+00
 -0.106479250061E+00
 -0.106479250061E+00
 -0.106479250061E+00
 -0.864744647783E-01
 -0.864744647783E-01
 -0.864744647783E-01
 -0.864744647783E-01
 -0.855256420337E-01
 -0.855256420337E-01
 -0.855256420337E-01
 -0.855256420337E-01
 -0.129376705638E+00
 -0.129376705638E+00
 -0.129376705638E+00
 -0.129376705638E+00
 -0.394513809561E+00
 -0.394513809561E+00
 -0.394513809561E+00
 -0.394513809561E+00
 -0.266390307112E-01
 -0.266390307112E-01
 -0.266390307112E-01
 -0.266390307112E-01
 -0.322103004175E+00
 -0.322103004175E+00
 -0.322103004175E+00
 -0.322103004175E+00
 -0.683954883816E+00
 -0.683954883816E+00
 -0.683954883816E+00
 -0.683954883816E+00
 -0.241517709448E+00
 -0.241517709448E+00
 -0.241517709448E+00
 -0.241517709448E+00
 -0.143448988531E+00
 -0.143448988531E+00
 -0.143448988531E+00
 -0.143448988531E+00
 -0.786381777079E-01
 -0.786381777079E-01
 -0.786381777079E-01
 -0.786381777079E-01
 -0.671676001793E-01
 -0.671676001793E-01
 -0.671676001793E-01
 -0.671676001793E-01
 -0.661643653707E-01
 -0.661643653707E-01
 -0.661643653707E-01
 -0.661643653707E-01
 -0.660223973852E-01
 -0.660223973852E-01
 -0.660223973852E-01
 -0.660223973852E-01
 -0.774922709319E-01
 -0.774922709319E-01
 -0.774922709319E-01
 -0.774922709319E-01
 -0.770252728285E-01
 -0.770252728285E-01
 -0.770252728285E-01
 -0.770252728285E-01
 -0.810617135952E-01
 -0.810617135952E-01
 -0.810617135952E-01
 -0.810617135952E-01
 -0.814440166767E-01
 -0.814440166767E-01
 -0.814440166767E-01
 -0.814440166767E-01
 -0.606247477368E-01
 -0.606247477368E-01
 -0.606247477368E-01
 -0.606247477368E-01
 -0.446135937395E-01
 -0.446135937395E-01
 -0.446135937395E-01
 -0.446135937395E-01
  0.180583089430E-01
  0.180583089430E-01
  0.180583089430E-01
  0.180583089430E-01
  0.638840135428E-01
  0.638840135428E-01
  0.638840135428E-01
  0.638840135428E-01
  0.220952826649E+00
  0.220952826649E+00
  0.220952826649E+00
  0.220952826649E+00
  0.393571299949E+00
  0.393571299949E+00
  0.393571299949E+00
  0.393571299949E+00
  0.891266624787E+00
  0.891266624787E+00
  0.891266624787E+00
  0.891266624787E+00
  0.980164553651E+00
  0.980164553651E+00
  0.980164553651E+00
  0.980164553651E+00
 -0.112743961771E+01
 -0.112743961771E+01
 -0.112743961771E+01
 -0.112743961771E+01
 -0.154953637261E+01
 -0.154953637261E+01
 -0.154953637261E+01
 -0.154953637261E+01
 -0.140214239239E+01
 -0.140214239239E+01
 -0.140214239239E+01
 -0.140214239239E+01
 -0.131478151923E+01
 -0.131478151923E+01
 -0.131478151923E+01
 -0.131478151923E+01
 -0.957532675692E+00
 -0.957532675692E+00
 -0.957532675692E+00
 -0.957532675692E+00
 -0.870830462248E+00
 -0.870830462248E+00
 -0.870830462248E+00
 -0.870830462248E+00
 -0.665039964374E+00
 -0.665039964374E+00
 -0.665039964374E+00
 -0.665039964374E+00
 -0.605173265904E+00
 -0.605173265904E+00
 -0.605173265904E+00
 -0.605173265904E+00
 -0.459757294628E+00
 -0.459757294628E+00
 -0.459757294628E+00
 -0.459757294628E+00
 -0.411272634997E+00
 -0.411272634997E+00
 -0.411272634997E+00
 -0.411272634997E+00
 -0.307147565093E+00
 -0.307147565093E+00
 -0.307147565093E+00
 -0.307147565093E+00
 -0.256507039764E+00
 -0.256507039764E+00
 -0.256507039764E+00
 -0.256507039764E+00
 -0.185065903223E+00
 -0.185065903223E+00
 -0.185065903223E+00
 -0.185065903223E+00
 -0.148256965827E+00
 -0.148256965827E+00
 -0.148256965827E+00
 -0.148256965827E+00
 -0.100193539659E+00
 -0.100193539659E+00
 -0.100193539659E+00
 -0.100193539659E+00
 -0.799779498696E-01
 -0.799779498696E-01
 -0.799779498696E-01
 -0.799779498696E-01
 -0.816482062277E-01
 -0.816482062277E-01
 -0.816482062277E-01
 -0.816482062277E-01
 -0.125460995546E+00
 -0.125460995546E+00
 -0.125460995546E+00
 -0.125460995546E+00
 -0.392439686960E+00
 -0.392439686960E+00
 -0.392439686960E+00
 -0.392439686960E+00
 -0.255908570333E-01
 -0.255908570333E-01
 -0.255908570333E-01
 -0.255908570333E-01
 -0.323465555700E+00
 -0.323465555700E+00
 -0.323465555700E+00
 -0.323465555700E+00
 -0.686423177847E+00
 -0.686423177847E+00
 -0.686423177847E+00
 -0.686423177847E+00
 -0.245821499475E+00
 -0.245821499475E+00
 -0.245821499475E+00
 -0.245821499475E+00
 -0.147845000331E+00
 -0.147845000331E+00
 -0.147845000331E+00
 -0.147845000331E+00
 -0.849753519100E-01
 -0.849753519100E-01
 -0.849753519100E-01
 -0.849753519100E-01
 -0.736557560530E-01
 -0.736557560530E-01
 -0.736557560530E-01
 -0.736557560530E-01
 -0.749375351994E-01
 -0.749375351994E-01
 -0.749375351994E-01
 -0.749375351994E-01
 -0.751048157567E-01
 -0.751048157567E-01
 -0.751048157567E-01
 -0.751048157567E-01
 -0.893772384429E-01
 -0.893772384429E-01
 -0.893772384429E-01
 -0.893772384429E-01
 -0.894391879505E-01
 -0.894391879505E-01
 -0.894391879505E-01
 -0.894391879505E-01
 -0.961466813107E-01
 -0.961466813107E-01
 -0.961466813107E-01
 -0.961466813107E-01
 -0.993874547938E-01
 -0.993874547938E-01
 -0.993874547938E-01
 -0.993874547938E-01
 -0.810520246350E-01
 -0.810520246350E-01
 -0.810520246350E-01
 -0.810520246350E-01
 -0.691853710885E-01
 -0.691853710885E-01
 -0.691853710885E-01
 -0.691853710885E-01
 -0.975673330376E-02
 -0.975673330376E-02
 -0.975673330376E-02
 -0.975673330376E-02
  0.299945785758E-01
  0.299945785758E-01
  0.299945785758E-01
  0.299945785758E-01
  0.182068330210E+00
  0.182068330210E+00
  0.182068330210E+00
  0.182068330210E+00
  0.347640297143E+00
  0.347640297143E+00
  0.347640297143E+00
  0.347640297143E+00
  0.861938750677E+00
  0.861938750677E+00
  0.861938750677E+00
  0.861938750677E+00
  0.986219401271E+00
  0.986219401271E+00
  0.986219401271E+00
  0.986219401271E+00
 -0.953470939288E+00
 -0.953470939288E+00
 -0.953470939288E+00
 -0.953470939288E+00
 -0.140840739018E+01
 -0.140840739018E+01
 -0.140840739018E+01
 -0.140840739018E+01
 -0.129900533215E+01
 -0.129900533215E+01
 -0.129900533215E+01
 -0.129900533215E+01
 -0.123779430933E+01
 -0.123779430933E+01
 -0.123779430933E+01
 -0.123779430933E+01
 -0.895144213740E+00
 -0.895144213740E+00
 -0.895144213740E+00
 -0.895144213740E+00
 -0.821625333056E+00
 -0.821625333056E+00
 -0.821625333056E+00
 -0.821625333056E+00
 -0.619654804290E+00
 -0.619654804290E+00
 -0.619654804290E+00
 -0.619654804290E+00
 -0.569016094122E+00
 -0.569016094122E+00
 -0.569016094122E+00
 -0.569016094122E+00
 -0.424802281427E+00
 -0.424802281427E+00
 -0.424802281427E+00
 -0.424802281427E+00
 -0.383870996599E+00
 -0.383870996599E+00
 -0.383870996599E+00
 -0.383870996599E+00
 -0.284543944556E+00
 -0.284543944556E+00
 -0.284543944556E+00
 -0.284543944556E+00
 -0.232932910830E+00
 -0.232932910830E+00
 -0.232932910830E+00
 -0.232932910830E+00
 -0.169196953470E+00
 -0.169196953470E+00
 -0.169196953470E+00
 -0.169196953470E+00
 -0.132214592072E+00
 -0.132214592072E+00
 -0.132214592072E+00
 -0.132214592072E+00
 -0.898732908839E-01
 -0.898732908839E-01
 -0.898732908839E-01
 -0.898732908839E-01
 -0.700132249271E-01
 -0.700132249271E-01
 -0.700132249271E-01
 -0.700132249271E-01
 -0.754809810549E-01
 -0.754809810549E-01
 -0.754809810549E-01
 -0.754809810549E-01