# vtk DataFile Version 3.0
MachLine results file. Generated by MachLine, USU AeroLab (c) 2022.
ASCII
DATASET POLYDATA
POINTS                  57 float
  0.100000000000E+01  0.000000000000E+00  0.000000000000E+00
  0.198118811881E+02  0.000000000000E+00  0.188118811881E+01
  0.100000000000E+01  0.503720627990E+00  0.000000000000E+00
  0.198118811881E+02  0.503720627990E+00  0.188118811881E+01
  0.100000000000E+01  0.110747748820E+01  0.000000000000E+00
  0.198118811881E+02  0.110747748820E+01  0.188118811881E+01
  0.100000000000E+01  0.175813428970E+01  0.000000000000E+00
  0.198118811881E+02  0.175813428970E+01  0.188118811881E+01
  0.100000000000E+01  0.238369488720E+01  0.000000000000E+00
  0.198118811881E+02  0.238369488720E+01  0.188118811881E+01
  0.100000000000E+01  0.292249171970E+01  0.000000000000E+00
  0.198118811881E+02  0.292249171970E+01  0.188118811881E+01
  0.100000000000E+01  0.334432208550E+01  0.000000000000E+00
  0.198118811881E+02  0.334432208550E+01  0.188118811881E+01
  0.100000000000E+01  0.365057098370E+01  0.000000000000E+00
  0.198118811881E+02  0.365057098370E+01  0.188118811881E+01
  0.100000000000E+01  0.386093553560E+01  0.000000000000E+00
  0.198118811881E+02  0.386093553560E+01  0.188118811881E+01
  0.100000000000E+01  0.400000000000E+01  0.000000000000E+00
  0.198118811881E+02  0.400000000000E+01  0.188118811881E+01
  0.104059405941E+02  0.251860313995E+00  0.940594059406E+00
  0.104059405941E+02  0.503720627990E+00  0.940594059406E+00
  0.198118811881E+02  0.251860313995E+00  0.188118811881E+01
  0.104059405941E+02  0.000000000000E+00  0.940594059406E+00
  0.100000000000E+01  0.251860313995E+00  0.000000000000E+00
  0.104059405941E+02  0.805599058095E+00  0.940594059406E+00
  0.104059405941E+02  0.110747748820E+01  0.940594059406E+00
  0.198118811881E+02  0.805599058095E+00  0.188118811881E+01
  0.100000000000E+01  0.805599058095E+00  0.000000000000E+00
  0.104059405941E+02  0.143280588895E+01  0.940594059406E+00
  0.104059405941E+02  0.175813428970E+01  0.940594059406E+00
  0.198118811881E+02  0.143280588895E+01  0.188118811881E+01
  0.100000000000E+01  0.143280588895E+01  0.000000000000E+00
  0.104059405941E+02  0.207091458845E+01  0.940594059406E+00
  0.104059405941E+02  0.238369488720E+01  0.940594059406E+00
  0.198118811881E+02  0.207091458845E+01  0.188118811881E+01
  0.100000000000E+01  0.207091458845E+01  0.000000000000E+00
  0.104059405941E+02  0.265309330345E+01  0.940594059406E+00
  0.104059405941E+02  0.292249171970E+01  0.940594059406E+00
  0.198118811881E+02  0.265309330345E+01  0.188118811881E+01
  0.100000000000E+01  0.265309330345E+01  0.000000000000E+00
  0.104059405941E+02  0.313340690260E+01  0.940594059406E+00
  0.104059405941E+02  0.334432208550E+01  0.940594059406E+00
  0.198118811881E+02  0.313340690260E+01  0.188118811881E+01
  0.100000000000E+01  0.313340690260E+01  0.000000000000E+00
  0.104059405941E+02  0.349744653460E+01  0.940594059406E+00
  0.104059405941E+02  0.365057098370E+01  0.940594059406E+00
  0.198118811881E+02  0.349744653460E+01  0.188118811881E+01
  0.100000000000E+01  0.349744653460E+01  0.000000000000E+00
  0.104059405941E+02  0.375575325965E+01  0.940594059406E+00
  0.104059405941E+02  0.386093553560E+01  0.940594059406E+00
  0.198118811881E+02  0.375575325965E+01  0.188118811881E+01
  0.100000000000E+01  0.375575325965E+01  0.000000000000E+00
  0.104059405941E+02  0.393046776780E+01  0.940594059406E+00
  0.104059405941E+02  0.400000000000E+01  0.940594059406E+00
  0.198118811881E+02  0.393046776780E+01  0.188118811881E+01
  0.100000000000E+01  0.393046776780E+01  0.000000000000E+00
POLYGONS                  18                  72
3                   2                   3                   1
3                   2                   1                   0
3                   4                   5                   3
3                   4                   3                   2
3                   6                   7                   5
3                   6                   5                   4
3                   8                   9                   7
3                   8                   7                   6
3                  10                  11                   9
3                  10                   9                   8
3                  12                  13                  11
3                  12                  11                  10
3                  14                  15                  13
3                  14                  13                  12
3                  16                  17                  15
3                  16                  15                  14
3                  18                  19                  17
3                  18                  17                  16
CELL_DATA                  18
NORMALS normals float
  0.995037190210E-01  0.000000000000E+00 -0.995037190210E+00
  0.995037190210E-01  0.000000000000E+00 -0.995037190210E+00
  0.995037190210E-01  0.000000000000E+00 -0.995037190210E+00
  0.995037190210E-01  0.000000000000E+00 -0.995037190210E+00
  0.995037190210E-01  0.000000000000E+00 -0.995037190210E+00
  0.995037190210E-01  0.000000000000E+00 -0.995037190210E+00
  0.995037190210E-01  0.000000000000E+00 -0.995037190210E+00
  0.995037190210E-01  0.000000000000E+00 -0.995037190210E+00
  0.995037190210E-01  0.000000000000E+00 -0.995037190210E+00
  0.995037190210E-01  0.000000000000E+00 -0.995037190210E+00
  0.995037190210E-01  0.000000000000E+00 -0.995037190210E+00
  0.995037190210E-01  0.000000000000E+00 -0.995037190210E+00
  0.995037190210E-01  0.000000000000E+00 -0.995037190210E+00
  0.995037190210E-01  0.000000000000E+00 -0.995037190210E+00
  0.995037190210E-01  0.000000000000E+00 -0.995037190210E+00
  0.995037190210E-01  0.000000000000E+00 -0.995037190210E+00
  0.995037190210E-01  0.000000000000E+00 -0.995037190210E+00
  0.995037190210E-01  0.000000000000E+00 -0.995037190210E+00
POINT_DATA                  57
SCALARS mu float 1
LOOKUP_TABLE default
 -0.162393044221E-02
 -0.162393044221E-02
 -0.408326819906E-02
 -0.408326819906E-02
 -0.252043580551E-02
 -0.252043580551E-02
 -0.210594641598E-02
 -0.210594641598E-02
 -0.275588609329E-02
 -0.275588609329E-02
 -0.305792338339E-02
 -0.305792338339E-02
 -0.261351646424E-02
 -0.261351646424E-02
 -0.445051797013E-02
 -0.445051797013E-02
 -0.641914802060E-02
 -0.641914802060E-02
  0.000000000000E+00
  0.000000000000E+00
  0.520015703413E-03
 -0.408326819906E-02
  0.520015703413E-03
 -0.162393044221E-02
  0.520015703413E-03
  0.558318130069E-03
 -0.252043580551E-02
  0.558318130069E-03
  0.558318130069E-03
  0.434564758119E-03
 -0.210594641598E-02
  0.434564758119E-03
  0.434564758119E-03
  0.467548422953E-03
 -0.275588609329E-02
  0.467548422953E-03
  0.467548422953E-03
  0.543705734353E-03
 -0.305792338339E-02
  0.543705734353E-03
  0.543705734353E-03
  0.573971552891E-03
 -0.261351646424E-02
  0.573971552891E-03
  0.573971552891E-03
  0.785728290780E-03
 -0.445051797013E-02
  0.785728290780E-03
  0.785728290780E-03
  0.854646320203E-03
 -0.641914802060E-02
  0.854646320203E-03
  0.854646320203E-03
  0.242670480634E-04
  0.000000000000E+00
  0.242670480634E-04
  0.242670480634E-04
