# vtk DataFile Version 3.0
MachLine results file. Generated by MachLine, USU AeroLab (c) 2022.
ASCII
DATASET POLYDATA
POINTS                1191 float
  0.100000000000E+01  0.000000000000E+00  0.000000000000E+00
  0.965617092460E+00  0.503720627990E+00 -0.394962905220E-02
  0.100000000000E+01  0.503720627990E+00  0.000000000000E+00
  0.965617092460E+00  0.000000000000E+00 -0.394962905220E-02
  0.905490052860E+00  0.503720627990E+00 -0.105277887700E-01
  0.905490052860E+00  0.000000000000E+00 -0.105277887700E-01
  0.807861744690E+00  0.503720627990E+00 -0.203686189510E-01
  0.807861744690E+00  0.000000000000E+00 -0.203686189510E-01
  0.666965306180E+00  0.503720627990E+00 -0.327306847400E-01
  0.666965306180E+00  0.000000000000E+00 -0.327306847400E-01
  0.494699909170E+00  0.503720627990E+00 -0.442892746710E-01
  0.494699909170E+00  0.000000000000E+00 -0.442892746710E-01
  0.322148057390E+00  0.000000000000E+00 -0.499220386450E-01
  0.322148057390E+00  0.503720627990E+00 -0.499220386450E-01
  0.180771082860E+00  0.000000000000E+00 -0.467582932350E-01
  0.180771082860E+00  0.503720627990E+00 -0.467582932350E-01
  0.832331623890E-01  0.000000000000E+00 -0.364528323560E-01
  0.832331623890E-01  0.503720627990E+00 -0.364528323560E-01
  0.246816596840E-01  0.000000000000E+00 -0.217022398280E-01
  0.246816596840E-01  0.503720627990E+00 -0.217022398280E-01
  0.000000000000E+00  0.000000000000E+00  0.000000000000E+00
  0.000000000000E+00  0.503720627990E+00  0.000000000000E+00
  0.246816596840E-01  0.503720627990E+00  0.217022398280E-01
  0.246816596840E-01  0.000000000000E+00  0.217022398280E-01
  0.832331623890E-01  0.503720627990E+00  0.364528323560E-01
  0.832331623890E-01  0.000000000000E+00  0.364528323560E-01
  0.180771082860E+00  0.503720627990E+00  0.467582932350E-01
  0.180771082860E+00  0.000000000000E+00  0.467582932350E-01
  0.322148057390E+00  0.503720627990E+00  0.499220386450E-01
  0.322148057390E+00  0.000000000000E+00  0.499220386450E-01
  0.494699909170E+00  0.503720627990E+00  0.442892746710E-01
  0.494699909170E+00  0.000000000000E+00  0.442892746710E-01
  0.666965306180E+00  0.000000000000E+00  0.327306847400E-01
  0.666965306180E+00  0.503720627990E+00  0.327306847400E-01
  0.807861744690E+00  0.000000000000E+00  0.203686189510E-01
  0.807861744690E+00  0.503720627990E+00  0.203686189510E-01
  0.905490052860E+00  0.000000000000E+00  0.105277887700E-01
  0.905490052860E+00  0.503720627990E+00  0.105277887700E-01
  0.965617092460E+00  0.000000000000E+00  0.394962905220E-02
  0.965617092460E+00  0.503720627990E+00  0.394962905220E-02
  0.965617092460E+00  0.110747748820E+01 -0.394962905220E-02
  0.100000000000E+01  0.110747748820E+01  0.000000000000E+00
  0.905490052860E+00  0.110747748820E+01 -0.105277887700E-01
  0.807861744690E+00  0.110747748820E+01 -0.203686189510E-01
  0.666965306180E+00  0.110747748820E+01 -0.327306847400E-01
  0.494699909170E+00  0.110747748820E+01 -0.442892746710E-01
  0.322148057390E+00  0.110747748820E+01 -0.499220386450E-01
  0.180771082860E+00  0.110747748820E+01 -0.467582932350E-01
  0.832331623890E-01  0.110747748820E+01 -0.364528323560E-01
  0.246816596840E-01  0.110747748820E+01 -0.217022398280E-01
  0.000000000000E+00  0.110747748820E+01  0.000000000000E+00
  0.246816596840E-01  0.110747748820E+01  0.217022398280E-01
  0.832331623890E-01  0.110747748820E+01  0.364528323560E-01
  0.180771082860E+00  0.110747748820E+01  0.467582932350E-01
  0.322148057390E+00  0.110747748820E+01  0.499220386450E-01
  0.494699909170E+00  0.110747748820E+01  0.442892746710E-01
  0.666965306180E+00  0.110747748820E+01  0.327306847400E-01
  0.807861744690E+00  0.110747748820E+01  0.203686189510E-01
  0.905490052860E+00  0.110747748820E+01  0.105277887700E-01
  0.965617092460E+00  0.110747748820E+01  0.394962905220E-02
  0.965617092460E+00  0.175813428970E+01 -0.394962905220E-02
  0.100000000000E+01  0.175813428970E+01  0.000000000000E+00
  0.905490052860E+00  0.175813428970E+01 -0.105277887700E-01
  0.807861744690E+00  0.175813428970E+01 -0.203686189510E-01
  0.666965306180E+00  0.175813428970E+01 -0.327306847400E-01
  0.494699909170E+00  0.175813428970E+01 -0.442892746710E-01
  0.322148057390E+00  0.175813428970E+01 -0.499220386450E-01
  0.180771082860E+00  0.175813428970E+01 -0.467582932350E-01
  0.832331623890E-01  0.175813428970E+01 -0.364528323560E-01
  0.246816596840E-01  0.175813428970E+01 -0.217022398280E-01
  0.000000000000E+00  0.175813428970E+01  0.000000000000E+00
  0.246816596840E-01  0.175813428970E+01  0.217022398280E-01
  0.832331623890E-01  0.175813428970E+01  0.364528323560E-01
  0.180771082860E+00  0.175813428970E+01  0.467582932350E-01
  0.322148057390E+00  0.175813428970E+01  0.499220386450E-01
  0.494699909170E+00  0.175813428970E+01  0.442892746710E-01
  0.666965306180E+00  0.175813428970E+01  0.327306847400E-01
  0.807861744690E+00  0.175813428970E+01  0.203686189510E-01
  0.905490052860E+00  0.175813428970E+01  0.105277887700E-01
  0.965617092460E+00  0.175813428970E+01  0.394962905220E-02
  0.965617092460E+00  0.238369488720E+01 -0.394962905220E-02
  0.100000000000E+01  0.238369488720E+01  0.000000000000E+00
  0.905490052860E+00  0.238369488720E+01 -0.105277887700E-01
  0.807861744690E+00  0.238369488720E+01 -0.203686189510E-01
  0.666965306180E+00  0.238369488720E+01 -0.327306847400E-01
  0.494699909170E+00  0.238369488720E+01 -0.442892746710E-01
  0.322148057390E+00  0.238369488720E+01 -0.499220386450E-01
  0.180771082860E+00  0.238369488720E+01 -0.467582932350E-01
  0.832331623890E-01  0.238369488720E+01 -0.364528323560E-01
  0.246816596840E-01  0.238369488720E+01 -0.217022398280E-01
  0.000000000000E+00  0.238369488720E+01  0.000000000000E+00
  0.246816596840E-01  0.238369488720E+01  0.217022398280E-01
  0.832331623890E-01  0.238369488720E+01  0.364528323560E-01
  0.180771082860E+00  0.238369488720E+01  0.467582932350E-01
  0.322148057390E+00  0.238369488720E+01  0.499220386450E-01
  0.494699909170E+00  0.238369488720E+01  0.442892746710E-01
  0.666965306180E+00  0.238369488720E+01  0.327306847400E-01
  0.807861744690E+00  0.238369488720E+01  0.203686189510E-01
  0.905490052860E+00  0.238369488720E+01  0.105277887700E-01
  0.965617092460E+00  0.238369488720E+01  0.394962905220E-02
  0.965617092460E+00  0.292249171970E+01 -0.394962905220E-02
  0.100000000000E+01  0.292249171970E+01  0.000000000000E+00
  0.905490052860E+00  0.292249171970E+01 -0.105277887700E-01
  0.807861744690E+00  0.292249171970E+01 -0.203686189510E-01
  0.666965306180E+00  0.292249171970E+01 -0.327306847400E-01
  0.494699909170E+00  0.292249171970E+01 -0.442892746710E-01
  0.322148057390E+00  0.292249171970E+01 -0.499220386450E-01
  0.180771082860E+00  0.292249171970E+01 -0.467582932350E-01
  0.832331623890E-01  0.292249171970E+01 -0.364528323560E-01
  0.246816596840E-01  0.292249171970E+01 -0.217022398280E-01
  0.000000000000E+00  0.292249171970E+01  0.000000000000E+00
  0.246816596840E-01  0.292249171970E+01  0.217022398280E-01
  0.832331623890E-01  0.292249171970E+01  0.364528323560E-01
  0.180771082860E+00  0.292249171970E+01  0.467582932350E-01
  0.322148057390E+00  0.292249171970E+01  0.499220386450E-01
  0.494699909170E+00  0.292249171970E+01  0.442892746710E-01
  0.666965306180E+00  0.292249171970E+01  0.327306847400E-01
  0.807861744690E+00  0.292249171970E+01  0.203686189510E-01
  0.905490052860E+00  0.292249171970E+01  0.105277887700E-01
  0.965617092460E+00  0.292249171970E+01  0.394962905220E-02
  0.965617092460E+00  0.334432208550E+01 -0.394962905220E-02
  0.100000000000E+01  0.334432208550E+01  0.000000000000E+00
  0.905490052860E+00  0.334432208550E+01 -0.105277887700E-01
  0.807861744690E+00  0.334432208550E+01 -0.203686189510E-01
  0.666965306180E+00  0.334432208550E+01 -0.327306847400E-01
  0.494699909170E+00  0.334432208550E+01 -0.442892746710E-01
  0.322148057390E+00  0.334432208550E+01 -0.499220386450E-01
  0.180771082860E+00  0.334432208550E+01 -0.467582932350E-01
  0.832331623890E-01  0.334432208550E+01 -0.364528323560E-01
  0.246816596840E-01  0.334432208550E+01 -0.217022398280E-01
  0.000000000000E+00  0.334432208550E+01  0.000000000000E+00
  0.246816596840E-01  0.334432208550E+01  0.217022398280E-01
  0.832331623890E-01  0.334432208550E+01  0.364528323560E-01
  0.180771082860E+00  0.334432208550E+01  0.467582932350E-01
  0.322148057390E+00  0.334432208550E+01  0.499220386450E-01
  0.494699909170E+00  0.334432208550E+01  0.442892746710E-01
  0.666965306180E+00  0.334432208550E+01  0.327306847400E-01
  0.807861744690E+00  0.334432208550E+01  0.203686189510E-01
  0.905490052860E+00  0.334432208550E+01  0.105277887700E-01
  0.965617092460E+00  0.334432208550E+01  0.394962905220E-02
  0.965617092460E+00  0.365057098370E+01 -0.394962905220E-02
  0.100000000000E+01  0.365057098370E+01  0.000000000000E+00
  0.905490052860E+00  0.365057098370E+01 -0.105277887700E-01
  0.807861744690E+00  0.365057098370E+01 -0.203686189510E-01
  0.666965306180E+00  0.365057098370E+01 -0.327306847400E-01
  0.494699909170E+00  0.365057098370E+01 -0.442892746710E-01
  0.322148057390E+00  0.365057098370E+01 -0.499220386450E-01
  0.180771082860E+00  0.365057098370E+01 -0.467582932350E-01
  0.832331623890E-01  0.365057098370E+01 -0.364528323560E-01
  0.246816596840E-01  0.365057098370E+01 -0.217022398280E-01
  0.000000000000E+00  0.365057098370E+01  0.000000000000E+00
  0.246816596840E-01  0.365057098370E+01  0.217022398280E-01
  0.832331623890E-01  0.365057098370E+01  0.364528323560E-01
  0.180771082860E+00  0.365057098370E+01  0.467582932350E-01
  0.322148057390E+00  0.365057098370E+01  0.499220386450E-01
  0.494699909170E+00  0.365057098370E+01  0.442892746710E-01
  0.666965306180E+00  0.365057098370E+01  0.327306847400E-01
  0.807861744690E+00  0.365057098370E+01  0.203686189510E-01
  0.905490052860E+00  0.365057098370E+01  0.105277887700E-01
  0.965617092460E+00  0.365057098370E+01  0.394962905220E-02
  0.965617092460E+00  0.386093553560E+01 -0.394962905220E-02
[...]
CELL_DATA                2304
SCALARS C_p_inc float 1
LOOKUP_TABLE default
  0.315226214055E+00
  0.315226214055E+00
  0.315226214055E+00
  0.315226214055E+00
  0.109897575839E+00
  0.109897575839E+00
  0.109897575839E+00
  0.109897575839E+00
  0.313806167710E-01
  0.313806167710E-01
  0.313806167710E-01
  0.313806167710E-01
 -0.541014224347E-01
 -0.541014224347E-01
 -0.541014224347E-01
 -0.541014224347E-01
 -0.105794157900E+00
 -0.105794157900E+00
 -0.105794157900E+00
 -0.105794157900E+00
 -0.163110610597E+00
 -0.163110610597E+00
 -0.163110610597E+00
 -0.163110610597E+00
 -0.219724259262E+00
 -0.219724259262E+00
 -0.219724259262E+00
 -0.219724259262E+00
 -0.270636947684E+00
 -0.270636947684E+00
 -0.270636947684E+00
 -0.270636947684E+00
 -0.336890912475E+00
 -0.336890912475E+00
 -0.336890912475E+00
 -0.336890912475E+00
 -0.388236766372E+00
 -0.388236766372E+00
 -0.388236766372E+00
 -0.388236766372E+00
 -0.462661091454E+00
 -0.462661091454E+00
 -0.462661091454E+00
 -0.462661091454E+00
 -0.528093672223E+00
 -0.528093672223E+00
 -0.528093672223E+00
 -0.528093672223E+00
 -0.592582302631E+00
 -0.592582302631E+00
 -0.592582302631E+00
 -0.592582302631E+00
 -0.655170009556E+00
 -0.655170009556E+00
 -0.655170009556E+00
 -0.655170009556E+00
 -0.686946309895E+00
 -0.686946309895E+00
 -0.686946309895E+00
 -0.686946309895E+00
 -0.684908809969E+00
 -0.684908809969E+00
 -0.684908809969E+00
 -0.684908809969E+00
 -0.541184806157E+00
 -0.541184806157E+00
 -0.541184806157E+00
 -0.541184806157E+00
 -0.401368464420E+00
 -0.401368464420E+00
 -0.401368464420E+00
 -0.401368464420E+00
  0.870962788500E-01
  0.870962788500E-01
  0.870962788500E-01
  0.870962788500E-01
  0.433675004328E+00
  0.433675004328E+00
  0.433675004328E+00
  0.433675004328E+00
  0.736810870442E+00
  0.736810870442E+00
  0.736810870442E+00
  0.736810870442E+00
  0.348624475313E+00
  0.348624475313E+00
  0.348624475313E+00
  0.348624475313E+00
 -0.220210082999E+00
 -0.220210082999E+00
 -0.220210082999E+00
 -0.220210082999E+00
 -0.396232247630E+00
 -0.396232247630E+00
 -0.396232247630E+00
 -0.396232247630E+00
 -0.551967725070E+00
 -0.551967725070E+00
 -0.551967725070E+00
 -0.551967725070E+00
 -0.579489082723E+00
 -0.579489082723E+00
 -0.579489082723E+00
 -0.579489082723E+00
 -0.564151801288E+00
 -0.564151801288E+00
 -0.564151801288E+00
 -0.564151801288E+00
 -0.529457256040E+00
 -0.529457256040E+00
 -0.529457256040E+00
 -0.529457256040E+00
 -0.484024241457E+00
 -0.484024241457E+00
 -0.484024241457E+00
 -0.484024241457E+00
 -0.447835157807E+00
 -0.447835157807E+00
 -0.447835157807E+00
 -0.447835157807E+00
 -0.405101174039E+00
 -0.405101174039E+00
 -0.405101174039E+00
 -0.405101174039E+00
 -0.366274612420E+00
 -0.366274612420E+00
 -0.366274612420E+00
 -0.366274612420E+00
 -0.331263259100E+00
 -0.331263259100E+00
 -0.331263259100E+00
 -0.331263259100E+00
 -0.295031811924E+00
 -0.295031811924E+00
 -0.295031811924E+00
 -0.295031811924E+00
 -0.259497623831E+00
 -0.259497623831E+00
 -0.259497623831E+00
 -0.259497623831E+00
 -0.231314389987E+00
 -0.231314389987E+00
 -0.231314389987E+00
 -0.231314389987E+00
 -0.188191828957E+00
 -0.188191828957E+00
 -0.188191828957E+00
 -0.188191828957E+00
 -0.174692469921E+00
 -0.174692469921E+00
 -0.174692469921E+00
 -0.174692469921E+00
 -0.105159212415E+00
 -0.105159212415E+00
 -0.105159212415E+00
 -0.105159212415E+00
 -0.174447651073E+00
 -0.174447651073E+00
 -0.174447651073E+00
 -0.174447651073E+00
  0.468819715746E+00
  0.468819715746E+00
  0.468819715746E+00
  0.468819715746E+00
  0.221047068399E+00
  0.221047068399E+00
  0.221047068399E+00
  0.221047068399E+00
  0.101904915161E+00
  0.101904915161E+00
  0.101904915161E+00
  0.101904915161E+00
 -0.738685290766E-03
 -0.738685290766E-03
 -0.738685290766E-03
 -0.738685290766E-03
 -0.729983412698E-01
 -0.729983412698E-01
 -0.729983412698E-01
 -0.729983412698E-01
 -0.146651340441E+00
 -0.146651340441E+00
 -0.146651340441E+00
 -0.146651340441E+00
 -0.212522885339E+00
 -0.212522885339E+00
 -0.212522885339E+00
 -0.212522885339E+00
 -0.276660229749E+00
 -0.276660229749E+00
 -0.276660229749E+00
 -0.276660229749E+00
 -0.343015344309E+00
 -0.343015344309E+00
 -0.343015344309E+00
 -0.343015344309E+00
 -0.404892031321E+00
 -0.404892031321E+00
 -0.404892031321E+00
 -0.404892031321E+00
 -0.474237422129E+00
 -0.474237422129E+00
 -0.474237422129E+00
 -0.474237422129E+00
 -0.538070511723E+00
 -0.538070511723E+00
 -0.538070511723E+00
 -0.538070511723E+00
 -0.601367019614E+00
 -0.601367019614E+00
 -0.601367019614E+00
 -0.601367019614E+00
 -0.661225981529E+00
 -0.661225981529E+00
 -0.661225981529E+00
 -0.661225981529E+00
 -0.684898488304E+00
 -0.684898488304E+00
 -0.684898488304E+00
 -0.684898488304E+00
 -0.690077910729E+00
 -0.690077910729E+00
 -0.690077910729E+00
 -0.690077910729E+00
 -0.540664155916E+00
 -0.540664155916E+00
 -0.540664155916E+00
 -0.540664155916E+00
 -0.438886522130E+00
 -0.438886522130E+00
 -0.438886522130E+00
 -0.438886522130E+00
 -0.137259160868E-01
 -0.137259160868E-01
 -0.137259160868E-01
 -0.137259160868E-01
  0.374818639348E+00
  0.374818639348E+00
  0.374818639348E+00
  0.374818639348E+00
  0.779080697208E+00
  0.779080697208E+00
  0.779080697208E+00
  0.779080697208E+00
  0.342103258435E+00
  0.342103258435E+00
  0.342103258435E+00
  0.342103258435E+00
 -0.195162804601E+00
 -0.195162804601E+00
 -0.195162804601E+00
 -0.195162804601E+00
 -0.349152511710E+00
 -0.349152511710E+00
 -0.349152511710E+00
 -0.349152511710E+00
 -0.511151109964E+00
 -0.511151109964E+00
 -0.511151109964E+00
 -0.511151109964E+00
 -0.538420509241E+00
 -0.538420509241E+00
 -0.538420509241E+00
 -0.538420509241E+00
 -0.532593540480E+00
 -0.532593540480E+00
 -0.532593540480E+00
 -0.532593540480E+00
 -0.505491083842E+00
 -0.505491083842E+00
 -0.505491083842E+00
 -0.505491083842E+00
 -0.461567716100E+00
 -0.461567716100E+00
 -0.461567716100E+00
 -0.461567716100E+00
 -0.428175420892E+00
 -0.428175420892E+00
 -0.428175420892E+00
 -0.428175420892E+00
 -0.393039528176E+00
 -0.393039528176E+00
 -0.393039528176E+00
 -0.393039528176E+00
 -0.352439407882E+00
 -0.352439407882E+00
 -0.352439407882E+00
 -0.352439407882E+00
 -0.325660884527E+00
 -0.325660884527E+00
 -0.325660884527E+00
 -0.325660884527E+00
 -0.298109017235E+00
 -0.298109017235E+00
 -0.298109017235E+00
 -0.298109017235E+00
 -0.275422340887E+00
 -0.275422340887E+00
 -0.275422340887E+00
 -0.275422340887E+00
 -0.263259097694E+00
 -0.263259097694E+00
 -0.263259097694E+00
 -0.263259097694E+00
 -0.243283116014E+00
 -0.243283116014E+00
 -0.243283116014E+00
 -0.243283116014E+00
 -0.256078982142E+00
 -0.256078982142E+00
 -0.256078982142E+00
 -0.256078982142E+00
 -0.257050690493E+00
 -0.257050690493E+00
 -0.257050690493E+00
 -0.257050690493E+00
 -0.395367803157E+00
 -0.395367803157E+00
 -0.395367803157E+00
 -0.395367803157E+00
  0.426755747599E+00
  0.426755747599E+00
  0.426755747599E+00
  0.426755747599E+00
  0.246192116255E+00
  0.246192116255E+00
  0.246192116255E+00
  0.246192116255E+00
  0.946125617664E-01
  0.946125617664E-01
  0.946125617664E-01
  0.946125617664E-01
  0.155967204849E-01
  0.155967204849E-01
  0.155967204849E-01
  0.155967204849E-01
 -0.696269817126E-01
 -0.696269817126E-01
 -0.696269817126E-01
 -0.696269817126E-01
 -0.134897282472E+00
 -0.134897282472E+00
 -0.134897282472E+00
 -0.134897282472E+00
 -0.202879628878E+00
 -0.202879628878E+00
 -0.202879628878E+00
 -0.202879628878E+00
 -0.268201730968E+00
 -0.268201730968E+00
 -0.268201730968E+00
 -0.268201730968E+00
 -0.331481273891E+00
 -0.331481273891E+00
 -0.331481273891E+00
 -0.331481273891E+00
 -0.399847856960E+00
 -0.399847856960E+00
 -0.399847856960E+00
 -0.399847856960E+00
 -0.467019264304E+00
 -0.467019264304E+00
 -0.467019264304E+00
 -0.467019264304E+00
 -0.527549989373E+00
 -0.527549989373E+00
 -0.527549989373E+00
 -0.527549989373E+00
 -0.599015380939E+00
 -0.599015380939E+00
 -0.599015380939E+00
 -0.599015380939E+00
 -0.654691377676E+00
 -0.654691377676E+00
 -0.654691377676E+00
 -0.654691377676E+00
 -0.688698530140E+00
 -0.688698530140E+00
 -0.688698530140E+00
 -0.688698530140E+00
 -0.685877967406E+00
 -0.685877967406E+00
 -0.685877967406E+00
 -0.685877967406E+00
 -0.550155189669E+00
 -0.550155189669E+00
 -0.550155189669E+00
 -0.550155189669E+00
 -0.432999615334E+00
 -0.432999615334E+00
 -0.432999615334E+00
 -0.432999615334E+00
 -0.368257773012E-01
 -0.368257773012E-01
 -0.368257773012E-01
 -0.368257773012E-01
  0.377010195594E+00
  0.377010195594E+00
  0.377010195594E+00
  0.377010195594E+00
  0.777051921512E+00
  0.777051921512E+00
  0.777051921512E+00
  0.777051921512E+00
  0.358404838581E+00
  0.358404838581E+00
  0.358404838581E+00
  0.358404838581E+00
 -0.198670011410E+00
 -0.198670011410E+00
 -0.198670011410E+00
 -0.198670011410E+00
 -0.343248347172E+00
 -0.343248347172E+00
 -0.343248347172E+00
 -0.343248347172E+00
 -0.514274474326E+00
 -0.514274474326E+00
 -0.514274474326E+00
 -0.514274474326E+00
 -0.528827621015E+00
 -0.528827621015E+00
 -0.528827621015E+00
 -0.528827621015E+00
 -0.532479235566E+00
 -0.532479235566E+00
 -0.532479235566E+00
 -0.532479235566E+00
 -0.494798069268E+00
 -0.494798069268E+00
 -0.494798069268E+00
 -0.494798069268E+00
 -0.459701515736E+00
 -0.459701515736E+00
 -0.459701515736E+00
 -0.459701515736E+00
 -0.419253728566E+00
 -0.419253728566E+00
 -0.419253728566E+00
 -0.419253728566E+00
 -0.383112929004E+00
 -0.383112929004E+00
 -0.383112929004E+00
 -0.383112929004E+00
 -0.349613853265E+00
 -0.349613853265E+00
 -0.349613853265E+00
 -0.349613853265E+00
 -0.321637957019E+00
 -0.321637957019E+00
 -0.321637957019E+00
 -0.321637957019E+00
 -0.293820652235E+00
 -0.293820652235E+00
 -0.293820652235E+00
 -0.293820652235E+00
 -0.277192568032E+00
 -0.277192568032E+00
 -0.277192568032E+00
 -0.277192568032E+00
 -0.253156488906E+00
 -0.253156488906E+00
 -0.253156488906E+00
 -0.253156488906E+00
 -0.252426802923E+00
 -0.252426802923E+00
 -0.252426802923E+00
 -0.252426802923E+00
 -0.233967895310E+00
 -0.233967895310E+00
 -0.233967895310E+00
 -0.233967895310E+00
 -0.281245658971E+00
 -0.281245658971E+00
 -0.281245658971E+00
 -0.281245658971E+00
 -0.316725487203E+00
 -0.316725487203E+00
 -0.316725487203E+00
 -0.316725487203E+00
  0.375410102456E+00
  0.375410102456E+00
  0.375410102456E+00
  0.375410102456E+00
  0.187470832348E+00
  0.187470832348E+00
  0.187470832348E+00
  0.187470832348E+00
  0.731394662868E-01
  0.731394662868E-01
  0.731394662868E-01
  0.731394662868E-01
 -0.602655516289E-02
 -0.602655516289E-02
 -0.602655516289E-02
 -0.602655516289E-02
 -0.750659851416E-01
 -0.750659851416E-01
 -0.750659851416E-01
 -0.750659851416E-01
 -0.137276485273E+00
 -0.137276485273E+00
 -0.137276485273E+00
 -0.137276485273E+00
 -0.198457871646E+00
 -0.198457871646E+00
 -0.198457871646E+00
 -0.198457871646E+00
 -0.259489963357E+00
 -0.259489963357E+00
 -0.259489963357E+00
 -0.259489963357E+00
 -0.322015069692E+00
 -0.322015069692E+00
 -0.322015069692E+00
 -0.322015069692E+00
 -0.387162471919E+00
 -0.387162471919E+00
 -0.387162471919E+00
 -0.387162471919E+00
 -0.453695710974E+00
 -0.453695710974E+00
 -0.453695710974E+00
 -0.453695710974E+00
 -0.516299845187E+00
 -0.516299845187E+00
 -0.516299845187E+00
 -0.516299845187E+00
 -0.585524102709E+00
 -0.585524102709E+00
 -0.585524102709E+00
 -0.585524102709E+00
 -0.641680971615E+00
 -0.641680971615E+00
 -0.641680971615E+00
 -0.641680971615E+00
 -0.672869769526E+00
 -0.672869769526E+00
 -0.672869769526E+00
 -0.672869769526E+00
 -0.668549062702E+00
 -0.668549062702E+00
 -0.668549062702E+00
 -0.668549062702E+00
 -0.529461532628E+00
 -0.529461532628E+00
 -0.529461532628E+00
 -0.529461532628E+00
 -0.407211026292E+00
 -0.407211026292E+00
 -0.407211026292E+00
 -0.407211026292E+00
  0.415953244987E-02
  0.415953244987E-02
  0.415953244987E-02
  0.415953244987E-02
  0.426586251258E+00
  0.426586251258E+00
  0.426586251258E+00
  0.426586251258E+00
  0.747500765156E+00
  0.747500765156E+00
  0.747500765156E+00
  0.747500765156E+00
  0.327778352524E+00
  0.327778352524E+00
  0.327778352524E+00
  0.327778352524E+00
 -0.218002328899E+00
 -0.218002328899E+00
 -0.218002328899E+00
 -0.218002328899E+00
 -0.359408573285E+00
 -0.359408573285E+00
 -0.359408573285E+00
 -0.359408573285E+00
 -0.526461711269E+00
 -0.526461711269E+00
 -0.526461711269E+00
 -0.526461711269E+00
 -0.540403312608E+00
 -0.540403312608E+00
 -0.540403312608E+00
 -0.540403312608E+00
 -0.538885396880E+00
 -0.538885396880E+00
 -0.538885396880E+00
 -0.538885396880E+00
 -0.501192225788E+00
 -0.501192225788E+00
 -0.501192225788E+00
 -0.501192225788E+00
 -0.459834624383E+00
 -0.459834624383E+00
 -0.459834624383E+00
 -0.459834624383E+00
 -0.421097986001E+00
 -0.421097986001E+00
 -0.421097986001E+00
 -0.421097986001E+00
 -0.382273576289E+00
 -0.382273576289E+00
 -0.382273576289E+00
 -0.382273576289E+00
 -0.340505713974E+00
 -0.340505713974E+00
 -0.340505713974E+00
 -0.340505713974E+00
 -0.313001313493E+00
 -0.313001313493E+00
 -0.313001313493E+00
 -0.313001313493E+00
 -0.275487615390E+00
 -0.275487615390E+00
 -0.275487615390E+00
 -0.275487615390E+00
 -0.254906112555E+00
 -0.254906112555E+00
 -0.254906112555E+00
 -0.254906112555E+00
 -0.222536063156E+00
 -0.222536063156E+00
 -0.222536063156E+00
 -0.222536063156E+00
 -0.207901684999E+00
 -0.207901684999E+00
 -0.207901684999E+00
 -0.207901684999E+00
 -0.184397881833E+00
 -0.184397881833E+00
 -0.184397881833E+00
 -0.184397881833E+00
 -0.187266648116E+00
 -0.187266648116E+00
 -0.187266648116E+00
 -0.187266648116E+00
 -0.217629818460E+00
 -0.217629818460E+00
 -0.217629818460E+00
 -0.217629818460E+00
  0.435946864899E+00
  0.435946864899E+00
  0.435946864899E+00
  0.435946864899E+00
  0.212041105801E+00
  0.212041105801E+00
  0.212041105801E+00
  0.212041105801E+00
  0.104953270351E+00
  0.104953270351E+00
  0.104953270351E+00
  0.104953270351E+00
  0.117146470032E-01
  0.117146470032E-01
  0.117146470032E-01
  0.117146470032E-01
 -0.537839349267E-01
 -0.537839349267E-01
 -0.537839349267E-01
 -0.537839349267E-01
 -0.124136788066E+00
 -0.124136788066E+00
 -0.124136788066E+00
 -0.124136788066E+00
 -0.184387353117E+00
 -0.184387353117E+00
 -0.184387353117E+00
 -0.184387353117E+00
 -0.250215981618E+00
 -0.250215981618E+00
 -0.250215981618E+00
 -0.250215981618E+00
 -0.312575869136E+00
 -0.312575869136E+00
 -0.312575869136E+00
 -0.312575869136E+00
 -0.380124872863E+00
 -0.380124872863E+00
 -0.380124872863E+00
 -0.380124872863E+00
 -0.448842572516E+00
 -0.448842572516E+00
 -0.448842572516E+00
 -0.448842572516E+00
 -0.510172189583E+00
 -0.510172189583E+00
 -0.510172189583E+00
 -0.510172189583E+00
 -0.579974074496E+00
 -0.579974074496E+00
 -0.579974074496E+00
 -0.579974074496E+00
 -0.635280875911E+00
 -0.635280875911E+00
 -0.635280875911E+00
 -0.635280875911E+00
 -0.664725905329E+00
 -0.664725905329E+00
 -0.664725905329E+00
 -0.664725905329E+00
 -0.660128314355E+00
 -0.660128314355E+00
 -0.660128314355E+00
 -0.660128314355E+00
 -0.517775094369E+00
 -0.517775094369E+00
 -0.517775094369E+00
 -0.517775094369E+00
 -0.394140926853E+00
 -0.394140926853E+00
 -0.394140926853E+00
 -0.394140926853E+00
  0.335975095757E-01
  0.335975095757E-01
  0.335975095757E-01
  0.335975095757E-01
  0.459796403341E+00
  0.459796403341E+00
  0.459796403341E+00
  0.459796403341E+00
  0.728133064648E+00
  0.728133064648E+00
  0.728133064648E+00
  0.728133064648E+00
  0.307291430967E+00
  0.307291430967E+00
  0.307291430967E+00
  0.307291430967E+00
 -0.223470174629E+00
 -0.223470174629E+00
 -0.223470174629E+00
 -0.223470174629E+00
 -0.364164367105E+00
 -0.364164367105E+00
 -0.364164367105E+00
 -0.364164367105E+00
 -0.525376089721E+00
 -0.525376089721E+00
 -0.525376089721E+00
 -0.525376089721E+00
 -0.539928898759E+00
 -0.539928898759E+00
 -0.539928898759E+00
 -0.539928898759E+00
 -0.529283732219E+00
 -0.529283732219E+00
 -0.529283732219E+00
 -0.529283732219E+00
 -0.492737664445E+00
 -0.492737664445E+00
 -0.492737664445E+00
 -0.492737664445E+00
 -0.439368397605E+00
 -0.439368397605E+00
 -0.439368397605E+00
 -0.439368397605E+00
 -0.403738995683E+00
 -0.403738995683E+00
 -0.403738995683E+00
 -0.403738995683E+00
 -0.362607624468E+00
 -0.362607624468E+00
 -0.362607624468E+00
 -0.362607624468E+00
 -0.311182972502E+00
 -0.311182972502E+00
 -0.311182972502E+00
 -0.311182972502E+00
 -0.289807638202E+00
 -0.289807638202E+00
 -0.289807638202E+00
 -0.289807638202E+00
 -0.247957248801E+00
 -0.247957248801E+00
 -0.247957248801E+00
 -0.247957248801E+00
 -0.233775787385E+00
 -0.233775787385E+00
 -0.233775787385E+00
 -0.233775787385E+00
 -0.203785755123E+00
 -0.203785755123E+00
 -0.203785755123E+00
 -0.203785755123E+00
 -0.192712452195E+00
 -0.192712452195E+00
 -0.192712452195E+00
 -0.192712452195E+00
 -0.181156049688E+00
 -0.181156049688E+00
 -0.181156049688E+00
 -0.181156049688E+00
 -0.184052491483E+00
 -0.184052491483E+00
 -0.184052491483E+00
 -0.184052491483E+00
 -0.266996885855E+00
 -0.266996885855E+00
 -0.266996885855E+00
 -0.266996885855E+00
  0.463338931941E+00
  0.463338931941E+00
  0.463338931941E+00
  0.463338931941E+00
  0.256303256536E+00
  0.256303256536E+00
  0.256303256536E+00
  0.256303256536E+00
  0.128838443283E+00
  0.128838443283E+00
  0.128838443283E+00
  0.128838443283E+00
  0.406957843180E-01
  0.406957843180E-01
  0.406957843180E-01
  0.406957843180E-01
 -0.328239222755E-01
 -0.328239222755E-01
 -0.328239222755E-01
 -0.328239222755E-01
 -0.101745351608E+00
 -0.101745351608E+00
 -0.101745351608E+00
 -0.101745351608E+00
 -0.163242235326E+00
 -0.163242235326E+00
 -0.163242235326E+00
 -0.163242235326E+00
 -0.230545474003E+00
 -0.230545474003E+00
 -0.230545474003E+00
 -0.230545474003E+00
 -0.287180013180E+00
 -0.287180013180E+00
 -0.287180013180E+00
 -0.287180013180E+00
 -0.361275170637E+00
 -0.361275170637E+00
 -0.361275170637E+00
 -0.361275170637E+00
 -0.429834138200E+00
 -0.429834138200E+00
 -0.429834138200E+00
 -0.429834138200E+00
 -0.481656270608E+00
 -0.481656270608E+00
 -0.481656270608E+00
 -0.481656270608E+00
 -0.563905438648E+00
 -0.563905438648E+00
 -0.563905438648E+00
 -0.563905438648E+00
 -0.611416564874E+00
 -0.611416564874E+00
 -0.611416564874E+00
 -0.611416564874E+00
 -0.650064895015E+00
 -0.650064895015E+00
 -0.650064895015E+00
 -0.650064895015E+00
 -0.639798713088E+00
 -0.639798713088E+00
 -0.639798713088E+00
 -0.639798713088E+00
 -0.500751002757E+00
 -0.500751002757E+00
 -0.500751002757E+00
 -0.500751002757E+00
 -0.368137957935E+00
 -0.368137957935E+00
 -0.368137957935E+00
 -0.368137957935E+00
  0.709886557405E-01
  0.709886557405E-01
  0.709886557405E-01
  0.709886557405E-01
  0.515804243760E+00
  0.515804243760E+00
  0.515804243760E+00
  0.515804243760E+00
  0.689288331417E+00
  0.689288331417E+00
  0.689288331417E+00
  0.689288331417E+00
  0.279225153731E+00
  0.279225153731E+00
  0.279225153731E+00
  0.279225153731E+00
 -0.244552833570E+00
 -0.244552833570E+00
 -0.244552833570E+00
 -0.244552833570E+00
 -0.372550796400E+00
 -0.372550796400E+00
 -0.372550796400E+00
 -0.372550796400E+00
 -0.531440813420E+00
 -0.531440813420E+00
 -0.531440813420E+00
 -0.531440813420E+00
 -0.535822506945E+00
 -0.535822506945E+00
 -0.535822506945E+00
 -0.535822506945E+00
 -0.513397956166E+00
 -0.513397956166E+00
 -0.513397956166E+00
 -0.513397956166E+00
 -0.471289121739E+00
 -0.471289121739E+00
 -0.471289121739E+00
 -0.471289121739E+00
 -0.400606220004E+00
 -0.400606220004E+00
 -0.400606220004E+00
 -0.400606220004E+00
 -0.366501845909E+00
 -0.366501845909E+00
 -0.366501845909E+00
 -0.366501845909E+00
 -0.319134361674E+00
 -0.319134361674E+00
 -0.319134361674E+00
 -0.319134361674E+00
 -0.259964302263E+00
 -0.259964302263E+00
 -0.259964302263E+00
 -0.259964302263E+00
 -0.248060904412E+00
 -0.248060904412E+00
 -0.248060904412E+00
 -0.248060904412E+00
 -0.204846569531E+00
 -0.204846569531E+00
 -0.204846569531E+00
 -0.204846569531E+00
 -0.202300665810E+00
 -0.202300665810E+00
 -0.202300665810E+00
 -0.202300665810E+00
 -0.173322994536E+00
 -0.173322994536E+00
 -0.173322994536E+00
 -0.173322994536E+00
 -0.176336403976E+00
 -0.176336403976E+00
 -0.176336403976E+00
 -0.176336403976E+00