# vtk DataFile Version 3.0
MachLine results file. Generated by MachLine, USU AeroLab (c) 2022.
ASCII
DATASET POLYDATA
POINTS                1028 float
  0.999998120393E+00  0.000000000000E+00 -0.108327420918E-06
  0.985311172601E+00  0.224100846140E+00 -0.170270554547E-02
  0.999998168950E+00  0.224100846140E+00 -0.105528976470E-06
  0.985311184047E+00  0.000000000000E+00 -0.170280002531E-02
  0.965616887796E+00  0.224100846140E+00 -0.394781249641E-02
  0.965616899138E+00  0.000000000000E+00 -0.394790636524E-02
  0.939523104585E+00  0.224100846140E+00 -0.685287732738E-02
  0.939523115769E+00  0.000000000000E+00 -0.685297025985E-02
  0.905489853566E+00  0.224100846140E+00 -0.105259052041E-01
  0.905489864525E+00  0.000000000000E+00 -0.105259968279E-01
  0.862001157585E+00  0.224100846140E+00 -0.150351618221E-01
  0.862001168281E+00  0.000000000000E+00 -0.150352518453E-01
  0.807861556312E+00  0.224100846140E+00 -0.203666411822E-01
  0.807861566769E+00  0.000000000000E+00 -0.203667296274E-01
  0.742609840476E+00  0.224100846140E+00 -0.263710819728E-01
  0.742609850756E+00  0.000000000000E+00 -0.263711694377E-01
  0.666965142390E+00  0.224100846140E+00 -0.327286103206E-01
  0.666965152684E+00  0.000000000000E+00 -0.327286980389E-01
  0.583123974636E+00  0.224100846140E+00 -0.389221326890E-01
  0.583123985097E+00  0.000000000000E+00 -0.389222222209E-01
  0.494699801128E+00  0.224100846140E+00 -0.442871993638E-01
  0.494699819758E+00  0.000000000000E+00 -0.442875572159E-01
  0.406196973255E+00  0.000000000000E+00 -0.481331493512E-01
  0.406196977811E+00  0.224100846140E+00 -0.481330591164E-01
  0.322148033505E+00  0.000000000000E+00 -0.499200461759E-01
  0.322148042091E+00  0.224100846140E+00 -0.499199578357E-01
  0.246240780347E+00  0.000000000000E+00 -0.494227158799E-01
  0.246240793517E+00  0.224100846140E+00 -0.494226281075E-01
  0.180771186326E+00  0.000000000000E+00 -0.467563983930E-01
  0.180771204913E+00  0.224100846140E+00 -0.467563102858E-01
  0.126558019933E+00  0.000000000000E+00 -0.422876985852E-01
  0.126558045535E+00  0.224100846140E+00 -0.422876101204E-01
  0.832334436165E-01  0.000000000000E+00 -0.364510526575E-01
  0.832334793461E-01  0.224100846140E+00 -0.364509650159E-01
  0.497097617411E-01  0.000000000000E+00 -0.295732478160E-01
  0.497098144463E-01  0.224100846140E+00 -0.295731645202E-01
  0.246822848412E-01  0.000000000000E+00 -0.217006231552E-01
  0.246823735591E-01  0.224100846140E+00 -0.217005571165E-01
  0.732472657991E-02  0.000000000000E+00 -0.122700906396E-01
  0.732490952579E-02  0.224100846140E+00 -0.122701246293E-01
  0.189063492641E-05  0.000000000000E+00  0.000000000000E+00
  0.184137002823E-05  0.224100846140E+00  0.000000000000E+00
  0.732490952579E-02  0.224100846140E+00  0.122701246293E-01
  0.732472657991E-02  0.000000000000E+00  0.122700906396E-01
  0.246823735591E-01  0.224100846140E+00  0.217005571165E-01
  0.246822848412E-01  0.000000000000E+00  0.217006231552E-01
  0.497098144463E-01  0.224100846140E+00  0.295731645202E-01
  0.497097617411E-01  0.000000000000E+00  0.295732478160E-01
  0.832334793461E-01  0.224100846140E+00  0.364509650159E-01
  0.832334436165E-01  0.000000000000E+00  0.364510526575E-01
  0.126558045535E+00  0.224100846140E+00  0.422876101204E-01
  0.126558019933E+00  0.000000000000E+00  0.422876985852E-01
  0.180771204913E+00  0.224100846140E+00  0.467563102858E-01
  0.180771186326E+00  0.000000000000E+00  0.467563983930E-01
  0.246240793517E+00  0.224100846140E+00  0.494226281075E-01
  0.246240780347E+00  0.000000000000E+00  0.494227158799E-01
  0.322148042091E+00  0.224100846140E+00  0.499199578357E-01
  0.322148033505E+00  0.000000000000E+00  0.499200461759E-01
  0.406196977811E+00  0.224100846140E+00  0.481330591164E-01
  0.406196973255E+00  0.000000000000E+00  0.481331493512E-01
  0.494699801128E+00  0.224100846140E+00  0.442871993638E-01
  0.494699819758E+00  0.000000000000E+00  0.442875572159E-01
  0.583123985097E+00  0.000000000000E+00  0.389222222209E-01
  0.583123974636E+00  0.224100846140E+00  0.389221326890E-01
  0.666965152684E+00  0.000000000000E+00  0.327286980389E-01
  0.666965142390E+00  0.224100846140E+00  0.327286103206E-01
  0.742609850756E+00  0.000000000000E+00  0.263711694377E-01
  0.742609840476E+00  0.224100846140E+00  0.263710819728E-01
  0.807861566769E+00  0.000000000000E+00  0.203667296274E-01
  0.807861556312E+00  0.224100846140E+00  0.203666411822E-01
  0.862001168281E+00  0.000000000000E+00  0.150352518453E-01
  0.862001157585E+00  0.224100846140E+00  0.150351618221E-01
  0.905489864525E+00  0.000000000000E+00  0.105259968279E-01
  0.905489853566E+00  0.224100846140E+00  0.105259052041E-01
  0.939523115769E+00  0.000000000000E+00  0.685297025985E-02
  0.939523104585E+00  0.224100846140E+00  0.685287732738E-02
  0.965616899138E+00  0.000000000000E+00  0.394790636524E-02
  0.965616887796E+00  0.224100846140E+00  0.394781249641E-02
  0.985311184047E+00  0.000000000000E+00  0.170280002531E-02
  0.985311172601E+00  0.224100846140E+00  0.170270554547E-02
  0.985311151845E+00  0.474396230640E+00 -0.170252508941E-02
  0.999997993514E+00  0.474396230640E+00 -0.115639882531E-06
  0.965616867478E+00  0.474396230640E+00 -0.394763215726E-02
  0.939523084838E+00  0.474396230640E+00 -0.685269719959E-02
  0.905489834544E+00  0.474396230640E+00 -0.105257254262E-01
  0.862001139465E+00  0.474396230640E+00 -0.150349825696E-01
  0.807861539305E+00  0.474396230640E+00 -0.203664626318E-01
  0.742609824829E+00  0.474396230640E+00 -0.263709042350E-01
  0.666965128418E+00  0.474396230640E+00 -0.327284333560E-01
  0.583123962768E+00  0.474396230640E+00 -0.389219562562E-01
  0.494699791724E+00  0.474396230640E+00 -0.442870187160E-01
  0.406196972092E+00  0.474396230640E+00 -0.481328823772E-01
  0.322148040786E+00  0.474396230640E+00 -0.499197803250E-01
  0.246240797732E+00  0.474396230640E+00 -0.494224497319E-01
  0.180771215932E+00  0.474396230640E+00 -0.467561312658E-01
  0.126558064970E+00  0.474396230640E+00 -0.422874310053E-01
  0.832335095989E-01  0.474396230640E+00 -0.364507867833E-01
  0.497098599022E-01  0.474396230640E+00 -0.295729891066E-01
  0.246824444365E-01  0.474396230640E+00 -0.217003900478E-01
  0.732503535479E-02  0.474396230640E+00 -0.122699936147E-01
  0.201798827982E-05  0.474396230640E+00  0.000000000000E+00
  0.732503535479E-02  0.474396230640E+00  0.122699936147E-01
  0.246824444365E-01  0.474396230640E+00  0.217003900478E-01
  0.497098599022E-01  0.474396230640E+00  0.295729891066E-01
  0.832335095989E-01  0.474396230640E+00  0.364507867833E-01
  0.126558064970E+00  0.474396230640E+00  0.422874310053E-01
  0.180771215932E+00  0.474396230640E+00  0.467561312658E-01
  0.246240797732E+00  0.474396230640E+00  0.494224497319E-01
  0.322148040786E+00  0.474396230640E+00  0.499197803250E-01
  0.406196972092E+00  0.474396230640E+00  0.481328823772E-01
  0.494699791724E+00  0.474396230640E+00  0.442870187160E-01
  0.583123962768E+00  0.474396230640E+00  0.389219562562E-01
  0.666965128418E+00  0.474396230640E+00  0.327284333560E-01
  0.742609824829E+00  0.474396230640E+00  0.263709042350E-01
  0.807861539305E+00  0.474396230640E+00  0.203664626318E-01
  0.862001139465E+00  0.474396230640E+00  0.150349825696E-01
  0.905489834544E+00  0.474396230640E+00  0.105257254262E-01
  0.939523084838E+00  0.474396230640E+00  0.685269719959E-02
  0.965616867478E+00  0.474396230640E+00  0.394763215726E-02
  0.985311151845E+00  0.474396230640E+00  0.170252508941E-02
  0.985311134199E+00  0.748095716550E+00 -0.170237167158E-02
  0.999997848520E+00  0.748095716550E+00 -0.123996333094E-06
  0.965616850202E+00  0.748095716550E+00 -0.394747881531E-02
  0.939523068043E+00  0.748095716550E+00 -0.685254399892E-02
  0.905489818359E+00  0.748095716550E+00 -0.105255724640E-01
  0.862001124040E+00  0.748095716550E+00 -0.150348299703E-01
  0.807861524817E+00  0.748095716550E+00 -0.203663105229E-01
  0.742609811489E+00  0.748095716550E+00 -0.263707526983E-01
  0.666965116496E+00  0.748095716550E+00 -0.327282823664E-01
  0.583123952636E+00  0.748095716550E+00 -0.389218056409E-01
  0.494699783479E+00  0.748095716550E+00 -0.442868603532E-01
  0.406196967211E+00  0.748095716550E+00 -0.481327315004E-01
  0.322148039673E+00  0.748095716550E+00 -0.499196288694E-01
  0.246240801326E+00  0.748095716550E+00 -0.494222976514E-01
  0.180771225319E+00  0.748095716550E+00 -0.467559787569E-01
  0.126558081514E+00  0.748095716550E+00 -0.422872785231E-01
  0.832335353391E-01  0.748095716550E+00 -0.364506351359E-01
  0.497098985630E-01  0.748095716550E+00 -0.295728399154E-01
  0.246825047033E-01  0.748095716550E+00 -0.217002479899E-01
  0.732514232988E-02  0.748095716550E+00 -0.122698822311E-01
  0.216395827701E-05  0.748095716550E+00  0.000000000000E+00
  0.732514232988E-02  0.748095716550E+00  0.122698822311E-01
  0.246825047033E-01  0.748095716550E+00  0.217002479899E-01
  0.497098985630E-01  0.748095716550E+00  0.295728399154E-01
  0.832335353391E-01  0.748095716550E+00  0.364506351359E-01
  0.126558081514E+00  0.748095716550E+00  0.422872785231E-01
  0.180771225319E+00  0.748095716550E+00  0.467559787569E-01
  0.246240801326E+00  0.748095716550E+00  0.494222976514E-01
  0.322148039673E+00  0.748095716550E+00  0.499196288694E-01
  0.406196967211E+00  0.748095716550E+00  0.481327315004E-01
  0.494699783479E+00  0.748095716550E+00  0.442868603532E-01
  0.583123952636E+00  0.748095716550E+00  0.389218056409E-01
  0.666965116496E+00  0.748095716550E+00  0.327282823664E-01
  0.742609811489E+00  0.748095716550E+00  0.263707526983E-01
  0.807861524817E+00  0.748095716550E+00  0.203663105229E-01
  0.862001124040E+00  0.748095716550E+00  0.150348299703E-01
  0.905489818359E+00  0.748095716550E+00  0.105255724640E-01
  0.939523068043E+00  0.748095716550E+00  0.685254399892E-02
  0.965616850202E+00  0.748095716550E+00  0.394747881531E-02
  0.985311134199E+00  0.748095716550E+00  0.170237167158E-02
  0.985311121147E+00  0.104054975430E+01 -0.170225819975E-02
[...]
POINT_DATA                1028
SCALARS phi float 1
LOOKUP_TABLE default
 -0.207217803229E-06
 -0.193397976911E-06
 -0.202799717033E-06
 -0.195023822591E-06
 -0.185435597252E-06
 -0.185736284856E-06
 -0.177456276184E-06
 -0.177091993812E-06
 -0.168919449484E-06
 -0.168270155958E-06
 -0.159579496579E-06
 -0.158885168435E-06
 -0.149340848597E-06
 -0.148743262856E-06
 -0.138223925097E-06
 -0.137788340536E-06
 -0.126360613618E-06
 -0.126095033776E-06
 -0.113970382191E-06
 -0.113848258796E-06
 -0.101324991051E-06
 -0.101297227002E-06
 -0.886757039555E-07
 -0.886682148514E-07
 -0.761142444974E-07
 -0.761438897663E-07
 -0.635214096496E-07
 -0.636858432171E-07
 -0.504393517370E-07
 -0.508470301176E-07
 -0.364654238333E-07
 -0.371919639391E-07
 -0.233296525501E-07
 -0.243058869559E-07
 -0.136465211908E-07
 -0.145927510145E-07
 -0.705418206487E-08
 -0.766916710693E-08
 -0.199324822620E-08
 -0.205674687004E-08
  0.269888605908E-08
  0.343670286673E-08
  0.814562957363E-08
  0.658175468293E-08
  0.116986716217E-07
  0.939663324234E-08
  0.149470579455E-07
  0.118294949322E-07
  0.183807415191E-07
  0.143320359539E-07
  0.473313731923E-07
  0.521474077392E-07
  0.554946132589E-07
  0.613506827424E-07
  0.644253658460E-07
  0.714374501012E-07
  0.740882004488E-07
  0.823314214816E-07
  0.845326689220E-07
  0.940132076546E-07
  0.958050043205E-07
  0.106380714539E-06
  0.119222723569E-06
  0.107707820038E-06
  0.132225036219E-06
  0.119965284998E-06
  0.145020012637E-06
  0.132468382187E-06
  0.157271823356E-06
  0.145028788274E-06
  0.168753897162E-06
  0.157421533233E-06
  0.179403165164E-06
  0.169454573359E-06
  0.189340923346E-06
  0.181030062326E-06
  0.198923608360E-06
  0.192235937179E-06
  0.208921453693E-06
  0.203502943583E-06
 -0.200531561016E-06
 -0.215488364749E-06
 -0.187094050159E-06
 -0.174471030925E-06
 -0.161564860206E-06
 -0.148168813604E-06
 -0.134388389923E-06
 -0.120508100013E-06
 -0.106904849643E-06
 -0.939646239654E-07
 -0.820330332933E-07
 -0.710932630873E-07
 -0.610581939037E-07
 -0.519988753722E-07
 -0.438797484077E-07
 -0.364978856027E-07
 -0.294034100748E-07
 -0.222975820169E-07
 -0.150579722927E-07
 -0.706956172075E-08
  0.146100131229E-07
  0.214512558341E-07
  0.278711955112E-07
  0.344023244961E-07
  0.413360135357E-07
  0.488323313001E-07
  0.570114839400E-07
  0.659670718189E-07
  0.757664157466E-07
  0.864785888203E-07
  0.981022455198E-07
  0.110385182803E-06
  0.123090075840E-06
  0.136130544347E-06
  0.149339379838E-06
  0.162514811421E-06
  0.175500766697E-06
  0.188256687211E-06
  0.200982976161E-06
  0.214379771310E-06
 -0.213669399837E-06
 -0.232134549954E-06
 -0.198002592298E-06
 -0.183685178980E-06
 -0.169408380851E-06
 -0.154871599156E-06
 -0.140089446082E-06
 -0.125163294687E-06
 -0.109990727297E-06
 -0.934063797264E-07
 -0.706545418266E-07
 -0.428219378206E-07
 -0.268165739215E-07
 -0.187336331413E-07
 -0.131468254443E-07
 -0.856356723034E-08
 -0.456261543130E-08
 -0.951455352005E-09
  0.246446123231E-08
  0.603113602810E-08
  0.103399170406E-07
  0.147069034589E-07
  0.185014051995E-07
  0.223352738526E-07
  0.265295816912E-07
  0.311948541061E-07
  0.362993922906E-07
  0.416655928891E-07
  0.469668646405E-07
  0.518329895012E-07
  0.994051836643E-07
  0.112407365003E-06
  0.126003758427E-06
  0.140078811623E-06
  0.154486177802E-06
  0.169035539732E-06
  0.183575818026E-06
  0.198085100957E-06
  0.212830492483E-06
  0.228710813122E-06
 -0.349643675263E-07
 -0.239073631048E-06
 -0.127685521462E-07
 -0.127599262614E-07
 -0.146029364261E-07
 -0.169028573256E-07
 -0.191762263742E-07
 -0.211257973580E-07
 -0.226241219405E-07
 -0.238925995516E-07
 -0.256492279404E-07
 -0.264099210335E-07
 -0.244009748344E-07
 -0.206854342787E-07
 -0.162275122367E-07
 -0.116118718183E-07
 -0.715389814748E-08
 -0.296623609009E-08
  0.101573086747E-08
  0.510016139738E-08
  0.983502129043E-08
  0.144201074345E-07
  0.182870353096E-07
  0.221262890440E-07
  0.262887002167E-07
  0.309004813091E-07
  0.359452325648E-07
  0.412624278582E-07
  0.465414573085E-07
  0.513481524271E-07
  0.551746935466E-07
  0.576114058057E-07
  0.583287630002E-07
  0.571601141766E-07
  0.542082248221E-07
  0.497807331329E-07
  0.443083141427E-07
  0.382174345955E-07
  0.318299992336E-07
  0.251641884275E-07
 -0.377546586598E-07
 -0.244747553238E-06
 -0.178887364990E-07
 -0.203622214645E-07
 -0.246597752392E-07
 -0.292161358197E-07
 -0.333054915626E-07
 -0.363517735288E-07
 -0.379243804971E-07
 -0.378101494541E-07
 -0.360248662611E-07
 -0.327832491314E-07
 -0.284927756198E-07
 -0.236161850943E-07
 -0.185700005095E-07
 -0.136676285151E-07
 -0.908712610714E-08
 -0.486953756484E-08
 -0.914680796382E-09
  0.309497506096E-08
  0.768924038330E-08
  0.120868431028E-07
  0.157553215127E-07
  0.193648341112E-07
  0.232435930017E-07
  0.274939139684E-07
  0.320663102356E-07
  0.367459751672E-07
  0.411223594842E-07
  0.445619544910E-07
  0.461432565213E-07
  0.449228818589E-07
  0.427091492346E-07
  0.407667321532E-07
  0.384168041545E-07
  0.355195431956E-07
  0.322186915827E-07
  0.287099281640E-07
  0.251460830179E-07
  0.214811540084E-07
 -0.223923864059E-06
 -0.244095636825E-06
 -0.206810871806E-06
 -0.191122744339E-06
 -0.175514758994E-06
 -0.159714941945E-06
 -0.143821867402E-06
 -0.128119779806E-06
 -0.112960187669E-06
 -0.987147937472E-07
 -0.347242760847E-07
 -0.314548891935E-07
 -0.272403212574E-07
 -0.224677351758E-07
 -0.175405870974E-07
 -0.127640599687E-07
 -0.831267903817E-08
 -0.422946747763E-08
 -0.424693120948E-09
  0.338534081323E-08
  0.764119341412E-08
  0.115614143814E-07
  0.147011526910E-07
  0.177090774059E-07
  0.209154316783E-07
  0.244807182199E-07
  0.285092653721E-07
  0.331305851746E-07
  0.387382245201E-07
  0.469643615638E-07
  0.644229203612E-07
  0.965882153009E-07
  0.122052947308E-06
  0.140454685604E-06
  0.157277102723E-06
  0.173690744697E-06
  0.189862244551E-06
  0.205855544312E-06
  0.221980960849E-06
  0.239193661756E-06
 -0.218366129016E-06
 -0.238613727450E-06
 -0.201287140487E-06
 -0.185701738865E-06
 -0.170248690624E-06
 -0.154654726157E-06
 -0.139023925372E-06
 -0.123648128264E-06
 -0.108886220616E-06
 -0.950644091710E-07
 -0.824251417657E-07
 -0.709355436842E-07
 -0.604864979596E-07
 -0.510561158143E-07
 -0.425548797242E-07
 -0.348504796965E-07
 -0.277833362428E-07
 -0.211611974540E-07
 -0.147137213316E-07
 -0.776928923280E-08
  0.139187200099E-07
  0.202857397755E-07
  0.263131463979E-07
  0.324895366860E-07
  0.390982509493E-07
  0.463094378921E-07
  0.542662591842E-07
  0.631015407062E-07
  0.729416660598E-07
  0.839304105686E-07
  0.961580972972E-07
  0.109438548009E-06
  0.123545452545E-06
  0.138381153432E-06
  0.153736303989E-06
  0.169348528208E-06
  0.185007219124E-06
  0.200654465866E-06
  0.216557170196E-06
  0.233668171687E-06
 -0.205864633170E-06
 -0.224950842245E-06
 -0.189583037723E-06
 -0.174679806515E-06
 -0.159857470098E-06
 -0.144853375662E-06
 -0.129735981635E-06
 -0.114674780824E-06
 -0.996569164378E-07
 -0.836949810030E-07
 -0.625624794600E-07
 -0.373040707320E-07
 -0.229252259554E-07
 -0.157638284509E-07
 -0.109021619683E-07
 -0.696440922987E-08
 -0.354972778255E-08
 -0.475676463496E-09
  0.243163838370E-08
  0.547136327911E-08
  0.915245777777E-08
  0.128952746675E-07
  0.161591658110E-07
  0.194682705720E-07
  0.231034202047E-07
  0.271693195684E-07
  0.316533899022E-07
  0.364223941077E-07
  0.412177875682E-07
  0.457434030108E-07
  0.902336523088E-07
  0.102907346589E-06
  0.116357184349E-06
  0.130458804402E-06
  0.145032584175E-06
  0.159843705709E-06
  0.174696463386E-06
  0.189532468269E-06
  0.204593714293E-06
  0.220764527735E-06
 -0.304067369582E-07
 -0.206604170432E-06
 -0.112407104354E-07
 -0.112699953606E-07
 -0.128747996674E-07
 -0.148380510309E-07
 -0.167365128215E-07
 -0.183186140736E-07
 -0.194961011050E-07
 -0.205053911351E-07
 -0.220421316989E-07
 -0.227793930908E-07
 -0.210718251702E-07
 -0.178778945814E-07
 -0.140541388562E-07
 -0.101051789506E-07
 -0.629831414106E-08
 -0.272836279264E-08
  0.659188315044E-09
  0.412440699649E-08
  0.812700822611E-08
  0.119930606071E-07
  0.152603777184E-07
  0.185192822327E-07
  0.220697589856E-07
  0.260240573743E-07
  0.303778498190E-07
  0.350108147786E-07
  0.396816504556E-07
  0.440461033332E-07
  0.476860578680E-07
  0.502128613064E-07
  0.512654139660E-07
  0.506356154298E-07
  0.483513106046E-07
  0.446382331237E-07
  0.398593826799E-07
  0.343994638538E-07
  0.285633431456E-07
  0.223917731856E-07
 -0.299588581026E-07
 -0.188220002747E-06
 -0.156728062993E-07
 -0.184669245139E-07
 -0.225760678797E-07
 -0.267297005294E-07
 -0.302947173632E-07
 -0.327778016257E-07
 -0.338470992206E-07
 -0.333867682129E-07
 -0.314853466779E-07
 -0.284159726658E-07
 -0.245713776600E-07
 -0.203214033379E-07
 -0.159848323814E-07
 -0.117989064907E-07
 -0.789847971056E-08
 -0.431329515854E-08
 -0.959871536421E-09
  0.242578265808E-08
  0.627929045566E-08
  0.994469418619E-08
  0.130074070612E-07
  0.160404086402E-07
  0.193207978436E-07
  0.229379570824E-07
  0.268588618568E-07
  0.309195235942E-07
  0.347962913229E-07
  0.379633662683E-07
  0.395994629709E-07
  0.388268966769E-07
  0.372251343916E-07
  0.357395996096E-07
  0.337323196979E-07
  0.310955070269E-07
  0.279832898138E-07
  0.245996253159E-07
  0.211070001581E-07
  0.175036208999E-07
 -0.152629004820E-06
 -0.167211960850E-06
 -0.139822910007E-06
 -0.128202873793E-06
 -0.116759377191E-06
 -0.105360375008E-06
 -0.941362021112E-07
 -0.833127648744E-07
 -0.731061457655E-07
 -0.636919694000E-07
 -0.299573465132E-07
 -0.269774064381E-07
 -0.233260482284E-07
 -0.193009497482E-07
 -0.151935653156E-07
 -0.112240252856E-07
 -0.752214140975E-08
 -0.412362872321E-08
 -0.961860154025E-09
  0.218666552226E-08
  0.566418789649E-08
  0.882201955932E-08
  0.113414242719E-07
  0.137672236875E-07
  0.163635237929E-07
  0.192471774421E-07
  0.224722538113E-07
  0.260761184433E-07
  0.302192887585E-07
  0.357926171037E-07
  0.468565711943E-07
  0.670304158915E-07
  0.830579265920E-07
  0.949184922744E-07
  0.106024330617E-06
  0.117082382820E-06
  0.128182355230E-06
  0.139346488914E-06
  0.150763724668E-06
  0.163101152816E-06
 -0.132557560130E-06
 -0.145506836028E-06
 -0.121079902771E-06
 -0.110745439600E-06
 -0.100630837670E-06
 -0.906382017947E-07
 -0.808999789242E-07
 -0.716145491519E-07
 -0.629501241377E-07
 -0.549967193297E-07
 -0.477859248924E-07
 -0.412286801806E-07
 -0.352226677790E-07
 -0.297456268471E-07
 -0.247552873062E-07
 -0.201898804411E-07
 -0.159638214037E-07
 -0.119605912258E-07
 -0.800557403702E-08
 -0.364685178583E-08
  0.874419620045E-08
  0.129682176248E-07
  0.168609702658E-07
  0.207877961997E-07
  0.249453653220E-07
  0.294430170487E-07
  0.343627248808E-07
  0.397654283148E-07
  0.456946626073E-07
  0.522130457186E-07
  0.593837145482E-07
  0.670750281394E-07
  0.751644240148E-07
  0.836875710154E-07
  0.926084195753E-07
  0.101838860830E-06
  0.111289425852E-06
  0.120927917409E-06
  0.130899329241E-06
  0.141792850641E-06
 -0.111707123655E-06
 -0.122468572408E-06
 -0.101857191827E-06
 -0.930021039382E-07
 -0.843539496309E-07
 -0.758567973748E-07
 -0.676240730843E-07
 -0.597682741112E-07
 -0.522524103777E-07
 -0.445455770534E-07
 -0.345213896080E-07
 -0.224278679374E-07
 -0.153326437016E-07
 -0.113574768028E-07
 -0.827824825703E-08
 -0.556587487904E-08
 -0.310052099273E-08
 -0.822962843705E-09
  0.135909547505E-08
  0.364812876436E-08
  0.640885117892E-08
  0.918847825604E-08
  0.116165507630E-07
  0.141003415055E-07
  0.168346955959E-07
  0.198770601194E-07
  0.232008350552E-07
  0.267050350149E-07
  0.302187836405E-07
  0.335483125559E-07
  0.513933837397E-07
  0.578260737176E-07
  0.645184076650E-07
  0.715146589586E-07
  0.788268477089E-07
  0.864171426258E-07
  0.942311851639E-07
  0.102245347296E-06
  0.110568015944E-06
  0.119666633176E-06
 -0.159477870562E-07
 -0.100492612346E-06
 -0.746270439542E-08
 -0.838446631221E-08
 -0.100788976783E-07
 -0.119018644627E-07
 -0.135814775433E-07
 -0.149269272429E-07
 -0.158558644686E-07
 -0.165517085749E-07
 -0.177133845491E-07
 -0.185119381226E-07
 -0.173252890767E-07
 -0.149164961667E-07
 -0.120160177156E-07
 -0.900168665302E-08
 -0.606129481329E-08
 -0.326928438488E-08
 -0.601250681187E-09
  0.211866803962E-08
  0.519390977449E-08
  0.805696555306E-08
  0.104369848944E-07
  0.128125208845E-07
  0.153909092068E-07
  0.182304106602E-07
  0.213076580061E-07
  0.245326805034E-07
  0.277547062347E-07
  0.307726319764E-07
  0.333481472489E-07
  0.352238090397E-07
  0.361049712419E-07
  0.358055217212E-07
  0.342740590735E-07
  0.315926864669E-07
  0.279652234494E-07
  0.236488536774E-07
  0.188715816758E-07
  0.136984646161E-07
 -0.149924189903E-07
 -0.815734765153E-07
 -0.110275934703E-07
 -0.141979148681E-07
 -0.177162660896E-07
 -0.209002519319E-07
 -0.233615110694E-07
 -0.248410460917E-07
 -0.252280996302E-07
 -0.245563291194E-07
 -0.229655087577E-07
 -0.206922049665E-07
 -0.179963461355E-07
 -0.150683777331E-07
 -0.120675181133E-07
 -0.911594677522E-08
 -0.629093471066E-08
 -0.362080094379E-08
 -0.106861524490E-08
  0.153138900172E-08
  0.444749488626E-08
  0.711437642131E-08
  0.930307511582E-08
  0.114742580229E-07
  0.138114710363E-07
  0.163543531148E-07
  0.190654386480E-07
  0.218416462208E-07
  0.245020399025E-07
  0.267345218402E-07
  0.279325416980E-07
  0.274139674537E-07
  0.264407244328E-07
  0.253846049805E-07
  0.237585710133E-07
  0.215344864579E-07
  0.188544995866E-07
  0.158896731085E-07
  0.127774128500E-07
  0.954953678634E-08
 -0.577248582129E-07
 -0.634940849481E-07
 -0.520625671775E-07
 -0.472877576714E-07
 -0.429106649831E-07
 -0.389215832307E-07
 -0.353390044727E-07
 -0.321233822181E-07
 -0.291712042889E-07
 -0.263598307609E-07
 -0.205092423392E-07
 -0.185239021077E-07
 -0.161774332489E-07
 -0.136161329191E-07
 -0.109741956737E-07
 -0.835293288010E-08
 -0.581617245338E-08
 -0.338977208109E-08
 -0.104924047228E-08
  0.133323530688E-08
  0.394823881922E-08
  0.621946026624E-08
  0.798661251022E-08
  0.969535914053E-08
  0.115179181505E-07
  0.135005948712E-07
  0.156283038524E-07
  0.178482160761E-07
  0.201118117540E-07
  0.225515726180E-07
  0.262897241910E-07
  0.325794529965E-07
  0.373025706886E-07
  0.405715382575E-07
  0.435732528080E-07
  0.466393998491E-07
  0.499027252576E-07
  0.534336086801E-07
  0.573175658880E-07
  0.617995904797E-07
 -0.417056884652E-07
 -0.463319808491E-07
 -0.373615389078E-07
 -0.339923301070E-07
 -0.310985792708E-07
 -0.286096696646E-07
 -0.264700313057E-07
 -0.245792935068E-07
 -0.228019153906E-07
 -0.209983770268E-07
 -0.190751035497E-07
 -0.170219093511E-07
 -0.148694242995E-07
 -0.126777541017E-07
 -0.105133370620E-07
 -0.842696638512E-08
 -0.643680336115E-08
 -0.451783979671E-08
 -0.258453217855E-08
 -0.352807276449E-09
  0.490637761669E-08
  0.721606124160E-08
  0.922601005315E-08
  0.111875112195E-07
  0.132141583960E-07
  0.153508683473E-07
  0.176069962030E-07
  0.199582890076E-07
  0.223508574853E-07
  0.247243938725E-07
  0.270247266353E-07
  0.291430183909E-07
  0.310185773976E-07
  0.327090318511E-07
  0.343085826138E-07
  0.359300711787E-07
  0.376854976426E-07
  0.396762755220E-07
  0.420288328272E-07
  0.450142405295E-07
 -0.242763522583E-07
 -0.267174515671E-07
 -0.220493097947E-07
 -0.206374921631E-07
 -0.195621230811E-07
 -0.187177018676E-07
 -0.180225408868E-07
 -0.173634775030E-07
 -0.165855298176E-07
 -0.154523064986E-07
 -0.134011122034E-07
 -0.104538446315E-07
 -0.833392498067E-08
 -0.667672482753E-08
 -0.507548314835E-08
 -0.350062979299E-08
 -0.197925631787E-08
 -0.514677932217E-09
  0.937842255244E-09
  0.249758198151E-08
  0.434425129203E-08
  0.606886585430E-08
  0.749425141389E-08
  0.891612696174E-08
  0.104298881337E-07
  0.120478537737E-07
  0.137437647044E-07
  0.154572681642E-07
  0.170933224416E-07
  0.185393544926E-07
  0.225774707055E-07
  0.240055803777E-07
  0.250696327621E-07
  0.257825751304E-07
  0.262003437487E-07
  0.264036391709E-07
  0.264818435999E-07
  0.265246623415E-07
  0.266550165932E-07
  0.271179049285E-07
 -0.113287767708E-08
 -0.807302853040E-10
 -0.151705675973E-08
 -0.230204448212E-08
 -0.332656522467E-08
 -0.453622357385E-08
 -0.581617955533E-08
 -0.700239475085E-08
 -0.793824187634E-08
 -0.857714153694E-08
 -0.920823349428E-08
 -0.969324162289E-08
 -0.912074621384E-08
 -0.788207093691E-08
 -0.639409420897E-08
 -0.483665379969E-08
 -0.328820411177E-08
 -0.176867882840E-08
 -0.238908410416E-09
  0.147077834980E-08
  0.359649681217E-08
  0.502429776603E-08
  0.621027515177E-08
  0.745715502543E-08
  0.879641699064E-08
  0.102212680889E-07
  0.116974537973E-07
  0.131594751250E-07
  0.145102150644E-07
  0.156279280862E-07
  0.163862273420E-07
  0.166695454887E-07
  0.163716109697E-07
  0.154756177699E-07
  0.140309936517E-07
  0.121417846992E-07
  0.995309712426E-08
  0.761340235300E-08
  0.523082461720E-08
  0.281557257543E-08
 -0.340845325748E-08
 -0.578452274969E-08
 -0.780423925484E-08
 -0.954441130990E-08
 -0.109761977667E-07
 -0.120424834514E-07
 -0.126869974960E-07
 -0.128749063910E-07
 -0.125999511397E-07
 -0.118911038186E-07
 -0.108367877504E-07
 -0.952367720970E-08
 -0.796230765869E-08
 -0.647885470620E-08
 -0.500524979449E-08
 -0.357177988922E-08
 -0.217853565049E-08
 -0.773049138592E-09
  0.875584053178E-09
  0.479049867136E-08
  0.601354632757E-08
  0.727549888391E-08
  0.857972303620E-08
  0.992896342748E-08
  0.112980782264E-07
  0.126147983275E-07
  0.137867244718E-07
  0.148022709307E-07
  0.155730858174E-07
  0.159730595001E-07
  0.159137423829E-07
  0.153670183314E-07
  0.143472830873E-07
  0.128983069503E-07
  0.110836969602E-07
  0.896327861932E-08
  0.656212583924E-08
  0.379128365507E-08
 -0.280212143766E-08
 -0.472770990412E-08
 -0.635365069931E-08
 -0.774504273562E-08
 -0.888035387586E-08
 -0.971510592113E-08
 -0.102055076716E-07
 -0.103251585528E-07
 -0.100709038331E-07
 -0.947522204274E-08
 -0.860257394836E-08
 -0.753061151198E-08
 -0.628481118710E-08
 -0.500009600390E-08
 -0.369224976635E-08
 -0.246250648692E-08
 -0.129762912221E-08
 -0.126880058543E-09
  0.126185744145E-08
  0.461613220218E-08
  0.560542882250E-08
  0.662072752872E-08
  0.766624233192E-08
  0.874293759785E-08
  0.971785143501E-08
  0.108173015771E-07
  0.119278454770E-07
  0.128613602676E-07
  0.135259230170E-07
  0.138622637223E-07
  0.138065972231E-07
  0.133346072691E-07
  0.124573531074E-07
  0.112108775666E-07
  0.964778473778E-08
  0.781693423185E-08
  0.573648038446E-08
  0.332392644659E-08
 -0.204692513633E-08
 -0.343125263966E-08
 -0.459043923012E-08
 -0.557316917615E-08
 -0.636469307119E-08
 -0.693379683010E-08
 -0.724996418976E-08
 -0.729555403069E-08
 -0.706978087357E-08
 -0.659488068582E-08
 -0.592205182755E-08
 -0.511388326737E-08
 -0.433017940775E-08
 -0.334363423581E-08
 -0.230431854500E-08
 -0.134314161529E-08
 -0.438849290241E-09
  0.477348577332E-09
  0.159971194624E-08
  0.426143203017E-08
  0.497599064037E-08
  0.573195189577E-08
  0.651229146303E-08
  0.732203545711E-08
  0.829619313004E-08
  0.914086558529E-08
  0.992541419453E-08
  0.105906743861E-07
  0.110736357323E-07
  0.113055727592E-07
  0.112289014770E-07
  0.108244760898E-07
  0.101001811359E-07
  0.908393698110E-08
  0.781649305004E-08
  0.633054713164E-08
  0.457259224582E-08
  0.265064725898E-08
 -0.131755189745E-08
 -0.217037995562E-08
 -0.274353214799E-08
 -0.329098100507E-08
 -0.372582339633E-08
 -0.401887256113E-08
 -0.415203713598E-08
 -0.411589379072E-08
 -0.391149181794E-08
 -0.355378307598E-08
 -0.307685314748E-08
 -0.251960572024E-08
 -0.192214972064E-08
 -0.134802467626E-08
 -0.823561469021E-09
 -0.243596823268E-09
  0.369412278545E-09
  0.102264668608E-08
  0.187788948280E-08
  0.378175756682E-08
  0.419251663247E-08
  0.468179526744E-08
  0.520107126117E-08
  0.576434778035E-08
  0.645513427260E-08
  0.701867501965E-08
  0.752999939659E-08
  0.795514756759E-08
  0.824694707142E-08
  0.836118052051E-08
  0.826198173938E-08
  0.793270449675E-08
  0.737909859952E-08
  0.662105503757E-08