# vtk DataFile Version 3.0
MachLine results file. Generated by MachLine, USU AeroLab (c) 2022.
ASCII
DATASET POLYDATA
POINTS                1028 float
  0.999998120393E+00  0.000000000000E+00 -0.108327420918E-06
  0.985311172601E+00  0.224100846140E+00 -0.170270554547E-02
  0.999998168950E+00  0.224100846140E+00 -0.105528976470E-06
  0.985311184047E+00  0.000000000000E+00 -0.170280002531E-02
  0.965616887796E+00  0.224100846140E+00 -0.394781249641E-02
  0.965616899138E+00  0.000000000000E+00 -0.394790636524E-02
  0.939523104585E+00  0.224100846140E+00 -0.685287732738E-02
  0.939523115769E+00  0.000000000000E+00 -0.685297025985E-02
  0.905489853566E+00  0.224100846140E+00 -0.105259052041E-01
  0.905489864525E+00  0.000000000000E+00 -0.105259968279E-01
  0.862001157585E+00  0.224100846140E+00 -0.150351618221E-01
  0.862001168281E+00  0.000000000000E+00 -0.150352518453E-01
  0.807861556312E+00  0.224100846140E+00 -0.203666411822E-01
  0.807861566769E+00  0.000000000000E+00 -0.203667296274E-01
  0.742609840476E+00  0.224100846140E+00 -0.263710819728E-01
  0.742609850756E+00  0.000000000000E+00 -0.263711694377E-01
  0.666965142390E+00  0.224100846140E+00 -0.327286103206E-01
  0.666965152684E+00  0.000000000000E+00 -0.327286980389E-01
  0.583123974636E+00  0.224100846140E+00 -0.389221326890E-01
  0.583123985097E+00  0.000000000000E+00 -0.389222222209E-01
  0.494699801128E+00  0.224100846140E+00 -0.442871993638E-01
  0.494699819758E+00  0.000000000000E+00 -0.442875572159E-01
  0.406196973255E+00  0.000000000000E+00 -0.481331493512E-01
  0.406196977811E+00  0.224100846140E+00 -0.481330591164E-01
  0.322148033505E+00  0.000000000000E+00 -0.499200461759E-01
  0.322148042091E+00  0.224100846140E+00 -0.499199578357E-01
  0.246240780347E+00  0.000000000000E+00 -0.494227158799E-01
  0.246240793517E+00  0.224100846140E+00 -0.494226281075E-01
  0.180771186326E+00  0.000000000000E+00 -0.467563983930E-01
  0.180771204913E+00  0.224100846140E+00 -0.467563102858E-01
  0.126558019933E+00  0.000000000000E+00 -0.422876985852E-01
  0.126558045535E+00  0.224100846140E+00 -0.422876101204E-01
  0.832334436165E-01  0.000000000000E+00 -0.364510526575E-01
  0.832334793461E-01  0.224100846140E+00 -0.364509650159E-01
  0.497097617411E-01  0.000000000000E+00 -0.295732478160E-01
  0.497098144463E-01  0.224100846140E+00 -0.295731645202E-01
  0.246822848412E-01  0.000000000000E+00 -0.217006231552E-01
  0.246823735591E-01  0.224100846140E+00 -0.217005571165E-01
  0.732472657991E-02  0.000000000000E+00 -0.122700906396E-01
  0.732490952579E-02  0.224100846140E+00 -0.122701246293E-01
  0.189063492641E-05  0.000000000000E+00  0.000000000000E+00
  0.184137002823E-05  0.224100846140E+00  0.000000000000E+00
  0.732490952579E-02  0.224100846140E+00  0.122701246293E-01
  0.732472657991E-02  0.000000000000E+00  0.122700906396E-01
  0.246823735591E-01  0.224100846140E+00  0.217005571165E-01
  0.246822848412E-01  0.000000000000E+00  0.217006231552E-01
  0.497098144463E-01  0.224100846140E+00  0.295731645202E-01
  0.497097617411E-01  0.000000000000E+00  0.295732478160E-01
  0.832334793461E-01  0.224100846140E+00  0.364509650159E-01
  0.832334436165E-01  0.000000000000E+00  0.364510526575E-01
  0.126558045535E+00  0.224100846140E+00  0.422876101204E-01
  0.126558019933E+00  0.000000000000E+00  0.422876985852E-01
  0.180771204913E+00  0.224100846140E+00  0.467563102858E-01
  0.180771186326E+00  0.000000000000E+00  0.467563983930E-01
  0.246240793517E+00  0.224100846140E+00  0.494226281075E-01
  0.246240780347E+00  0.000000000000E+00  0.494227158799E-01
  0.322148042091E+00  0.224100846140E+00  0.499199578357E-01
  0.322148033505E+00  0.000000000000E+00  0.499200461759E-01
  0.406196977811E+00  0.224100846140E+00  0.481330591164E-01
  0.406196973255E+00  0.000000000000E+00  0.481331493512E-01
  0.494699801128E+00  0.224100846140E+00  0.442871993638E-01
  0.494699819758E+00  0.000000000000E+00  0.442875572159E-01
  0.583123985097E+00  0.000000000000E+00  0.389222222209E-01
  0.583123974636E+00  0.224100846140E+00  0.389221326890E-01
  0.666965152684E+00  0.000000000000E+00  0.327286980389E-01
  0.666965142390E+00  0.224100846140E+00  0.327286103206E-01
  0.742609850756E+00  0.000000000000E+00  0.263711694377E-01
  0.742609840476E+00  0.224100846140E+00  0.263710819728E-01
  0.807861566769E+00  0.000000000000E+00  0.203667296274E-01
  0.807861556312E+00  0.224100846140E+00  0.203666411822E-01
  0.862001168281E+00  0.000000000000E+00  0.150352518453E-01
  0.862001157585E+00  0.224100846140E+00  0.150351618221E-01
  0.905489864525E+00  0.000000000000E+00  0.105259968279E-01
  0.905489853566E+00  0.224100846140E+00  0.105259052041E-01
  0.939523115769E+00  0.000000000000E+00  0.685297025985E-02
  0.939523104585E+00  0.224100846140E+00  0.685287732738E-02
  0.965616899138E+00  0.000000000000E+00  0.394790636524E-02
  0.965616887796E+00  0.224100846140E+00  0.394781249641E-02
  0.985311184047E+00  0.000000000000E+00  0.170280002531E-02
  0.985311172601E+00  0.224100846140E+00  0.170270554547E-02
  0.985311151845E+00  0.474396230640E+00 -0.170252508941E-02
  0.999997993514E+00  0.474396230640E+00 -0.115639882531E-06
  0.965616867478E+00  0.474396230640E+00 -0.394763215726E-02
  0.939523084838E+00  0.474396230640E+00 -0.685269719959E-02
  0.905489834544E+00  0.474396230640E+00 -0.105257254262E-01
  0.862001139465E+00  0.474396230640E+00 -0.150349825696E-01
  0.807861539305E+00  0.474396230640E+00 -0.203664626318E-01
  0.742609824829E+00  0.474396230640E+00 -0.263709042350E-01
  0.666965128418E+00  0.474396230640E+00 -0.327284333560E-01
  0.583123962768E+00  0.474396230640E+00 -0.389219562562E-01
  0.494699791724E+00  0.474396230640E+00 -0.442870187160E-01
  0.406196972092E+00  0.474396230640E+00 -0.481328823772E-01
  0.322148040786E+00  0.474396230640E+00 -0.499197803250E-01
  0.246240797732E+00  0.474396230640E+00 -0.494224497319E-01
  0.180771215932E+00  0.474396230640E+00 -0.467561312658E-01
  0.126558064970E+00  0.474396230640E+00 -0.422874310053E-01
  0.832335095989E-01  0.474396230640E+00 -0.364507867833E-01
  0.497098599022E-01  0.474396230640E+00 -0.295729891066E-01
  0.246824444365E-01  0.474396230640E+00 -0.217003900478E-01
  0.732503535479E-02  0.474396230640E+00 -0.122699936147E-01
  0.201798827982E-05  0.474396230640E+00  0.000000000000E+00
  0.732503535479E-02  0.474396230640E+00  0.122699936147E-01
  0.246824444365E-01  0.474396230640E+00  0.217003900478E-01
  0.497098599022E-01  0.474396230640E+00  0.295729891066E-01
  0.832335095989E-01  0.474396230640E+00  0.364507867833E-01
  0.126558064970E+00  0.474396230640E+00  0.422874310053E-01
  0.180771215932E+00  0.474396230640E+00  0.467561312658E-01
  0.246240797732E+00  0.474396230640E+00  0.494224497319E-01
  0.322148040786E+00  0.474396230640E+00  0.499197803250E-01
  0.406196972092E+00  0.474396230640E+00  0.481328823772E-01
  0.494699791724E+00  0.474396230640E+00  0.442870187160E-01
  0.583123962768E+00  0.474396230640E+00  0.389219562562E-01
  0.666965128418E+00  0.474396230640E+00  0.327284333560E-01
  0.742609824829E+00  0.474396230640E+00  0.263709042350E-01
  0.807861539305E+00  0.474396230640E+00  0.203664626318E-01
  0.862001139465E+00  0.474396230640E+00  0.150349825696E-01
  0.905489834544E+00  0.474396230640E+00  0.105257254262E-01
  0.939523084838E+00  0.474396230640E+00  0.685269719959E-02
  0.965616867478E+00  0.474396230640E+00  0.394763215726E-02
  0.985311151845E+00  0.474396230640E+00  0.170252508941E-02
  0.985311134199E+00  0.748095716550E+00 -0.170237167158E-02
  0.999997848520E+00  0.748095716550E+00 -0.123996333094E-06
  0.965616850202E+00  0.748095716550E+00 -0.394747881531E-02
  0.939523068043E+00  0.748095716550E+00 -0.685254399892E-02
  0.905489818359E+00  0.748095716550E+00 -0.105255724640E-01
  0.862001124040E+00  0.748095716550E+00 -0.150348299703E-01
  0.807861524817E+00  0.748095716550E+00 -0.203663105229E-01
  0.742609811489E+00  0.748095716550E+00 -0.263707526983E-01
  0.666965116496E+00  0.748095716550E+00 -0.327282823664E-01
  0.583123952636E+00  0.748095716550E+00 -0.389218056409E-01
  0.494699783479E+00  0.748095716550E+00 -0.442868603532E-01
  0.406196967211E+00  0.748095716550E+00 -0.481327315004E-01
  0.322148039673E+00  0.748095716550E+00 -0.499196288694E-01
  0.246240801326E+00  0.748095716550E+00 -0.494222976514E-01
  0.180771225319E+00  0.748095716550E+00 -0.467559787569E-01
  0.126558081514E+00  0.748095716550E+00 -0.422872785231E-01
  0.832335353391E-01  0.748095716550E+00 -0.364506351359E-01
  0.497098985630E-01  0.748095716550E+00 -0.295728399154E-01
  0.246825047033E-01  0.748095716550E+00 -0.217002479899E-01
  0.732514232988E-02  0.748095716550E+00 -0.122698822311E-01
  0.216395827701E-05  0.748095716550E+00  0.000000000000E+00
  0.732514232988E-02  0.748095716550E+00  0.122698822311E-01
  0.246825047033E-01  0.748095716550E+00  0.217002479899E-01
  0.497098985630E-01  0.748095716550E+00  0.295728399154E-01
  0.832335353391E-01  0.748095716550E+00  0.364506351359E-01
  0.126558081514E+00  0.748095716550E+00  0.422872785231E-01
  0.180771225319E+00  0.748095716550E+00  0.467559787569E-01
  0.246240801326E+00  0.748095716550E+00  0.494222976514E-01
  0.322148039673E+00  0.748095716550E+00  0.499196288694E-01
  0.406196967211E+00  0.748095716550E+00  0.481327315004E-01
  0.494699783479E+00  0.748095716550E+00  0.442868603532E-01
  0.583123952636E+00  0.748095716550E+00  0.389218056409E-01
  0.666965116496E+00  0.748095716550E+00  0.327282823664E-01
  0.742609811489E+00  0.748095716550E+00  0.263707526983E-01
  0.807861524817E+00  0.748095716550E+00  0.203663105229E-01
  0.862001124040E+00  0.748095716550E+00  0.150348299703E-01
  0.905489818359E+00  0.748095716550E+00  0.105255724640E-01
  0.939523068043E+00  0.748095716550E+00  0.685254399892E-02
  0.965616850202E+00  0.748095716550E+00  0.394747881531E-02
  0.985311134199E+00  0.748095716550E+00  0.170237167158E-02
  0.985311121147E+00  0.104054975430E+01 -0.170225819975E-02
[...]
POINT_DATA                1028
SCALARS phi float 1
LOOKUP_TABLE default
 -0.255732304468E-06
 -0.335078732053E-07
 -0.249732868884E-06
 -0.342426740262E-07
 -0.737224605321E-08
 -0.746984965203E-08
 -0.434883843173E-08
 -0.435498694051E-08
 -0.321070968770E-08
 -0.317087960403E-08
 -0.262364389242E-08
 -0.255108826425E-08
 -0.225790054015E-08
 -0.215703994597E-08
 -0.197926955381E-08
 -0.185112936091E-08
 -0.171023771880E-08
 -0.155569788995E-08
 -0.138516480751E-08
 -0.120787822799E-08
 -0.946358037941E-09
 -0.754304876373E-09
 -0.156201423540E-09
 -0.351798328533E-09
  0.599366684756E-09
  0.412342179498E-09
  0.149438795713E-08
  0.132577087850E-08
  0.249054245630E-08
  0.234653347100E-08
  0.354388694085E-08
  0.342727345115E-08
  0.462217868147E-08
  0.453353680985E-08
  0.571625108359E-08
  0.565532845553E-08
  0.685291325769E-08
  0.681998951757E-08
  0.813269276922E-08
  0.813055454907E-08
  0.974722865615E-08
  0.978357804493E-08
  0.114505375529E-07
  0.113747908315E-07
  0.127932196781E-07
  0.126844917070E-07
  0.140018542455E-07
  0.138618600834E-07
  0.151779730173E-07
  0.150056890455E-07
  0.163460510162E-07
  0.161395504704E-07
  0.174893704692E-07
  0.172471141882E-07
  0.185608357538E-07
  0.182830775779E-07
  0.194933018642E-07
  0.191835046925E-07
  0.202188707894E-07
  0.198844324019E-07
  0.206895845976E-07
  0.203412587503E-07
  0.205466457980E-07
  0.208971096226E-07
  0.205313741251E-07
  0.208729467877E-07
  0.203524687867E-07
  0.206753055093E-07
  0.200773269329E-07
  0.203703075206E-07
  0.197655742468E-07
  0.200128104644E-07
  0.194654809632E-07
  0.196447004427E-07
  0.192062532857E-07
  0.192900774347E-07
  0.190010779541E-07
  0.189592140494E-07
  0.187878836273E-07
  0.185822797948E-07
 -0.362261012334E-07
 -0.270939602427E-06
 -0.796497449246E-08
 -0.473873356527E-08
 -0.357149999852E-08
 -0.302322321691E-08
 -0.273823714744E-08
 -0.256766127110E-08
 -0.241679422308E-08
 -0.219673173749E-08
 -0.182513281485E-08
 -0.124320508358E-08
 -0.435337868185E-09
  0.565800944291E-09
  0.169992566898E-08
  0.290344517179E-08
  0.413201558386E-08
  0.537235865516E-08
  0.665447717069E-08
  0.809213244329E-08
  0.990198801426E-08
  0.117286836493E-07
  0.132054881127E-07
  0.145421137632E-07
  0.158516738347E-07
  0.171627272845E-07
  0.184571195827E-07
  0.196798840071E-07
  0.207491168164E-07
  0.215781938611E-07
  0.221031459437E-07
  0.223106217043E-07
  0.222415824924E-07
  0.219749820979E-07
  0.216014200104E-07
  0.211964032298E-07
  0.208149888159E-07
  0.204862344727E-07
  0.202199755550E-07
  0.199322914979E-07
 -0.386281426915E-07
 -0.287692595614E-06
 -0.874915034518E-08
 -0.551885174713E-08
 -0.454784130494E-08
 -0.432063677891E-08
 -0.446163536325E-08
 -0.478805867871E-08
 -0.513880239403E-08
 -0.533087932478E-08
 -0.519110962202E-08
 -0.461031399407E-08
 -0.358378968862E-08
 -0.220734446693E-08
 -0.622298459291E-09
  0.104114354638E-08
  0.270192913182E-08
  0.433801743832E-08
  0.599187219980E-08
  0.781325619481E-08
  0.100799870881E-07
  0.123662558874E-07
  0.142334164038E-07
  0.159521216514E-07
  0.176732355556E-07
  0.194413015200E-07
  0.212354235689E-07
  0.229725798870E-07
  0.245135345020E-07
  0.256955830762E-07
  0.263858350412E-07
  0.265395391878E-07
  0.262157877386E-07
  0.255516806880E-07
  0.247128031754E-07
  0.238414693404E-07
  0.230382773692E-07
  0.223538207354E-07
  0.218018319405E-07
  0.212794316334E-07
 -0.438963073703E-07
 -0.297310130595E-06
 -0.167086613781E-07
 -0.172459982788E-07
 -0.202369359985E-07
 -0.239122621357E-07
 -0.275709307052E-07
 -0.306560727047E-07
 -0.326894107200E-07
 -0.333523237882E-07
 -0.326157474605E-07
 -0.303551347287E-07
 -0.266779076660E-07
 -0.221348986258E-07
 -0.172258869391E-07
 -0.123323592449E-07
 -0.768298814846E-08
 -0.334903595134E-08
  0.759651168358E-09
  0.497848708092E-08
  0.996598970709E-08
  0.148549616635E-07
  0.189209297327E-07
  0.229059884185E-07
  0.271608328536E-07
  0.317924177956E-07
  0.367488316548E-07
  0.418191435491E-07
  0.466327864173E-07
  0.506892920658E-07
  0.534201178622E-07
  0.546635182050E-07
  0.544611831882E-07
  0.527490214459E-07
  0.497353543349E-07
  0.457754359973E-07
  0.412602404604E-07
  0.365154940868E-07
  0.317525254492E-07
  0.269104826929E-07
 -0.440061364293E-07
 -0.310220037669E-06
 -0.155607651625E-07
 -0.156008934590E-07
 -0.181455822416E-07
 -0.214057165465E-07
 -0.246983109069E-07
 -0.274924921370E-07
 -0.293147738549E-07
 -0.297635473143E-07
 -0.285729564444E-07
 -0.260119416748E-07
 -0.225371941352E-07
 -0.184495156583E-07
 -0.140987782594E-07
 -0.978863780310E-08
 -0.571012392925E-08
 -0.192510267449E-08
  0.164232941136E-08
  0.527731680577E-08
  0.944669418385E-08
  0.135268623802E-07
  0.170271190064E-07
  0.204928197675E-07
  0.242253554647E-07
  0.283193492233E-07
  0.327343445475E-07
  0.372981617414E-07
  0.417163808775E-07
  0.456316439999E-07
  0.487134187658E-07
  0.504592110630E-07
  0.505350033209E-07
  0.491186998783E-07
  0.465129269059E-07
  0.430775626628E-07
  0.391778351740E-07
  0.351086623697E-07
  0.310584807178E-07
  0.269593528751E-07
 -0.412665453059E-07
 -0.307005388455E-06
 -0.927687946253E-08
 -0.574228589331E-08
 -0.460123732518E-08
 -0.423306930133E-08
 -0.424066958285E-08
 -0.444175658407E-08
 -0.468634635611E-08
 -0.480672255644E-08
 -0.464332085889E-08
 -0.409486025361E-08
 -0.315447986655E-08
 -0.190434091413E-08
 -0.466469141092E-09
  0.104598834455E-08
  0.256210215543E-08
  0.406265960456E-08
  0.558671320317E-08
  0.727292111258E-08
  0.938091395536E-08
  0.115153396471E-07
  0.132640689751E-07
  0.148780822037E-07
  0.164990405366E-07
  0.181710427330E-07
  0.198795564559E-07
  0.215554352267E-07
  0.230800668653E-07
  0.243129342466E-07
  0.251364196246E-07
  0.255075166301E-07
  0.254737949623E-07
  0.251503596595E-07
  0.246733711518E-07
  0.241546368185E-07
  0.236704123524E-07
  0.232572033923E-07
  0.229242737015E-07
  0.225541774944E-07
 -0.400884575050E-07
 -0.298621059106E-06
 -0.888043853037E-08
 -0.533138077435E-08
 -0.407366419763E-08
 -0.352272828963E-08
 -0.329199398991E-08
 -0.322016260185E-08
 -0.319881211797E-08
 -0.311755296231E-08
 -0.286796377619E-08
 -0.237017838971E-08
 -0.160112962125E-08
 -0.600545498747E-09
  0.557033481841E-09
  0.179451815213E-08
  0.305898639058E-08
  0.433364679558E-08
  0.564879425874E-08
  0.712211715992E-08
  0.897934885474E-08
  0.108632614224E-07
  0.123997143664E-07
  0.138056025709E-07
  0.152011910073E-07
  0.166206251748E-07
  0.180492007729E-07
  0.194315075662E-07
  0.206800540767E-07
  0.216989835588E-07
  0.224160094653E-07
  0.228153416125E-07
  0.229410740404E-07
  0.228757412839E-07
  0.227084204045E-07
  0.225067883497E-07
  0.223156079518E-07
  0.221551791704E-07
  0.220304208383E-07
  0.218325388358E-07
 -0.382253965842E-07
 -0.283665738041E-06
 -0.870552846824E-08
 -0.552542762933E-08
 -0.459639349498E-08
 -0.442879640947E-08
 -0.465956912984E-08
 -0.511142967535E-08
 -0.561818908409E-08
 -0.597987099421E-08
 -0.599919416228E-08
 -0.554659515821E-08
 -0.461019262696E-08
 -0.329337373345E-08
 -0.175255416082E-08
 -0.131599835196E-09
  0.148052825555E-08
  0.305881252965E-08
  0.464417615476E-08
  0.638130991104E-08
  0.853794017430E-08
  0.107177097960E-07
  0.125096548953E-07
  0.141741598528E-07
  0.158590550831E-07
  0.176107629452E-07
  0.194103609609E-07
  0.211734984146E-07
  0.227551684685E-07
  0.239857548450E-07
  0.247312034792E-07
  0.249554021545E-07
  0.247310833826E-07
  0.242035654054E-07
  0.235337823881E-07
  0.228484715661E-07
  0.222293791326E-07
  0.217122717548E-07
  0.213027202406E-07
  0.208951184272E-07
 -0.393065219574E-07
 -0.262703351798E-06
 -0.157347732760E-07
 -0.168752180910E-07
 -0.203634050004E-07
 -0.246090604873E-07
 -0.289196447865E-07
 -0.326800328604E-07
 -0.353189894102E-07
 -0.364288069918E-07
 -0.359409215566E-07
 -0.337483355057E-07
 -0.299981441198E-07
 -0.252879661482E-07
 -0.201649140996E-07
 -0.150510840943E-07
 -0.102049920250E-07
 -0.571605710681E-08
 -0.150183041003E-08
  0.277453433839E-08
  0.780249316545E-08
  0.127417120396E-07
  0.168810996987E-07
  0.209860454431E-07
  0.254077020187E-07
  0.302441678333E-07
  0.354239316006E-07
  0.407055083581E-07
  0.456798214981E-07
  0.498063028199E-07
  0.524831738711E-07
  0.535276856173E-07
  0.529824776656E-07
  0.508347132513E-07
  0.473828694093E-07
  0.430667091364E-07
  0.383277805674E-07
  0.335039765029E-07
  0.287924772531E-07
  0.241340062206E-07
 -0.356452172848E-07
 -0.244606618301E-06
 -0.144563817271E-07
 -0.158467607612E-07
 -0.193893024657E-07
 -0.236257063323E-07
 -0.279039461953E-07
 -0.316303588183E-07
 -0.342274448714E-07
 -0.351912070352E-07
 -0.341872873153E-07
 -0.315039206215E-07
 -0.276745977454E-07
 -0.230825907450E-07
 -0.181595609175E-07
 -0.132744135406E-07
 -0.866152457396E-08
 -0.440423274933E-08
 -0.427253628310E-09
  0.357920497407E-08
  0.812536413153E-08
  0.125748642887E-07
  0.164271657041E-07
  0.202722907419E-07
  0.244348249204E-07
  0.290063571669E-07
  0.339221241825E-07
  0.389640039365E-07
  0.437711571411E-07
  0.479060231953E-07
  0.509606680570E-07
  0.523651418546E-07
  0.517797553376E-07
  0.494672736558E-07
  0.458496324102E-07
  0.414081065131E-07
  0.365979686313E-07
  0.317597124641E-07
  0.270902068174E-07
  0.225508462390E-07
 -0.296123294150E-07
 -0.217770743546E-06
 -0.706519063046E-08
 -0.483352868494E-08
 -0.441371734647E-08
 -0.467439379911E-08
 -0.533576915637E-08
 -0.622898989680E-08
 -0.715277567731E-08
 -0.784876529568E-08
 -0.806719419131E-08
 -0.766150367454E-08
 -0.664362601217E-08
 -0.516352270663E-08
 -0.342633125344E-08
 -0.161296707935E-08
  0.167843391963E-09
  0.188625443737E-08
  0.358775999881E-08
  0.542749620247E-08
  0.768556954883E-08
  0.995203264242E-08
  0.118113155437E-07
  0.135405519575E-07
  0.152961018920E-07
  0.171265124235E-07
  0.190068319868E-07
  0.208338871831E-07
  0.224286594580E-07
  0.235771503883E-07
  0.241034542325E-07
  0.239521392165E-07
  0.232170885538E-07
  0.221010650545E-07
  0.208324130620E-07
  0.195917834386E-07
  0.184914698484E-07
  0.175770543294E-07
  0.168505731694E-07
  0.162385601181E-07
 -0.260003007284E-07
 -0.191254252244E-06
 -0.611598392070E-08
 -0.406246159629E-08
 -0.356951613059E-08
 -0.363707728171E-08
 -0.402289950310E-08
 -0.459866844951E-08
 -0.522313050449E-08
 -0.570853131605E-08
 -0.586006255240E-08
 -0.554732318306E-08
 -0.475803645615E-08
 -0.359436570438E-08
 -0.221005591258E-08
 -0.745441264272E-09
  0.712547618131E-09
  0.213764660140E-08
  0.356441318128E-08
  0.512016259946E-08
  0.703849466904E-08
  0.896125539745E-08
  0.105271031337E-07
  0.119676162383E-07
  0.134099555904E-07
  0.148888759585E-07
  0.163784936690E-07
  0.177918751190E-07
  0.189861290092E-07
  0.197983248173E-07
  0.201067096063E-07
  0.198942072017E-07
  0.192593993323E-07
  0.183732606698E-07
  0.174116652832E-07
  0.165025117391E-07
  0.157174542860E-07
  0.150791465807E-07
  0.145816022763E-07
  0.141663824282E-07
 -0.226559842727E-07
 -0.165077959934E-06
 -0.569654131158E-08
 -0.425743016882E-08
 -0.432711145387E-08
 -0.507604343281E-08
 -0.628494705585E-08
 -0.775472676698E-08
 -0.920099307508E-08
 -0.102792247665E-07
 -0.106938234214E-07
 -0.102928868651E-07
 -0.911667509193E-08
 -0.737297705181E-08
 -0.533271357281E-08
 -0.323651932338E-08
 -0.123514887207E-08
  0.624497835389E-09
  0.239100413080E-08
  0.422820654877E-08
  0.641851344296E-08
  0.859966196864E-08
  0.104141609086E-07
  0.121466213476E-07
  0.139607874150E-07
  0.159077280029E-07
  0.179467747712E-07
  0.199349218261E-07
  0.216364472508E-07
  0.227787909906E-07
  0.231441585289E-07
  0.226740357601E-07
  0.214952706502E-07
  0.198730497093E-07
  0.181173394967E-07
  0.164728666090E-07
  0.150748523803E-07
  0.139583886290E-07
  0.131016647080E-07
  0.124332857863E-07
 -0.232798586033E-07
 -0.140272098041E-06
 -0.129867324325E-07
 -0.163765486623E-07
 -0.213482871762E-07
 -0.267646556376E-07
 -0.318364571129E-07
 -0.358013363400E-07
 -0.380761809270E-07
 -0.384329819723E-07
 -0.371102627759E-07
 -0.343143591135E-07
 -0.303530981946E-07
 -0.257636353571E-07
 -0.209296667081E-07
 -0.161256696260E-07
 -0.115314569907E-07
 -0.722995126962E-08
 -0.317917171755E-08
  0.897388989507E-09
  0.566718980077E-08
  0.102984197350E-07
  0.141455756275E-07
  0.179818405305E-07
  0.220926535677E-07
  0.265217951524E-07
  0.311845749362E-07
  0.358976966226E-07
  0.403839211334E-07
  0.442589203047E-07
  0.469888094979E-07
  0.482706505080E-07
  0.479054968403E-07
  0.456576255831E-07
  0.417298624024E-07
  0.366371288550E-07
  0.310135897449E-07
  0.253967920028E-07
  0.201113580511E-07
  0.152061842007E-07
 -0.194635042805E-07
 -0.118750909849E-06
 -0.123234854994E-07
 -0.164280112742E-07
 -0.219542060954E-07
 -0.279387318385E-07
 -0.336340929136E-07
 -0.382515336940E-07
 -0.411190932172E-07
 -0.418396652775E-07
 -0.403221686561E-07
 -0.370731422837E-07
 -0.327333299528E-07
 -0.277125192100E-07
 -0.224142232066E-07
 -0.171610848310E-07
 -0.121640667955E-07
 -0.751701775131E-08
 -0.317431154279E-08
  0.115325771849E-08
  0.594942677068E-08
  0.105888388613E-07
  0.146506516710E-07
  0.187371165111E-07
  0.231518901238E-07
  0.279485927700E-07
  0.330366212477E-07
  0.382026820022E-07
  0.431181484439E-07
  0.473731642881E-07
  0.505530645852E-07
  0.520109731984E-07
  0.512299508128E-07
  0.482843765907E-07
  0.435431326100E-07
  0.376315488805E-07
  0.312559382404E-07
  0.249859784494E-07
  0.191524292849E-07
  0.138136946257E-07
 -0.140806776031E-07
 -0.982800224640E-07
 -0.442038649781E-08
 -0.426413733143E-08
 -0.531073814786E-08
 -0.709960601419E-08
 -0.944551007201E-08
 -0.120473387551E-07
 -0.144464086874E-07
 -0.161218622324E-07
 -0.166780990060E-07
 -0.160147100763E-07
 -0.143085789259E-07
 -0.118842182657E-07
 -0.910926118564E-08
 -0.630098020982E-08
 -0.366100298688E-08
 -0.125710875737E-08
  0.969531552264E-09
  0.322395544983E-08
  0.585213993931E-08
  0.844843979497E-08
  0.106247877302E-07
  0.127358614141E-07
  0.149858900636E-07
  0.174367876353E-07
  0.200283970346E-07
  0.225672060483E-07
  0.247413018815E-07
  0.261859131444E-07
  0.265787544543E-07
  0.257425216074E-07
  0.237673014290E-07
  0.210247968375E-07
  0.180022496632E-07
  0.151205376761E-07
  0.126339425380E-07
  0.106218474849E-07
  0.905469649259E-08
  0.785250927129E-08
 -0.118504336656E-07
 -0.827315044388E-07
 -0.353301581046E-08
 -0.310794168179E-08
 -0.356463198542E-08
 -0.450859637818E-08
 -0.582335105831E-08
 -0.735356510753E-08
 -0.883906635905E-08
 -0.994305954759E-08
 -0.103708060690E-07
 -0.999162584278E-08
 -0.887679066884E-08
 -0.724085354349E-08
 -0.534176204658E-08
 -0.339919246570E-08
 -0.154457871493E-08
  0.184767860734E-09
  0.183507575802E-08
  0.355661819440E-08
  0.560606046307E-08
  0.762887575334E-08
  0.928444206932E-08
  0.108336245773E-07
  0.124186835294E-07
  0.140757866612E-07
  0.157592020458E-07
  0.173332431689E-07
  0.185784185339E-07
  0.192415264251E-07
  0.191238645093E-07
  0.181810478513E-07
  0.165614271047E-07
  0.145589179219E-07
  0.124995507174E-07
  0.106349092623E-07
  0.910387753378E-08
  0.793625562490E-08
  0.707931755231E-08
  0.642105311630E-08
 -0.127001689477E-07
 -0.938632865981E-07
 -0.338619090059E-08
 -0.293789817127E-08
 -0.344646941541E-08
 -0.438659889662E-08
 -0.557461287895E-08
 -0.682658429438E-08
 -0.791021511834E-08
 -0.858573682636E-08
 -0.868776490765E-08
 -0.817125907085E-08
 -0.712848810362E-08
 -0.572878420917E-08
 -0.415043520038E-08
 -0.253917139051E-08
 -0.977280499581E-09
  0.517218587404E-09
  0.198204209295E-08
  0.353290300487E-08
  0.537776060489E-08
  0.718651207987E-08
  0.864877348211E-08
  0.998189612564E-08
  0.112914702761E-07
  0.125951483861E-07
  0.138546222533E-07
  0.149728981288E-07
  0.157935539856E-07
  0.161291743477E-07
  0.158312242326E-07
  0.148830006409E-07
  0.133992527941E-07
  0.115967271272E-07
  0.973988037098E-08
  0.806409453102E-08
  0.672806494198E-08
  0.580413053383E-08
  0.532474416295E-08
  0.537050413862E-08
 -0.675970047125E-08
 -0.944310411116E-10
 -0.666453328288E-08
 -0.652321945072E-08
 -0.643892064667E-08
 -0.651959742790E-08
 -0.674727492975E-08
 -0.703689112883E-08
 -0.726011850985E-08
 -0.727306784416E-08
 -0.697321389433E-08
 -0.629709929752E-08
 -0.530367067885E-08
 -0.409312015011E-08
 -0.277355641926E-08
 -0.144755443049E-08
 -0.178743200796E-09
  0.101115460102E-08
  0.213966322785E-08
  0.333493577892E-08
  0.515492174641E-08
  0.679701282411E-08
  0.791473005538E-08
  0.894052988587E-08
  0.992924992227E-08
  0.108816191093E-07
  0.117619064818E-07
  0.124873274091E-07
  0.129280623985E-07
  0.129256425415E-07
  0.123460262499E-07
  0.112393772310E-07
  0.972177555125E-08
  0.793193132703E-08
  0.601701237099E-08
  0.407682100925E-08
  0.216250647250E-08
  0.301104381012E-09
 -0.141033775977E-08
 -0.239185345662E-08
 -0.405110088877E-08
 -0.782185155361E-08
 -0.115593968252E-07
 -0.151242795128E-07
 -0.184914081026E-07
 -0.215549904141E-07
 -0.241072206121E-07
 -0.258774692612E-07
 -0.266051730351E-07
 -0.261545474011E-07
 -0.246603171301E-07
 -0.222728550707E-07
 -0.193069568544E-07
 -0.160824284411E-07
 -0.128286606858E-07
 -0.967462837620E-08
 -0.664774290129E-08
 -0.365984895168E-08
 -0.351910792173E-09
  0.796765662128E-08
  0.109185205044E-07
  0.138274638892E-07
  0.168603708460E-07
  0.200652876762E-07
  0.234055769523E-07
  0.267527517379E-07
  0.298849208137E-07
  0.325347713883E-07
  0.344152084018E-07
  0.351404794898E-07
  0.346187518964E-07
  0.329983025592E-07
  0.305845199097E-07
  0.277297590723E-07
  0.247135054920E-07
  0.216129704689E-07
  0.181166183860E-07
  0.128798061244E-07
 -0.236213802511E-08
 -0.525840792957E-08
 -0.830150675979E-08
 -0.112203157460E-07
 -0.139580842613E-07
 -0.164250431121E-07
 -0.184622486951E-07
 -0.198676298972E-07
 -0.204490910420E-07
 -0.201244458728E-07
 -0.190091399972E-07
 -0.171636225059E-07
 -0.148587610688E-07
 -0.123474309440E-07
 -0.980378125903E-08
 -0.732284391458E-08
 -0.491831915819E-08
 -0.250752366093E-08
  0.232250916415E-09
  0.727307395559E-08
  0.959581737681E-08
  0.118823275351E-07
  0.142672406285E-07
  0.167916356826E-07
  0.194288809277E-07
  0.220824236830E-07
  0.245843179080E-07
  0.267370162321E-07
  0.283209413612E-07
  0.289896406724E-07
  0.286818711039E-07
  0.274912380707E-07
  0.256521043678E-07
  0.234455691007E-07
  0.210986863397E-07
  0.186703928221E-07
  0.158772668069E-07
  0.114748442363E-07
 -0.775716098994E-09
 -0.282503579384E-08
 -0.518514457759E-08
 -0.747220376893E-08
 -0.960242978881E-08
 -0.115025249724E-07
 -0.130594469475E-07
 -0.141322636892E-07
 -0.145866528665E-07
 -0.143714514109E-07
 -0.135939468074E-07
 -0.122376360929E-07
 -0.105284651622E-07
 -0.865904460461E-08
 -0.675638575295E-08
 -0.488783241312E-08
 -0.305833815564E-08
 -0.119709106516E-08
  0.961135657174E-09
  0.653248635393E-08
  0.827721643309E-08
  0.998896915877E-08
  0.117756131131E-07
  0.136712507964E-07
  0.156573384518E-07
  0.176642485665E-07
  0.195699565447E-07
  0.212356574313E-07
  0.225143032290E-07
  0.230875550501E-07
  0.229267924264E-07
  0.220901199832E-07
  0.207519351564E-07
  0.191294690852E-07
  0.174006434851E-07
  0.156065073260E-07
  0.134923124791E-07
  0.992770144044E-08
  0.907979686229E-09
 -0.251276943697E-09
 -0.189867634462E-08
 -0.353287331681E-08
 -0.504279836985E-08
 -0.637280048524E-08
 -0.745634991771E-08
 -0.821169547811E-08
 -0.855738821470E-08
 -0.846245575351E-08
 -0.802718218393E-08
 -0.715868270391E-08
 -0.604073920919E-08
 -0.480601334944E-08
 -0.353803511488E-08
 -0.227971582237E-08
 -0.103044083682E-08
  0.264326029814E-09
  0.180380508100E-08
  0.568790556321E-08
  0.682212883407E-08
  0.795086609745E-08
  0.914040184166E-08
  0.104127646280E-07
  0.117550477789E-07
  0.131217229972E-07
  0.144331226406E-07
  0.156028810952E-07
  0.165628888087E-07
  0.170188302756E-07
  0.169775882866E-07
  0.164709529314E-07
  0.156187725149E-07
  0.145771851603E-07