# vtk DataFile Version 3.0
MachLine results file. Generated by MachLine, USU AeroLab (c) 2022.
ASCII
DATASET POLYDATA
POINTS                4031 float
  0.999998120393E+00  0.000000000000E+00 -0.108327420918E-06
  0.985311172601E+00  0.224100846140E+00 -0.170270554547E-02
  0.999998168950E+00  0.224100846140E+00 -0.105528976470E-06
  0.985311184047E+00  0.000000000000E+00 -0.170280002531E-02
  0.965616887796E+00  0.224100846140E+00 -0.394781249641E-02
  0.965616899138E+00  0.000000000000E+00 -0.394790636524E-02
  0.939523104585E+00  0.224100846140E+00 -0.685287732738E-02
  0.939523115769E+00  0.000000000000E+00 -0.685297025985E-02
  0.905489853566E+00  0.224100846140E+00 -0.105259052041E-01
  0.905489864525E+00  0.000000000000E+00 -0.105259968279E-01
  0.862001157585E+00  0.224100846140E+00 -0.150351618221E-01
  0.862001168281E+00  0.000000000000E+00 -0.150352518453E-01
  0.807861556312E+00  0.224100846140E+00 -0.203666411822E-01
  0.807861566769E+00  0.000000000000E+00 -0.203667296274E-01
  0.742609840476E+00  0.224100846140E+00 -0.263710819728E-01
  0.742609850756E+00  0.000000000000E+00 -0.263711694377E-01
  0.666965142390E+00  0.224100846140E+00 -0.327286103206E-01
  0.666965152684E+00  0.000000000000E+00 -0.327286980389E-01
  0.583123974636E+00  0.224100846140E+00 -0.389221326890E-01
  0.583123985097E+00  0.000000000000E+00 -0.389222222209E-01
  0.494699801128E+00  0.224100846140E+00 -0.442871993638E-01
  0.494699819758E+00  0.000000000000E+00 -0.442875572159E-01
  0.406196973255E+00  0.000000000000E+00 -0.481331493512E-01
  0.406196977811E+00  0.224100846140E+00 -0.481330591164E-01
  0.322148033505E+00  0.000000000000E+00 -0.499200461759E-01
  0.322148042091E+00  0.224100846140E+00 -0.499199578357E-01
  0.246240780347E+00  0.000000000000E+00 -0.494227158799E-01
  0.246240793517E+00  0.224100846140E+00 -0.494226281075E-01
  0.180771186326E+00  0.000000000000E+00 -0.467563983930E-01
  0.180771204913E+00  0.224100846140E+00 -0.467563102858E-01
  0.126558019933E+00  0.000000000000E+00 -0.422876985852E-01
  0.126558045535E+00  0.224100846140E+00 -0.422876101204E-01
  0.832334436165E-01  0.000000000000E+00 -0.364510526575E-01
  0.832334793461E-01  0.224100846140E+00 -0.364509650159E-01
  0.497097617411E-01  0.000000000000E+00 -0.295732478160E-01
  0.497098144463E-01  0.224100846140E+00 -0.295731645202E-01
  0.246822848412E-01  0.000000000000E+00 -0.217006231552E-01
  0.246823735591E-01  0.224100846140E+00 -0.217005571165E-01
  0.732472657991E-02  0.000000000000E+00 -0.122700906396E-01
  0.732490952579E-02  0.224100846140E+00 -0.122701246293E-01
  0.189063492641E-05  0.000000000000E+00  0.000000000000E+00
  0.184137002823E-05  0.224100846140E+00  0.000000000000E+00
  0.732490952579E-02  0.224100846140E+00  0.122701246293E-01
  0.732472657991E-02  0.000000000000E+00  0.122700906396E-01
  0.246823735591E-01  0.224100846140E+00  0.217005571165E-01
  0.246822848412E-01  0.000000000000E+00  0.217006231552E-01
  0.497098144463E-01  0.224100846140E+00  0.295731645202E-01
  0.497097617411E-01  0.000000000000E+00  0.295732478160E-01
  0.832334793461E-01  0.224100846140E+00  0.364509650159E-01
  0.832334436165E-01  0.000000000000E+00  0.364510526575E-01
  0.126558045535E+00  0.224100846140E+00  0.422876101204E-01
  0.126558019933E+00  0.000000000000E+00  0.422876985852E-01
  0.180771204913E+00  0.224100846140E+00  0.467563102858E-01
  0.180771186326E+00  0.000000000000E+00  0.467563983930E-01
  0.246240793517E+00  0.224100846140E+00  0.494226281075E-01
  0.246240780347E+00  0.000000000000E+00  0.494227158799E-01
  0.322148042091E+00  0.224100846140E+00  0.499199578357E-01
  0.322148033505E+00  0.000000000000E+00  0.499200461759E-01
  0.406196977811E+00  0.224100846140E+00  0.481330591164E-01
  0.406196973255E+00  0.000000000000E+00  0.481331493512E-01
  0.494699801128E+00  0.224100846140E+00  0.442871993638E-01
  0.494699819758E+00  0.000000000000E+00  0.442875572159E-01
  0.583123985097E+00  0.000000000000E+00  0.389222222209E-01
  0.583123974636E+00  0.224100846140E+00  0.389221326890E-01
  0.666965152684E+00  0.000000000000E+00  0.327286980389E-01
  0.666965142390E+00  0.224100846140E+00  0.327286103206E-01
  0.742609850756E+00  0.000000000000E+00  0.263711694377E-01
  0.742609840476E+00  0.224100846140E+00  0.263710819728E-01
  0.807861566769E+00  0.000000000000E+00  0.203667296274E-01
  0.807861556312E+00  0.224100846140E+00  0.203666411822E-01
  0.862001168281E+00  0.000000000000E+00  0.150352518453E-01
  0.862001157585E+00  0.224100846140E+00  0.150351618221E-01
  0.905489864525E+00  0.000000000000E+00  0.105259968279E-01
  0.905489853566E+00  0.224100846140E+00  0.105259052041E-01
  0.939523115769E+00  0.000000000000E+00  0.685297025985E-02
  0.939523104585E+00  0.224100846140E+00  0.685287732738E-02
  0.965616899138E+00  0.000000000000E+00  0.394790636524E-02
  0.965616887796E+00  0.224100846140E+00  0.394781249641E-02
  0.985311184047E+00  0.000000000000E+00  0.170280002531E-02
  0.985311172601E+00  0.224100846140E+00  0.170270554547E-02
  0.985311151845E+00  0.474396230640E+00 -0.170252508941E-02
  0.999997993514E+00  0.474396230640E+00 -0.115639882531E-06
  0.965616867478E+00  0.474396230640E+00 -0.394763215726E-02
  0.939523084838E+00  0.474396230640E+00 -0.685269719959E-02
  0.905489834544E+00  0.474396230640E+00 -0.105257254262E-01
  0.862001139465E+00  0.474396230640E+00 -0.150349825696E-01
  0.807861539305E+00  0.474396230640E+00 -0.203664626318E-01
  0.742609824829E+00  0.474396230640E+00 -0.263709042350E-01
  0.666965128418E+00  0.474396230640E+00 -0.327284333560E-01
  0.583123962768E+00  0.474396230640E+00 -0.389219562562E-01
  0.494699791724E+00  0.474396230640E+00 -0.442870187160E-01
  0.406196972092E+00  0.474396230640E+00 -0.481328823772E-01
  0.322148040786E+00  0.474396230640E+00 -0.499197803250E-01
  0.246240797732E+00  0.474396230640E+00 -0.494224497319E-01
  0.180771215932E+00  0.474396230640E+00 -0.467561312658E-01
  0.126558064970E+00  0.474396230640E+00 -0.422874310053E-01
  0.832335095989E-01  0.474396230640E+00 -0.364507867833E-01
  0.497098599022E-01  0.474396230640E+00 -0.295729891066E-01
  0.246824444365E-01  0.474396230640E+00 -0.217003900478E-01
  0.732503535479E-02  0.474396230640E+00 -0.122699936147E-01
  0.201798827982E-05  0.474396230640E+00  0.000000000000E+00
  0.732503535479E-02  0.474396230640E+00  0.122699936147E-01
  0.246824444365E-01  0.474396230640E+00  0.217003900478E-01
  0.497098599022E-01  0.474396230640E+00  0.295729891066E-01
  0.832335095989E-01  0.474396230640E+00  0.364507867833E-01
  0.126558064970E+00  0.474396230640E+00  0.422874310053E-01
  0.180771215932E+00  0.474396230640E+00  0.467561312658E-01
  0.246240797732E+00  0.474396230640E+00  0.494224497319E-01
  0.322148040786E+00  0.474396230640E+00  0.499197803250E-01
  0.406196972092E+00  0.474396230640E+00  0.481328823772E-01
  0.494699791724E+00  0.474396230640E+00  0.442870187160E-01
  0.583123962768E+00  0.474396230640E+00  0.389219562562E-01
  0.666965128418E+00  0.474396230640E+00  0.327284333560E-01
  0.742609824829E+00  0.474396230640E+00  0.263709042350E-01
  0.807861539305E+00  0.474396230640E+00  0.203664626318E-01
  0.862001139465E+00  0.474396230640E+00  0.150349825696E-01
  0.905489834544E+00  0.474396230640E+00  0.105257254262E-01
  0.939523084838E+00  0.474396230640E+00  0.685269719959E-02
  0.965616867478E+00  0.474396230640E+00  0.394763215726E-02
  0.985311151845E+00  0.474396230640E+00  0.170252508941E-02
  0.985311134199E+00  0.748095716550E+00 -0.170237167158E-02
  0.999997848520E+00  0.748095716550E+00 -0.123996333094E-06
  0.965616850202E+00  0.748095716550E+00 -0.394747881531E-02
  0.939523068043E+00  0.748095716550E+00 -0.685254399892E-02
  0.905489818359E+00  0.748095716550E+00 -0.105255724640E-01
  0.862001124040E+00  0.748095716550E+00 -0.150348299703E-01
  0.807861524817E+00  0.748095716550E+00 -0.203663105229E-01
  0.742609811489E+00  0.748095716550E+00 -0.263707526983E-01
  0.666965116496E+00  0.748095716550E+00 -0.327282823664E-01
  0.583123952636E+00  0.748095716550E+00 -0.389218056409E-01
  0.494699783479E+00  0.748095716550E+00 -0.442868603532E-01
  0.406196967211E+00  0.748095716550E+00 -0.481327315004E-01
  0.322148039673E+00  0.748095716550E+00 -0.499196288694E-01
  0.246240801326E+00  0.748095716550E+00 -0.494222976514E-01
  0.180771225319E+00  0.748095716550E+00 -0.467559787569E-01
  0.126558081514E+00  0.748095716550E+00 -0.422872785231E-01
  0.832335353391E-01  0.748095716550E+00 -0.364506351359E-01
  0.497098985630E-01  0.748095716550E+00 -0.295728399154E-01
  0.246825047033E-01  0.748095716550E+00 -0.217002479899E-01
  0.732514232988E-02  0.748095716550E+00 -0.122698822311E-01
  0.216395827701E-05  0.748095716550E+00  0.000000000000E+00
  0.732514232988E-02  0.748095716550E+00  0.122698822311E-01
  0.246825047033E-01  0.748095716550E+00  0.217002479899E-01
  0.497098985630E-01  0.748095716550E+00  0.295728399154E-01
  0.832335353391E-01  0.748095716550E+00  0.364506351359E-01
  0.126558081514E+00  0.748095716550E+00  0.422872785231E-01
  0.180771225319E+00  0.748095716550E+00  0.467559787569E-01
  0.246240801326E+00  0.748095716550E+00  0.494222976514E-01
  0.322148039673E+00  0.748095716550E+00  0.499196288694E-01
  0.406196967211E+00  0.748095716550E+00  0.481327315004E-01
  0.494699783479E+00  0.748095716550E+00  0.442868603532E-01
  0.583123952636E+00  0.748095716550E+00  0.389218056409E-01
  0.666965116496E+00  0.748095716550E+00  0.327282823664E-01
  0.742609811489E+00  0.748095716550E+00  0.263707526983E-01
  0.807861524817E+00  0.748095716550E+00  0.203663105229E-01
  0.862001124040E+00  0.748095716550E+00  0.150348299703E-01
  0.905489818359E+00  0.748095716550E+00  0.105255724640E-01
  0.939523068043E+00  0.748095716550E+00  0.685254399892E-02
  0.965616850202E+00  0.748095716550E+00  0.394747881531E-02
  0.985311134199E+00  0.748095716550E+00  0.170237167158E-02
  0.985311121147E+00  0.104054975430E+01 -0.170225819975E-02
[...]
POINT_DATA                4031
SCALARS phi float 1
LOOKUP_TABLE default
 -0.374548260447E-04
 -0.138770072299E-04
  0.178856011422E-03
  0.488019342322E-05
  0.242841599913E-04
 -0.797896525746E-05
  0.148157714213E-04
 -0.196763519912E-04
  0.729683646127E-06
 -0.141710723617E-04
  0.165452245574E-04
 -0.270455295259E-04
 -0.215565472186E-04
  0.174139574124E-04
  0.219181961293E-04
 -0.507071446404E-04
 -0.184434852894E-04
  0.207068331110E-04
 -0.262881921275E-04
 -0.168557586875E-04
 -0.178163153055E-04
 -0.157616271367E-04
 -0.223088011098E-04
 -0.102915812498E-04
  0.742189027114E-04
 -0.440045413265E-04
 -0.115433018348E-04
  0.387023094485E-04
 -0.704829324218E-05
  0.100331171032E-05
  0.175307284323E-04
 -0.370124121702E-04
  0.168650562347E-04
 -0.368321261010E-04
  0.114912576169E-04
 -0.224304719852E-05
 -0.408807572008E-04
  0.232848041518E-05
 -0.277725108931E-04
  0.253546220185E-04
 -0.151783246010E-04
  0.343106750836E-04
  0.101297191486E-04
 -0.468501275200E-04
 -0.210765462112E-04
 -0.311149559649E-04
 -0.131114491593E-04
 -0.239932002776E-04
 -0.597754717024E-05
  0.281754772964E-05
 -0.234840243079E-04
  0.219212263886E-04
 -0.374297589767E-05
 -0.523192000969E-05
  0.665527808004E-05
 -0.185587914787E-04
 -0.275238692158E-06
 -0.102975117210E-04
  0.108003250369E-04
  0.465580091675E-05
 -0.761475571541E-05
 -0.191082651478E-04
 -0.120645014433E-04
 -0.159179242935E-04
  0.138927604143E-04
 -0.218310576162E-04
  0.146820635003E-04
 -0.217167820960E-04
  0.239203627593E-04
  0.221266195149E-04
 -0.534860492334E-05
  0.906772788713E-05
  0.615888957681E-04
 -0.147528762270E-04
 -0.551218232088E-05
  0.138432493343E-04
 -0.580827776420E-05
 -0.121811180014E-03
 -0.291708784558E-07
 -0.213458933795E-04
 -0.208200646857E-04
 -0.132202245445E-03
 -0.216617971347E-04
 -0.354895728340E-04
 -0.262478086010E-04
 -0.622989877427E-05
 -0.186818121604E-05
 -0.155563409095E-05
  0.327940206003E-05
  0.193346466700E-04
  0.501579645972E-04
 -0.104479544403E-04
  0.556131692604E-04
  0.949849611753E-05
  0.577651262884E-04
  0.267535978689E-04
  0.103896491500E-04
 -0.659794252759E-05
 -0.156380868574E-05
  0.505123011070E-04
 -0.255253394509E-04
  0.452595134262E-05
 -0.766216841044E-06
 -0.371366170948E-04
 -0.111906583689E-04
  0.987250488518E-05
  0.297404820461E-04
  0.327215292264E-04
 -0.192850050729E-04
  0.121455057925E-03
  0.173454989833E-04
 -0.995470759470E-05
  0.797933970475E-05
  0.150419077903E-04
 -0.165067531290E-04
  0.258837093112E-04
 -0.143732551016E-04
 -0.249305863668E-04
 -0.544730796246E-04
  0.706313494360E-04
  0.654208710716E-04
 -0.599575974962E-04
 -0.294270487576E-04
  0.774387404042E-04
 -0.196839218899E-04
 -0.367836877301E-04
 -0.253044112844E-04
  0.151793416572E-04
  0.293775940975E-04
 -0.166892407152E-04
  0.156936911010E-04
  0.236061905457E-04
 -0.874839446999E-05
 -0.601930205859E-04
  0.107592201066E-04
  0.115543339024E-04
  0.517672502967E-04
  0.965319957416E-05
 -0.352318635040E-04
 -0.390052904774E-04
  0.220532238793E-05
 -0.163893892661E-04
  0.165653600674E-04
  0.254158307070E-05
 -0.475914009897E-05
  0.401175573337E-05
  0.402577838281E-04
  0.175940411719E-04
  0.601287314403E-04
  0.124892542910E-04
 -0.135480018590E-04
 -0.298605585804E-04
  0.125610685074E-04
  0.854158387240E-05
 -0.696446668044E-06
  0.166185910329E-04
 -0.241138451605E-04
 -0.963220187504E-04
 -0.411115489791E-04
  0.991821293157E-05
 -0.123200987419E-03
  0.183191719682E-03
  0.381858037022E-04
 -0.158372269880E-04
 -0.106256817809E-04
  0.208711711637E-04
  0.356346186841E-04
  0.539486293840E-04
 -0.731577821976E-05
 -0.359783492365E-05
 -0.939870170069E-05
 -0.140671523337E-04
  0.112823296674E-04
  0.134376635733E-05
 -0.328573952561E-04
  0.123901202651E-04
  0.885828704361E-04
  0.664445174457E-04
  0.159809724333E-04
  0.268447183592E-04
 -0.550129614938E-05
  0.209829668603E-04
  0.356086668801E-04
  0.770378669134E-04
  0.448577930864E-04
 -0.146064919383E-04
 -0.335856038189E-06
 -0.234330961111E-04
  0.420473674305E-05
 -0.221205455735E-04
 -0.111588692885E-04
  0.205374118029E-04
 -0.101828779511E-04
 -0.276394887901E-04
 -0.610090959013E-04
  0.168511703644E-05
  0.159508357436E-04
  0.295428308588E-04
  0.213468241933E-04
 -0.189163583748E-04
  0.878298613166E-05
 -0.168827225611E-04
 -0.671586115612E-04
 -0.420195190896E-04
  0.126065180568E-05
  0.132531903045E-04
  0.181775576537E-04
  0.497932543314E-05
  0.506987175320E-04
  0.560305306503E-04
 -0.148338206851E-04
 -0.295440411941E-04
 -0.778043917817E-05
  0.491384357391E-04
  0.107104169819E-03
  0.330794284882E-05
 -0.147054121895E-04
  0.371767874932E-04
 -0.244395820157E-04
  0.397919556310E-04
 -0.193574752055E-05
  0.185918913671E-04
 -0.207794061258E-04
 -0.125140517538E-04
 -0.260146648856E-05
  0.774995508706E-05
  0.100444328510E-03
  0.359589102756E-05
  0.496590627792E-04
  0.432870488190E-04
  0.435300765405E-04
  0.141392302953E-04
 -0.403220855075E-04
  0.245479230512E-04
 -0.459369747472E-04
  0.345634877926E-04
  0.782277279838E-04
 -0.259214317617E-04
 -0.365024275032E-04
 -0.215850187451E-05
  0.255148753863E-04
  0.423124454004E-04
  0.380376136460E-04
 -0.180648266319E-04
 -0.376944195949E-05
 -0.602095657990E-04
  0.141294357837E-04
 -0.402894451442E-04
  0.206171032081E-04
 -0.954228195572E-05
  0.189555750670E-04
  0.684990824936E-04
 -0.391872607243E-05
  0.391813468819E-04
  0.216739133755E-04
  0.240360568157E-04
 -0.112448023333E-04
  0.448465617743E-04
 -0.140425635237E-04
  0.119702130789E-04
 -0.779716671430E-06
  0.423219789738E-04
 -0.357067199978E-04
  0.593349471413E-05
  0.312651080487E-04
  0.577580862835E-04
  0.119069132166E-05
  0.303085423719E-04
  0.818272628814E-04
  0.667487112932E-04
 -0.129707480836E-04
  0.293632707470E-05
  0.122758618710E-04
 -0.195695783923E-04
  0.660171636108E-04
 -0.828898866736E-05
  0.424322318143E-04
  0.477249859023E-04
  0.251501757954E-03
 -0.271680067057E-05
  0.966464516379E-05
  0.293700188188E-04
 -0.157080925796E-04
  0.345220390459E-05
 -0.636407764086E-05
 -0.780253607114E-04
 -0.111170289312E-03
 -0.463972975576E-04
 -0.389849110068E-04
 -0.475865068548E-05
  0.118570307876E-04
 -0.256616770889E-04
  0.717700551413E-04
  0.766455748557E-04
  0.549600225272E-05
  0.128129121410E-03
  0.253853144776E-04
  0.538631958288E-04
  0.690984622453E-05
  0.498198342808E-04
 -0.212550954431E-04
 -0.275304114950E-04
  0.394955661857E-04
  0.111057315681E-04
 -0.266009119833E-04
  0.210711946536E-04
  0.482857752956E-04
  0.371260684350E-04
  0.445519731159E-04
  0.681487019568E-04
  0.104058838327E-03
 -0.513622190051E-04
 -0.740603403100E-04
 -0.526907506593E-04
 -0.670428051093E-04
 -0.614790333311E-04
  0.377734537460E-04
  0.142150565612E-04
  0.397325583150E-04
  0.873264993873E-05
 -0.215544321315E-04
 -0.263037113638E-03
 -0.649398798139E-05
  0.193178816117E-04
  0.691413796635E-04
 -0.429100531835E-04
 -0.997178628637E-05
 -0.115728243776E-03
 -0.797200559055E-04
 -0.235016024104E-04
 -0.760076151930E-04
  0.762082121850E-04
 -0.774555776403E-04
 -0.600960446773E-04
 -0.480630107106E-04
 -0.347484932802E-04
 -0.275802809044E-04
 -0.509587585077E-04
 -0.121699678370E-06
  0.162901392371E-04
 -0.151974391489E-04
  0.346370886343E-05
 -0.334457385232E-04
  0.841953409172E-05
  0.236266340572E-04
  0.259888803372E-04
 -0.569916297648E-04
 -0.578521863396E-04
 -0.854489858291E-04
 -0.291792273000E-04
 -0.190370236565E-05
  0.930679653937E-04
  0.337452092665E-04
  0.248661517686E-04
  0.239757638360E-04
 -0.593223033688E-04
  0.613780853507E-04
  0.342597082994E-04
  0.322446024180E-04
 -0.306399583875E-04
 -0.112520241884E-04
  0.457105747121E-04
 -0.171792844545E-04
 -0.108097825461E-05
 -0.382301820707E-04
  0.189288223381E-04
 -0.121287784931E-04
  0.504255930338E-04
 -0.106451228465E-04
  0.180173473456E-04
 -0.489873074043E-04
 -0.206986491514E-04
 -0.307739493895E-06
  0.422955954283E-04
 -0.466422825225E-04
  0.366887140933E-04
  0.720972078391E-04
 -0.236821518915E-04
 -0.109353014492E-04
 -0.229218735713E-04
  0.687752464630E-05
 -0.606993941308E-04
 -0.253260128366E-04
 -0.879739383113E-06
 -0.331020508597E-04
  0.315327692840E-04
  0.347633403317E-05
 -0.659805028679E-05
 -0.331332049329E-04
 -0.883086289814E-05
 -0.173374544075E-04
 -0.101595449346E-04
 -0.175752826929E-04
  0.313689296262E-04
 -0.263186905894E-04
 -0.245838588443E-04
 -0.950204165177E-05
  0.144975426189E-04
  0.847086123795E-04
 -0.835321636004E-05
  0.321540056808E-04
 -0.541696916460E-04
 -0.387092829050E-04
 -0.551749404233E-04
 -0.541173261393E-04
  0.726555116919E-04
 -0.231663223384E-04
  0.197212096138E-04
 -0.993984243334E-05
 -0.698106934842E-04
 -0.126355023284E-03
  0.170949534074E-04
  0.233959115414E-04
  0.226388673948E-04
 -0.216952150475E-04
 -0.429885543128E-06
  0.153680868643E-04
  0.272995817314E-04
  0.497633567118E-04
  0.564304804697E-04
  0.351187926330E-04
  0.598004726698E-04
  0.953383068730E-04
  0.529493042453E-04
  0.290772391108E-04
 -0.248417666052E-04
 -0.238541392383E-04
  0.292795731209E-04
  0.306019066481E-04
 -0.260388379591E-04
 -0.133007030589E-05
  0.375558657100E-04
  0.763323154914E-04
 -0.103859695361E-05
 -0.314206648865E-04
  0.232772764416E-04
  0.782294750858E-04
 -0.200842979861E-04
 -0.463367677746E-04
 -0.696843532192E-04
 -0.193237140433E-03
  0.114829394797E-04
 -0.569360821551E-05
 -0.477262562062E-05
  0.137250505966E-03
  0.267144781878E-04
  0.767569913748E-04
  0.721592146096E-04
 -0.107130191621E-04
 -0.407638231060E-04
  0.148092098406E-04
 -0.198294820903E-05
 -0.367621838957E-04
 -0.215097845833E-04
  0.732981231849E-05
 -0.512393066440E-05
  0.852772216225E-04
 -0.618806978700E-04
 -0.128220753154E-04
 -0.108500767093E-04
  0.245190415638E-04
 -0.820060809376E-04
  0.193535129958E-04
  0.195163248870E-04
  0.328744742369E-05
 -0.407783511667E-05
 -0.346629019258E-04
  0.100042374125E-04
  0.694782790474E-05
 -0.542929094562E-05
 -0.402141928599E-04
 -0.622672937631E-04
 -0.300712717080E-04
 -0.191671019754E-04
  0.461739631599E-04
  0.497526713138E-04
  0.604784720368E-04
  0.420037554868E-04
 -0.204763649847E-04
  0.400242362525E-04
 -0.195409514084E-04
 -0.129396161656E-04
  0.619894414437E-05
 -0.359306484316E-04
  0.207727362379E-04
 -0.127981186836E-04
 -0.652473167522E-04
  0.134683199291E-04
 -0.186450259355E-04
  0.301665060281E-04
  0.105574146863E-04
 -0.656259652788E-04
 -0.504903211571E-04
 -0.622426006746E-04
  0.787638894434E-05
 -0.495624313016E-04
 -0.510970708330E-05
  0.298491997733E-04
 -0.275671075765E-04
 -0.727320695221E-04
 -0.854209999631E-05
 -0.614416209432E-04
  0.180328427846E-04
  0.310463621143E-04
  0.405682320699E-05
  0.146852931496E-05
  0.270990358402E-04
 -0.522203138035E-04
 -0.169462910899E-04
 -0.383754258522E-04
  0.649859527593E-04
 -0.355178503979E-04
  0.217894489539E-04
  0.223268181397E-04
  0.293878657446E-04
  0.121560423136E-03
 -0.144851688629E-04
 -0.157710087877E-04
 -0.176561296366E-03
 -0.292508439794E-04
  0.275372339294E-04
 -0.270569386816E-03
 -0.439227298527E-04
 -0.229464126380E-04
 -0.546985258189E-05
 -0.410622414932E-04
  0.942769980427E-05
  0.207731790223E-05
 -0.312520026308E-04
 -0.645603184672E-04
 -0.320898904540E-04
  0.188402706390E-04
 -0.618577632223E-04
 -0.214821651279E-04
  0.551252118570E-05
 -0.254819657695E-04
  0.175823825659E-04
 -0.821929453284E-04
 -0.326487862343E-04
 -0.621356644993E-04
  0.898607975134E-04
 -0.673268241647E-05
  0.829871050954E-05
 -0.282188367801E-04
 -0.866162756953E-04
  0.128687038150E-04
 -0.750017531773E-04
  0.157768764680E-05
  0.521245506890E-04
 -0.557374808218E-04
  0.280134608322E-04
  0.840964536998E-04
  0.522095981688E-04
  0.352770299061E-04
 -0.436451129847E-04
 -0.782139454693E-05
 -0.625838874521E-05
  0.895402317293E-04
  0.227927885334E-05
  0.307031372619E-05
  0.153880322641E-04
  0.684911413632E-04
  0.101297457358E-04
 -0.263355187061E-06
 -0.113857515645E-03
  0.453052346329E-05
  0.126379273545E-04
  0.146828155756E-04
  0.631749770914E-05
  0.486454252043E-04
 -0.349127837352E-04
  0.731713936113E-04
  0.673139922853E-04
  0.175055469965E-04
  0.334876551135E-04
  0.127452930273E-04
 -0.450422757474E-05
 -0.232940611071E-04
  0.528492695140E-04
  0.618874513184E-04
 -0.154186892580E-05
  0.821729079720E-05
 -0.333321913762E-04
  0.341595124245E-04
  0.406261747946E-04
 -0.979634945918E-05
 -0.120710559191E-04
  0.790306698773E-04
 -0.127111375148E-04
 -0.575704043380E-05
 -0.150371698630E-04
 -0.745698542115E-05
  0.829058574552E-06
 -0.724082038607E-05
 -0.129089301975E-05
 -0.311951456870E-04
 -0.685957884652E-04
 -0.311591538095E-04
  0.188058955934E-03
  0.203134217533E-04
  0.374628580524E-04
 -0.385378553081E-04
  0.195225709863E-03
 -0.271473422063E-04
 -0.478458658327E-05
  0.100670229647E-03
 -0.439803286812E-04
  0.178288896221E-04
  0.223239792496E-04
 -0.161123386830E-04
 -0.362299595971E-04
 -0.351160409924E-05
  0.666828718035E-04
 -0.337310799684E-04
  0.202296056859E-04
 -0.313431477920E-04
 -0.641648897989E-05
 -0.817047141727E-04
  0.721359682600E-04
  0.308443577515E-04
  0.485127796675E-04
  0.377573230854E-04
  0.604224417878E-04
 -0.439521802983E-04
 -0.465596310066E-04
 -0.177897457841E-04
 -0.836566898041E-05
  0.307060584709E-04
 -0.283787107201E-04
 -0.362958612452E-04
 -0.452779633428E-04
  0.276138241245E-04
 -0.631023163992E-05
 -0.588598392285E-04
  0.451686625470E-04
 -0.283677463152E-04
  0.818452978839E-04
  0.165807601074E-04
  0.413934764018E-04
 -0.377736746413E-04
 -0.352210413283E-05
 -0.259321399355E-03
 -0.687266570839E-04
 -0.257164658956E-04
  0.133855994143E-03
 -0.751749032991E-04
 -0.277817127838E-04
 -0.717344743140E-04
 -0.175903016713E-04
  0.256390302444E-04
 -0.535366823231E-04
 -0.746030708397E-04
  0.778124566066E-05
  0.992103325764E-05
  0.426180120787E-04
 -0.316967662156E-04
 -0.158329665127E-04
 -0.384769438885E-04
 -0.429316813630E-04
  0.537933947897E-04
 -0.407812882487E-04
 -0.213963981518E-04
 -0.113679580197E-03
 -0.307743962516E-04
  0.269944340625E-04
 -0.145898768869E-04
  0.926240052063E-04
  0.109731947795E-03
  0.742106090697E-04
  0.330181219961E-04
 -0.238219848745E-04
  0.176398778452E-04
  0.858732151404E-04
 -0.481578989946E-04
 -0.703430992945E-04
  0.693613531265E-05
  0.614233855256E-04
  0.177625748880E-05
  0.171782363803E-03
 -0.549171567019E-04
  0.107364342634E-04
  0.630808468427E-04
  0.804799375379E-04
  0.288239366368E-04
 -0.640234481619E-04
 -0.451249800128E-04
 -0.930621731655E-04
 -0.505451352929E-06
  0.249077273963E-05
  0.154841283826E-04
  0.101639093726E-04
  0.154936455617E-04
  0.667500778254E-04
  0.341152283569E-04
  0.609810718244E-04
  0.235178664956E-04
 -0.681237010119E-05
 -0.113811142649E-03
 -0.879372488333E-04
 -0.938377499530E-04
 -0.128113461499E-03
 -0.733890564756E-04
 -0.180924011845E-04
 -0.401841660047E-04
 -0.148958367207E-03
  0.327234958125E-04
 -0.429445288766E-04
  0.797824918820E-05
 -0.181773346850E-04
  0.620500006600E-04
 -0.508565240321E-04
  0.494485364829E-05
  0.552642444413E-04
  0.222151648097E-04
  0.152578257355E-04
 -0.790777638116E-04
  0.653186019990E-05
  0.179437174948E-04
 -0.156502217193E-03
  0.890908021669E-04
  0.645468608921E-04
  0.789929240207E-04
 -0.149343288788E-03
 -0.147607562516E-04
  0.481438611289E-04
 -0.405168063726E-04
  0.117036700912E-04
 -0.363066598544E-04
  0.632555364251E-05
  0.105389026956E-04
  0.639775642484E-04
 -0.274706520329E-04
 -0.237102012534E-04
  0.502791002507E-04
 -0.119130923676E-04
 -0.375055854543E-04
 -0.362537773697E-04
 -0.117013550199E-03
  0.328141537278E-04
  0.359784770003E-04
  0.158285786445E-03
  0.323939990619E-04
  0.718872031390E-05
  0.748026006027E-05
 -0.206845215652E-04
 -0.829470778752E-04
  0.831859670079E-04
 -0.118423381606E-03
 -0.525633882110E-04
 -0.112608627071E-04
 -0.828417234868E-04
  0.227509576932E-04
  0.154244511122E-03
 -0.103829083338E-03
  0.165814564350E-04
 -0.773964547127E-04
  0.434133199148E-04
  0.580605221515E-04
 -0.226487771634E-04
  0.521429577728E-04
  0.175719133016E-04
  0.727450929122E-03
  0.489203505975E-04
 -0.741137203149E-04
  0.381359557740E-04
  0.250222094036E-04
  0.472004262876E-04
  0.722171538508E-04
  0.117271530685E-03
  0.160499929089E-03
 -0.316544984042E-04
 -0.496720555978E-04
 -0.655734092561E-04
 -0.275244102290E-04
 -0.270254835932E-04
 -0.372623620686E-05
  0.415842881405E-04
 -0.291156030211E-04
 -0.586255377740E-04
 -0.510736992064E-04
 -0.737646550748E-04
 -0.653497441952E-04
 -0.688641852182E-04
  0.742420750595E-05
 -0.845896877143E-04
 -0.479789851252E-04
  0.352404391180E-04
  0.436663841441E-04
  0.698407983541E-05
 -0.300306503254E-04
 -0.478217984424E-04
 -0.853831973504E-04
 -0.780444220633E-04
  0.209936678266E-04
 -0.105609826357E-05
 -0.128134007727E-04
  0.149898069617E-04
  0.665264730738E-04
  0.767977747529E-04
  0.937649240629E-04
 -0.353346959845E-04
  0.152280728124E-03
 -0.598050125878E-05
 -0.228976522622E-05
  0.526959009474E-04
  0.221714397866E-04
  0.983388234407E-05
 -0.518304814239E-04
  0.890327729744E-04
 -0.407036250399E-04
 -0.551664394177E-04
 -0.353010620694E-04
 -0.138749119257E-05
  0.820309884812E-04
  0.215907530256E-04
 -0.111179892885E-04
 -0.444216489934E-05
 -0.237833472383E-04
  0.672281172268E-04
 -0.333623194085E-04
 -0.427049923398E-05
  0.496859221813E-04
  0.217776930005E-04
  0.161860852389E-04
 -0.485663665155E-05
  0.346113257811E-04
 -0.325171600065E-04
 -0.115397835148E-04
  0.321906167901E-05
  0.552324015326E-04
  0.151003941578E-04
  0.171488708823E-04
  0.116729523636E-03
  0.274764293576E-04
  0.124388116629E-04
 -0.455392873290E-04
 -0.766271785832E-05
  0.396080044608E-04
 -0.564219557428E-04
 -0.108666741540E-03
  0.337287473996E-04
 -0.485897594337E-04
 -0.342083144260E-04
 -0.357609105854E-04
 -0.175572811430E-04
  0.473724274577E-04
 -0.419725305507E-04
 -0.347757931056E-05
 -0.102212325787E-03
 -0.106232319264E-05
 -0.315444269743E-04
  0.189487667656E-04
 -0.200191400988E-03
  0.872941026884E-05
 -0.184826247301E-05
  0.161939623776E-04
 -0.100094328444E-05
  0.374664514506E-04
 -0.734548411852E-04
 -0.116541323535E-03
 -0.204891711024E-04
  0.127643536285E-04
  0.441412124546E-04
 -0.278969360208E-04
 -0.241811429939E-04
  0.434642163538E-04
 -0.451845197868E-04
 -0.783114545144E-04
  0.388904954464E-04
  0.341219909965E-04
  0.367648422747E-04
 -0.141131306839E-04
  0.100958165104E-04
 -0.607856926339E-04
  0.294030728383E-04
 -0.785863776867E-06
 -0.300523684922E-04
  0.103803175092E-03
  0.132850094228E-04
  0.851926780874E-04
 -0.990641768574E-05
 -0.303350179942E-04
 -0.128039725577E-04
 -0.193873556541E-05
 -0.141505839556E-04
  0.574015060312E-04
  0.133169265972E-04
 -0.135281756347E-03
  0.319937177159E-04
  0.115113990712E-03
 -0.603267194117E-04
 -0.720039741546E-04
 -0.341049109804E-04
 -0.584581251848E-04
 -0.995047499373E-05
 -0.854522481005E-04
 -0.168727906514E-04
 -0.287736252300E-04
 -0.209021658162E-04
  0.139307435128E-04
  0.436119580828E-04
  0.486300090324E-04
  0.809512318086E-04
  0.809770096000E-04
  0.692008319760E-04
  0.249015927604E-04
 -0.436571716312E-04
  0.594208797882E-04
 -0.156874260293E-04
  0.473004966522E-04
 -0.282869557441E-04
 -0.719137692825E-04
  0.239109872184E-04
  0.447434808291E-04
 -0.105368757618E-03
  0.877693777881E-04
  0.734940096048E-05
  0.202028164561E-04
  0.385227759972E-04
  0.972307460118E-04
  0.677557549849E-04
 -0.360232616257E-06
  0.242623357859E-04
 -0.366193779310E-05
 -0.348787938240E-04
 -0.374380506748E-04
  0.412765738392E-05
 -0.780229768611E-04
 -0.156772449343E-04
 -0.378010227980E-04
 -0.137483981692E-04
 -0.866581520436E-04
  0.344637845402E-04
  0.108225443173E-04
 -0.675904596934E-04
 -0.122644367969E-05
 -0.647172020864E-04
  0.233563838845E-04
 -0.245142801266E-04
 -0.607570350989E-04
 -0.912772261883E-05
  0.101844326224E-03
 -0.455394000650E-05
 -0.257633383818E-04
  0.381355454824E-04
 -0.394458817558E-04
 -0.257744085938E-04
 -0.192839190723E-03