# vtk DataFile Version 3.0
MachLine results file. Generated by MachLine, USU AeroLab (c) 2022.
ASCII
DATASET POLYDATA
POINTS                3668 float
  0.100000000000E+01  0.000000000000E+00  0.000000000000E+00
  0.993202468320E+00  0.105801853900E+00 -0.792016659510E-03
  0.100000000000E+01  0.105801853900E+00  0.000000000000E+00
  0.993202468320E+00  0.000000000000E+00 -0.792016659510E-03
  0.985311378880E+00  0.105801853900E+00 -0.170449895420E-02
  0.985311378880E+00  0.000000000000E+00 -0.170449895420E-02
  0.976172401820E+00  0.105801853900E+00 -0.275202043860E-02
  0.976172401820E+00  0.000000000000E+00 -0.275202043860E-02
  0.965617092460E+00  0.105801853900E+00 -0.394962905220E-02
  0.965617092460E+00  0.000000000000E+00 -0.394962905220E-02
  0.953464384210E+00  0.105801853900E+00 -0.531238367060E-02
  0.953464384210E+00  0.000000000000E+00 -0.531238367060E-02
  0.939523307000E+00  0.105801853900E+00 -0.685472369040E-02
  0.939523307000E+00  0.000000000000E+00 -0.685472369040E-02
  0.923597246950E+00  0.105801853900E+00 -0.858965946630E-02
  0.923597246950E+00  0.000000000000E+00 -0.858965946630E-02
  0.905490052860E+00  0.105801853900E+00 -0.105277887700E-01
  0.905490052860E+00  0.000000000000E+00 -0.105277887700E-01
  0.885014233920E+00  0.105801853900E+00 -0.126761706840E-01
  0.885014233920E+00  0.000000000000E+00 -0.126761706840E-01
  0.862001352470E+00  0.105801853900E+00 -0.150370898030E-01
  0.862001352470E+00  0.000000000000E+00 -0.150370898030E-01
  0.836314376120E+00  0.105801853900E+00 -0.176058258720E-01
  0.836314376120E+00  0.000000000000E+00 -0.176058258720E-01
  0.807861744690E+00  0.105801853900E+00 -0.203686189510E-01
  0.807861744690E+00  0.000000000000E+00 -0.203686189510E-01
  0.776612353210E+00  0.105801853900E+00 -0.233021693190E-01
  0.776612353210E+00  0.000000000000E+00 -0.233021693190E-01
  0.742610019070E+00  0.105801853900E+00 -0.263731107280E-01
  0.742610019070E+00  0.000000000000E+00 -0.263731107280E-01
  0.705985648880E+00  0.105801853900E+00 -0.295361410510E-01
  0.705985648880E+00  0.000000000000E+00 -0.295361410510E-01
  0.666965306180E+00  0.105801853900E+00 -0.327306847400E-01
  0.666965306180E+00  0.000000000000E+00 -0.327306847400E-01
  0.625872718430E+00  0.105801853900E+00 -0.358861224890E-01
  0.625872718430E+00  0.000000000000E+00 -0.358861224890E-01
  0.583124116380E+00  0.105801853900E+00 -0.389242397680E-01
  0.583124116380E+00  0.000000000000E+00 -0.389242397680E-01
  0.539215102660E+00  0.105801853900E+00 -0.417549573400E-01
  0.539215102660E+00  0.000000000000E+00 -0.417549573400E-01
  0.494699909170E+00  0.105801853900E+00 -0.442892746710E-01
  0.494699909170E+00  0.000000000000E+00 -0.442892746710E-01
  0.450164560540E+00  0.000000000000E+00 -0.464416172790E-01
  0.450164560540E+00  0.105801853900E+00 -0.464416172790E-01
  0.406197046100E+00  0.000000000000E+00 -0.481351698480E-01
  0.406197046100E+00  0.105801853900E+00 -0.481351698480E-01
  0.363356901030E+00  0.000000000000E+00 -0.493087119800E-01
  0.363356901030E+00  0.105801853900E+00 -0.493087119800E-01
  0.322148057390E+00  0.000000000000E+00 -0.499220386450E-01
  0.322148057390E+00  0.105801853900E+00 -0.499220386450E-01
  0.282997350300E+00  0.000000000000E+00 -0.499590509500E-01
  0.282997350300E+00  0.105801853900E+00 -0.499590509500E-01
  0.246240745400E+00  0.000000000000E+00 -0.494246641260E-01
  0.246240745400E+00  0.105801853900E+00 -0.494246641260E-01
  0.212117343290E+00  0.000000000000E+00 -0.483434669210E-01
  0.212117343290E+00  0.105801853900E+00 -0.483434669210E-01
  0.180771082860E+00  0.000000000000E+00 -0.467582932350E-01
  0.180771082860E+00  0.105801853900E+00 -0.467582932350E-01
  0.152257598000E+00  0.000000000000E+00 -0.447219656100E-01
  0.152257598000E+00  0.105801853900E+00 -0.447219656100E-01
  0.126557836510E+00  0.000000000000E+00 -0.422895365970E-01
  0.126557836510E+00  0.105801853900E+00 -0.422895365970E-01
  0.103591331880E+00  0.000000000000E+00 -0.395176429100E-01
  0.103591331880E+00  0.105801853900E+00 -0.395176429100E-01
  0.832331623890E-01  0.000000000000E+00 -0.364528323560E-01
  0.832331623890E-01  0.105801853900E+00 -0.364528323560E-01
  0.653287015030E-01  0.000000000000E+00 -0.331319734090E-01
  0.653287015030E-01  0.105801853900E+00 -0.331319734090E-01
  0.497093485250E-01  0.000000000000E+00 -0.295749625020E-01
  0.497093485250E-01  0.105801853900E+00 -0.295749625020E-01
  0.362089001590E-01  0.000000000000E+00 -0.257770350910E-01
  0.362089001590E-01  0.105801853900E+00 -0.257770350910E-01
  0.246816596840E-01  0.000000000000E+00 -0.217022398280E-01
  0.246816596840E-01  0.105801853900E+00 -0.217022398280E-01
  0.150380219590E-01  0.000000000000E+00 -0.172594695730E-01
  0.150380219590E-01  0.105801853900E+00 -0.172594695730E-01
  0.732365982350E-02  0.000000000000E+00 -0.122714258330E-01
  0.732365982350E-02  0.105801853900E+00 -0.122714258330E-01
  0.195566523840E-02  0.000000000000E+00 -0.646624164430E-02
  0.195566523840E-02  0.105801853900E+00 -0.646624164430E-02
  0.000000000000E+00  0.000000000000E+00  0.000000000000E+00
  0.000000000000E+00  0.105801853900E+00  0.000000000000E+00
  0.195566523840E-02  0.105801853900E+00  0.646624164430E-02
  0.195566523840E-02  0.000000000000E+00  0.646624164430E-02
  0.732365982350E-02  0.105801853900E+00  0.122714258330E-01
  0.732365982350E-02  0.000000000000E+00  0.122714258330E-01
  0.150380219590E-01  0.105801853900E+00  0.172594695730E-01
  0.150380219590E-01  0.000000000000E+00  0.172594695730E-01
  0.246816596840E-01  0.105801853900E+00  0.217022398280E-01
  0.246816596840E-01  0.000000000000E+00  0.217022398280E-01
  0.362089001590E-01  0.105801853900E+00  0.257770350910E-01
  0.362089001590E-01  0.000000000000E+00  0.257770350910E-01
  0.497093485250E-01  0.105801853900E+00  0.295749625020E-01
  0.497093485250E-01  0.000000000000E+00  0.295749625020E-01
  0.653287015030E-01  0.105801853900E+00  0.331319734090E-01
  0.653287015030E-01  0.000000000000E+00  0.331319734090E-01
  0.832331623890E-01  0.105801853900E+00  0.364528323560E-01
  0.832331623890E-01  0.000000000000E+00  0.364528323560E-01
  0.103591331880E+00  0.105801853900E+00  0.395176429100E-01
  0.103591331880E+00  0.000000000000E+00  0.395176429100E-01
  0.126557836510E+00  0.105801853900E+00  0.422895365970E-01
  0.126557836510E+00  0.000000000000E+00  0.422895365970E-01
  0.152257598000E+00  0.105801853900E+00  0.447219656100E-01
  0.152257598000E+00  0.000000000000E+00  0.447219656100E-01
  0.180771082860E+00  0.105801853900E+00  0.467582932350E-01
  0.180771082860E+00  0.000000000000E+00  0.467582932350E-01
  0.212117343290E+00  0.105801853900E+00  0.483434669210E-01
  0.212117343290E+00  0.000000000000E+00  0.483434669210E-01
  0.246240745400E+00  0.105801853900E+00  0.494246641260E-01
  0.246240745400E+00  0.000000000000E+00  0.494246641260E-01
  0.282997350300E+00  0.105801853900E+00  0.499590509500E-01
  0.282997350300E+00  0.000000000000E+00  0.499590509500E-01
  0.322148057390E+00  0.105801853900E+00  0.499220386450E-01
  0.322148057390E+00  0.000000000000E+00  0.499220386450E-01
  0.363356901030E+00  0.105801853900E+00  0.493087119800E-01
  0.363356901030E+00  0.000000000000E+00  0.493087119800E-01
  0.406197046100E+00  0.105801853900E+00  0.481351698480E-01
  0.406197046100E+00  0.000000000000E+00  0.481351698480E-01
  0.450164560540E+00  0.105801853900E+00  0.464416172790E-01
  0.450164560540E+00  0.000000000000E+00  0.464416172790E-01
  0.494699909170E+00  0.105801853900E+00  0.442892746710E-01
  0.494699909170E+00  0.000000000000E+00  0.442892746710E-01
  0.539215102660E+00  0.000000000000E+00  0.417549573400E-01
  0.539215102660E+00  0.105801853900E+00  0.417549573400E-01
  0.583124116380E+00  0.000000000000E+00  0.389242397680E-01
  0.583124116380E+00  0.105801853900E+00  0.389242397680E-01
  0.625872718430E+00  0.000000000000E+00  0.358861224890E-01
  0.625872718430E+00  0.105801853900E+00  0.358861224890E-01
  0.666965306180E+00  0.000000000000E+00  0.327306847400E-01
  0.666965306180E+00  0.105801853900E+00  0.327306847400E-01
  0.705985648880E+00  0.000000000000E+00  0.295361410510E-01
  0.705985648880E+00  0.105801853900E+00  0.295361410510E-01
  0.742610019070E+00  0.000000000000E+00  0.263731107280E-01
  0.742610019070E+00  0.105801853900E+00  0.263731107280E-01
  0.776612353210E+00  0.000000000000E+00  0.233021693190E-01
  0.776612353210E+00  0.105801853900E+00  0.233021693190E-01
  0.807861744690E+00  0.000000000000E+00  0.203686189510E-01
  0.807861744690E+00  0.105801853900E+00  0.203686189510E-01
  0.836314376120E+00  0.000000000000E+00  0.176058258720E-01
  0.836314376120E+00  0.105801853900E+00  0.176058258720E-01
  0.862001352470E+00  0.000000000000E+00  0.150370898030E-01
  0.862001352470E+00  0.105801853900E+00  0.150370898030E-01
  0.885014233920E+00  0.000000000000E+00  0.126761706840E-01
  0.885014233920E+00  0.105801853900E+00  0.126761706840E-01
  0.905490052860E+00  0.000000000000E+00  0.105277887700E-01
  0.905490052860E+00  0.105801853900E+00  0.105277887700E-01
  0.923597246950E+00  0.000000000000E+00  0.858965946630E-02
  0.923597246950E+00  0.105801853900E+00  0.858965946630E-02
  0.939523307000E+00  0.000000000000E+00  0.685472369040E-02
  0.939523307000E+00  0.105801853900E+00  0.685472369040E-02
  0.953464384210E+00  0.000000000000E+00  0.531238367060E-02
  0.953464384210E+00  0.105801853900E+00  0.531238367060E-02
  0.965617092460E+00  0.000000000000E+00  0.394962905220E-02
  0.965617092460E+00  0.105801853900E+00  0.394962905220E-02
  0.976172401820E+00  0.000000000000E+00  0.275202043860E-02
  0.976172401820E+00  0.105801853900E+00  0.275202043860E-02
  0.985311378880E+00  0.000000000000E+00  0.170449895420E-02
  0.985311378880E+00  0.105801853900E+00  0.170449895420E-02
  0.993202468320E+00  0.000000000000E+00  0.792016659510E-03
  0.993202468320E+00  0.105801853900E+00  0.792016659510E-03
  0.993202468320E+00  0.218019532620E+00 -0.792016659510E-03
[...]
CELL_DATA                7176
SCALARS C_p_inc float 1
LOOKUP_TABLE default
 -0.196466973402E+01
 -0.196503178217E+01
 -0.986139947868E+00
 -0.986067800954E+00
 -0.650335108172E+00
 -0.650202277071E+00
 -0.493702620308E+00
 -0.493581767080E+00
 -0.403302129500E+00
 -0.403208487429E+00
 -0.344477086349E+00
 -0.344411242701E+00
 -0.303332980821E+00
 -0.303290584576E+00
 -0.273216570735E+00
 -0.273192962806E+00
 -0.250526847422E+00
 -0.250517304295E+00
 -0.233164892426E+00
 -0.233164994361E+00
 -0.219811698541E+00
 -0.219817712041E+00
 -0.209523702171E+00
 -0.209532738594E+00
 -0.201616653939E+00
 -0.201626683367E+00
 -0.195666449822E+00
 -0.195676207041E+00
 -0.191431232668E+00
 -0.191440053696E+00
 -0.188585227539E+00
 -0.188592862344E+00
 -0.186778308754E+00
 -0.186784752900E+00
 -0.185884062048E+00
 -0.185889429854E+00
 -0.185595148042E+00
 -0.185599592359E+00
 -0.185473912567E+00
 -0.185477589825E+00
 -0.185177810119E+00
 -0.185174787157E+00
 -0.184219511920E+00
 -0.184217058360E+00
 -0.182020225242E+00
 -0.182018288444E+00
 -0.177966588998E+00
 -0.177965129833E+00
 -0.171504612599E+00
 -0.171503586425E+00
 -0.162062981483E+00
 -0.162062403322E+00
 -0.148946531819E+00
 -0.148946382911E+00
 -0.131520568868E+00
 -0.131520848038E+00
 -0.109216638750E+00
 -0.109217355879E+00
 -0.811850545509E-01
 -0.811862346837E-01
 -0.464483850175E-01
 -0.464500730026E-01
 -0.361537349260E-02
 -0.361763279483E-02
  0.494956703340E-01
  0.494927702591E-01
  0.116064265478E+00
  0.116060650405E+00
  0.201502655458E+00
  0.201498247748E+00
  0.314756612332E+00
  0.314751351312E+00
  0.471130889675E+00
  0.471124805315E+00
  0.692665105480E+00
  0.692658610888E+00
  0.952929490569E+00
  0.952925048028E+00
  0.847131449763E+00
  0.847125980858E+00
 -0.124300199864E+00
 -0.124324820659E+00
 -0.931959197954E+00
 -0.931994370280E+00
 -0.110972940687E+01
 -0.110975290204E+01
 -0.106169793200E+01
 -0.106171451343E+01
 -0.978831291948E+00
 -0.978844498771E+00
 -0.898315479610E+00
 -0.898326546696E+00
 -0.825720513932E+00
 -0.825730022834E+00
 -0.760575294544E+00
 -0.760583577123E+00
 -0.701535978179E+00
 -0.701543249469E+00
 -0.646920718760E+00
 -0.646926469464E+00
 -0.595617111025E+00
 -0.595622743687E+00
 -0.546593638327E+00
 -0.546598612843E+00
 -0.499078730168E+00
 -0.499083099630E+00
 -0.452654885909E+00
 -0.452658685004E+00
 -0.406883553370E+00
 -0.406886801745E+00
 -0.361642859007E+00
 -0.361645563446E+00
 -0.317012624695E+00
 -0.317014780323E+00
 -0.273007996877E+00
 -0.273009587003E+00
 -0.229682634026E+00
 -0.229683629914E+00
 -0.187179938999E+00
 -0.187179935896E+00
 -0.145614633028E+00
 -0.145614673752E+00
 -0.104994990961E+00
 -0.104996260803E+00
 -0.652005652361E-01
 -0.652028327127E-01
 -0.261816787246E-01
 -0.261850435991E-01
  0.122546336700E-01
  0.122501368938E-01
  0.504773896444E-01
  0.504718851068E-01
  0.887083447838E-01
  0.887022396763E-01
  0.127263411358E+00
  0.127257536448E+00
  0.166614087072E+00
  0.166609810513E+00
  0.207229546713E+00
  0.207228802425E+00
  0.249612018597E+00
  0.249617203072E+00
  0.294425133255E+00
  0.294438851732E+00
  0.342607929815E+00
  0.342632602596E+00
  0.395468146499E+00
  0.395505501450E+00
  0.454931796165E+00
  0.454980501109E+00
  0.524090706716E+00
  0.524152579822E+00
  0.608299218519E+00
  0.608365845118E+00
  0.717485728552E+00
  0.717541676786E+00
  0.867074549541E+00
  0.867089835040E+00
  0.997477310785E+00
  0.997489428441E+00
 -0.197835861640E+01
 -0.196466977020E+01
 -0.990461446071E+00
 -0.986139954249E+00
 -0.652141886774E+00
 -0.650335108475E+00
 -0.494545022240E+00
 -0.493702620211E+00
 -0.403694060559E+00
 -0.403302130122E+00
 -0.344638661091E+00
 -0.344477087553E+00
 -0.303373369938E+00
 -0.303332982217E+00
 -0.273195758124E+00
 -0.273216572010E+00
 -0.250478314627E+00
 -0.250526848412E+00
 -0.233107275897E+00
 -0.233164893094E+00
 -0.219754902945E+00
 -0.219811698931E+00
 -0.209472409438E+00
 -0.209523702358E+00
 -0.201572528527E+00
 -0.201616654003E+00
 -0.195629530084E+00
 -0.195666449829E+00
 -0.191400787384E+00
 -0.191431232666E+00
 -0.188560262135E+00
 -0.188585227561E+00
 -0.186757834980E+00
 -0.186778308818E+00
 -0.185867219040E+00
 -0.185884062164E+00
 -0.185581241673E+00
 -0.185595148214E+00
 -0.185462414150E+00
 -0.185473912794E+00
 -0.185174787371E+00
 -0.185165320665E+00
 -0.184217058625E+00
 -0.184209367138E+00
 -0.182018288755E+00
 -0.182012202843E+00
 -0.177965130181E+00
 -0.177960546585E+00
 -0.171503586803E+00
 -0.171500272198E+00
 -0.162062403721E+00
 -0.162060614486E+00
 -0.148946383321E+00
 -0.148945967277E+00
 -0.131520848452E+00
 -0.131521800380E+00
 -0.109217356288E+00
 -0.109219698930E+00
 -0.811862350827E-01
 -0.811900399754E-01
 -0.464500733863E-01
 -0.464554872596E-01
 -0.361763315915E-02
 -0.362485604732E-02
  0.494927699178E-01
  0.494835366420E-01
  0.116060650089E+00
  0.116049206977E+00
  0.201498247461E+00
  0.201484383323E+00
  0.314751351054E+00
  0.314734849213E+00
  0.471124805089E+00
  0.471105610902E+00
  0.692658610695E+00
  0.692638102275E+00
  0.952925047871E+00
  0.952913671829E+00
  0.847125980749E+00
  0.847151682953E+00
 -0.124242578147E+00
 -0.124300199906E+00
 -0.931893556069E+00
 -0.931959197979E+00
 -0.110966918444E+01
 -0.110972940689E+01
 -0.106164723208E+01
 -0.106169793201E+01
 -0.978788905451E+00
 -0.978831291948E+00
 -0.898279470544E+00
 -0.898315479611E+00
 -0.825689444105E+00
 -0.825720513938E+00
 -0.760548172820E+00
 -0.760575294560E+00
 -0.701512130906E+00
 -0.701535978210E+00
 -0.646902891523E+00
 -0.646920718808E+00
 -0.595598637645E+00
 -0.595617111098E+00
 -0.546577300426E+00
 -0.546593638430E+00
 -0.499064351528E+00
 -0.499078730305E+00
 -0.452642353214E+00
 -0.452654886083E+00
 -0.406872798703E+00
 -0.406883553583E+00
 -0.361633851386E+00
 -0.361642859258E+00
 -0.317005367180E+00
 -0.317012624982E+00
 -0.273002529728E+00
 -0.273007997194E+00
 -0.229679040587E+00
 -0.229682634364E+00
 -0.187178374002E+00
 -0.187179939345E+00
 -0.145614674098E+00
 -0.145615428078E+00
 -0.104996261146E+00
 -0.104999749211E+00
 -0.652028330368E-01
 -0.652095378819E-01
 -0.261850438847E-01
 -0.261955646611E-01
  0.122501366642E-01
  0.122350835854E-01
  0.504718849461E-01
  0.504515420554E-01
  0.887022395879E-01
  0.886759685139E-01
  0.127257536419E+00
  0.127225116968E+00
  0.166609810512E+00
  0.166571931191E+00
  0.207228802403E+00
  0.207187784525E+00
  0.249617202973E+00
  0.249578057486E+00
  0.294438851524E+00
  0.294410860717E+00
  0.342632602309E+00
  0.342630884424E+00
  0.395505501208E+00
  0.395553346772E+00
  0.454980501101E+00
  0.455115632579E+00
  0.524152580156E+00
  0.524422942203E+00
  0.608365845309E+00
  0.608853924559E+00
  0.717541674427E+00
  0.718359346031E+00
  0.867089821694E+00
  0.868276571419E+00
  0.997489373796E+00
  0.997055100367E+00
 -0.194804606623E+01
 -0.197835910622E+01
 -0.979754534617E+00
 -0.990461732441E+00
 -0.646963056850E+00
 -0.652142049375E+00
 -0.491621088259E+00
 -0.494545114195E+00
 -0.401913228969E+00
 -0.403694111853E+00
 -0.343509454776E+00
 -0.344638688958E+00
 -0.302639830614E+00
 -0.303373384479E+00
 -0.272710931759E+00
 -0.273195765283E+00
 -0.250152947906E+00
 -0.250478317857E+00
 -0.232882081852E+00
 -0.233107277127E+00
 -0.219599725193E+00
 -0.219754903271E+00
 -0.209361224453E+00
 -0.209472409408E+00
 -0.201490421110E+00
 -0.201572528411E+00
 -0.195566957780E+00
 -0.195629530005E+00
 -0.191351665247E+00
 -0.191400787397E+00
 -0.188520713214E+00
 -0.188560262261E+00
 -0.186725379323E+00
 -0.186757835228E+00
 -0.185840259839E+00
 -0.185867219411E+00
 -0.185558759794E+00
 -0.185581242163E+00
 -0.185443753490E+00
 -0.185462414748E+00
 -0.185165321144E+00
 -0.185149909136E+00
 -0.184209367724E+00
 -0.184196663229E+00
 -0.182012203525E+00
 -0.182001984517E+00
 -0.177960547350E+00
 -0.177952787631E+00
 -0.171500273028E+00
 -0.171494974049E+00
 -0.162060615363E+00
 -0.162057789255E+00
 -0.148945968181E+00
 -0.148945646471E+00
 -0.131521801293E+00
 -0.131524040706E+00
 -0.109219699834E+00
 -0.109224588788E+00
 -0.811900408566E-01
 -0.811977033116E-01
 -0.464554881057E-01
 -0.464660888557E-01
 -0.362485684902E-02
 -0.363860826887E-02
  0.494835358915E-01
  0.494663720437E-01
  0.116049206282E+00
  0.116028310052E+00
  0.201484382688E+00
  0.201459395437E+00
  0.314734848641E+00
  0.314705454686E+00
  0.471105610394E+00
  0.471071944026E+00
  0.692638101832E+00
  0.692603016002E+00
  0.952913671457E+00
  0.952894543321E+00
  0.847151682662E+00
  0.847192123666E+00
 -0.124131811134E+00
 -0.124242578243E+00
 -0.931768973394E+00
 -0.931893556121E+00
 -0.110955975705E+01
 -0.110966918446E+01
 -0.106155643631E+01
 -0.106164723209E+01
 -0.978712995635E+00
 -0.978788905449E+00
 -0.898214777845E+00
 -0.898279470544E+00
 -0.825633421718E+00
 -0.825689444118E+00
 -0.760499096014E+00
 -0.760548172857E+00
 -0.701468807583E+00
 -0.701512130978E+00
 -0.646864482403E+00
 -0.646902891642E+00
 -0.595564540986E+00
 -0.595598637828E+00
 -0.546547084936E+00
 -0.546577300680E+00
 -0.499037708009E+00
 -0.499064351862E+00
 -0.452619062362E+00
 -0.452642353636E+00
 -0.406852714048E+00
 -0.406872799216E+00
 -0.361616886255E+00
 -0.361633851990E+00
 -0.316991487241E+00
 -0.317005367866E+00
 -0.272991751857E+00
 -0.273002530486E+00
 -0.229671436234E+00
 -0.229679041395E+00
 -0.187172959879E+00
 -0.187178374851E+00
 -0.145615428921E+00
 -0.145614656071E+00
 -0.104999750088E+00
 -0.105003119522E+00
 -0.652095387631E-01
 -0.652177069820E-01
 -0.261955655090E-01
 -0.262095020822E-01
  0.122350828142E-01
  0.122138894058E-01
  0.504515414105E-01
  0.504208057426E-01
  0.886759680479E-01
  0.886321768198E-01
  0.127225116724E+00
  0.127162902019E+00
  0.166571931167E+00
  0.166483185760E+00
  0.207187784601E+00
  0.207060428001E+00
  0.249578057281E+00
  0.249394519525E+00
  0.294410859337E+00
  0.294146017050E+00
  0.342630880044E+00
  0.342248802632E+00
  0.395553335978E+00
  0.395003467521E+00
  0.455115609304E+00
  0.454326600962E+00
  0.524422895994E+00
  0.523293308417E+00
  0.608853837534E+00
  0.607239870258E+00
  0.718359187311E+00
  0.716078834017E+00
  0.868276287421E+00
  0.865371048080E+00
  0.997054617782E+00
  0.997961022092E+00
 -0.195787433545E+01
 -0.194804431271E+01
 -0.982878003484E+00
 -0.979753862174E+00
 -0.648316149175E+00
 -0.646962734998E+00
 -0.492289157205E+00
 -0.491620918945E+00
 -0.402251110160E+00
 -0.401913136480E+00
 -0.343669507545E+00
 -0.343509403671E+00
 -0.302699216110E+00
 -0.302639802436E+00
 -0.272712770969E+00
 -0.272710916382E+00
 -0.250122693893E+00
 -0.250152939647E+00
 -0.232838127066E+00
 -0.232882077517E+00
 -0.219545510202E+00
 -0.219599723017E+00
 -0.209305189427E+00
 -0.209361223430E+00
 -0.201435845181E+00
 -0.201490420728E+00
 -0.195515629363E+00
 -0.195566957784E+00
 -0.191304450640E+00
 -0.191351665517E+00
 -0.188477933860E+00
 -0.188520713702E+00
 -0.186687044950E+00
 -0.186725380010E+00
 -0.185806197444E+00
 -0.185840260719E+00
 -0.185528691173E+00
 -0.185558760863E+00
 -0.185417416996E+00
 -0.185443754738E+00
 -0.185149910058E+00
 -0.185127350297E+00
 -0.184196664348E+00
 -0.184178114076E+00
 -0.182001985813E+00
 -0.181987400481E+00
 -0.177952789075E+00
 -0.177942007944E+00
 -0.171494975609E+00
 -0.171487914593E+00
 -0.162057790896E+00
 -0.162054448320E+00
 -0.148945648160E+00
 -0.148946082181E+00
 -0.131524042409E+00
 -0.131528359521E+00
 -0.109224590476E+00
 -0.109232942929E+00
 -0.811977049577E-01
 -0.812126108484E-01
 -0.464660904146E-01
 -0.464830460977E-01
 -0.363860974941E-02
 -0.366038378297E-02
  0.494663706546E-01
  0.494393625089E-01
  0.116028308764E+00
  0.115995567616E+00
  0.201459394257E+00
  0.201420372320E+00
  0.314705453619E+00
  0.314659712781E+00
  0.471071943073E+00
  0.471019865066E+00
  0.692603015167E+00
  0.692549338280E+00
  0.952894542611E+00
  0.952865424279E+00
  0.847192123113E+00
  0.847257824217E+00
 -0.123953632699E+00
 -0.124131811248E+00
 -0.931569735573E+00
 -0.931768973438E+00
 -0.110938817671E+01
 -0.110955975705E+01
 -0.106141522483E+01
 -0.106155643630E+01
 -0.978595093229E+00
 -0.978712995618E+00
 -0.898114238870E+00
 -0.898214777845E+00
 -0.825546231397E+00
 -0.825633421753E+00
 -0.760422551479E+00
 -0.760499096104E+00
 -0.701401039202E+00
 -0.701468807750E+00
 -0.646804188481E+00
 -0.646864482669E+00
 -0.595510823743E+00
 -0.595564541374E+00
 -0.546499326728E+00
 -0.546547085467E+00
 -0.498995446041E+00
 -0.499037708701E+00
 -0.452581921289E+00
 -0.452619063229E+00
 -0.406820406920E+00
 -0.406852715097E+00
 -0.361589210964E+00
 -0.361616887487E+00
 -0.316968312131E+00
 -0.316991488644E+00
 -0.272973000177E+00
 -0.272991753413E+00
 -0.229657070834E+00
 -0.229671437915E+00
 -0.187164128195E+00
 -0.187172961630E+00
 -0.145614657747E+00
 -0.145609294452E+00
 -0.105003121338E+00
 -0.105002320913E+00
 -0.652177089092E-01
 -0.652215043021E-01
 -0.262095040926E-01
 -0.262178689016E-01
  0.122138873382E-01
  0.122010945683E-01
  0.504208036436E-01
  0.504039457116E-01
  0.886321747240E-01
  0.886119787124E-01
  0.127162899997E+00
  0.127140663209E+00
  0.166483183979E+00
  0.166461070241E+00
  0.207060426845E+00
  0.207041888415E+00
  0.249394519811E+00
  0.249384709252E+00
  0.294146020419E+00
  0.294152211554E+00
  0.342248812233E+00
  0.342282011483E+00
  0.395003489194E+00
  0.395079827806E+00
  0.454326645390E+00
  0.454469440457E+00
  0.523293395320E+00
  0.523536840440E+00
  0.607240037647E+00
  0.607634922871E+00
  0.716079162842E+00
  0.716696693872E+00
  0.865371748402E+00
  0.866235140038E+00
  0.997962869020E+00
  0.997685702141E+00
 -0.198023495445E+01
 -0.195787448089E+01
 -0.990787179386E+00
 -0.982878081268E+00
 -0.652100985031E+00
 -0.648316187564E+00
 -0.494370452715E+00
 -0.492289175372E+00
 -0.403462062494E+00
 -0.402251118201E+00
 -0.344383293492E+00
 -0.343669510690E+00
 -0.303112108929E+00
 -0.302699217038E+00
 -0.272938706997E+00
 -0.272712771012E+00
 -0.250231865690E+00
 -0.250122693675E+00
 -0.232875215026E+00
 -0.232838126864E+00
 -0.219539357529E+00
 -0.219545510124E+00
 -0.209274389146E+00
 -0.209305189534E+00
 -0.201392217548E+00
 -0.201435845502E+00
 -0.195466545693E+00
 -0.195515629926E+00
 -0.191254386975E+00
 -0.191304451466E+00
 -0.188429526065E+00
 -0.188477934968E+00
 -0.186641789607E+00
 -0.186687046349E+00
 -0.185764897949E+00
 -0.185806199130E+00
 -0.185491749238E+00
 -0.185528693129E+00
 -0.185385021720E+00
 -0.185417419192E+00
 -0.185127351803E+00
 -0.185099596526E+00
 -0.184178115842E+00
 -0.184155046474E+00
 -0.181987402492E+00
 -0.181969060535E+00
 -0.177942010170E+00
 -0.177928464248E+00
 -0.171487916995E+00
 -0.171479263662E+00
 -0.162054450850E+00
 -0.162050817976E+00
 -0.148946084788E+00
 -0.148947639238E+00
 -0.131528362155E+00
 -0.131535318658E+00
 -0.109232945545E+00
 -0.109245575797E+00
 -0.812126134284E-01
 -0.812289150198E-01
 -0.464830486121E-01
 -0.465081385833E-01
 -0.366038617014E-02
 -0.369225465991E-02
  0.494393602692E-01
  0.494001655848E-01
  0.115995565538E+00
  0.115948339290E+00
  0.201420370414E+00
  0.201364337298E+00
  0.314659711051E+00
  0.314594289097E+00
  0.471019863517E+00
  0.470945738890E+00
  0.692549336912E+00
  0.692473505087E+00
  0.952865423104E+00
  0.952824471976E+00
  0.847257823280E+00
  0.847351264606E+00
 -0.123695649806E+00
 -0.123953632817E+00
 -0.931282236380E+00
 -0.931569735597E+00
 -0.110914326393E+01
 -0.110938817668E+01
 -0.106121461215E+01
 -0.106141522479E+01
 -0.978427800264E+00
 -0.978595093197E+00
 -0.897971660632E+00
 -0.898114238872E+00
 -0.825422664924E+00
 -0.825546231463E+00
 -0.760314191796E+00
 -0.760422551641E+00
 -0.701305248806E+00
 -0.701401039492E+00
 -0.646716525559E+00
 -0.646804188943E+00
 -0.595434871924E+00
 -0.595510824404E+00
 -0.546431649360E+00
 -0.546499327621E+00
 -0.498935276067E+00
 -0.498995447193E+00
 -0.452528720841E+00
 -0.452581922723E+00
 -0.406773798113E+00
 -0.406820408646E+00
 -0.361548913167E+00
 -0.361589212983E+00
 -0.316934108734E+00
 -0.316968314427E+00
 -0.272944719198E+00
 -0.272973002723E+00
 -0.229634562037E+00
 -0.229657073587E+00
 -0.187147252194E+00
 -0.187164131106E+00
 -0.145609297110E+00
 -0.145597905814E+00
 -0.105002323835E+00
 -0.104996186247E+00
 -0.652215074460E-01
 -0.652202009161E-01
 -0.262178722248E-01
 -0.262207439271E-01
  0.122010911048E-01
  0.121951178796E-01
  0.504039421344E-01
  0.503966505168E-01
  0.886119750244E-01
  0.886062435837E-01
  0.127140659376E+00
  0.127141015095E+00
  0.166461066173E+00
  0.166474441909E+00
  0.207041883935E+00
  0.207078607662E+00
  0.249384704049E+00
  0.249459747158E+00
  0.294152205092E+00
  0.294286816300E+00
  0.342282002847E+00
  0.342505866442E+00
  0.395079815432E+00
  0.395434000444E+00
  0.454469421665E+00
  0.455010794225E+00
  0.523536810628E+00
  0.524344678545E+00
  0.607634874064E+00
  0.608819357420E+00
  0.716696612060E+00
  0.718392591251E+00
  0.866235000572E+00
  0.868397638595E+00
  0.997685471191E+00
  0.996988592297E+00
 -0.194395024410E+01
 -0.198023488700E+01
 -0.978170986297E+00
 -0.990787215775E+00
 -0.646115713487E+00
 -0.652101018051E+00
 -0.491064184762E+00
 -0.494370474422E+00
 -0.401495513342E+00
 -0.403462075649E+00
 -0.343166505524E+00
 -0.344383301027E+00
 -0.302340231761E+00
 -0.303112112924E+00
 -0.272438343717E+00
 -0.272938708842E+00
 -0.249898797504E+00
 -0.250231866322E+00
 -0.232645087541E+00
 -0.232875215080E+00
 -0.219372412341E+00
 -0.219539357435E+00
 -0.209146563305E+00
 -0.209274389188E+00
 -0.201288896287E+00
 -0.201392217901E+00
 -0.195379178797E+00
 -0.195466546461E+00
 -0.191178218074E+00
 -0.191254388213E+00
 -0.188362004131E+00
 -0.188429527793E+00
 -0.186581584978E+00
 -0.186641791822E+00
 -0.185711312904E+00
 -0.185764900628E+00
 -0.185444402153E+00
 -0.185491752341E+00
 -0.185345408686E+00
 -0.185385025149E+00
 -0.185099598810E+00
 -0.185064142331E+00
 -0.184155049174E+00
 -0.184125724045E+00
 -0.181969063621E+00
 -0.181945942389E+00
 -0.177928467669E+00
 -0.177911649484E+00
 -0.171479267354E+00
 -0.171468889305E+00
 -0.162050821866E+00
 -0.162047059202E+00
 -0.148947643249E+00
 -0.148950711517E+00
 -0.131535322716E+00
 -0.131545484168E+00
 -0.109245579834E+00
 -0.109263164010E+00
 -0.812289189421E-01
 -0.812543583971E-01
 -0.465081423742E-01
 -0.465420161220E-01
 -0.369225827628E-02
 -0.373529635395E-02
  0.494001621776E-01
  0.493471096226E-01
  0.115948336117E+00
  0.115884301168E+00
  0.201364334378E+00
  0.201288306971E+00
  0.314594286441E+00
  0.314505556819E+00
  0.470945736503E+00
  0.470845387492E+00
  0.692473502968E+00
  0.692371245563E+00
  0.952824470143E+00
  0.952769367861E+00
  0.847351263131E+00
  0.847477898397E+00
 -0.123341958505E+00
 -0.123695649893E+00
 -0.930888682684E+00
 -0.931282236346E+00
 -0.110881008561E+01
 -0.110914326384E+01
 -0.106094235832E+01
 -0.106121461206E+01
 -0.978200777345E+00
 -0.978427800203E+00
 -0.897778043950E+00
 -0.897971660640E+00
 -0.825254680403E+00
 -0.825422665047E+00
 -0.760166654674E+00
 -0.760314192084E+00
 -0.701174587714E+00
 -0.701305249312E+00
 -0.646602779429E+00
 -0.646716526328E+00
 -0.595331214586E+00
 -0.595434873011E+00
 -0.546339099425E+00
 -0.546431650824E+00
 -0.498852821557E+00
 -0.498935277953E+00
 -0.452455605517E+00
 -0.452528723184E+00
 -0.406709456405E+00
 -0.406773800933E+00
 -0.361492907837E+00
 -0.361548916462E+00
 -0.316886083869E+00
 -0.316934112485E+00
 -0.272904361713E+00
 -0.272944723364E+00
 -0.229601552537E+00
 -0.229634566560E+00
 -0.187121275590E+00
 -0.187147257004E+00
 -0.145597909953E+00
 -0.145578915720E+00
 -0.104996190830E+00
 -0.104984564574E+00
 -0.652202058410E-01
 -0.652161431006E-01
 -0.262207490535E-01
 -0.262243170648E-01
  0.121951127264E-01
  0.121835192576E-01
  0.503966455545E-01
  0.503759667515E-01
  0.886062390913E-01
  0.885742521954E-01
  0.127141011443E+00
  0.127093519680E+00
  0.166474439604E+00
  0.166404074514E+00
  0.207078607410E+00
  0.206970985718E+00
  0.249459749978E+00
  0.249300179192E+00
  0.294286823509E+00
  0.294043942258E+00
  0.342505879876E+00
  0.342137006661E+00
  0.395434022513E+00
  0.394877758189E+00