# vtk DataFile Version 3.0
MachLine results file. Generated by MachLine, USU AeroLab (c) 2022.
ASCII
DATASET POLYDATA
POINTS                  36 float
  0.100000000000E+01  0.503720627990E+00  0.000000000000E+00
  0.100000000000E+01  0.000000000000E+00  0.000000000000E+00
  0.295000000000E+02  0.503720627990E+00  0.000000000000E+00
  0.295000000000E+02  0.000000000000E+00  0.000000000000E+00
  0.100000000000E+01  0.110747748820E+01  0.000000000000E+00
  0.100000000000E+01  0.503720627990E+00  0.000000000000E+00
  0.295000000000E+02  0.110747748820E+01  0.000000000000E+00
  0.295000000000E+02  0.503720627990E+00  0.000000000000E+00
  0.100000000000E+01  0.175813428970E+01  0.000000000000E+00
  0.100000000000E+01  0.110747748820E+01  0.000000000000E+00
  0.295000000000E+02  0.175813428970E+01  0.000000000000E+00
  0.295000000000E+02  0.110747748820E+01  0.000000000000E+00
  0.100000000000E+01  0.238369488720E+01  0.000000000000E+00
  0.100000000000E+01  0.175813428970E+01  0.000000000000E+00
  0.295000000000E+02  0.238369488720E+01  0.000000000000E+00
  0.295000000000E+02  0.175813428970E+01  0.000000000000E+00
  0.100000000000E+01  0.292249171970E+01  0.000000000000E+00
  0.100000000000E+01  0.238369488720E+01  0.000000000000E+00
  0.295000000000E+02  0.292249171970E+01  0.000000000000E+00
  0.295000000000E+02  0.238369488720E+01  0.000000000000E+00
  0.100000000000E+01  0.334432208550E+01  0.000000000000E+00
  0.100000000000E+01  0.292249171970E+01  0.000000000000E+00
  0.295000000000E+02  0.334432208550E+01  0.000000000000E+00
  0.295000000000E+02  0.292249171970E+01  0.000000000000E+00
  0.100000000000E+01  0.365057098370E+01  0.000000000000E+00
  0.100000000000E+01  0.334432208550E+01  0.000000000000E+00
  0.295000000000E+02  0.365057098370E+01  0.000000000000E+00
  0.295000000000E+02  0.334432208550E+01  0.000000000000E+00
  0.100000000000E+01  0.386093553560E+01  0.000000000000E+00
  0.100000000000E+01  0.365057098370E+01  0.000000000000E+00
  0.295000000000E+02  0.386093553560E+01  0.000000000000E+00
  0.295000000000E+02  0.365057098370E+01  0.000000000000E+00
  0.100000000000E+01  0.400000000000E+01  0.000000000000E+00
  0.100000000000E+01  0.386093553560E+01  0.000000000000E+00
  0.295000000000E+02  0.400000000000E+01  0.000000000000E+00
  0.295000000000E+02  0.386093553560E+01  0.000000000000E+00
POLYGONS                  18                  72
3                   0                   3                   1
3                   0                   2                   3
3                   4                   7                   5
3                   4                   6                   7
3                   8                  11                   9
3                   8                  10                  11
3                  12                  15                  13
3                  12                  14                  15
3                  16                  19                  17
3                  16                  18                  19
3                  20                  23                  21
3                  20                  22                  23
3                  24                  27                  25
3                  24                  26                  27
3                  28                  31                  29
3                  28                  30                  31
3                  32                  35                  33
3                  32                  34                  35
POINT_DATA                  36
SCALARS mu float 1
LOOKUP_TABLE default
  0.116545662010E-12
 -0.574647968099E-12
  0.116545662010E-12
 -0.574647968099E-12
 -0.287825319134E-13
  0.116545662010E-12
 -0.287825319134E-13
  0.116545662010E-12
 -0.111452513885E-12
 -0.287825319134E-13
 -0.111452513885E-12
 -0.287825319134E-13
 -0.132869409919E-12
 -0.111452513885E-12
 -0.132869409919E-12
 -0.111452513885E-12
  0.487734852506E-13
 -0.132869409919E-12
  0.487734852506E-13
 -0.132869409919E-12
 -0.518099452229E-12
  0.487734852506E-13
 -0.518099452229E-12
  0.487734852506E-13
 -0.701834423911E-13
 -0.518099452229E-12
 -0.701834423911E-13
 -0.518099452229E-12
  0.132113070483E-12
 -0.701834423911E-13
  0.132113070483E-12
 -0.701834423911E-13
  0.000000000000E+00
  0.132113070483E-12
  0.000000000000E+00
  0.132113070483E-12
