# vtk DataFile Version 3.0
MachLine results file. Generated by MachLine, USU AeroLab (c) 2022.
ASCII
DATASET POLYDATA
POINTS                 308 float
  0.100000000000E+01  0.000000000000E+00  0.000000000000E+00
  0.965617092460E+00  0.503720627990E+00 -0.394962905220E-02
  0.100000000000E+01  0.503720627990E+00  0.000000000000E+00
  0.965617092460E+00  0.000000000000E+00 -0.394962905220E-02
  0.905490052860E+00  0.503720627990E+00 -0.105277887700E-01
  0.905490052860E+00  0.000000000000E+00 -0.105277887700E-01
  0.807861744690E+00  0.503720627990E+00 -0.203686189510E-01
  0.807861744690E+00  0.000000000000E+00 -0.203686189510E-01
  0.666965306180E+00  0.503720627990E+00 -0.327306847400E-01
  0.666965306180E+00  0.000000000000E+00 -0.327306847400E-01
  0.494699909170E+00  0.503720627990E+00 -0.442892746710E-01
  0.494699909170E+00  0.000000000000E+00 -0.442892746710E-01
  0.322148057390E+00  0.000000000000E+00 -0.499220386450E-01
  0.322148057390E+00  0.503720627990E+00 -0.499220386450E-01
  0.180771082860E+00  0.000000000000E+00 -0.467582932350E-01
  0.180771082860E+00  0.503720627990E+00 -0.467582932350E-01
  0.832331623890E-01  0.000000000000E+00 -0.364528323560E-01
  0.832331623890E-01  0.503720627990E+00 -0.364528323560E-01
  0.246816596840E-01  0.000000000000E+00 -0.217022398280E-01
  0.246816596840E-01  0.503720627990E+00 -0.217022398280E-01
  0.000000000000E+00  0.000000000000E+00  0.000000000000E+00
  0.000000000000E+00  0.503720627990E+00  0.000000000000E+00
  0.246816596840E-01  0.503720627990E+00  0.217022398280E-01
  0.246816596840E-01  0.000000000000E+00  0.217022398280E-01
  0.832331623890E-01  0.503720627990E+00  0.364528323560E-01
  0.832331623890E-01  0.000000000000E+00  0.364528323560E-01
  0.180771082860E+00  0.503720627990E+00  0.467582932350E-01
  0.180771082860E+00  0.000000000000E+00  0.467582932350E-01
  0.322148057390E+00  0.503720627990E+00  0.499220386450E-01
  0.322148057390E+00  0.000000000000E+00  0.499220386450E-01
  0.494699909170E+00  0.503720627990E+00  0.442892746710E-01
  0.494699909170E+00  0.000000000000E+00  0.442892746710E-01
  0.666965306180E+00  0.000000000000E+00  0.327306847400E-01
  0.666965306180E+00  0.503720627990E+00  0.327306847400E-01
  0.807861744690E+00  0.000000000000E+00  0.203686189510E-01
  0.807861744690E+00  0.503720627990E+00  0.203686189510E-01
  0.905490052860E+00  0.000000000000E+00  0.105277887700E-01
  0.905490052860E+00  0.503720627990E+00  0.105277887700E-01
  0.965617092460E+00  0.000000000000E+00  0.394962905220E-02
  0.965617092460E+00  0.503720627990E+00  0.394962905220E-02
  0.965617092460E+00  0.110747748820E+01 -0.394962905220E-02
  0.100000000000E+01  0.110747748820E+01  0.000000000000E+00
  0.905490052860E+00  0.110747748820E+01 -0.105277887700E-01
  0.807861744690E+00  0.110747748820E+01 -0.203686189510E-01
  0.666965306180E+00  0.110747748820E+01 -0.327306847400E-01
  0.494699909170E+00  0.110747748820E+01 -0.442892746710E-01
  0.322148057390E+00  0.110747748820E+01 -0.499220386450E-01
  0.180771082860E+00  0.110747748820E+01 -0.467582932350E-01
  0.832331623890E-01  0.110747748820E+01 -0.364528323560E-01
  0.246816596840E-01  0.110747748820E+01 -0.217022398280E-01
  0.000000000000E+00  0.110747748820E+01  0.000000000000E+00
  0.246816596840E-01  0.110747748820E+01  0.217022398280E-01
  0.832331623890E-01  0.110747748820E+01  0.364528323560E-01
  0.180771082860E+00  0.110747748820E+01  0.467582932350E-01
  0.322148057390E+00  0.110747748820E+01  0.499220386450E-01
  0.494699909170E+00  0.110747748820E+01  0.442892746710E-01
  0.666965306180E+00  0.110747748820E+01  0.327306847400E-01
  0.807861744690E+00  0.110747748820E+01  0.203686189510E-01
  0.905490052860E+00  0.110747748820E+01  0.105277887700E-01
  0.965617092460E+00  0.110747748820E+01  0.394962905220E-02
  0.965617092460E+00  0.175813428970E+01 -0.394962905220E-02
  0.100000000000E+01  0.175813428970E+01  0.000000000000E+00
  0.905490052860E+00  0.175813428970E+01 -0.105277887700E-01
  0.807861744690E+00  0.175813428970E+01 -0.203686189510E-01
  0.666965306180E+00  0.175813428970E+01 -0.327306847400E-01
  0.494699909170E+00  0.175813428970E+01 -0.442892746710E-01
  0.322148057390E+00  0.175813428970E+01 -0.499220386450E-01
  0.180771082860E+00  0.175813428970E+01 -0.467582932350E-01
  0.832331623890E-01  0.175813428970E+01 -0.364528323560E-01
  0.246816596840E-01  0.175813428970E+01 -0.217022398280E-01
  0.000000000000E+00  0.175813428970E+01  0.000000000000E+00
  0.246816596840E-01  0.175813428970E+01  0.217022398280E-01
  0.832331623890E-01  0.175813428970E+01  0.364528323560E-01
  0.180771082860E+00  0.175813428970E+01  0.467582932350E-01
  0.322148057390E+00  0.175813428970E+01  0.499220386450E-01
  0.494699909170E+00  0.175813428970E+01  0.442892746710E-01
  0.666965306180E+00  0.175813428970E+01  0.327306847400E-01
  0.807861744690E+00  0.175813428970E+01  0.203686189510E-01
  0.905490052860E+00  0.175813428970E+01  0.105277887700E-01
  0.965617092460E+00  0.175813428970E+01  0.394962905220E-02
  0.965617092460E+00  0.238369488720E+01 -0.394962905220E-02
  0.100000000000E+01  0.238369488720E+01  0.000000000000E+00
  0.905490052860E+00  0.238369488720E+01 -0.105277887700E-01
  0.807861744690E+00  0.238369488720E+01 -0.203686189510E-01
  0.666965306180E+00  0.238369488720E+01 -0.327306847400E-01
  0.494699909170E+00  0.238369488720E+01 -0.442892746710E-01
  0.322148057390E+00  0.238369488720E+01 -0.499220386450E-01
  0.180771082860E+00  0.238369488720E+01 -0.467582932350E-01
  0.832331623890E-01  0.238369488720E+01 -0.364528323560E-01
  0.246816596840E-01  0.238369488720E+01 -0.217022398280E-01
  0.000000000000E+00  0.238369488720E+01  0.000000000000E+00
  0.246816596840E-01  0.238369488720E+01  0.217022398280E-01
  0.832331623890E-01  0.238369488720E+01  0.364528323560E-01
  0.180771082860E+00  0.238369488720E+01  0.467582932350E-01
  0.322148057390E+00  0.238369488720E+01  0.499220386450E-01
  0.494699909170E+00  0.238369488720E+01  0.442892746710E-01
  0.666965306180E+00  0.238369488720E+01  0.327306847400E-01
  0.807861744690E+00  0.238369488720E+01  0.203686189510E-01
  0.905490052860E+00  0.238369488720E+01  0.105277887700E-01
  0.965617092460E+00  0.238369488720E+01  0.394962905220E-02
  0.965617092460E+00  0.292249171970E+01 -0.394962905220E-02
  0.100000000000E+01  0.292249171970E+01  0.000000000000E+00
  0.905490052860E+00  0.292249171970E+01 -0.105277887700E-01
  0.807861744690E+00  0.292249171970E+01 -0.203686189510E-01
  0.666965306180E+00  0.292249171970E+01 -0.327306847400E-01
  0.494699909170E+00  0.292249171970E+01 -0.442892746710E-01
  0.322148057390E+00  0.292249171970E+01 -0.499220386450E-01
  0.180771082860E+00  0.292249171970E+01 -0.467582932350E-01
  0.832331623890E-01  0.292249171970E+01 -0.364528323560E-01
  0.246816596840E-01  0.292249171970E+01 -0.217022398280E-01
  0.000000000000E+00  0.292249171970E+01  0.000000000000E+00
  0.246816596840E-01  0.292249171970E+01  0.217022398280E-01
  0.832331623890E-01  0.292249171970E+01  0.364528323560E-01
  0.180771082860E+00  0.292249171970E+01  0.467582932350E-01
  0.322148057390E+00  0.292249171970E+01  0.499220386450E-01
  0.494699909170E+00  0.292249171970E+01  0.442892746710E-01
  0.666965306180E+00  0.292249171970E+01  0.327306847400E-01
  0.807861744690E+00  0.292249171970E+01  0.203686189510E-01
  0.905490052860E+00  0.292249171970E+01  0.105277887700E-01
  0.965617092460E+00  0.292249171970E+01  0.394962905220E-02
  0.965617092460E+00  0.334432208550E+01 -0.394962905220E-02
  0.100000000000E+01  0.334432208550E+01  0.000000000000E+00
  0.905490052860E+00  0.334432208550E+01 -0.105277887700E-01
  0.807861744690E+00  0.334432208550E+01 -0.203686189510E-01
  0.666965306180E+00  0.334432208550E+01 -0.327306847400E-01
  0.494699909170E+00  0.334432208550E+01 -0.442892746710E-01
  0.322148057390E+00  0.334432208550E+01 -0.499220386450E-01
  0.180771082860E+00  0.334432208550E+01 -0.467582932350E-01
  0.832331623890E-01  0.334432208550E+01 -0.364528323560E-01
  0.246816596840E-01  0.334432208550E+01 -0.217022398280E-01
  0.000000000000E+00  0.334432208550E+01  0.000000000000E+00
  0.246816596840E-01  0.334432208550E+01  0.217022398280E-01
  0.832331623890E-01  0.334432208550E+01  0.364528323560E-01
  0.180771082860E+00  0.334432208550E+01  0.467582932350E-01
  0.322148057390E+00  0.334432208550E+01  0.499220386450E-01
  0.494699909170E+00  0.334432208550E+01  0.442892746710E-01
  0.666965306180E+00  0.334432208550E+01  0.327306847400E-01
  0.807861744690E+00  0.334432208550E+01  0.203686189510E-01
  0.905490052860E+00  0.334432208550E+01  0.105277887700E-01
  0.965617092460E+00  0.334432208550E+01  0.394962905220E-02
  0.965617092460E+00  0.365057098370E+01 -0.394962905220E-02
  0.100000000000E+01  0.365057098370E+01  0.000000000000E+00
  0.905490052860E+00  0.365057098370E+01 -0.105277887700E-01
  0.807861744690E+00  0.365057098370E+01 -0.203686189510E-01
  0.666965306180E+00  0.365057098370E+01 -0.327306847400E-01
  0.494699909170E+00  0.365057098370E+01 -0.442892746710E-01
  0.322148057390E+00  0.365057098370E+01 -0.499220386450E-01
  0.180771082860E+00  0.365057098370E+01 -0.467582932350E-01
  0.832331623890E-01  0.365057098370E+01 -0.364528323560E-01
  0.246816596840E-01  0.365057098370E+01 -0.217022398280E-01
  0.000000000000E+00  0.365057098370E+01  0.000000000000E+00
  0.246816596840E-01  0.365057098370E+01  0.217022398280E-01
  0.832331623890E-01  0.365057098370E+01  0.364528323560E-01
  0.180771082860E+00  0.365057098370E+01  0.467582932350E-01
  0.322148057390E+00  0.365057098370E+01  0.499220386450E-01
  0.494699909170E+00  0.365057098370E+01  0.442892746710E-01
  0.666965306180E+00  0.365057098370E+01  0.327306847400E-01
  0.807861744690E+00  0.365057098370E+01  0.203686189510E-01
  0.905490052860E+00  0.365057098370E+01  0.105277887700E-01
  0.965617092460E+00  0.365057098370E+01  0.394962905220E-02
  0.965617092460E+00  0.386093553560E+01 -0.394962905220E-02
[...]
CELL_DATA                 576
SCALARS C_p_inc float 1
LOOKUP_TABLE default
 -0.586670574174E+00
 -0.267653127922E+00
 -0.194798777855E+00
 -0.195918171383E+00
 -0.589341459498E-01
 -0.593021762435E-01
 -0.534461345638E-01
 -0.519128880805E-01
 -0.621284488726E-01
 -0.534900739888E-01
 -0.486126461821E-01
 -0.641776689637E-01
 -0.200400873471E-01
 -0.345759578162E-01
  0.780710100499E-01
  0.578359357807E-01
  0.345000599076E+00
  0.323166183850E+00
  0.977943449657E+00
  0.975056285551E+00
 -0.132328486736E+01
 -0.140478843848E+01
 -0.142379087963E+01
 -0.139466205780E+01
 -0.958967048335E+00
 -0.932626183731E+00
 -0.664770629553E+00
 -0.648861806353E+00
 -0.457018727341E+00
 -0.440899048558E+00
 -0.289884067093E+00
 -0.297667831592E+00
 -0.178263606744E+00
 -0.178298753944E+00
 -0.988016852125E-01
 -0.969796494373E-01
 -0.146055386593E+00
 -0.143553519973E+00
 -0.795301212756E-01
 -0.281118010456E+00
 -0.589698713383E+00
 -0.266329999648E+00
 -0.197964391119E+00
 -0.194811216020E+00
 -0.623421147453E-01
 -0.589493849880E-01
 -0.576371127681E-01
 -0.534722477645E-01
 -0.677343393888E-01
 -0.621944368784E-01
 -0.640867660151E-01
 -0.710712430491E-01
 -0.343858105466E-01
 -0.419849541000E-01
  0.584722914869E-01
  0.497826044726E-01
  0.331717778759E+00
  0.311005125890E+00
  0.987312251292E+00
  0.973133545335E+00
 -0.128990604269E+01
 -0.128081071297E+01
 -0.141034407889E+01
 -0.141385264397E+01
 -0.951667601754E+00
 -0.958285269354E+00
 -0.661582904292E+00
 -0.664575610568E+00
 -0.456070814276E+00
 -0.456929164755E+00
 -0.297744349926E+00
 -0.296785287171E+00
 -0.178334264063E+00
 -0.176557588171E+00
 -0.970031958454E-01
 -0.949700639359E-01
 -0.143573626517E+00
 -0.141463403507E+00
 -0.769683399093E-01
 -0.279266094255E+00
 -0.594203801707E+00
 -0.269380749485E+00
 -0.203185824878E+00
 -0.197998034002E+00
 -0.678250365003E-01
 -0.623760675469E-01
 -0.636692561380E-01
 -0.576786580697E-01
 -0.743622654210E-01
 -0.678121279158E-01
 -0.709389177020E-01
 -0.789420833842E-01
 -0.416857220481E-01
 -0.520212073630E-01
  0.507976562245E-01
  0.366124335311E-01
  0.324408412698E+00
  0.293375349599E+00
  0.985358397709E+00
  0.968094100910E+00
 -0.123005530421E+01
 -0.124746147687E+01
 -0.137614697332E+01
 -0.139460929149E+01
 -0.931459473460E+00
 -0.950579550229E+00
 -0.647681874810E+00
 -0.661274698392E+00
 -0.445876652956E+00
 -0.455941172223E+00
 -0.296867949130E+00
 -0.288870373440E+00
 -0.176609241915E+00
 -0.169984101657E+00
 -0.950171921263E-01
 -0.893944781537E-01
 -0.141511814915E+00
 -0.136507106107E+00
 -0.751472975503E-01
 -0.275388276551E+00
 -0.601203805850E+00
 -0.273944003317E+00
 -0.211597529574E+00
 -0.203273032425E+00
 -0.766785056465E-01
 -0.679048725416E-01
 -0.733709994269E-01
 -0.637459426653E-01
 -0.850630559602E-01
 -0.744631810319E-01
 -0.788439286382E-01
 -0.916889886339E-01
 -0.517454504301E-01
 -0.682645048944E-01
  0.376130186494E-01
  0.152964465818E-01
  0.306770486102E+00
  0.264718817813E+00
  0.980314821810E+00
  0.958325104124E+00
 -0.113320666562E+01
 -0.118761503077E+01
 -0.131956618510E+01
 -0.136042301756E+01
 -0.897445137468E+00
 -0.930392892806E+00
 -0.623705843434E+00
 -0.647410047425E+00
 -0.427768084866E+00
 -0.445800644643E+00
 -0.288984293600E+00
 -0.274451565998E+00
 -0.170085411030E+00
 -0.157867389636E+00
 -0.895084195135E-01
 -0.790989035415E-01
 -0.136634428557E+00
 -0.127372179567E+00
 -0.713554345935E-01
 -0.268310670714E+00
 -0.612502800312E+00
 -0.281093407165E+00
 -0.224741531732E+00
 -0.211820062263E+00
 -0.899963096010E-01
 -0.768719157859E-01
 -0.873737807058E-01
 -0.735334970570E-01
 -0.999544330968E-01
 -0.852219744992E-01
 -0.916820808667E-01
 -0.109177619297E+00
 -0.680524587506E-01
 -0.906703865779E-01
  0.162586763694E-01
 -0.143031194755E-01
  0.278094225351E+00
  0.224430187114E+00
  0.970539113055E+00
  0.941451114029E+00
 -0.100074274485E+01
 -0.109076934397E+01
 -0.123966063562E+01
 -0.130385722254E+01
 -0.847994156781E+00
 -0.896416536445E+00
 -0.587644367554E+00
 -0.623511952044E+00
 -0.399557739843E+00
 -0.427824774591E+00
 -0.274646505775E+00
 -0.251530448318E+00
 -0.158108850107E+00
 -0.138459672082E+00
 -0.794078731984E-01
 -0.624235080254E-01
 -0.127733975383E+00
 -0.112301763974E+00
 -0.645360247621E-01
 -0.256379640926E+00
 -0.631720712453E+00
 -0.292752386858E+00
 -0.245130658472E+00
 -0.225279093337E+00
 -0.108657522094E+00
 -0.904459217554E-01
 -0.104842719707E+00
 -0.877322409745E-01
 -0.116754560023E+00
 -0.100261110516E+00
 -0.109401407200E+00
 -0.128581687108E+00
 -0.906373724380E-01
 -0.116816179365E+00
 -0.134610271891E-01
 -0.503527206258E-01
  0.237735711971E+00
  0.173898126488E+00
  0.953634243622E+00
  0.915306503406E+00
 -0.839981905576E+00
 -0.958305015582E+00
 -0.113837417704E+01
 -0.122397315599E+01
 -0.782661639266E+00
 -0.847041298421E+00
 -0.537746216752E+00
 -0.587637072388E+00
 -0.358894860669E+00
 -0.399971577517E+00
 -0.251927516191E+00
 -0.218138883492E+00
 -0.139091928384E+00
 -0.110289065759E+00
 -0.633012999676E-01
 -0.378839534892E-01
 -0.113364595596E+00
 -0.893066070626E-01
 -0.533900418935E-01
 -0.237317369562E+00
 -0.668944399960E+00
 -0.312749507293E+00
 -0.278981907894E+00
 -0.246285486887E+00
 -0.133777192103E+00
 -0.109573595621E+00
 -0.122529464724E+00
 -0.105591259491E+00
 -0.129597642868E+00
 -0.117452808401E+00
 -0.129368722865E+00
 -0.143183520905E+00
 -0.117330686912E+00
 -0.141146145380E+00
 -0.499542022299E-01
 -0.900264903772E-01
  0.186904313573E+00
  0.113842905070E+00
  0.927323496794E+00
  0.877424181440E+00
 -0.657349266345E+00
 -0.797533651943E+00
 -0.101737165635E+01
 -0.112269757252E+01
 -0.700065690342E+00
 -0.781842611075E+00
 -0.471271360912E+00
 -0.538196882774E+00
 -0.303650231260E+00
 -0.360316710458E+00
 -0.219063432011E+00
 -0.173990665042E+00
 -0.112044508486E+00
 -0.737725499677E-01
 -0.404522201309E-01
 -0.531910599667E-02
 -0.925061993430E-01
 -0.563970438458E-01
 -0.367808241217E-01
 -0.207011368441E+00
 -0.743140203974E+00
 -0.351268488230E+00
 -0.327318553183E+00
 -0.281042226248E+00
 -0.158420440535E+00
 -0.135486645546E+00
 -0.134038038368E+00
 -0.124210220117E+00
 -0.133377466543E+00
 -0.131536066584E+00
 -0.145395309310E+00
 -0.145993727983E+00
 -0.143484006892E+00
 -0.153363073235E+00
 -0.915948899314E-01
 -0.127146999143E+00
  0.125230530224E+00
  0.418153142431E-01
  0.888373706748E+00
  0.822400002918E+00
 -0.438160530254E+00
 -0.614965243746E+00
 -0.866421550955E+00
 -0.100165752162E+01
 -0.589925335901E+00
 -0.699518010069E+00
 -0.381843241984E+00
 -0.473119703930E+00
 -0.234430177423E+00
 -0.308299331416E+00
 -0.176630803784E+00
 -0.124174631570E+00
 -0.790472177244E-01
 -0.331457592586E-01
 -0.132274683083E-01
  0.358584682435E-01
 -0.667376026948E-01
 -0.680940684373E-02
 -0.151915533886E-01
 -0.151538425048E+00
 -0.347044691527E+00
 -0.421966810355E+00
 -0.196511177563E+00
 -0.331593347256E+00
 -0.151971346183E+00
 -0.164255241232E+00
 -0.136574567294E+00
 -0.140897609968E+00
 -0.134028720963E+00
 -0.141449571544E+00
 -0.153953994312E+00
 -0.140414910944E+00
 -0.163567710396E+00
 -0.140133572756E+00
 -0.140592465321E+00
 -0.112741704133E+00
  0.370104159524E-01
  0.243592284709E-01
  0.815635146849E+00
  0.756315596177E+00
  0.497691180574E-02
 -0.400806010581E+00
 -0.514251414048E+00
 -0.850802098907E+00
 -0.381566610811E+00
 -0.590835130407E+00
 -0.255510600068E+00
 -0.391237272964E+00
 -0.154380240173E+00
 -0.254786902668E+00
 -0.137770520981E+00
 -0.824883018482E-01
 -0.576131952515E-01
 -0.851331879020E-02
  0.986820459496E-03
  0.609111547048E-01
 -0.521952049258E-01
  0.116389734720E+00
 -0.154224074317E-01
  0.221764554681E+00
 -0.273132111404E+00
 -0.267092583536E+00
 -0.275631326768E+00
 -0.231684570963E+00
 -0.209082569120E+00
 -0.197378438755E+00
 -0.180978126354E+00
 -0.181431948468E+00
 -0.173063428858E+00
 -0.178567268578E+00
 -0.181644906904E+00
 -0.183043521285E+00
 -0.193532295744E+00
 -0.175205144010E+00
 -0.199203844284E+00
 -0.777250019034E-01
 -0.144216964090E+00
  0.530600860764E+00
 -0.379596455703E-01
 -0.481310558583E+00
 -0.494019665675E+00
 -0.345480499125E+00
 -0.392760872075E+00
 -0.249116667575E+00
 -0.301643010280E+00
 -0.182659532361E+00
 -0.246331843973E+00
 -0.150526112319E+00
 -0.211817141148E+00
 -0.140622219981E+00
 -0.236440792594E+00
 -0.169194196322E+00
 -0.326774048443E+00
 -0.262214492027E+00
 -0.641270857093E+00
 -0.464795622327E+00
 -0.388935843776E+00
 -0.388101472479E+00
 -0.350418486546E+00
 -0.316062676002E+00
 -0.261350251384E+00
 -0.255820615290E+00
 -0.218571573977E+00
 -0.224199692404E+00
 -0.202586660046E+00
 -0.210157093728E+00
 -0.208893290311E+00
 -0.212230367431E+00
 -0.220870905237E+00
 -0.206935427007E+00
 -0.228258956177E+00
 -0.121952584006E+00
 -0.165984389197E+00
  0.453796548288E+00
 -0.505555805957E-01
 -0.409390787364E+00
 -0.446758519096E+00
 -0.320910462673E+00
 -0.374488402802E+00
 -0.249239522809E+00
 -0.308168234060E+00
 -0.202759117271E+00
 -0.277479570402E+00
 -0.192514971454E+00
 -0.273250288683E+00
 -0.212536077107E+00
 -0.340121931529E+00
 -0.283078674790E+00
 -0.496770522565E+00
 -0.442604069664E+00
 -0.921828480439E+00
 -0.764153239619E+00
 -0.541390211155E+00
 -0.551129083587E+00
 -0.437732316199E+00
 -0.414465571225E+00
 -0.317651039348E+00
 -0.319616098149E+00
 -0.256723622281E+00
 -0.268690077947E+00
 -0.230966491515E+00
 -0.242161667000E+00
 -0.233233411943E+00
 -0.240443006115E+00
 -0.244058439444E+00
 -0.237311267045E+00
 -0.252657486080E+00
 -0.167344550854E+00
 -0.197757293661E+00
  0.371877887160E+00
 -0.507927597895E-01
 -0.370150100608E+00
 -0.415213975218E+00
 -0.310157035903E+00
 -0.363191359266E+00
 -0.256278287026E+00
 -0.315439085981E+00
 -0.223841888170E+00
 -0.302252584799E+00
 -0.227982895792E+00
 -0.318401892120E+00
 -0.267715704598E+00
 -0.413885613717E+00
 -0.367081854030E+00
 -0.615967819695E+00
 -0.573235749862E+00
 -0.110952086536E+01
 -0.972373322307E+00
 -0.714714430312E+00
 -0.739780621407E+00
 -0.529914803608E+00
 -0.519049541449E+00
 -0.373872941791E+00
 -0.384448593991E+00
 -0.293080859904E+00
 -0.312393366254E+00
 -0.256985588774E+00
 -0.273283727592E+00
 -0.254533190500E+00
 -0.267082323470E+00
 -0.264101126862E+00
 -0.266513862480E+00
 -0.274766621030E+00
 -0.212352759092E+00
 -0.231684198232E+00
  0.286626526735E+00
 -0.355809752758E-01
 -0.346803936530E+00
 -0.390484954998E+00
 -0.308597812183E+00
 -0.356141213087E+00
 -0.267233607417E+00
 -0.322752779906E+00
 -0.244616974173E+00
 -0.322440790316E+00
 -0.258543355814E+00
 -0.351906241222E+00
 -0.310743270400E+00
 -0.465556873898E+00
 -0.428960312510E+00
 -0.695672706144E+00
 -0.665144574151E+00
 -0.122119076159E+01
 -0.110602935301E+01
 -0.888115685140E+00
 -0.932613228720E+00
 -0.616173958580E+00
 -0.618924613835E+00
 -0.423624751753E+00
 -0.443876639086E+00
 -0.323503797001E+00
 -0.351152479369E+00
 -0.277917660662E+00
 -0.300870220947E+00
 -0.270406333109E+00
 -0.289371441857E+00
 -0.278847563550E+00
 -0.291928654705E+00
 -0.292200579589E+00
 -0.253465281236E+00
 -0.261852120646E+00
  0.205330954331E+00
 -0.321449410718E-02
 -0.332350769392E+00
 -0.367056300976E+00
 -0.312212530710E+00
 -0.349808305339E+00
 -0.279158414581E+00
 -0.327605623067E+00
 -0.262729080041E+00
 -0.336311405288E+00
 -0.282640811054E+00
 -0.372278040400E+00
 -0.340052564890E+00
 -0.493856936008E+00
 -0.467406354368E+00
 -0.734227806499E+00
 -0.716488169011E+00
 -0.125316252753E+01
 -0.116098005657E+01
 -0.103056048067E+01
 -0.109793147398E+01
 -0.680428819635E+00
 -0.697940858674E+00
 -0.457277113876E+00
 -0.488294041851E+00
 -0.341699187302E+00
 -0.378648053297E+00
 -0.289806124686E+00
 -0.321227438514E+00
 -0.278008977682E+00
 -0.303905589160E+00
 -0.286260880021E+00
 -0.310891279897E+00
 -0.304098892191E+00
 -0.288495933996E+00
 -0.291501519841E+00
  0.136580572096E+00
  0.495459275499E-01
 -0.326243698388E+00
 -0.340368240275E+00
 -0.317361452549E+00
 -0.339817678976E+00
 -0.288292027182E+00
 -0.326015680198E+00
 -0.274277690746E+00
 -0.340535214470E+00
 -0.297127328458E+00
 -0.375763378311E+00
 -0.351655994472E+00
 -0.494112111549E+00
 -0.477716242691E+00
 -0.725276544571E+00
 -0.720759605977E+00
 -0.119571212689E+01
 -0.112696990254E+01
SCALARS inclination float 1
LOOKUP_TABLE default
  0.100000000000E+01
  0.100000000000E+01
  0.100000000000E+01
  0.100000000000E+01
  0.100000000000E+01
  0.100000000000E+01
  0.100000000000E+01
  0.100000000000E+01
  0.100000000000E+01
  0.100000000000E+01
  0.100000000000E+01
  0.100000000000E+01
  0.100000000000E+01
  0.100000000000E+01
  0.100000000000E+01
  0.100000000000E+01
  0.100000000000E+01
  0.100000000000E+01
  0.100000000000E+01
  0.100000000000E+01
  0.100000000000E+01
  0.100000000000E+01
  0.100000000000E+01
  0.100000000000E+01
  0.100000000000E+01
  0.100000000000E+01
  0.100000000000E+01
  0.100000000000E+01
  0.100000000000E+01
  0.100000000000E+01
  0.100000000000E+01
  0.100000000000E+01
  0.100000000000E+01
  0.100000000000E+01
  0.100000000000E+01
  0.100000000000E+01
  0.100000000000E+01
  0.100000000000E+01
  0.100000000000E+01
  0.100000000000E+01
  0.100000000000E+01
  0.100000000000E+01
  0.100000000000E+01
  0.100000000000E+01
  0.100000000000E+01
  0.100000000000E+01
  0.100000000000E+01
  0.100000000000E+01
  0.100000000000E+01
  0.100000000000E+01
  0.100000000000E+01
  0.100000000000E+01
  0.100000000000E+01
  0.100000000000E+01
  0.100000000000E+01
  0.100000000000E+01
  0.100000000000E+01
  0.100000000000E+01
  0.100000000000E+01
  0.100000000000E+01
  0.100000000000E+01
  0.100000000000E+01
  0.100000000000E+01
  0.100000000000E+01
  0.100000000000E+01
  0.100000000000E+01
  0.100000000000E+01
  0.100000000000E+01
  0.100000000000E+01
  0.100000000000E+01
  0.100000000000E+01
  0.100000000000E+01
  0.100000000000E+01
  0.100000000000E+01
  0.100000000000E+01
  0.100000000000E+01
  0.100000000000E+01
  0.100000000000E+01
  0.100000000000E+01
  0.100000000000E+01
  0.100000000000E+01
  0.100000000000E+01
  0.100000000000E+01
  0.100000000000E+01
  0.100000000000E+01
  0.100000000000E+01
  0.100000000000E+01
  0.100000000000E+01
  0.100000000000E+01
  0.100000000000E+01
  0.100000000000E+01
  0.100000000000E+01
  0.100000000000E+01
  0.100000000000E+01
  0.100000000000E+01
  0.100000000000E+01
  0.100000000000E+01
  0.100000000000E+01
  0.100000000000E+01
  0.100000000000E+01
  0.100000000000E+01
  0.100000000000E+01
  0.100000000000E+01
  0.100000000000E+01
  0.100000000000E+01
  0.100000000000E+01
  0.100000000000E+01
  0.100000000000E+01
  0.100000000000E+01
  0.100000000000E+01
  0.100000000000E+01
  0.100000000000E+01
  0.100000000000E+01
  0.100000000000E+01
  0.100000000000E+01
  0.100000000000E+01
  0.100000000000E+01
  0.100000000000E+01
  0.100000000000E+01
  0.100000000000E+01
  0.100000000000E+01
  0.100000000000E+01
  0.100000000000E+01
  0.100000000000E+01
  0.100000000000E+01
  0.100000000000E+01
  0.100000000000E+01
  0.100000000000E+01
  0.100000000000E+01
  0.100000000000E+01
  0.100000000000E+01
  0.100000000000E+01
  0.100000000000E+01
  0.100000000000E+01
  0.100000000000E+01
  0.100000000000E+01
  0.100000000000E+01
  0.100000000000E+01
  0.100000000000E+01
  0.100000000000E+01
  0.100000000000E+01
  0.100000000000E+01
  0.100000000000E+01
  0.100000000000E+01
  0.100000000000E+01
  0.100000000000E+01
  0.100000000000E+01
  0.100000000000E+01
  0.100000000000E+01
  0.100000000000E+01
  0.100000000000E+01
  0.100000000000E+01
  0.100000000000E+01
  0.100000000000E+01
  0.100000000000E+01
  0.100000000000E+01
  0.100000000000E+01
  0.100000000000E+01
  0.100000000000E+01
  0.100000000000E+01
  0.100000000000E+01
  0.100000000000E+01
  0.100000000000E+01
  0.100000000000E+01
  0.100000000000E+01
  0.100000000000E+01
  0.100000000000E+01
  0.100000000000E+01
  0.100000000000E+01
  0.100000000000E+01
  0.100000000000E+01
  0.100000000000E+01
  0.100000000000E+01
  0.100000000000E+01
  0.100000000000E+01
  0.100000000000E+01
  0.100000000000E+01
  0.100000000000E+01
  0.100000000000E+01
  0.100000000000E+01
  0.100000000000E+01
  0.100000000000E+01
  0.100000000000E+01
  0.100000000000E+01
  0.100000000000E+01
  0.100000000000E+01
  0.100000000000E+01
  0.100000000000E+01
  0.100000000000E+01
  0.100000000000E+01
  0.100000000000E+01
  0.100000000000E+01
  0.100000000000E+01
  0.100000000000E+01
  0.100000000000E+01
  0.100000000000E+01
  0.100000000000E+01
  0.100000000000E+01
  0.100000000000E+01
  0.100000000000E+01
  0.100000000000E+01
  0.100000000000E+01
  0.100000000000E+01
  0.100000000000E+01
  0.100000000000E+01
  0.100000000000E+01
  0.100000000000E+01
  0.100000000000E+01
  0.100000000000E+01
  0.100000000000E+01
  0.100000000000E+01
  0.100000000000E+01
  0.100000000000E+01
  0.100000000000E+01
  0.100000000000E+01
  0.100000000000E+01
  0.100000000000E+01
  0.100000000000E+01
  0.100000000000E+01
  0.100000000000E+01
  0.100000000000E+01
  0.100000000000E+01
  0.100000000000E+01
  0.100000000000E+01
  0.100000000000E+01
  0.100000000000E+01
  0.100000000000E+01
  0.100000000000E+01
  0.100000000000E+01
  0.100000000000E+01
  0.100000000000E+01
  0.100000000000E+01
  0.100000000000E+01
  0.100000000000E+01
  0.100000000000E+01
  0.100000000000E+01
  0.100000000000E+01
  0.100000000000E+01
  0.100000000000E+01
  0.100000000000E+01
  0.100000000000E+01
  0.100000000000E+01
  0.100000000000E+01
  0.100000000000E+01
  0.100000000000E+01
  0.100000000000E+01
  0.100000000000E+01
  0.100000000000E+01
  0.100000000000E+01
  0.100000000000E+01
  0.100000000000E+01
  0.100000000000E+01
  0.100000000000E+01
  0.100000000000E+01
  0.100000000000E+01
  0.100000000000E+01
  0.100000000000E+01
  0.100000000000E+01
  0.100000000000E+01
  0.100000000000E+01
  0.100000000000E+01
  0.100000000000E+01
  0.100000000000E+01
  0.100000000000E+01
  0.100000000000E+01
  0.100000000000E+01
  0.100000000000E+01
  0.100000000000E+01
  0.100000000000E+01
  0.100000000000E+01
  0.100000000000E+01
  0.100000000000E+01
  0.100000000000E+01
  0.100000000000E+01
  0.100000000000E+01
  0.100000000000E+01
  0.100000000000E+01
  0.100000000000E+01
  0.100000000000E+01
  0.100000000000E+01
  0.100000000000E+01
  0.100000000000E+01
  0.100000000000E+01
  0.100000000000E+01
  0.100000000000E+01
  0.100000000000E+01
  0.100000000000E+01
  0.100000000000E+01
  0.100000000000E+01
  0.100000000000E+01
  0.100000000000E+01
  0.100000000000E+01
  0.100000000000E+01
  0.100000000000E+01
  0.100000000000E+01
  0.100000000000E+01
  0.100000000000E+01
  0.100000000000E+01
  0.100000000000E+01
  0.100000000000E+01
  0.100000000000E+01
  0.100000000000E+01
  0.100000000000E+01
  0.100000000000E+01
  0.100000000000E+01
  0.100000000000E+01
  0.100000000000E+01
  0.100000000000E+01
  0.100000000000E+01
  0.100000000000E+01
  0.100000000000E+01
  0.100000000000E+01
  0.100000000000E+01
  0.100000000000E+01
  0.100000000000E+01
  0.100000000000E+01
  0.100000000000E+01
  0.100000000000E+01
  0.100000000000E+01
  0.100000000000E+01
  0.100000000000E+01
  0.100000000000E+01
  0.100000000000E+01
  0.100000000000E+01
  0.100000000000E+01
  0.100000000000E+01
  0.100000000000E+01
  0.100000000000E+01
  0.100000000000E+01
  0.100000000000E+01
  0.100000000000E+01
  0.100000000000E+01
  0.100000000000E+01
  0.100000000000E+01
  0.100000000000E+01
  0.100000000000E+01
  0.100000000000E+01
  0.100000000000E+01
  0.100000000000E+01
  0.100000000000E+01
  0.100000000000E+01
  0.100000000000E+01
  0.100000000000E+01
  0.100000000000E+01
  0.100000000000E+01
  0.100000000000E+01
  0.100000000000E+01
  0.100000000000E+01
  0.100000000000E+01
  0.100000000000E+01
  0.100000000000E+01
  0.100000000000E+01
  0.100000000000E+01
  0.100000000000E+01
  0.100000000000E+01
  0.100000000000E+01
  0.100000000000E+01
  0.100000000000E+01
  0.100000000000E+01
  0.100000000000E+01
  0.100000000000E+01
  0.100000000000E+01
  0.100000000000E+01
  0.100000000000E+01
  0.100000000000E+01
  0.100000000000E+01
  0.100000000000E+01
  0.100000000000E+01
  0.100000000000E+01
  0.100000000000E+01