# vtk DataFile Version 3.0
MachLine results file. Generated by MachLine, USU AeroLab (c) 2022.
ASCII
DATASET POLYDATA
POINTS                1028 float
  0.999998120393E+00  0.000000000000E+00 -0.108327420918E-06
  0.985311172601E+00  0.224100846140E+00 -0.170270554547E-02
  0.999998168950E+00  0.224100846140E+00 -0.105528976470E-06
  0.985311184047E+00  0.000000000000E+00 -0.170280002531E-02
  0.965616887796E+00  0.224100846140E+00 -0.394781249641E-02
  0.965616899138E+00  0.000000000000E+00 -0.394790636524E-02
  0.939523104585E+00  0.224100846140E+00 -0.685287732738E-02
  0.939523115769E+00  0.000000000000E+00 -0.685297025985E-02
  0.905489853566E+00  0.224100846140E+00 -0.105259052041E-01
  0.905489864525E+00  0.000000000000E+00 -0.105259968279E-01
  0.862001157585E+00  0.224100846140E+00 -0.150351618221E-01
  0.862001168281E+00  0.000000000000E+00 -0.150352518453E-01
  0.807861556312E+00  0.224100846140E+00 -0.203666411822E-01
  0.807861566769E+00  0.000000000000E+00 -0.203667296274E-01
  0.742609840476E+00  0.224100846140E+00 -0.263710819728E-01
  0.742609850756E+00  0.000000000000E+00 -0.263711694377E-01
  0.666965142390E+00  0.224100846140E+00 -0.327286103206E-01
  0.666965152684E+00  0.000000000000E+00 -0.327286980389E-01
  0.583123974636E+00  0.224100846140E+00 -0.389221326890E-01
  0.583123985097E+00  0.000000000000E+00 -0.389222222209E-01
  0.494699801128E+00  0.224100846140E+00 -0.442871993638E-01
  0.494699819758E+00  0.000000000000E+00 -0.442875572159E-01
  0.406196973255E+00  0.000000000000E+00 -0.481331493512E-01
  0.406196977811E+00  0.224100846140E+00 -0.481330591164E-01
  0.322148033505E+00  0.000000000000E+00 -0.499200461759E-01
  0.322148042091E+00  0.224100846140E+00 -0.499199578357E-01
  0.246240780347E+00  0.000000000000E+00 -0.494227158799E-01
  0.246240793517E+00  0.224100846140E+00 -0.494226281075E-01
  0.180771186326E+00  0.000000000000E+00 -0.467563983930E-01
  0.180771204913E+00  0.224100846140E+00 -0.467563102858E-01
  0.126558019933E+00  0.000000000000E+00 -0.422876985852E-01
  0.126558045535E+00  0.224100846140E+00 -0.422876101204E-01
  0.832334436165E-01  0.000000000000E+00 -0.364510526575E-01
  0.832334793461E-01  0.224100846140E+00 -0.364509650159E-01
  0.497097617411E-01  0.000000000000E+00 -0.295732478160E-01
  0.497098144463E-01  0.224100846140E+00 -0.295731645202E-01
  0.246822848412E-01  0.000000000000E+00 -0.217006231552E-01
  0.246823735591E-01  0.224100846140E+00 -0.217005571165E-01
  0.732472657991E-02  0.000000000000E+00 -0.122700906396E-01
  0.732490952579E-02  0.224100846140E+00 -0.122701246293E-01
  0.189063492641E-05  0.000000000000E+00  0.000000000000E+00
  0.184137002823E-05  0.224100846140E+00  0.000000000000E+00
  0.732490952579E-02  0.224100846140E+00  0.122701246293E-01
  0.732472657991E-02  0.000000000000E+00  0.122700906396E-01
  0.246823735591E-01  0.224100846140E+00  0.217005571165E-01
  0.246822848412E-01  0.000000000000E+00  0.217006231552E-01
  0.497098144463E-01  0.224100846140E+00  0.295731645202E-01
  0.497097617411E-01  0.000000000000E+00  0.295732478160E-01
  0.832334793461E-01  0.224100846140E+00  0.364509650159E-01
  0.832334436165E-01  0.000000000000E+00  0.364510526575E-01
  0.126558045535E+00  0.224100846140E+00  0.422876101204E-01
  0.126558019933E+00  0.000000000000E+00  0.422876985852E-01
  0.180771204913E+00  0.224100846140E+00  0.467563102858E-01
  0.180771186326E+00  0.000000000000E+00  0.467563983930E-01
  0.246240793517E+00  0.224100846140E+00  0.494226281075E-01
  0.246240780347E+00  0.000000000000E+00  0.494227158799E-01
  0.322148042091E+00  0.224100846140E+00  0.499199578357E-01
  0.322148033505E+00  0.000000000000E+00  0.499200461759E-01
  0.406196977811E+00  0.224100846140E+00  0.481330591164E-01
  0.406196973255E+00  0.000000000000E+00  0.481331493512E-01
  0.494699801128E+00  0.224100846140E+00  0.442871993638E-01
  0.494699819758E+00  0.000000000000E+00  0.442875572159E-01
  0.583123985097E+00  0.000000000000E+00  0.389222222209E-01
  0.583123974636E+00  0.224100846140E+00  0.389221326890E-01
  0.666965152684E+00  0.000000000000E+00  0.327286980389E-01
  0.666965142390E+00  0.224100846140E+00  0.327286103206E-01
  0.742609850756E+00  0.000000000000E+00  0.263711694377E-01
  0.742609840476E+00  0.224100846140E+00  0.263710819728E-01
  0.807861566769E+00  0.000000000000E+00  0.203667296274E-01
  0.807861556312E+00  0.224100846140E+00  0.203666411822E-01
  0.862001168281E+00  0.000000000000E+00  0.150352518453E-01
  0.862001157585E+00  0.224100846140E+00  0.150351618221E-01
  0.905489864525E+00  0.000000000000E+00  0.105259968279E-01
  0.905489853566E+00  0.224100846140E+00  0.105259052041E-01
  0.939523115769E+00  0.000000000000E+00  0.685297025985E-02
  0.939523104585E+00  0.224100846140E+00  0.685287732738E-02
  0.965616899138E+00  0.000000000000E+00  0.394790636524E-02
  0.965616887796E+00  0.224100846140E+00  0.394781249641E-02
  0.985311184047E+00  0.000000000000E+00  0.170280002531E-02
  0.985311172601E+00  0.224100846140E+00  0.170270554547E-02
  0.985311151845E+00  0.474396230640E+00 -0.170252508941E-02
  0.999997993514E+00  0.474396230640E+00 -0.115639882531E-06
  0.965616867478E+00  0.474396230640E+00 -0.394763215726E-02
  0.939523084838E+00  0.474396230640E+00 -0.685269719959E-02
  0.905489834544E+00  0.474396230640E+00 -0.105257254262E-01
  0.862001139465E+00  0.474396230640E+00 -0.150349825696E-01
  0.807861539305E+00  0.474396230640E+00 -0.203664626318E-01
  0.742609824829E+00  0.474396230640E+00 -0.263709042350E-01
  0.666965128418E+00  0.474396230640E+00 -0.327284333560E-01
  0.583123962768E+00  0.474396230640E+00 -0.389219562562E-01
  0.494699791724E+00  0.474396230640E+00 -0.442870187160E-01
  0.406196972092E+00  0.474396230640E+00 -0.481328823772E-01
  0.322148040786E+00  0.474396230640E+00 -0.499197803250E-01
  0.246240797732E+00  0.474396230640E+00 -0.494224497319E-01
  0.180771215932E+00  0.474396230640E+00 -0.467561312658E-01
  0.126558064970E+00  0.474396230640E+00 -0.422874310053E-01
  0.832335095989E-01  0.474396230640E+00 -0.364507867833E-01
  0.497098599022E-01  0.474396230640E+00 -0.295729891066E-01
  0.246824444365E-01  0.474396230640E+00 -0.217003900478E-01
  0.732503535479E-02  0.474396230640E+00 -0.122699936147E-01
  0.201798827982E-05  0.474396230640E+00  0.000000000000E+00
  0.732503535479E-02  0.474396230640E+00  0.122699936147E-01
  0.246824444365E-01  0.474396230640E+00  0.217003900478E-01
  0.497098599022E-01  0.474396230640E+00  0.295729891066E-01
  0.832335095989E-01  0.474396230640E+00  0.364507867833E-01
  0.126558064970E+00  0.474396230640E+00  0.422874310053E-01
  0.180771215932E+00  0.474396230640E+00  0.467561312658E-01
  0.246240797732E+00  0.474396230640E+00  0.494224497319E-01
  0.322148040786E+00  0.474396230640E+00  0.499197803250E-01
  0.406196972092E+00  0.474396230640E+00  0.481328823772E-01
  0.494699791724E+00  0.474396230640E+00  0.442870187160E-01
  0.583123962768E+00  0.474396230640E+00  0.389219562562E-01
  0.666965128418E+00  0.474396230640E+00  0.327284333560E-01
  0.742609824829E+00  0.474396230640E+00  0.263709042350E-01
  0.807861539305E+00  0.474396230640E+00  0.203664626318E-01
  0.862001139465E+00  0.474396230640E+00  0.150349825696E-01
  0.905489834544E+00  0.474396230640E+00  0.105257254262E-01
  0.939523084838E+00  0.474396230640E+00  0.685269719959E-02
  0.965616867478E+00  0.474396230640E+00  0.394763215726E-02
  0.985311151845E+00  0.474396230640E+00  0.170252508941E-02
  0.985311134199E+00  0.748095716550E+00 -0.170237167158E-02
  0.999997848520E+00  0.748095716550E+00 -0.123996333094E-06
  0.965616850202E+00  0.748095716550E+00 -0.394747881531E-02
  0.939523068043E+00  0.748095716550E+00 -0.685254399892E-02
  0.905489818359E+00  0.748095716550E+00 -0.105255724640E-01
  0.862001124040E+00  0.748095716550E+00 -0.150348299703E-01
  0.807861524817E+00  0.748095716550E+00 -0.203663105229E-01
  0.742609811489E+00  0.748095716550E+00 -0.263707526983E-01
  0.666965116496E+00  0.748095716550E+00 -0.327282823664E-01
  0.583123952636E+00  0.748095716550E+00 -0.389218056409E-01
  0.494699783479E+00  0.748095716550E+00 -0.442868603532E-01
  0.406196967211E+00  0.748095716550E+00 -0.481327315004E-01
  0.322148039673E+00  0.748095716550E+00 -0.499196288694E-01
  0.246240801326E+00  0.748095716550E+00 -0.494222976514E-01
  0.180771225319E+00  0.748095716550E+00 -0.467559787569E-01
  0.126558081514E+00  0.748095716550E+00 -0.422872785231E-01
  0.832335353391E-01  0.748095716550E+00 -0.364506351359E-01
  0.497098985630E-01  0.748095716550E+00 -0.295728399154E-01
  0.246825047033E-01  0.748095716550E+00 -0.217002479899E-01
  0.732514232988E-02  0.748095716550E+00 -0.122698822311E-01
  0.216395827701E-05  0.748095716550E+00  0.000000000000E+00
  0.732514232988E-02  0.748095716550E+00  0.122698822311E-01
  0.246825047033E-01  0.748095716550E+00  0.217002479899E-01
  0.497098985630E-01  0.748095716550E+00  0.295728399154E-01
  0.832335353391E-01  0.748095716550E+00  0.364506351359E-01
  0.126558081514E+00  0.748095716550E+00  0.422872785231E-01
  0.180771225319E+00  0.748095716550E+00  0.467559787569E-01
  0.246240801326E+00  0.748095716550E+00  0.494222976514E-01
  0.322148039673E+00  0.748095716550E+00  0.499196288694E-01
  0.406196967211E+00  0.748095716550E+00  0.481327315004E-01
  0.494699783479E+00  0.748095716550E+00  0.442868603532E-01
  0.583123952636E+00  0.748095716550E+00  0.389218056409E-01
  0.666965116496E+00  0.748095716550E+00  0.327282823664E-01
  0.742609811489E+00  0.748095716550E+00  0.263707526983E-01
  0.807861524817E+00  0.748095716550E+00  0.203663105229E-01
  0.862001124040E+00  0.748095716550E+00  0.150348299703E-01
  0.905489818359E+00  0.748095716550E+00  0.105255724640E-01
  0.939523068043E+00  0.748095716550E+00  0.685254399892E-02
  0.965616850202E+00  0.748095716550E+00  0.394747881531E-02
  0.985311134199E+00  0.748095716550E+00  0.170237167158E-02
  0.985311121147E+00  0.104054975430E+01 -0.170225819975E-02
[...]
POINT_DATA                1028
SCALARS phi float 1
LOOKUP_TABLE default
  0.808372777122E-01
  0.858239001074E-01
  0.808319909848E-01
  0.858289648536E-01
  0.890691727475E-01
  0.890740737430E-01
  0.912037148573E-01
  0.912083974508E-01
  0.918376074644E-01
  0.918420018072E-01
  0.902957975914E-01
  0.902998176421E-01
  0.857194288898E-01
  0.857229739704E-01
  0.771997273808E-01
  0.772026879946E-01
  0.639791718418E-01
  0.639814410656E-01
  0.457334339939E-01
  0.457349237049E-01
  0.228497573870E-01
  0.228503477922E-01
 -0.345723505439E-02
 -0.345705260396E-02
 -0.313083102074E-01
 -0.313073350508E-01
 -0.586075456388E-01
 -0.586058602956E-01
 -0.835556041766E-01
 -0.835533137250E-01
 -0.104987938487E+00
 -0.104985153927E+00
 -0.122431510294E+00
 -0.122428336132E+00
 -0.135926627966E+00
 -0.135923154501E+00
 -0.145718723045E+00
 -0.145715017256E+00
 -0.151472932988E+00
 -0.151469000620E+00
 -0.150451645588E+00
 -0.150447667551E+00
 -0.145294018864E+00
 -0.145298013111E+00
 -0.134371159139E+00
 -0.134374799828E+00
 -0.120261896823E+00
 -0.120265270123E+00
 -0.102959293500E+00
 -0.102962346942E+00
 -0.822194137051E-01
 -0.822220824755E-01
 -0.581620620202E-01
 -0.581642294817E-01
 -0.314906161732E-01
 -0.314921749031E-01
 -0.358552345716E-02
 -0.358637197693E-02
  0.236450173284E-01
  0.236449580258E-01
  0.481667846483E-01
  0.481676392662E-01
  0.683393765747E-01
  0.683377829388E-01
  0.832948328976E-01
  0.832924726691E-01
  0.930143019413E-01
  0.930112616606E-01
  0.981305980130E-01
  0.981269819278E-01
  0.996100796484E-01
  0.996059944430E-01
  0.984726361586E-01
  0.984681802470E-01
  0.956071987661E-01
  0.956024568121E-01
  0.916651023716E-01
  0.916601439389E-01
  0.869816403989E-01
  0.869765213123E-01
  0.858058619717E-01
  0.808136925683E-01
  0.890516985061E-01
  0.911870041480E-01
  0.918219117889E-01
  0.902814255564E-01
  0.857067410804E-01
  0.771891157397E-01
  0.639710192737E-01
  0.457280567112E-01
  0.228473448365E-01
 -0.345648467324E-02
 -0.313039424320E-01
 -0.585999384369E-01
 -0.835452375019E-01
 -0.104975319038E+00
 -0.122417120639E+00
 -0.135910899460E+00
 -0.145702030121E+00
 -0.151455684084E+00
 -0.150434545955E+00
 -0.145280837160E+00
 -0.134358428480E+00
 -0.120249974510E+00
 -0.102948465970E+00
 -0.822099557080E-01
 -0.581543838771E-01
 -0.314851043286E-01
 -0.358254079928E-02
  0.236451891240E-01
  0.481640000332E-01
  0.683320709093E-01
  0.832840231051E-01
  0.930003889212E-01
  0.981140637836E-01
  0.995914160655E-01
  0.984522951484E-01
  0.955855669485E-01
  0.916424946560E-01
  0.869583050586E-01
  0.857695274793E-01
  0.807766358299E-01
  0.890165136324E-01
  0.911533650260E-01
  0.917903222052E-01
  0.902525050368E-01
  0.856812142894E-01
  0.771677708790E-01
  0.639546260599E-01
  0.457172473961E-01
  0.228424844661E-01
 -0.345537925647E-02
 -0.312971671793E-01
 -0.585880807775E-01
 -0.835290578794E-01
 -0.104955622268E+00
 -0.122394665277E+00
 -0.135886353201E+00
 -0.145675973810E+00
 -0.151428743437E+00
 -0.150407477271E+00
 -0.145254034059E+00
 -0.134332662770E+00
 -0.120225825833E+00
 -0.102926495498E+00
 -0.821908161518E-01
 -0.581388151714E-01
 -0.314738862069E-01
 -0.357640495881E-02
  0.236456760489E-01
  0.481584589316E-01
  0.683206340103E-01
  0.832670769775E-01
  0.929785713326E-01
  0.980881392981E-01
  0.995621624423E-01
  0.984204246454E-01
  0.955516868170E-01
  0.916070975875E-01
  0.869217773204E-01
  0.857072659819E-01
  0.807134241963E-01
  0.889561911868E-01
  0.910956914311E-01
  0.917361520196E-01
  0.902028914305E-01
  0.856373935174E-01
  0.771310930851E-01
  0.639264169830E-01
  0.456986093997E-01
  0.228340907910E-01
 -0.345346317464E-02
 -0.312855174274E-01
 -0.585677515144E-01
 -0.835013676180E-01
 -0.104921954111E+00
 -0.122356317828E+00
 -0.135844463932E+00
 -0.145631515698E+00
 -0.151382661398E+00
 -0.150360955426E+00
 -0.145208244365E+00
 -0.134288744827E+00
 -0.120184670434E+00
 -0.102889048721E+00
 -0.821581911069E-01
 -0.581122785851E-01
 -0.314547770523E-01
 -0.356598339065E-02
  0.236464317128E-01
  0.481491375278E-01
  0.683012744791E-01
  0.832383576782E-01
  0.929416001529E-01
  0.980442369598E-01
  0.995126655973E-01
  0.983665513010E-01
  0.954944706450E-01
  0.915473739751E-01
  0.868601994952E-01
  0.856097127593E-01
  0.806136902006E-01
  0.888616628192E-01
  0.910052325879E-01
  0.916511020452E-01
  0.901249112068E-01
  0.855684441063E-01
  0.770733298965E-01
  0.638819695880E-01
  0.456692549618E-01
  0.228209010558E-01
 -0.345038124667E-02
 -0.312670313130E-01
 -0.585355169664E-01
 -0.834574849591E-01
 -0.104868628295E+00
 -0.122295613604E+00
 -0.135778181939E+00
 -0.145561180305E+00
 -0.151309667900E+00
 -0.150287057698E+00
 -0.145135701179E+00
 -0.134219219931E+00
 -0.120119494297E+00
 -0.102829709480E+00
 -0.821064535706E-01
 -0.580701594687E-01
 -0.314244155671E-01
 -0.354939793903E-02
  0.236476737605E-01
  0.481342421630E-01
  0.682704284618E-01
  0.831926606789E-01
  0.928828323341E-01
  0.979745106784E-01
  0.994341073047E-01
  0.982810884352E-01
  0.954037310386E-01
  0.914526673508E-01
  0.867625449866E-01
  0.854621017458E-01
  0.804623708647E-01
  0.887185248002E-01
  0.908680878957E-01
  0.915219673278E-01
  0.900063092799E-01
  0.854633817132E-01
  0.769851454422E-01
  0.638139968473E-01
  0.456243088102E-01
  0.228005999871E-01
 -0.344569999964E-02
 -0.312387113190E-01
 -0.584861379498E-01
 -0.833903137277E-01
 -0.104787079415E+00
 -0.122202866836E+00
 -0.135676993189E+00
 -0.145453861966E+00
 -0.151198264073E+00
 -0.150174140668E+00
 -0.145024977848E+00
 -0.134113110017E+00
 -0.120019959077E+00
 -0.102739011156E+00
 -0.820272954371E-01
 -0.580056489696E-01
 -0.313778672295E-01
 -0.352395371829E-02
  0.236495662004E-01
  0.481113368196E-01
  0.682230054948E-01
  0.831224948544E-01
  0.927927548552E-01
  0.978678270515E-01
  0.993141078928E-01
  0.981507266144E-01
  0.952654793245E-01
  0.913084997677E-01
  0.866139872142E-01
  0.852418488747E-01
  0.802373593101E-01
  0.885046858442E-01
  0.906629444009E-01
  0.913284925954E-01
  0.898282608398E-01
  0.853052929035E-01
  0.768521171158E-01
  0.637111936205E-01
  0.455561532722E-01
  0.227699588970E-01
 -0.343855413564E-02
 -0.311958213322E-01
 -0.584114828854E-01
 -0.832889280671E-01
 -0.104664195492E+00
 -0.122063320217E+00
 -0.135524940516E+00
 -0.145292758922E+00
 -0.151031102091E+00
 -0.150004705703E+00
 -0.144858882065E+00
 -0.133953870828E+00
 -0.119870454862E+00
 -0.102602627351E+00
 -0.819081129609E-01
 -0.579083967477E-01
 -0.313076268824E-01
 -0.348556688581E-02
  0.236523357246E-01
  0.480766514292E-01
  0.681514559936E-01
  0.830168940404E-01
  0.926575174959E-01
  0.977080707494E-01
  0.991348612345E-01
  0.979564415441E-01
  0.950598350276E-01
  0.910944005861E-01
  0.863936573483E-01
  0.849173275058E-01
  0.799062136787E-01
  0.881891093542E-01
  0.903595750735E-01
  0.910416418544E-01
  0.895634664722E-01
  0.850693587296E-01
  0.766528491673E-01
  0.635566541508E-01
  0.454533852803E-01
  0.227234572698E-01
 -0.342800777860E-02
 -0.311313216713E-01
 -0.582991994967E-01
 -0.831366647651E-01
 -0.104479997483E+00
 -0.121854541778E+00
 -0.135297829991E+00
 -0.145052450397E+00
 -0.150781971213E+00
 -0.149752183981E+00
 -0.144611247177E+00
 -0.133716221763E+00
 -0.119647006843E+00
 -0.102398413884E+00
 -0.817292717332E-01
 -0.577621219526E-01
 -0.312017326024E-01
 -0.342755842754E-02
  0.236566135423E-01
  0.480243085243E-01
  0.680435999387E-01
  0.828581462455E-01
  0.924549351500E-01
  0.974696474081E-01
  0.988682905610E-01
  0.976684012448E-01
  0.947557429410E-01
  0.907784641897E-01
  0.860690546310E-01
  0.844417336094E-01
  0.794221154385E-01
  0.877255653589E-01
  0.899126859722E-01
  0.906175686051E-01
  0.891703059082E-01
  0.847173156977E-01
  0.763539509804E-01
  0.633236657108E-01
  0.452977713269E-01
  0.226528071889E-01
 -0.341206859779E-02
 -0.310335865490E-01
 -0.581294217098E-01
 -0.829071173912E-01
 -0.104203184347E+00
 -0.121541721106E+00
 -0.134958414239E+00
 -0.144694053790E+00
 -0.150410989885E+00
 -0.149376501195E+00
 -0.144242593359E+00
 -0.133361941380E+00
 -0.119313259625E+00
 -0.102092671834E+00
 -0.814607906300E-01
 -0.575419257329E-01
 -0.310419745021E-01
 -0.334004072087E-02
  0.236626855217E-01
  0.479447519969E-01
  0.678803502841E-01
  0.826189682443E-01
  0.921513057328E-01
  0.971142178397E-01
  0.984729081560E-01
  0.972430716595E-01
  0.943083753760E-01
  0.903150572307E-01
  0.855940466071E-01
  0.837505478432E-01
  0.787197214749E-01
  0.870498238622E-01
  0.892585908002E-01
  0.899937346167E-01
  0.885884348771E-01
  0.841926864694E-01
  0.759052358177E-01
  0.629714003532E-01
  0.450610468659E-01
  0.225447616620E-01
 -0.338805549758E-02
 -0.308848380523E-01
 -0.578715396592E-01
 -0.825597228915E-01
 -0.103785987808E+00
 -0.121072121876E+00
 -0.134450646352E+00
 -0.144159387990E+00
 -0.149858718400E+00
 -0.148817849285E+00
 -0.143693863894E+00
 -0.132833562067E+00
 -0.118814173797E+00
 -0.101633953624E+00
 -0.810564581139E-01
 -0.572090393637E-01
 -0.307997142759E-01
 -0.320729417449E-02
  0.236711740861E-01
  0.478224802135E-01
  0.676313203245E-01
  0.822566178149E-01
  0.916947231028E-01
  0.965837267041E-01
  0.978868692133E-01
  0.966164334720E-01
  0.936525387031E-01
  0.896383845669E-01
  0.849025430318E-01
  0.827566958012E-01
  0.777127061191E-01
  0.860741510781E-01
  0.883090963075E-01
  0.890820620700E-01
  0.877311567908E-01
  0.834125037251E-01
  0.752312305254E-01
  0.624370207225E-01
  0.446987340893E-01
  0.223778753386E-01
 -0.335228854759E-02
 -0.306576497257E-01
 -0.574783344070E-01
 -0.820324290115E-01
 -0.103156135123E+00
 -0.120366856217E+00
 -0.133691551256E+00
 -0.143363063760E+00
 -0.149038491117E+00
 -0.147989335034E+00
 -0.142879070051E+00
 -0.132046926590E+00
 -0.118068515106E+00
 -0.100945615216E+00
 -0.804467421732E-01
 -0.567046097405E-01
 -0.304312877874E-01
 -0.300561426190E-02
  0.236821362483E-01
  0.476328848802E-01
  0.672493487164E-01
  0.817061740035E-01
  0.910082116493E-01
  0.957941971360E-01
  0.970228528622E-01
  0.957000716938E-01
  0.926999118052E-01
  0.886607362615E-01
  0.839075933247E-01
  0.813523257482E-01
  0.762959564737E-01
  0.846881568763E-01
  0.869510939635E-01
  0.877669700059E-01
  0.864816745266E-01
  0.822617649939E-01
  0.742242359307E-01
  0.616283098769E-01
  0.441437833994E-01
  0.221189091901E-01
 -0.330022218944E-02
 -0.303113371399E-01
 -0.568793111577E-01
 -0.812331546577E-01
 -0.102207552601E+00
 -0.119311594887E+00
 -0.132562336618E+00
 -0.142184122294E+00
 -0.147828541820E+00
 -0.146769361034E+00
 -0.141677537971E+00
 -0.130883069775E+00
 -0.116960338861E+00
 -0.999170514773E-01
 -0.795301951516E-01
 -0.559420517694E-01
 -0.298724093584E-01
 -0.270090810794E-02
  0.236936284900E-01
  0.473368802384E-01
  0.666628205731E-01
  0.808720977508E-01
  0.899818988487E-01
  0.946294165041E-01
  0.957636102587E-01
  0.943785335986E-01
  0.913379568715E-01
  0.872726345819E-01
  0.825024692992E-01
  0.794185224036E-01
  0.743548131369E-01
  0.827672020675E-01
  0.850531238091E-01
  0.859096658789E-01
  0.846947516849E-01
  0.805923387548E-01
  0.727407696565E-01
  0.604184534710E-01
  0.433009632691E-01
  0.217178966412E-01
 -0.322843839656E-02
 -0.297900362980E-01
 -0.559750266422E-01
 -0.800315484757E-01
 -0.100791047859E+00
 -0.117747344042E+00
 -0.130899907014E+00
 -0.140458491997E+00
 -0.146065317674E+00
 -0.144995322284E+00
 -0.139927345196E+00
 -0.129180987200E+00
 -0.115331035038E+00
 -0.983952748471E-01
 -0.781652642347E-01
 -0.548002888469E-01
 -0.290342899419E-01
 -0.224872374733E-02
  0.236978276955E-01
  0.468743519561E-01
  0.657679294162E-01
  0.796209924889E-01
  0.884675539514E-01
  0.929379430701E-01
  0.939616087543E-01
  0.925113950494E-01
  0.894339964634E-01
  0.853484710236E-01
  0.805674601250E-01
  0.768378932994E-01
  0.717799460126E-01
  0.801838289935E-01
  0.824754844080E-01
  0.833566903591E-01
  0.822036418315E-01
  0.782285138823E-01
  0.706060456410E-01
  0.586492281072E-01
  0.420476913525E-01
  0.211062797549E-01
 -0.313878833945E-02
 -0.290260455406E-01
 -0.546367217905E-01
 -0.782542445232E-01
 -0.987065832662E-01
 -0.115461690994E+00
 -0.128488520537E+00
 -0.137971745237E+00
 -0.143537445326E+00
 -0.142458483650E+00
 -0.137419954597E+00
 -0.126731563258E+00
 -0.112972726467E+00
 -0.961785933586E-01
 -0.761658131773E-01
 -0.531231269998E-01
 -0.278081448075E-01
 -0.160289128036E-02
  0.236716701765E-01
  0.461578917285E-01
  0.644269139445E-01
  0.777834449344E-01
  0.862827877017E-01
  0.905392536813E-01
  0.914472525051E-01
  0.899436426885E-01
  0.868476056070E-01
  0.827605951928E-01
  0.779853069177E-01
  0.735066781785E-01
  0.684794279220E-01
  0.768187034208E-01
  0.790799808401E-01
  0.799491237616E-01
  0.788303446124E-01
  0.749806397942E-01
  0.676324770963E-01
  0.561523700452E-01
  0.402519192677E-01
  0.202035976382E-01
 -0.304531452907E-02
 -0.279550773530E-01
 -0.527200627142E-01
 -0.756898962710E-01
 -0.956987552690E-01
 -0.112178076742E+00
 -0.125046695312E+00
 -0.134446142768E+00
 -0.139973959788E+00
 -0.138893036088E+00
 -0.133889153179E+00
 -0.123266216504E+00
 -0.109617870084E+00
 -0.930099638949E-01
 -0.733023118171E-01
 -0.507316127742E-01
 -0.260874263756E-01
 -0.739643490264E-03
  0.235614612035E-01
  0.450715948584E-01
  0.624789108143E-01
  0.751697768970E-01
  0.832253393385E-01
  0.872342752499E-01
  0.880367309392E-01
  0.865128070574E-01
  0.834383641570E-01
  0.793881903461E-01
  0.746512077468E-01
  0.693257208401E-01
  0.643733692825E-01
  0.725488231229E-01
  0.747164849434E-01
  0.755108027716E-01
  0.743817543679E-01
  0.706564796842E-01
  0.636491071781E-01
  0.527911787547E-01
  0.378129227048E-01
  0.189431792988E-01
 -0.297356674822E-02
 -0.265397509048E-01
 -0.500977445164E-01
 -0.721097147968E-01
 -0.914531986559E-01
 -0.107530447977E+00
 -0.120189593931E+00
 -0.129499196887E+00
 -0.135003684611E+00
 -0.133937400309E+00
 -0.128972971871E+00
 -0.118420605306E+00
 -0.104909955223E+00
 -0.885638112480E-01
 -0.693145260597E-01
 -0.474642906973E-01
 -0.238219881608E-01
  0.297203476753E-03
  0.232629586752E-01
  0.434784086517E-01
  0.597651300680E-01
  0.715993577832E-01
  0.790939169026E-01
  0.828116409951E-01
  0.835258479518E-01
  0.820367707545E-01
  0.790532115190E-01
  0.751070191567E-01
  0.704656998877E-01
  0.641452101106E-01
  0.593485548592E-01
  0.671821681696E-01
  0.691527146197E-01
  0.697867860014E-01
  0.686157885757E-01
  0.650672658406E-01
  0.585430828608E-01
  0.485212915174E-01
  0.347255007703E-01
  0.173271940658E-01
 -0.292851062150E-02
 -0.247742901857E-01
 -0.467000623280E-01
 -0.673131336420E-01
 -0.856015526875E-01
 -0.101004680351E+00
 -0.113319765451E+00
 -0.122510807483E+00
 -0.128019000063E+00
 -0.127002130954E+00
 -0.122085242951E+00
 -0.111618101718E+00
 -0.983208643896E-01
 -0.824252864984E-01
 -0.639637357283E-01
 -0.432750735238E-01
 -0.211114954702E-01
  0.133992390177E-02
  0.226030578383E-01
  0.412260623582E-01
  0.561470959188E-01
  0.669212652420E-01
  0.736978998328E-01
  0.770313548470E-01
  0.776422108907E-01
  0.762444710392E-01
  0.734522074753E-01
  0.697220089648E-01
  0.652782840952E-01
  0.575497637771E-01
  0.530939040252E-01
  0.602035444436E-01
  0.618267075422E-01
  0.622683261026E-01
  0.611777893867E-01
  0.580605364415E-01
  0.523444241823E-01
  0.434913978515E-01
  0.311820249934E-01
  0.155283472207E-01
 -0.279645153158E-02
 -0.226089438347E-01
 -0.424955367209E-01
 -0.611757126578E-01
 -0.777684927570E-01
 -0.918532003706E-01
 -0.103331335273E+00
 -0.112164028050E+00
 -0.117657375704E+00
 -0.116758261122E+00
 -0.111934188180E+00
 -0.101688108398E+00
 -0.889734644574E-01
 -0.741519581894E-01
 -0.572346848876E-01
 -0.384286004642E-01
 -0.183234969972E-01
  0.203909816039E-02
  0.213011595156E-01
  0.381041738303E-01
  0.514570346560E-01
  0.609642496477E-01
  0.668054099595E-01
  0.695479337313E-01
  0.699055764252E-01
  0.685561195815E-01
  0.660388657639E-01
  0.627038229304E-01
  0.586691604438E-01
  0.467923288590E-01
  0.434710146776E-01
  0.491717718134E-01
  0.509935090269E-01
  0.520249210038E-01
  0.518477022771E-01
  0.499082290314E-01
  0.455902509896E-01
  0.383295124742E-01
  0.277939251027E-01
  0.140876944785E-01
 -0.212671299417E-02
 -0.196828042700E-01
 -0.371878023494E-01
 -0.533823305926E-01
 -0.674074312241E-01
 -0.788776863977E-01
 -0.877730604738E-01
 -0.942232896223E-01
 -0.978754102300E-01
 -0.963453679266E-01
 -0.931124668799E-01
 -0.854246417806E-01
 -0.756210531319E-01
 -0.637801741790E-01
 -0.497707602842E-01
 -0.337369248107E-01
 -0.162421973768E-01
  0.168943495699E-02
  0.187189824314E-01
  0.335080691435E-01
  0.450816207093E-01
  0.530526442031E-01
  0.576029513274E-01
  0.593012989049E-01
  0.588696334288E-01
  0.570058311400E-01
  0.542832278303E-01
  0.510994102242E-01
  0.476439387433E-01
  0.466515806831E-01
  0.489017185671E-01
  0.505945963684E-01
  0.515044346192E-01
  0.512272983494E-01
  0.492313446344E-01
  0.449285548483E-01
  0.377855951382E-01
  0.274969353124E-01
  0.141773456337E-01
 -0.152704329099E-02
 -0.184966613037E-01
 -0.354067233547E-01
 -0.510688380496E-01
 -0.646817924397E-01
 -0.759009771735E-01
 -0.847422200687E-01
 -0.914021241770E-01
 -0.957640309008E-01
 -0.913283032256E-01
 -0.832902955911E-01
 -0.735805355469E-01
 -0.620602075867E-01
 -0.485298682254E-01
 -0.330863181077E-01
 -0.162366208164E-01
  0.106669719043E-02
  0.175607933183E-01
  0.319683677122E-01
  0.433426746495E-01
  0.512882875594E-01
  0.559518256265E-01
  0.578557646981E-01
  0.576784800011E-01
  0.560833692774E-01
  0.536209033822E-01
  0.506764472310E-01
  0.474365419516E-01
  0.465549957677E-01
  0.487262056460E-01
  0.503497186200E-01
  0.512067348805E-01
  0.509059635060E-01
  0.489330448008E-01
  0.447206484772E-01
  0.377555429137E-01
  0.277455350997E-01
  0.148034018234E-01
 -0.448575301670E-03
 -0.169360861415E-01
 -0.333908868873E-01
 -0.486778882897E-01
 -0.620353344388E-01
 -0.731442962884E-01
 -0.820441753456E-01
 -0.889823854125E-01
 -0.940170188944E-01
 -0.901376253623E-01
 -0.819270225295E-01
 -0.723603660951E-01
 -0.611527452097E-01
 -0.480527282396E-01
 -0.331175578194E-01
 -0.168062142892E-01
 -0.113137103898E-04
  0.160670069171E-01
  0.302004842461E-01
  0.414630999423E-01
  0.494485748504E-01
  0.542698904500E-01
  0.564069385103E-01
  0.564986885985E-01
  0.551779813229E-01
  0.529755814000E-01
  0.502669244369E-01
  0.472369623514E-01
  0.465021480590E-01
  0.486427450854E-01
  0.502528551509E-01
  0.511206152121E-01
  0.508655055712E-01
  0.489864156773E-01
  0.449296343035E-01
  0.381922968577E-01
  0.284842156876E-01
  0.159061150826E-01
  0.105141284142E-02
 -0.150478015113E-01
 -0.311687858325E-01
 -0.462141100002E-01
 -0.594457666970E-01
 -0.705574710263E-01
 -0.796011724275E-01
 -0.868603307302E-01
 -0.925264909808E-01
 -0.894013320066E-01
 -0.811951911724E-01
 -0.718380863969E-01
 -0.609534846130E-01
 -0.482536834767E-01
 -0.337635213905E-01
 -0.179009779581E-01
 -0.150862912477E-02
  0.142638315456E-01
  0.282251566919E-01
  0.394612962180E-01
  0.475511358169E-01
  0.525742969328E-01
  0.549710602850E-01
  0.553449573027E-01
  0.543022284918E-01
  0.523572431215E-01
  0.498779424015E-01
  0.470491639364E-01
  0.464929420122E-01
  0.486495183933E-01
  0.502990665463E-01
  0.512364168147E-01
  0.510897608187E-01
  0.493669881630E-01
  0.455212731840E-01
  0.390512541756E-01
  0.296589688012E-01
  0.174250977556E-01
  0.291121586782E-02
 -0.128886034941E-01
 -0.287863473453E-01
 -0.437081612672E-01
 -0.569262191423E-01
 -0.681359252849E-01
 -0.773927631600E-01
 -0.850046607750E-01
 -0.912662635386E-01
 -0.890607479959E-01
 -0.810147198757E-01
 -0.719308961519E-01
 -0.613830754902E-01
 -0.490598460250E-01
 -0.349594038989E-01
 -0.194646351802E-01
 -0.337674855996E-02
  0.121936149220E-01
  0.260803703886E-01
  0.373721307273E-01
  0.456281307613E-01
  0.508942625164E-01
  0.535738880577E-01
  0.542391125282E-01