# vtk DataFile Version 3.0
MachLine results file. Generated by MachLine, USU AeroLab (c) 2022.
ASCII
DATASET POLYDATA
POINTS                  40 float
  0.100000000000E+01  0.224100846140E+00  0.000000000000E+00
  0.198118811881E+02  0.224100846140E+00  0.188118811881E+01
  0.100000000000E+01  0.000000000000E+00  0.000000000000E+00
  0.198118811881E+02  0.000000000000E+00  0.188118811881E+01
  0.100000000000E+01  0.279144373280E+01  0.000000000000E+00
  0.198118811881E+02  0.279144373280E+01  0.188118811881E+01
  0.100000000000E+01  0.253576450510E+01  0.000000000000E+00
  0.198118811881E+02  0.253576450510E+01  0.188118811881E+01
  0.100000000000E+01  0.196179351870E+01  0.000000000000E+00
  0.198118811881E+02  0.196179351870E+01  0.188118811881E+01
  0.100000000000E+01  0.165518621560E+01  0.000000000000E+00
  0.198118811881E+02  0.165518621560E+01  0.188118811881E+01
  0.100000000000E+01  0.104054975430E+01  0.000000000000E+00
  0.198118811881E+02  0.104054975430E+01  0.188118811881E+01
  0.100000000000E+01  0.748095716550E+00  0.000000000000E+00
  0.198118811881E+02  0.748095716550E+00  0.188118811881E+01
  0.100000000000E+01  0.474396230640E+00  0.000000000000E+00
  0.198118811881E+02  0.474396230640E+00  0.188118811881E+01
  0.100000000000E+01  0.225753433710E+01  0.000000000000E+00
  0.198118811881E+02  0.225753433710E+01  0.188118811881E+01
  0.100000000000E+01  0.134542656080E+01  0.000000000000E+00
  0.198118811881E+02  0.134542656080E+01  0.188118811881E+01
  0.100000000000E+01  0.355016448900E+01  0.000000000000E+00
  0.198118811881E+02  0.355016448900E+01  0.188118811881E+01
  0.100000000000E+01  0.339999274540E+01  0.000000000000E+00
  0.198118811881E+02  0.339999274540E+01  0.188118811881E+01
  0.100000000000E+01  0.302137760410E+01  0.000000000000E+00
  0.198118811881E+02  0.302137760410E+01  0.188118811881E+01
  0.100000000000E+01  0.367680651800E+01  0.000000000000E+00
  0.198118811881E+02  0.367680651800E+01  0.188118811881E+01
  0.100000000000E+01  0.378246253770E+01  0.000000000000E+00
  0.198118811881E+02  0.378246253770E+01  0.188118811881E+01
  0.100000000000E+01  0.322417505490E+01  0.000000000000E+00
  0.198118811881E+02  0.322417505490E+01  0.188118811881E+01
  0.100000000000E+01  0.386982167210E+01  0.000000000000E+00
  0.198118811881E+02  0.386982167210E+01  0.188118811881E+01
  0.100000000000E+01  0.394151741400E+01  0.000000000000E+00
  0.198118811881E+02  0.394151741400E+01  0.188118811881E+01
  0.100000000000E+01  0.400000000000E+01  0.000000000000E+00
  0.198118811881E+02  0.400000000000E+01  0.188118811881E+01
POLYGONS                  38                 152
3                   0                   1                   3
3                   0                   3                   2
3                  16                  17                   1
3                  16                   1                   0
3                  14                  15                  17
3                  14                  17                  16
3                  12                  13                  15
3                  12                  15                  14
3                  20                  21                  13
3                  20                  13                  12
3                  10                  11                  21
3                  10                  21                  20
3                   8                   9                  11
3                   8                  11                  10
3                  18                  19                   9
3                  18                   9                   8
3                   6                   7                  19
3                   6                  19                  18
3                   4                   5                   7
3                   4                   7                   6
3                  26                  27                   5
3                  26                   5                   4
3                  32                  33                  27
3                  32                  27                  26
3                  24                  25                  33
3                  24                  33                  32
3                  22                  23                  25
3                  22                  25                  24
3                  28                  29                  23
3                  28                  23                  22
3                  30                  31                  29
3                  30                  29                  28
3                  34                  35                  31
3                  34                  31                  30
3                  36                  37                  35
3                  36                  35                  34
3                  38                  39                  37
3                  38                  37                  36
CELL_DATA                  38
NORMALS normals float
  0.995037190210E-01  0.000000000000E+00 -0.995037190210E+00
  0.995037190210E-01  0.000000000000E+00 -0.995037190210E+00
  0.995037190210E-01  0.000000000000E+00 -0.995037190210E+00
  0.995037190210E-01  0.000000000000E+00 -0.995037190210E+00
  0.995037190210E-01  0.000000000000E+00 -0.995037190210E+00
  0.995037190210E-01  0.000000000000E+00 -0.995037190210E+00
  0.995037190210E-01  0.000000000000E+00 -0.995037190210E+00
  0.995037190210E-01  0.000000000000E+00 -0.995037190210E+00
  0.995037190210E-01  0.000000000000E+00 -0.995037190210E+00
  0.995037190210E-01  0.000000000000E+00 -0.995037190210E+00
  0.995037190210E-01  0.000000000000E+00 -0.995037190210E+00
  0.995037190210E-01  0.000000000000E+00 -0.995037190210E+00
  0.995037190210E-01  0.000000000000E+00 -0.995037190210E+00
  0.995037190210E-01  0.000000000000E+00 -0.995037190210E+00
  0.995037190210E-01  0.000000000000E+00 -0.995037190210E+00
  0.995037190210E-01  0.000000000000E+00 -0.995037190210E+00
  0.995037190210E-01  0.000000000000E+00 -0.995037190210E+00
  0.995037190210E-01  0.000000000000E+00 -0.995037190210E+00
  0.995037190210E-01  0.000000000000E+00 -0.995037190210E+00
  0.995037190210E-01  0.000000000000E+00 -0.995037190210E+00
  0.995037190210E-01  0.000000000000E+00 -0.995037190210E+00
  0.995037190210E-01  0.000000000000E+00 -0.995037190210E+00
  0.995037190210E-01  0.000000000000E+00 -0.995037190210E+00
  0.995037190210E-01  0.000000000000E+00 -0.995037190210E+00
  0.995037190210E-01  0.000000000000E+00 -0.995037190210E+00
  0.995037190210E-01  0.000000000000E+00 -0.995037190210E+00
  0.995037190210E-01  0.000000000000E+00 -0.995037190210E+00
  0.995037190210E-01  0.000000000000E+00 -0.995037190210E+00
  0.995037190210E-01  0.000000000000E+00 -0.995037190210E+00
  0.995037190210E-01  0.000000000000E+00 -0.995037190210E+00
  0.995037190210E-01  0.000000000000E+00 -0.995037190210E+00
  0.995037190210E-01  0.000000000000E+00 -0.995037190210E+00
  0.995037190210E-01  0.000000000000E+00 -0.995037190210E+00
  0.995037190210E-01  0.000000000000E+00 -0.995037190210E+00
  0.995037190210E-01  0.000000000000E+00 -0.995037190210E+00
  0.995037190210E-01  0.000000000000E+00 -0.995037190210E+00
  0.995037190210E-01  0.000000000000E+00 -0.995037190210E+00
  0.995037190210E-01  0.000000000000E+00 -0.995037190210E+00
POINT_DATA                  40
SCALARS mu float 1
LOOKUP_TABLE default
 -0.732938436643E-03
 -0.732938436643E-03
 -0.730431510913E-03
 -0.730431510913E-03
 -0.115108995911E-02
 -0.115108995911E-02
 -0.125012795447E-02
 -0.125012795447E-02
 -0.916416984775E-03
 -0.916416984775E-03
 -0.975836080263E-03
 -0.975836080263E-03
 -0.840538905846E-03
 -0.840538905846E-03
 -0.785664387751E-03
 -0.785664387751E-03
 -0.752054798296E-03
 -0.752054798296E-03
 -0.143855596857E-02
 -0.143855596857E-02
 -0.919317991988E-03
 -0.919317991988E-03
 -0.103276331413E-02
 -0.103276331413E-02
 -0.111060320020E-02
 -0.111060320020E-02
 -0.112102346748E-02
 -0.112102346748E-02
 -0.138602240463E-02
 -0.138602240463E-02
 -0.128199614022E-02
 -0.128199614022E-02
 -0.112176726891E-02
 -0.112176726891E-02
 -0.111788267104E-02
 -0.111788267104E-02
 -0.916577326306E-03
 -0.916577326306E-03
  0.000000000000E+00
  0.000000000000E+00
