# vtk DataFile Version 3.0
MachLine results file. Generated by MachLine, USU AeroLab (c) 2022.
ASCII
DATASET POLYDATA
POINTS                 378 float
  0.100000000000E+01  0.503720627990E+00  0.000000000000E+00
  0.100000000000E+01  0.000000000000E+00  0.000000000000E+00
  0.242500000000E+01  0.503720627990E+00  0.000000000000E+00
  0.242500000000E+01  0.000000000000E+00  0.000000000000E+00
  0.337500000000E+01  0.503720627990E+00  0.000000000000E+00
  0.337500000000E+01  0.000000000000E+00  0.000000000000E+00
  0.432500000000E+01  0.503720627990E+00  0.000000000000E+00
  0.432500000000E+01  0.000000000000E+00  0.000000000000E+00
  0.527500000000E+01  0.503720627990E+00  0.000000000000E+00
  0.527500000000E+01  0.000000000000E+00  0.000000000000E+00
  0.622500000000E+01  0.503720627990E+00  0.000000000000E+00
  0.622500000000E+01  0.000000000000E+00  0.000000000000E+00
  0.717500000000E+01  0.503720627990E+00  0.000000000000E+00
  0.717500000000E+01  0.000000000000E+00  0.000000000000E+00
  0.812500000000E+01  0.503720627990E+00  0.000000000000E+00
  0.812500000000E+01  0.000000000000E+00  0.000000000000E+00
  0.907500000000E+01  0.503720627990E+00  0.000000000000E+00
  0.907500000000E+01  0.000000000000E+00  0.000000000000E+00
  0.100250000000E+02  0.503720627990E+00  0.000000000000E+00
  0.100250000000E+02  0.000000000000E+00  0.000000000000E+00
  0.109750000000E+02  0.503720627990E+00  0.000000000000E+00
  0.109750000000E+02  0.000000000000E+00  0.000000000000E+00
  0.119250000000E+02  0.503720627990E+00  0.000000000000E+00
  0.119250000000E+02  0.000000000000E+00  0.000000000000E+00
  0.128750000000E+02  0.503720627990E+00  0.000000000000E+00
  0.128750000000E+02  0.000000000000E+00  0.000000000000E+00
  0.138250000000E+02  0.503720627990E+00  0.000000000000E+00
  0.138250000000E+02  0.000000000000E+00  0.000000000000E+00
  0.147750000000E+02  0.503720627990E+00  0.000000000000E+00
  0.147750000000E+02  0.000000000000E+00  0.000000000000E+00
  0.157250000000E+02  0.503720627990E+00  0.000000000000E+00
  0.157250000000E+02  0.000000000000E+00  0.000000000000E+00
  0.166750000000E+02  0.503720627990E+00  0.000000000000E+00
  0.166750000000E+02  0.000000000000E+00  0.000000000000E+00
  0.176250000000E+02  0.503720627990E+00  0.000000000000E+00
  0.176250000000E+02  0.000000000000E+00  0.000000000000E+00
  0.185750000000E+02  0.503720627990E+00  0.000000000000E+00
  0.185750000000E+02  0.000000000000E+00  0.000000000000E+00
  0.195250000000E+02  0.503720627990E+00  0.000000000000E+00
  0.195250000000E+02  0.000000000000E+00  0.000000000000E+00
  0.204750000000E+02  0.503720627990E+00  0.000000000000E+00
  0.204750000000E+02  0.000000000000E+00  0.000000000000E+00
  0.100000000000E+01  0.110747748820E+01  0.000000000000E+00
  0.100000000000E+01  0.503720627990E+00  0.000000000000E+00
  0.242500000000E+01  0.110747748820E+01  0.000000000000E+00
  0.242500000000E+01  0.503720627990E+00  0.000000000000E+00
  0.337500000000E+01  0.110747748820E+01  0.000000000000E+00
  0.337500000000E+01  0.503720627990E+00  0.000000000000E+00
  0.432500000000E+01  0.110747748820E+01  0.000000000000E+00
  0.432500000000E+01  0.503720627990E+00  0.000000000000E+00
  0.527500000000E+01  0.110747748820E+01  0.000000000000E+00
  0.527500000000E+01  0.503720627990E+00  0.000000000000E+00
  0.622500000000E+01  0.110747748820E+01  0.000000000000E+00
  0.622500000000E+01  0.503720627990E+00  0.000000000000E+00
  0.717500000000E+01  0.110747748820E+01  0.000000000000E+00
  0.717500000000E+01  0.503720627990E+00  0.000000000000E+00
  0.812500000000E+01  0.110747748820E+01  0.000000000000E+00
  0.812500000000E+01  0.503720627990E+00  0.000000000000E+00
  0.907500000000E+01  0.110747748820E+01  0.000000000000E+00
  0.907500000000E+01  0.503720627990E+00  0.000000000000E+00
  0.100250000000E+02  0.110747748820E+01  0.000000000000E+00
  0.100250000000E+02  0.503720627990E+00  0.000000000000E+00
  0.109750000000E+02  0.110747748820E+01  0.000000000000E+00
  0.109750000000E+02  0.503720627990E+00  0.000000000000E+00
  0.119250000000E+02  0.110747748820E+01  0.000000000000E+00
  0.119250000000E+02  0.503720627990E+00  0.000000000000E+00
  0.128750000000E+02  0.110747748820E+01  0.000000000000E+00
  0.128750000000E+02  0.503720627990E+00  0.000000000000E+00
  0.138250000000E+02  0.110747748820E+01  0.000000000000E+00
  0.138250000000E+02  0.503720627990E+00  0.000000000000E+00
  0.147750000000E+02  0.110747748820E+01  0.000000000000E+00
  0.147750000000E+02  0.503720627990E+00  0.000000000000E+00
  0.157250000000E+02  0.110747748820E+01  0.000000000000E+00
  0.157250000000E+02  0.503720627990E+00  0.000000000000E+00
  0.166750000000E+02  0.110747748820E+01  0.000000000000E+00
  0.166750000000E+02  0.503720627990E+00  0.000000000000E+00
  0.176250000000E+02  0.110747748820E+01  0.000000000000E+00
  0.176250000000E+02  0.503720627990E+00  0.000000000000E+00
  0.185750000000E+02  0.110747748820E+01  0.000000000000E+00
  0.185750000000E+02  0.503720627990E+00  0.000000000000E+00
  0.195250000000E+02  0.110747748820E+01  0.000000000000E+00
  0.195250000000E+02  0.503720627990E+00  0.000000000000E+00
  0.204750000000E+02  0.110747748820E+01  0.000000000000E+00
  0.204750000000E+02  0.503720627990E+00  0.000000000000E+00
  0.100000000000E+01  0.175813428970E+01  0.000000000000E+00
  0.100000000000E+01  0.110747748820E+01  0.000000000000E+00
  0.242500000000E+01  0.175813428970E+01  0.000000000000E+00
  0.242500000000E+01  0.110747748820E+01  0.000000000000E+00
  0.337500000000E+01  0.175813428970E+01  0.000000000000E+00
  0.337500000000E+01  0.110747748820E+01  0.000000000000E+00
  0.432500000000E+01  0.175813428970E+01  0.000000000000E+00
  0.432500000000E+01  0.110747748820E+01  0.000000000000E+00
  0.527500000000E+01  0.175813428970E+01  0.000000000000E+00
  0.527500000000E+01  0.110747748820E+01  0.000000000000E+00
  0.622500000000E+01  0.175813428970E+01  0.000000000000E+00
  0.622500000000E+01  0.110747748820E+01  0.000000000000E+00
  0.717500000000E+01  0.175813428970E+01  0.000000000000E+00
  0.717500000000E+01  0.110747748820E+01  0.000000000000E+00
  0.812500000000E+01  0.175813428970E+01  0.000000000000E+00
  0.812500000000E+01  0.110747748820E+01  0.000000000000E+00
  0.907500000000E+01  0.175813428970E+01  0.000000000000E+00
  0.907500000000E+01  0.110747748820E+01  0.000000000000E+00
  0.100250000000E+02  0.175813428970E+01  0.000000000000E+00
  0.100250000000E+02  0.110747748820E+01  0.000000000000E+00
  0.109750000000E+02  0.175813428970E+01  0.000000000000E+00
  0.109750000000E+02  0.110747748820E+01  0.000000000000E+00
  0.119250000000E+02  0.175813428970E+01  0.000000000000E+00
  0.119250000000E+02  0.110747748820E+01  0.000000000000E+00
  0.128750000000E+02  0.175813428970E+01  0.000000000000E+00
  0.128750000000E+02  0.110747748820E+01  0.000000000000E+00
  0.138250000000E+02  0.175813428970E+01  0.000000000000E+00
  0.138250000000E+02  0.110747748820E+01  0.000000000000E+00
  0.147750000000E+02  0.175813428970E+01  0.000000000000E+00
  0.147750000000E+02  0.110747748820E+01  0.000000000000E+00
  0.157250000000E+02  0.175813428970E+01  0.000000000000E+00
  0.157250000000E+02  0.110747748820E+01  0.000000000000E+00
  0.166750000000E+02  0.175813428970E+01  0.000000000000E+00
  0.166750000000E+02  0.110747748820E+01  0.000000000000E+00
  0.176250000000E+02  0.175813428970E+01  0.000000000000E+00
  0.176250000000E+02  0.110747748820E+01  0.000000000000E+00
  0.185750000000E+02  0.175813428970E+01  0.000000000000E+00
  0.185750000000E+02  0.110747748820E+01  0.000000000000E+00
  0.195250000000E+02  0.175813428970E+01  0.000000000000E+00
  0.195250000000E+02  0.110747748820E+01  0.000000000000E+00
  0.204750000000E+02  0.175813428970E+01  0.000000000000E+00
  0.204750000000E+02  0.110747748820E+01  0.000000000000E+00
  0.100000000000E+01  0.238369488720E+01  0.000000000000E+00
  0.100000000000E+01  0.175813428970E+01  0.000000000000E+00
  0.242500000000E+01  0.238369488720E+01  0.000000000000E+00
  0.242500000000E+01  0.175813428970E+01  0.000000000000E+00
  0.337500000000E+01  0.238369488720E+01  0.000000000000E+00
  0.337500000000E+01  0.175813428970E+01  0.000000000000E+00
  0.432500000000E+01  0.238369488720E+01  0.000000000000E+00
  0.432500000000E+01  0.175813428970E+01  0.000000000000E+00
  0.527500000000E+01  0.238369488720E+01  0.000000000000E+00
  0.527500000000E+01  0.175813428970E+01  0.000000000000E+00
  0.622500000000E+01  0.238369488720E+01  0.000000000000E+00
  0.622500000000E+01  0.175813428970E+01  0.000000000000E+00
  0.717500000000E+01  0.238369488720E+01  0.000000000000E+00
  0.717500000000E+01  0.175813428970E+01  0.000000000000E+00
  0.812500000000E+01  0.238369488720E+01  0.000000000000E+00
  0.812500000000E+01  0.175813428970E+01  0.000000000000E+00
  0.907500000000E+01  0.238369488720E+01  0.000000000000E+00
  0.907500000000E+01  0.175813428970E+01  0.000000000000E+00
  0.100250000000E+02  0.238369488720E+01  0.000000000000E+00
  0.100250000000E+02  0.175813428970E+01  0.000000000000E+00
  0.109750000000E+02  0.238369488720E+01  0.000000000000E+00
  0.109750000000E+02  0.175813428970E+01  0.000000000000E+00
  0.119250000000E+02  0.238369488720E+01  0.000000000000E+00
  0.119250000000E+02  0.175813428970E+01  0.000000000000E+00
  0.128750000000E+02  0.238369488720E+01  0.000000000000E+00
  0.128750000000E+02  0.175813428970E+01  0.000000000000E+00
  0.138250000000E+02  0.238369488720E+01  0.000000000000E+00
  0.138250000000E+02  0.175813428970E+01  0.000000000000E+00
  0.147750000000E+02  0.238369488720E+01  0.000000000000E+00
  0.147750000000E+02  0.175813428970E+01  0.000000000000E+00
  0.157250000000E+02  0.238369488720E+01  0.000000000000E+00
  0.157250000000E+02  0.175813428970E+01  0.000000000000E+00
  0.166750000000E+02  0.238369488720E+01  0.000000000000E+00
  0.166750000000E+02  0.175813428970E+01  0.000000000000E+00
  0.176250000000E+02  0.238369488720E+01  0.000000000000E+00
[...]
POINT_DATA                 378
SCALARS mu float 1
LOOKUP_TABLE default
  0.116261167360E-12
 -0.574266328934E-12
  0.116261167360E-12
 -0.574266328934E-12
  0.116261167360E-12
 -0.574266328934E-12
  0.116261167360E-12
 -0.574266328934E-12
  0.116261167360E-12
 -0.574266328934E-12
  0.116261167360E-12
 -0.574266328934E-12
  0.116261167360E-12
 -0.574266328934E-12
  0.116261167360E-12
 -0.574266328934E-12
  0.116261167360E-12
 -0.574266328934E-12
  0.116261167360E-12
 -0.574266328934E-12
  0.116261167360E-12
 -0.574266328934E-12
  0.116261167360E-12
 -0.574266328934E-12
  0.116261167360E-12
 -0.574266328934E-12
  0.116261167360E-12
 -0.574266328934E-12
  0.116261167360E-12
 -0.574266328934E-12
  0.116261167360E-12
 -0.574266328934E-12
  0.116261167360E-12
 -0.574266328934E-12
  0.116261167360E-12
 -0.574266328934E-12
  0.116261167360E-12
 -0.574266328934E-12
  0.116261167360E-12
 -0.574266328934E-12
  0.116261167360E-12
 -0.574266328934E-12
 -0.287790624665E-13
  0.116261167360E-12
 -0.287790624665E-13
  0.116261167360E-12
 -0.287790624665E-13
  0.116261167360E-12
 -0.287790624665E-13
  0.116261167360E-12
 -0.287790624665E-13
  0.116261167360E-12
 -0.287790624665E-13
  0.116261167360E-12
 -0.287790624665E-13
  0.116261167360E-12
 -0.287790624665E-13
  0.116261167360E-12
 -0.287790624665E-13
  0.116261167360E-12
 -0.287790624665E-13
  0.116261167360E-12
 -0.287790624665E-13
  0.116261167360E-12
 -0.287790624665E-13
  0.116261167360E-12
 -0.287790624665E-13
  0.116261167360E-12
 -0.287790624665E-13
  0.116261167360E-12
 -0.287790624665E-13
  0.116261167360E-12
 -0.287790624665E-13
  0.116261167360E-12
 -0.287790624665E-13
  0.116261167360E-12
 -0.287790624665E-13
  0.116261167360E-12
 -0.287790624665E-13
  0.116261167360E-12
 -0.287790624665E-13
  0.116261167360E-12
 -0.287790624665E-13
  0.116261167360E-12
 -0.111632925126E-12
 -0.287790624665E-13
 -0.111632925126E-12
 -0.287790624665E-13
 -0.111632925126E-12
 -0.287790624665E-13
 -0.111632925126E-12
 -0.287790624665E-13
 -0.111632925126E-12
 -0.287790624665E-13
 -0.111632925126E-12
 -0.287790624665E-13
 -0.111632925126E-12
 -0.287790624665E-13
 -0.111632925126E-12
 -0.287790624665E-13
 -0.111632925126E-12
 -0.287790624665E-13
 -0.111632925126E-12
 -0.287790624665E-13
 -0.111632925126E-12
 -0.287790624665E-13
 -0.111632925126E-12
 -0.287790624665E-13
 -0.111632925126E-12
 -0.287790624665E-13
 -0.111632925126E-12
 -0.287790624665E-13
 -0.111632925126E-12
 -0.287790624665E-13
 -0.111632925126E-12
 -0.287790624665E-13
 -0.111632925126E-12
 -0.287790624665E-13
 -0.111632925126E-12
 -0.287790624665E-13
 -0.111632925126E-12
 -0.287790624665E-13
 -0.111632925126E-12
 -0.287790624665E-13
 -0.111632925126E-12
 -0.287790624665E-13
 -0.132782673745E-12
 -0.111632925126E-12
 -0.132782673745E-12
 -0.111632925126E-12
 -0.132782673745E-12
 -0.111632925126E-12
 -0.132782673745E-12
 -0.111632925126E-12
 -0.132782673745E-12
 -0.111632925126E-12
 -0.132782673745E-12
 -0.111632925126E-12
 -0.132782673745E-12
 -0.111632925126E-12
 -0.132782673745E-12
 -0.111632925126E-12
 -0.132782673745E-12
 -0.111632925126E-12
 -0.132782673745E-12
 -0.111632925126E-12
 -0.132782673745E-12
 -0.111632925126E-12
 -0.132782673745E-12
 -0.111632925126E-12
 -0.132782673745E-12
 -0.111632925126E-12
 -0.132782673745E-12
 -0.111632925126E-12
 -0.132782673745E-12
 -0.111632925126E-12
 -0.132782673745E-12
 -0.111632925126E-12
 -0.132782673745E-12
 -0.111632925126E-12
 -0.132782673745E-12
 -0.111632925126E-12
 -0.132782673745E-12
 -0.111632925126E-12
 -0.132782673745E-12
 -0.111632925126E-12
 -0.132782673745E-12
 -0.111632925126E-12
  0.486832796298E-13
 -0.132782673745E-12
  0.486832796298E-13
 -0.132782673745E-12
  0.486832796298E-13
 -0.132782673745E-12
  0.486832796298E-13
 -0.132782673745E-12
  0.486832796298E-13
 -0.132782673745E-12
  0.486832796298E-13
 -0.132782673745E-12
  0.486832796298E-13
 -0.132782673745E-12
  0.486832796298E-13
 -0.132782673745E-12
  0.486832796298E-13
 -0.132782673745E-12
  0.486832796298E-13
 -0.132782673745E-12
  0.486832796298E-13
 -0.132782673745E-12
  0.486832796298E-13
 -0.132782673745E-12
  0.486832796298E-13
 -0.132782673745E-12
  0.486832796298E-13
 -0.132782673745E-12
  0.486832796298E-13
 -0.132782673745E-12
  0.486832796298E-13
 -0.132782673745E-12
  0.486832796298E-13
 -0.132782673745E-12
  0.486832796298E-13
 -0.132782673745E-12
  0.486832796298E-13
 -0.132782673745E-12
  0.486832796298E-13
 -0.132782673745E-12
  0.486832796298E-13
 -0.132782673745E-12
 -0.518102921676E-12
  0.486832796298E-13
 -0.518102921676E-12
  0.486832796298E-13
 -0.518102921676E-12
  0.486832796298E-13
 -0.518102921676E-12
  0.486832796298E-13
 -0.518102921676E-12
  0.486832796298E-13
 -0.518102921676E-12
  0.486832796298E-13
 -0.518102921676E-12
  0.486832796298E-13
 -0.518102921676E-12
  0.486832796298E-13
 -0.518102921676E-12
  0.486832796298E-13
 -0.518102921676E-12
  0.486832796298E-13
 -0.518102921676E-12
  0.486832796298E-13
 -0.518102921676E-12
  0.486832796298E-13
 -0.518102921676E-12
  0.486832796298E-13
 -0.518102921676E-12
  0.486832796298E-13
 -0.518102921676E-12
  0.486832796298E-13
 -0.518102921676E-12
  0.486832796298E-13
 -0.518102921676E-12
  0.486832796298E-13
 -0.518102921676E-12
  0.486832796298E-13
 -0.518102921676E-12
  0.486832796298E-13
 -0.518102921676E-12
  0.486832796298E-13
 -0.518102921676E-12
  0.486832796298E-13
 -0.700897673234E-13
 -0.518102921676E-12
 -0.700897673234E-13
 -0.518102921676E-12
 -0.700897673234E-13
 -0.518102921676E-12
 -0.700897673234E-13
 -0.518102921676E-12
 -0.700897673234E-13
 -0.518102921676E-12
 -0.700897673234E-13
 -0.518102921676E-12
 -0.700897673234E-13
 -0.518102921676E-12
 -0.700897673234E-13
 -0.518102921676E-12
 -0.700897673234E-13
 -0.518102921676E-12
 -0.700897673234E-13
 -0.518102921676E-12
 -0.700897673234E-13
 -0.518102921676E-12
 -0.700897673234E-13
 -0.518102921676E-12
 -0.700897673234E-13
 -0.518102921676E-12
 -0.700897673234E-13
 -0.518102921676E-12
 -0.700897673234E-13
 -0.518102921676E-12
 -0.700897673234E-13
 -0.518102921676E-12
 -0.700897673234E-13
 -0.518102921676E-12
 -0.700897673234E-13
 -0.518102921676E-12
 -0.700897673234E-13
 -0.518102921676E-12
 -0.700897673234E-13
 -0.518102921676E-12
 -0.700897673234E-13
 -0.518102921676E-12
  0.132099192696E-12
 -0.700897673234E-13
  0.132099192696E-12
 -0.700897673234E-13
  0.132099192696E-12
 -0.700897673234E-13
  0.132099192696E-12
 -0.700897673234E-13
  0.132099192696E-12
 -0.700897673234E-13
  0.132099192696E-12
 -0.700897673234E-13
  0.132099192696E-12
 -0.700897673234E-13
  0.132099192696E-12
 -0.700897673234E-13
  0.132099192696E-12
 -0.700897673234E-13
  0.132099192696E-12
 -0.700897673234E-13
  0.132099192696E-12
 -0.700897673234E-13
  0.132099192696E-12
 -0.700897673234E-13
  0.132099192696E-12
 -0.700897673234E-13
  0.132099192696E-12
 -0.700897673234E-13
  0.132099192696E-12
 -0.700897673234E-13
  0.132099192696E-12
 -0.700897673234E-13
  0.132099192696E-12
 -0.700897673234E-13
  0.132099192696E-12
 -0.700897673234E-13
  0.132099192696E-12
 -0.700897673234E-13
  0.132099192696E-12
 -0.700897673234E-13
  0.132099192696E-12
 -0.700897673234E-13
  0.000000000000E+00
  0.132099192696E-12
  0.000000000000E+00
  0.132099192696E-12
  0.000000000000E+00
  0.132099192696E-12
  0.000000000000E+00
  0.132099192696E-12
  0.000000000000E+00
  0.132099192696E-12
  0.000000000000E+00
  0.132099192696E-12
  0.000000000000E+00
  0.132099192696E-12
  0.000000000000E+00
  0.132099192696E-12
  0.000000000000E+00
  0.132099192696E-12
  0.000000000000E+00
  0.132099192696E-12
  0.000000000000E+00
  0.132099192696E-12
  0.000000000000E+00
  0.132099192696E-12
  0.000000000000E+00
  0.132099192696E-12
  0.000000000000E+00
  0.132099192696E-12
  0.000000000000E+00
  0.132099192696E-12
  0.000000000000E+00
  0.132099192696E-12
  0.000000000000E+00
  0.132099192696E-12
  0.000000000000E+00
  0.132099192696E-12
  0.000000000000E+00
  0.132099192696E-12
  0.000000000000E+00
  0.132099192696E-12
  0.000000000000E+00
  0.132099192696E-12
