# vtk DataFile Version 3.0
MachLine results file. Generated by MachLine, USU AeroLab (c) 2022.
ASCII
DATASET POLYDATA
POINTS                1028 float
  0.999999829127E+00  0.000000000000E+00 -0.984794735620E-08
  0.999999829127E+00  0.000000000000E+00  0.984794735620E-08
  0.985311360127E+00  0.224100846140E+00 -0.170433591704E-02
  0.999999833541E+00  0.224100846140E+00 -0.959354331543E-08
  0.999999833541E+00  0.224100846140E+00  0.959354331543E-08
  0.985311361168E+00  0.000000000000E+00 -0.170434450612E-02
  0.965617073854E+00  0.224100846140E+00 -0.394946391076E-02
  0.965617074885E+00  0.000000000000E+00 -0.394947244429E-02
  0.939523288599E+00  0.224100846140E+00 -0.685455583922E-02
  0.939523289615E+00  0.000000000000E+00 -0.685456428762E-02
  0.905490034742E+00  0.224100846140E+00 -0.105276175367E-01
  0.905490035739E+00  0.000000000000E+00 -0.105276258662E-01
  0.862001334753E+00  0.224100846140E+00 -0.150369145320E-01
  0.862001335726E+00  0.000000000000E+00 -0.150369227159E-01
  0.807861727565E+00  0.224100846140E+00 -0.203684391538E-01
  0.807861728515E+00  0.000000000000E+00 -0.203684471943E-01
  0.742610002834E+00  0.224100846140E+00 -0.263729262957E-01
  0.742610003769E+00  0.000000000000E+00 -0.263729342471E-01
  0.666965291290E+00  0.224100846140E+00 -0.327304961564E-01
  0.666965292226E+00  0.000000000000E+00 -0.327305041308E-01
  0.583124103494E+00  0.224100846140E+00 -0.389240482154E-01
  0.583124104445E+00  0.000000000000E+00 -0.389240563546E-01
  0.494699899348E+00  0.224100846140E+00 -0.442890860067E-01
  0.494699901042E+00  0.000000000000E+00 -0.442891185387E-01
  0.406197039478E+00  0.000000000000E+00 -0.481349861665E-01
  0.406197039892E+00  0.224100846140E+00 -0.481349779633E-01
  0.322148055219E+00  0.000000000000E+00 -0.499218575114E-01
  0.322148055999E+00  0.224100846140E+00 -0.499218494805E-01
  0.246240748577E+00  0.000000000000E+00 -0.494244870127E-01
  0.246240749774E+00  0.224100846140E+00 -0.494244790334E-01
  0.180771092266E+00  0.000000000000E+00 -0.467581209766E-01
  0.180771093956E+00  0.224100846140E+00 -0.467581129669E-01
  0.126557853185E+00  0.000000000000E+00 -0.422893695050E-01
  0.126557855512E+00  0.224100846140E+00 -0.422893614628E-01
  0.832331879551E-01  0.000000000000E+00 -0.364526705652E-01
  0.832331912033E-01  0.224100846140E+00 -0.364526625978E-01
  0.497093860901E-01  0.000000000000E+00 -0.295748066215E-01
  0.497093908815E-01  0.224100846140E+00 -0.295747990491E-01
  0.246817165165E-01  0.000000000000E+00 -0.217020928577E-01
  0.246817245817E-01  0.224100846140E+00 -0.217020868542E-01
  0.732375680136E-02  0.000000000000E+00 -0.122713044518E-01
  0.732377343280E-02  0.224100846140E+00 -0.122713075418E-01
  0.171875902401E-06  0.000000000000E+00  0.000000000000E+00
  0.167397275294E-06  0.224100846140E+00  0.000000000000E+00
  0.732377343280E-02  0.224100846140E+00  0.122713075418E-01
  0.732375680136E-02  0.000000000000E+00  0.122713044518E-01
  0.246817245817E-01  0.224100846140E+00  0.217020868542E-01
  0.246817165165E-01  0.000000000000E+00  0.217020928577E-01
  0.497093908815E-01  0.224100846140E+00  0.295747990491E-01
  0.497093860901E-01  0.000000000000E+00  0.295748066215E-01
  0.832331912033E-01  0.224100846140E+00  0.364526625978E-01
  0.832331879551E-01  0.000000000000E+00  0.364526705652E-01
  0.126557855512E+00  0.224100846140E+00  0.422893614628E-01
  0.126557853185E+00  0.000000000000E+00  0.422893695050E-01
  0.180771093956E+00  0.224100846140E+00  0.467581129669E-01
  0.180771092266E+00  0.000000000000E+00  0.467581209766E-01
  0.246240749774E+00  0.224100846140E+00  0.494244790334E-01
  0.246240748577E+00  0.000000000000E+00  0.494244870127E-01
  0.322148055999E+00  0.224100846140E+00  0.499218494805E-01
  0.322148055219E+00  0.000000000000E+00  0.499218575114E-01
  0.406197039892E+00  0.224100846140E+00  0.481349779633E-01
  0.406197039478E+00  0.000000000000E+00  0.481349861665E-01
  0.494699899348E+00  0.224100846140E+00  0.442890860067E-01
  0.494699901042E+00  0.000000000000E+00  0.442891185387E-01
  0.583124104445E+00  0.000000000000E+00  0.389240563546E-01
  0.583124103494E+00  0.224100846140E+00  0.389240482154E-01
  0.666965292226E+00  0.000000000000E+00  0.327305041308E-01
  0.666965291290E+00  0.224100846140E+00  0.327304961564E-01
  0.742610003769E+00  0.000000000000E+00  0.263729342471E-01
  0.742610002834E+00  0.224100846140E+00  0.263729262957E-01
  0.807861728515E+00  0.000000000000E+00  0.203684471943E-01
  0.807861727565E+00  0.224100846140E+00  0.203684391538E-01
  0.862001335726E+00  0.000000000000E+00  0.150369227159E-01
  0.862001334753E+00  0.224100846140E+00  0.150369145320E-01
  0.905490035739E+00  0.000000000000E+00  0.105276258662E-01
  0.905490034742E+00  0.224100846140E+00  0.105276175367E-01
  0.939523289615E+00  0.000000000000E+00  0.685456428762E-02
  0.939523288599E+00  0.224100846140E+00  0.685455583922E-02
  0.965617074885E+00  0.000000000000E+00  0.394947244429E-02
  0.965617073854E+00  0.224100846140E+00  0.394946391076E-02
  0.985311361168E+00  0.000000000000E+00  0.170434450612E-02
  0.985311360127E+00  0.224100846140E+00  0.170433591704E-02
  0.985311358240E+00  0.474396230640E+00 -0.170431951195E-02
  0.999999817592E+00  0.474396230640E+00 -0.105127165937E-07
  0.999999817592E+00  0.474396230640E+00  0.105127165937E-07
  0.965617072007E+00  0.474396230640E+00 -0.394944751630E-02
  0.939523286803E+00  0.474396230640E+00 -0.685453946396E-02
  0.905490033013E+00  0.474396230640E+00 -0.105276011933E-01
  0.862001333106E+00  0.474396230640E+00 -0.150368982363E-01
  0.807861726019E+00  0.474396230640E+00 -0.203684229220E-01
  0.742610001412E+00  0.474396230640E+00 -0.263729101377E-01
  0.666965290020E+00  0.474396230640E+00 -0.327304800687E-01
  0.583124102415E+00  0.474396230640E+00 -0.389240321760E-01
  0.494699898493E+00  0.474396230640E+00 -0.442890695842E-01
  0.406197039372E+00  0.474396230640E+00 -0.481349618961E-01
  0.322148055881E+00  0.474396230640E+00 -0.499218333432E-01
  0.246240750157E+00  0.474396230640E+00 -0.494244628174E-01
  0.180771094957E+00  0.474396230640E+00 -0.467580966923E-01
  0.126557857279E+00  0.474396230640E+00 -0.422893451796E-01
  0.832331939535E-01  0.474396230640E+00 -0.364526463948E-01
  0.497093950138E-01  0.474396230640E+00 -0.295747831024E-01
  0.246817310251E-01  0.474396230640E+00 -0.217020716662E-01
  0.732378487180E-02  0.474396230640E+00 -0.122712956313E-01
  0.183453479983E-06  0.474396230640E+00  0.000000000000E+00
  0.732378487180E-02  0.474396230640E+00  0.122712956313E-01
  0.246817310251E-01  0.474396230640E+00  0.217020716662E-01
  0.497093950138E-01  0.474396230640E+00  0.295747831024E-01
  0.832331939535E-01  0.474396230640E+00  0.364526463948E-01
  0.126557857279E+00  0.474396230640E+00  0.422893451796E-01
  0.180771094957E+00  0.474396230640E+00  0.467580966923E-01
  0.246240750157E+00  0.474396230640E+00  0.494244628174E-01
  0.322148055881E+00  0.474396230640E+00  0.499218333432E-01
  0.406197039372E+00  0.474396230640E+00  0.481349618961E-01
  0.494699898493E+00  0.474396230640E+00  0.442890695842E-01
  0.583124102415E+00  0.474396230640E+00  0.389240321760E-01
  0.666965290020E+00  0.474396230640E+00  0.327304800687E-01
  0.742610001412E+00  0.474396230640E+00  0.263729101377E-01
  0.807861726019E+00  0.474396230640E+00  0.203684229220E-01
  0.862001333106E+00  0.474396230640E+00  0.150368982363E-01
  0.905490033013E+00  0.474396230640E+00  0.105276011933E-01
  0.939523286803E+00  0.474396230640E+00  0.685453946396E-02
  0.965617072007E+00  0.474396230640E+00  0.394944751630E-02
  0.985311358240E+00  0.474396230640E+00  0.170431951195E-02
  0.985311356636E+00  0.748095716550E+00 -0.170430556487E-02
  0.999999804411E+00  0.748095716550E+00 -0.112723939176E-07
  0.999999804411E+00  0.748095716550E+00  0.112723939176E-07
  0.965617070437E+00  0.748095716550E+00 -0.394943357612E-02
  0.939523285277E+00  0.748095716550E+00 -0.685452553663E-02
  0.905490031542E+00  0.748095716550E+00 -0.105275872876E-01
  0.862001331704E+00  0.748095716550E+00 -0.150368843637E-01
  0.807861724702E+00  0.748095716550E+00 -0.203684090939E-01
  0.742610000199E+00  0.748095716550E+00 -0.263728963617E-01
  0.666965288936E+00  0.748095716550E+00 -0.327304663424E-01
  0.583124101494E+00  0.748095716550E+00 -0.389240184837E-01
  0.494699897744E+00  0.748095716550E+00 -0.442890551876E-01
  0.406197038928E+00  0.748095716550E+00 -0.481349481800E-01
  0.322148055779E+00  0.748095716550E+00 -0.499218195745E-01
  0.246240750484E+00  0.748095716550E+00 -0.494244489919E-01
  0.180771095811E+00  0.748095716550E+00 -0.467580828279E-01
  0.126557858783E+00  0.748095716550E+00 -0.422893313176E-01
  0.832331962936E-01  0.748095716550E+00 -0.364526326087E-01
  0.497093985285E-01  0.748095716550E+00 -0.295747695396E-01
  0.246817365039E-01  0.748095716550E+00 -0.217020587518E-01
  0.732379459681E-02  0.748095716550E+00 -0.122712855056E-01
  0.196723479728E-06  0.748095716550E+00  0.000000000000E+00
  0.732379459681E-02  0.748095716550E+00  0.122712855056E-01
  0.246817365039E-01  0.748095716550E+00  0.217020587518E-01
  0.497093985285E-01  0.748095716550E+00  0.295747695396E-01
  0.832331962936E-01  0.748095716550E+00  0.364526326087E-01
  0.126557858783E+00  0.748095716550E+00  0.422893313176E-01
  0.180771095811E+00  0.748095716550E+00  0.467580828279E-01
  0.246240750484E+00  0.748095716550E+00  0.494244489919E-01
  0.322148055779E+00  0.748095716550E+00  0.499218195745E-01
  0.406197038928E+00  0.748095716550E+00  0.481349481800E-01
  0.494699897744E+00  0.748095716550E+00  0.442890551876E-01
  0.583124101494E+00  0.748095716550E+00  0.389240184837E-01
  0.666965288936E+00  0.748095716550E+00  0.327304663424E-01
  0.742610000199E+00  0.748095716550E+00  0.263728963617E-01
  0.807861724702E+00  0.748095716550E+00  0.203684090939E-01
  0.862001331704E+00  0.748095716550E+00  0.150368843637E-01
  0.905490031542E+00  0.748095716550E+00  0.105275872876E-01
[...]
POINT_DATA                1028
SCALARS phi float 1
LOOKUP_TABLE default
 -0.182180659447E-13
  0.198591143530E-13
  0.142490186317E-13
 -0.347638584586E-14
  0.957567358739E-14
 -0.312944115066E-14
  0.555111512313E-16
  0.515212872365E-14
 -0.121291865440E-13
  0.638378239159E-15
 -0.768135555163E-14
  0.926342336172E-15
 -0.250494069931E-14
  0.641847686111E-15
 -0.344863027024E-14
  0.586336534880E-15
 -0.451028103754E-16
  0.180411241502E-15
  0.262290189568E-14
  0.770217223334E-15
 -0.346944695195E-15
  0.780625564190E-15
  0.761543605954E-15
  0.114318277067E-14
  0.106837282077E-14
  0.316240089671E-14
  0.511743425413E-15
  0.360822483003E-14
 -0.416333634234E-15
  0.180411241502E-14
 -0.180411241502E-14
 -0.135308431126E-15
 -0.174860126378E-14
 -0.144328993201E-14
 -0.301841884820E-14
 -0.184574577844E-14
 -0.250494069931E-14
 -0.170002900646E-14
 -0.193595139919E-14
 -0.127675647832E-14
 -0.108940634291E-14
 -0.340005801291E-15
 -0.777156117238E-15
 -0.179023462721E-14
 -0.374700270811E-15
  0.534294830601E-15
  0.173472347598E-15
  0.485722573274E-15
  0.119348975147E-14
  0.140165656859E-14
  0.157512891619E-14
  0.140165656859E-14
  0.884708972748E-15
  0.607153216592E-15
 -0.263677968348E-15
  0.111022302463E-15
 -0.139992184511E-14
 -0.106858966120E-14
 -0.211679632156E-14
 -0.200599085953E-14
 -0.242687814289E-14
 -0.228636554134E-14
 -0.313291059761E-14
 -0.107552855511E-14
 -0.136696209907E-14
 -0.194289029309E-14
 -0.794503351997E-15
  0.154390389362E-14
  0.173472347598E-16
  0.412864187282E-14
  0.388578058619E-15
  0.435415592470E-14
 -0.624500451352E-16
  0.682093270754E-14
  0.548172618409E-15
  0.442007541679E-14
  0.478783679370E-15
  0.964853197338E-14
 -0.378169717763E-14
 -0.372271657945E-14
  0.426741975090E-14
 -0.919750386963E-14
 -0.134267597041E-14
 -0.439925873508E-14
  0.664052146604E-14
 -0.630398511170E-14
  0.359087759527E-14
  0.655725473919E-15
  0.690072998744E-14
  0.154390389362E-14
  0.256739074445E-14
  0.586336534880E-14
  0.417721413015E-14
  0.202962646689E-14
  0.203613167993E-14
  0.255351295664E-14
  0.200534033823E-14
  0.621031004400E-15
 -0.784095011142E-15
 -0.225514051877E-14
 -0.222738494315E-14
 -0.148492329544E-14
 -0.166533453694E-14
  0.451028103754E-15
 -0.680011602583E-15
 -0.527355936697E-15
  0.610622663544E-15
  0.631439345256E-15
 -0.544703171457E-15
 -0.216840434497E-14
 -0.346771222848E-14
 -0.314006633195E-14
 -0.217881268583E-14
 -0.355444840228E-14
 -0.349720252757E-14
 -0.249800180541E-15
 -0.197758476261E-15
  0.374700270811E-15
 -0.825728374565E-15
 -0.888178419700E-15
  0.596744875736E-15
  0.555111512313E-15
 -0.341393580072E-14
 -0.323352455922E-14
 -0.154806722996E-13
  0.127849120179E-13
 -0.190125692967E-14
 -0.465252836257E-14
  0.248412401760E-14
  0.177635683940E-14
  0.412517242587E-14
  0.631439345256E-15
 -0.180411241502E-15
  0.212677098155E-14
  0.544269490588E-14
  0.521414508792E-14
  0.345556916415E-14
  0.174166236988E-14
  0.763278329430E-15
  0.104083408559E-15
 -0.423272528138E-15
  0.117961196366E-15
  0.867361737988E-15
  0.133226762955E-14
  0.199840144433E-14
 -0.548172618409E-15
 -0.342087469463E-14
 -0.351801920928E-14
 -0.342781358853E-14
 -0.241820452551E-14
 -0.151614831800E-14
 -0.915933995316E-15
 -0.167335763301E-14
 -0.380164649760E-14
 -0.614612527539E-14
 -0.454844495401E-14
 -0.164104840827E-14
 -0.475314232418E-15
  0.120736753928E-14
  0.194982918700E-14
  0.232452945781E-15
 -0.985322934355E-15
 -0.724767468263E-14
  0.267147415300E-14
 -0.847932835057E-14
 -0.854698256614E-13
  0.873606742502E-13
  0.980118763927E-14
  0.481212292236E-14
  0.288311041707E-14
 -0.313291059761E-14
 -0.707767178199E-14
 -0.786176679313E-14
 -0.422578638748E-14
 -0.121083698623E-14
 -0.108506953422E-14
 -0.185723832147E-14
 -0.938485400503E-15
 -0.364291929955E-15
 -0.130451205393E-14
 -0.310862446895E-14
 -0.475314232418E-14
 -0.473232564246E-14
 -0.393435284352E-14
 -0.195676808090E-14
 -0.256739074445E-15
  0.985322934355E-15
  0.279637424327E-14
  0.473926453637E-14
  0.507927033766E-14
  0.374006381421E-14
  0.144675937896E-14
 -0.334801630864E-15
 -0.312250225676E-16
  0.209728068246E-14
  0.289178403445E-14
  0.320923843056E-14
  0.438191150032E-14
  0.862504512256E-14
  0.981159598012E-14
  0.381639164715E-15
 -0.114491749414E-14
 -0.742461647718E-15
 -0.449987269668E-14
  0.834401991945E-14
 -0.151614831800E-13
 -0.558823820551E-13
  0.536619360059E-13
  0.191166527053E-14
  0.647398801235E-14
  0.685215773011E-14
  0.126634813746E-14
 -0.423272528138E-14
 -0.601949046164E-14
 -0.315372727933E-14
  0.428476698566E-15
  0.125160298792E-14
 -0.843726130628E-15
 -0.207299455379E-14
 -0.173472347598E-14
 -0.634908792208E-15
  0.346944695195E-16
  0.846545056277E-15
  0.256045185054E-14
  0.344169137634E-14
  0.384414722276E-14
  0.444089209850E-14
  0.173472347598E-14
 -0.222044604925E-15
 -0.603683769640E-15
 -0.208166817117E-16
  0.274086309204E-15
  0.961036805691E-15
  0.218575157973E-14
  0.298610962346E-14
  0.301147995430E-14
  0.216320017454E-14
  0.339658856596E-14
  0.551295120665E-14
  0.472885619551E-14
 -0.322658566532E-15
 -0.791727794436E-14
 -0.120806142867E-13
 -0.780972508885E-14
  0.988792381307E-15
  0.167851843536E-13
 -0.202719785403E-13
 -0.910313491254E-13
  0.911770658973E-13
  0.105263020522E-13
  0.124379673228E-13
  0.837871438897E-14
  0.413558076673E-14
 -0.472191730161E-14
 -0.727889970520E-14
 -0.418068357710E-14
 -0.395170007828E-14
 -0.225514051877E-14
  0.694106230825E-15
  0.313291059761E-14
  0.423272528138E-14
  0.370189989773E-14
  0.252575738102E-14
  0.109634523682E-14
  0.520417042793E-15
  0.298372437868E-15
 -0.485722573274E-15
 -0.478783679370E-15
 -0.175554015769E-14
 -0.228983498829E-14
 -0.170696790036E-14
 -0.163757896132E-14
 -0.216840434497E-14
 -0.273739364509E-14
 -0.257953380878E-14
 -0.181278603240E-14
 -0.898586760556E-15
 -0.138604405731E-14
 -0.208513761812E-14
 -0.229677388219E-14
 -0.277555756156E-16
  0.249800180541E-14
 -0.256739074445E-14
 -0.124379673228E-13
 -0.110814135645E-13
 -0.580438475062E-14
  0.267494359996E-13
  0.232799890476E-14
 -0.508100506114E-13
  0.481906181626E-13
  0.696664947952E-14
 -0.553723733532E-14
 -0.123269450203E-13
 -0.877076189454E-14
 -0.599867377993E-14
 -0.316066617323E-14
  0.214758766326E-14
  0.240432673770E-14
  0.542968447981E-15
  0.358003557355E-15
  0.113971332372E-14
  0.148145384848E-14
  0.742461647718E-15
 -0.721644966006E-15
 -0.149880108324E-14
 -0.118655085757E-14
 -0.513478148889E-15
  0.950628464835E-15
  0.108940634291E-14
  0.978384040451E-15
  0.346944695195E-16
  0.402455846427E-15
  0.763278329430E-16
 -0.544703171457E-15
 -0.171737624122E-14
 -0.254830878621E-14
 -0.220515879862E-14
 -0.135308431126E-14
 -0.584601811404E-15
  0.109634523682E-14
  0.323005511227E-14
  0.586683479575E-14
  0.847238945667E-14
  0.116087695012E-13
  0.129340982369E-13
  0.513825093584E-14
 -0.103632380455E-13
 -0.988098491916E-14
 -0.254692100743E-13
 -0.962702140228E-13
  0.102810121527E-12
  0.927730114952E-14
  0.693542445696E-14
  0.964506252643E-14
  0.697011892647E-14
  0.489885909616E-14
  0.380945275325E-14
  0.306352165858E-14
  0.690419943439E-15
 -0.186656246015E-14
 -0.321877940967E-14
 -0.202962646689E-14
  0.385108611667E-15
  0.202615701994E-14
  0.272004641033E-14
  0.226207941267E-14
  0.176941794550E-14
  0.110328413072E-14
  0.548172618409E-15
 -0.169309011255E-14
 -0.154043444667E-14
 -0.241473507856E-14
 -0.178329573330E-14
 -0.161676227961E-14
 -0.200534033823E-14
 -0.261596300177E-14
 -0.291433543964E-14
 -0.282141931346E-14
 -0.301928620994E-14
 -0.371751240902E-14
 -0.192207361138E-14
  0.166186508999E-14
  0.256392129749E-14
 -0.105818132035E-14
 -0.714706072102E-14
 -0.933975119466E-14
 -0.607847105982E-14
 -0.739686090157E-14
  0.212607709216E-13
 -0.109461051334E-13
 -0.891405005365E-13
  0.897927565635E-13
  0.580091530367E-14
  0.364985819346E-14
  0.124900090270E-15
  0.139818712164E-14
 -0.149186218934E-15
 -0.378169717763E-15
  0.185615411930E-14
  0.274433253900E-14
  0.174339709336E-14
  0.692046246697E-15
  0.186656246015E-14
  0.379210551849E-14
  0.482253126322E-14
  0.426741975090E-14
  0.247024622979E-14
  0.992261828259E-15
  0.242861286637E-15
 -0.164451785523E-14
 -0.298372437868E-15
 -0.359434704222E-14
 -0.284494650060E-14
 -0.291433543964E-14
 -0.317801340799E-14
 -0.434721703080E-14
 -0.541233724505E-14
 -0.459181304091E-14
 -0.199655830063E-14
  0.144155520854E-14
  0.209034178855E-14
  0.160982338571E-14
  0.150573997715E-14
  0.470803951380E-14
  0.795891130778E-14
  0.244942954808E-14
 -0.307392999943E-14
 -0.648786580015E-14
 -0.604724603726E-14
  0.769523333943E-14
 -0.636296570988E-14
 -0.897337759653E-13
  0.896990814958E-13
  0.652602971662E-14
 -0.126634813746E-14
 -0.779584730104E-14
 -0.102001740387E-13
 -0.117336695915E-13
 -0.740379979547E-14
 -0.376434994287E-14
 -0.512090370108E-14
 -0.217447587714E-14
  0.321585206381E-14
  0.747839290494E-14
  0.817401701880E-14
  0.700828284295E-14
  0.476702011198E-14
  0.318495230189E-14
  0.276861866766E-14
  0.243555176027E-14
  0.291433543964E-14
 -0.283800760670E-14
 -0.180411241502E-14
 -0.548866507799E-14
 -0.598132654517E-14
 -0.538458166943E-14
 -0.384761666972E-14
 -0.284494650060E-14
 -0.189084858881E-14
 -0.171238891122E-14
 -0.127502175484E-14
 -0.289698820488E-15
  0.353536644404E-14
  0.850361447924E-14
  0.116885667811E-13
  0.102660935308E-13
  0.480171458150E-14
 -0.220309881449E-14
 -0.377822773068E-14
 -0.930852617209E-14
  0.105124242644E-14
 -0.139749323225E-13
 -0.306213387979E-13
  0.325919846667E-13
  0.818789480661E-14
  0.160219060241E-13
  0.139610545347E-13
  0.664746035994E-14
 -0.320229953665E-14
 -0.927730114952E-14
 -0.177288739245E-14
  0.215626128064E-14
 -0.181278603240E-15
 -0.178448835569E-14
  0.364291929955E-16
  0.208166817117E-14
  0.339658856596E-14
  0.410782519111E-14
  0.462824223391E-14
  0.480865347541E-14
  0.421884749358E-14
  0.127675647832E-14
  0.480865347541E-14
 -0.301841884820E-14
 -0.384414722276E-14
 -0.394129173742E-14
 -0.360822483003E-14
 -0.347291639891E-14
 -0.318842174885E-14
 -0.204176953122E-14
 -0.100830802041E-16
  0.289351875793E-14
  0.336015937297E-14
  0.311903280981E-14
  0.350414142147E-14
  0.303576608296E-14
  0.402455846427E-15
 -0.453109771925E-14
 -0.142004463743E-13
 -0.989833215392E-14
  0.280331313718E-14
  0.301217384369E-13
 -0.111230469280E-13
 -0.772992780895E-13
  0.633035290853E-13
  0.175207071074E-14
 -0.159941504485E-14
 -0.867361737988E-16
  0.508620923156E-14
 -0.843075609325E-15
 -0.133573707650E-14
  0.321617732446E-14
 -0.314505366195E-14
 -0.580178266540E-14
 -0.257221544411E-14
  0.426741975090E-15
  0.143288159116E-14
  0.108940634291E-14
  0.693889390391E-16
 -0.367761376907E-15
 -0.145716771982E-15
  0.416333634234E-15
  0.215105711021E-14
 -0.209554595898E-14
  0.204003480775E-14
  0.846545056277E-15
  0.562050406216E-15
 -0.804911692853E-15
 -0.199493199737E-14
 -0.251881848712E-14
 -0.198105420957E-14
 -0.851749226705E-15
  0.140512601554E-14
  0.342607886505E-14
  0.178676518026E-14
 -0.302535774210E-14
  0.947159017883E-15
  0.116573417586E-14
 -0.650521303491E-14
 -0.214411821631E-14
 -0.312597170371E-14
 -0.691460777524E-14
  0.104603825601E-13
  0.950628464835E-15
  0.594004012644E-13
 -0.544841949335E-13
 -0.232452945781E-15
 -0.177982628635E-14
  0.163064006742E-15
 -0.242861286637E-16
  0.528396770783E-14
  0.580438475062E-14
 -0.386496390448E-14
 -0.188217497143E-14
  0.162717062047E-14
  0.172930246511E-16
 -0.556846235789E-15
  0.378169717763E-15
  0.510008701937E-15
 -0.676542155631E-15
 -0.195676808090E-14
 -0.172778458207E-14
 -0.115185638805E-14
  0.832667268469E-16
  0.544703171457E-14
 -0.721644966006E-15
 -0.196370697481E-14
 -0.589805981832E-15
  0.173125402902E-14
  0.298025493173E-14
  0.326821902874E-14
  0.336536354340E-14
  0.279556786791E-14
 -0.133573707650E-15
 -0.272872002771E-14
  0.109287578987E-14
  0.243208231332E-14
 -0.478089789979E-14
 -0.243902120722E-14
 -0.269576028167E-14
 -0.314331893847E-14
 -0.138777878078E-16
 -0.215799600412E-14
  0.136349265212E-14
  0.117961196366E-14
 -0.772541752792E-13
  0.797903410010E-13
  0.103216046821E-13
  0.205044314860E-14
 -0.468722283209E-14
 -0.110224329664E-13
 -0.658501031481E-14
 -0.656766308005E-14
 -0.180064296806E-14
 -0.116053000543E-14
 -0.298025493173E-14
 -0.591802269082E-14
 -0.630918928213E-14
 -0.416680578930E-14
 -0.205738204251E-14
 -0.136002320517E-14
 -0.555111512313E-16
  0.123512311490E-14
  0.200534033823E-14
  0.645317133063E-15
 -0.673072708679E-15
 -0.763278329430E-16
  0.215105711021E-14
  0.308086889333E-14
  0.285882428841E-14
  0.714706072102E-15
 -0.189084858881E-14
 -0.214585293978E-14
  0.102158949702E-14
  0.449119907930E-14
  0.179370407416E-14
 -0.324740234703E-14
 -0.111022302463E-14
  0.436109481861E-14
  0.531172328344E-14
  0.802483079987E-14
  0.635949626293E-14
  0.198799310347E-14
 -0.301494940125E-14
 -0.693889390391E-15
  0.790340015655E-14
  0.159317004034E-13
 -0.214203654814E-13
  0.150920942410E-14
 -0.308433834029E-14
 -0.198105420957E-14
 -0.106858966120E-14
 -0.609928774153E-14
  0.146063716677E-14
  0.308433834029E-14
  0.307046055248E-14
 -0.126634813746E-14
 -0.365007503389E-14
 -0.279897632849E-14
 -0.740726924242E-15
  0.589805981832E-15
 -0.423272528138E-15
 -0.183186799063E-14
 -0.119348975147E-14
  0.208166817117E-16
  0.389965837400E-14
  0.548172618409E-14
  0.238697950294E-14
 -0.214411821631E-14
 -0.114491749414E-14
  0.992261828259E-15
  0.233840724562E-14
  0.170176372993E-14
 -0.639245600897E-15
 -0.129367003221E-14
  0.149012746586E-14
  0.131665511827E-14
 -0.207472927727E-14
 -0.197411531566E-14
 -0.294209101526E-14
  0.381639164715E-14
  0.161676227961E-14
  0.394823063132E-14
  0.575928194024E-14
  0.239391839685E-15
 -0.355618312575E-14
  0.114699916232E-13
  0.125611326895E-12
 -0.131790411917E-12
 -0.770217223334E-14
 -0.580091530367E-14
 -0.742461647718E-15
  0.222044604925E-14
  0.891994811347E-14
 -0.117961196366E-15
 -0.677236045021E-14
 -0.758074159002E-15
  0.153696499972E-14
 -0.145586667721E-14
 -0.245376635677E-14
 -0.227422247701E-14
 -0.124900090270E-14
  0.659194920871E-16
  0.130451205393E-14
  0.158900670399E-14
  0.346944695195E-14
 -0.437150315946E-15
 -0.386496390448E-14
 -0.999200722163E-15
  0.120042864538E-14
 -0.132532873565E-14
 -0.992261828259E-15
 -0.102001740387E-14
 -0.249800180541E-15
  0.196023752785E-15
  0.252185425320E-15
 -0.433680868994E-16
 -0.248412401760E-14
  0.447558656802E-15
  0.475661177113E-14
 -0.510008701937E-14
 -0.740726924242E-14
 -0.480865347541E-14
 -0.273739364509E-14
  0.591887650003E-14
  0.788258347484E-14
 -0.556499291093E-14
  0.517988429927E-14
  0.878637440582E-13
 -0.872808769703E-13
 -0.611316552934E-14
 -0.532560107125E-14
  0.149186218934E-15
  0.464905891562E-15
  0.491620633092E-14
  0.677582989717E-14
  0.740033034852E-14
 -0.496130914129E-15
 -0.127068494615E-14
 -0.862808088864E-15
 -0.223779328401E-15
  0.159074142747E-14
  0.216493489802E-14
  0.388578058619E-15
 -0.193595139919E-14
 -0.343475248243E-14
 -0.639766017940E-14
 -0.443395320460E-14
  0.277555756156E-14
  0.589805981832E-15
  0.240779618466E-14
  0.576622083415E-14
  0.228983498829E-14
 -0.125247034966E-14
 -0.141553435640E-14
 -0.591540705308E-15
 -0.395516952523E-15
 -0.431946145518E-15
 -0.132185928869E-14
 -0.323005511227E-14
 -0.921832055134E-14
 -0.214411821631E-14
 -0.272698530424E-14
 -0.258126853225E-14
 -0.119695919842E-14
  0.162717062047E-14
  0.678623823802E-14
 -0.578009862195E-14
 -0.121777588014E-14
  0.234638697361E-13
 -0.207715789013E-13
 -0.451721993144E-14
 -0.296637714392E-14
 -0.241820452551E-14
  0.522845655659E-14
  0.275127143290E-14
  0.120667364989E-13
  0.165492619608E-14
  0.378690134806E-14
  0.364812346998E-14
  0.251968584886E-15
 -0.257866644704E-14
 -0.287964097012E-14
 -0.183533743758E-14
 -0.248412401760E-14
 -0.248065457065E-14
 -0.147104550763E-14
  0.818789480661E-15
  0.693889390391E-16
 -0.142247325030E-14
  0.220656826144E-14
  0.390659726790E-14
  0.276514922071E-14
  0.228983498829E-15
 -0.846545056277E-15
 -0.145369827287E-14
 -0.108203376814E-14
 -0.342174205636E-15
 -0.374700270811E-15
 -0.200534033823E-14
 -0.464905891562E-14
 -0.101654795692E-14
 -0.625541285437E-14
 -0.587724313661E-14
 -0.574540415244E-14
  0.440272818203E-14
  0.815320033709E-15
  0.121430643318E-14
 -0.248412401760E-14
 -0.105124242644E-14
  0.222044604925E-15
 -0.154390389362E-14
 -0.392047505571E-14
  0.150227053020E-14
  0.127675647832E-14
  0.783401121751E-14
  0.679664657888E-14
  0.102001740387E-14
 -0.175900960464E-14
 -0.164451785523E-14
  0.148752538065E-15
  0.126201132877E-15
 -0.888178419700E-15
  0.756339435526E-15
 -0.162023172656E-14
 -0.208166817117E-15
 -0.188737914186E-14
  0.254310461578E-14
  0.214411821631E-14
  0.278249645547E-14
  0.292821322745E-14
  0.297678548478E-14
 -0.210942374679E-14
  0.143635103811E-14
 -0.288484514055E-14
  0.240259201423E-15
 -0.161025706658E-14
  0.133747179998E-14
  0.128543009570E-14
 -0.301668412472E-14
 -0.267494359996E-14
  0.175900960464E-14
  0.117614251671E-14
 -0.609928774153E-14
 -0.307739944638E-14
 -0.580785419757E-14
  0.919403442268E-15
  0.109634523682E-14
 -0.242861286637E-16
 -0.457966997658E-15
 -0.142247325030E-14
 -0.120389809233E-14
  0.565519853168E-15
  0.215799600412E-14
  0.464905891562E-14
  0.460048665829E-14
  0.149706635977E-14
 -0.933281230076E-15
  0.536029554077E-15
  0.159160878921E-15
 -0.438234518119E-15
 -0.169135538908E-15
  0.171737624122E-15
  0.669603261727E-15
 -0.964506252643E-15
 -0.634908792208E-15
  0.108246744901E-14
 -0.170002900646E-14
 -0.104083408559E-14
  0.974914593499E-15
 -0.485722573274E-16
 -0.100613961607E-15
 -0.534294830601E-15
 -0.178329573330E-14
 -0.533427468863E-16
 -0.263677968348E-15
  0.884708972748E-15
 -0.451028103754E-16
 -0.110675357767E-14
  0.100613961607E-15
 -0.138430933383E-14
 -0.426048085700E-14
 -0.241473507856E-14
 -0.342781358853E-14
 -0.884708972748E-15
  0.124206200880E-14
 -0.589805981832E-15
 -0.333066907388E-15
  0.475314232418E-15
 -0.215105711021E-15
  0.378169717763E-15
  0.303576608296E-14
  0.227942664743E-14
  0.179370407416E-14
 -0.117961196366E-15
  0.549907341885E-15
  0.138777878078E-15
 -0.945424294407E-15
  0.301191363516E-15
 -0.553376788837E-15
  0.589805981832E-15
  0.579397640976E-15
 -0.548172618409E-15
 -0.683481049535E-15
  0.530825383649E-15
 -0.853483950181E-15
 -0.648786580015E-15
  0.211636264069E-15
 -0.600214322688E-15
  0.950628464835E-15
 -0.381639164715E-16
 -0.142073852683E-14
 -0.899670962728E-15
  0.116226472890E-15
  0.147451495458E-14
  0.221350715535E-14
  0.211983208764E-14
 -0.134267597041E-14
 -0.165492619608E-14
 -0.220309881449E-14
 -0.211636264069E-14
 -0.194289029309E-14
 -0.621031004400E-15
  0.242861286637E-16
 -0.558580959265E-15
 -0.544703171457E-15
  0.176941794550E-14
  0.184921522539E-14
  0.621031004400E-15
  0.224820162487E-14
  0.961036805691E-15
  0.742461647718E-15
 -0.241126563161E-14
  0.204697370165E-15
  0.159421087442E-14
 -0.117700987845E-14
  0.409742023839E-15
 -0.488324658487E-15
 -0.183707216106E-14
 -0.841340885849E-15
 -0.562050406216E-15
  0.180758186197E-14
  0.787564458093E-15
  0.248412401760E-14
  0.232452945781E-14
  0.326128013484E-15
  0.135655375821E-14
  0.173472347598E-14
  0.503069808033E-16
 -0.669603261727E-15
 -0.556412554920E-15
 -0.104864034123E-14
 -0.134614541736E-14
  0.261075883135E-14
  0.299413271954E-14
 -0.168268177170E-14
 -0.100613961607E-15
 -0.117961196366E-14
 -0.151614831800E-14
 -0.506539254985E-15
 -0.125593979661E-14
 -0.475314232418E-15
 -0.277555756156E-15
 -0.197758476261E-15
  0.166186508999E-14
  0.271310751643E-14
  0.177982628635E-14
  0.129410371308E-14
 -0.107552855511E-14
  0.312250225676E-15
 -0.201574867909E-14
  0.122298005056E-14
  0.214411821631E-14
 -0.103996672385E-14
 -0.133465287433E-14
 -0.252402265755E-15
  0.582867087928E-15
 -0.305658276467E-14