# vtk DataFile Version 3.0
MachLine results file. Generated by MachLine, USU AeroLab (c) 2022.
ASCII
DATASET POLYDATA
POINTS                1028 float
  0.100000000000E+01  0.000000000000E+00  0.000000000000E+00
  0.985311378880E+00  0.224100846140E+00 -0.170449895420E-02
  0.100000000000E+01  0.224100846140E+00  0.000000000000E+00
  0.985311378880E+00  0.000000000000E+00 -0.170449895420E-02
  0.965617092460E+00  0.224100846140E+00 -0.394962905220E-02
  0.965617092460E+00  0.000000000000E+00 -0.394962905220E-02
  0.939523307000E+00  0.224100846140E+00 -0.685472369040E-02
  0.939523307000E+00  0.000000000000E+00 -0.685472369040E-02
  0.905490052860E+00  0.224100846140E+00 -0.105277887700E-01
  0.905490052860E+00  0.000000000000E+00 -0.105277887700E-01
  0.862001352470E+00  0.224100846140E+00 -0.150370898030E-01
  0.862001352470E+00  0.000000000000E+00 -0.150370898030E-01
  0.807861744690E+00  0.224100846140E+00 -0.203686189510E-01
  0.807861744690E+00  0.000000000000E+00 -0.203686189510E-01
  0.742610019070E+00  0.224100846140E+00 -0.263731107280E-01
  0.742610019070E+00  0.000000000000E+00 -0.263731107280E-01
  0.666965306180E+00  0.224100846140E+00 -0.327306847400E-01
  0.666965306180E+00  0.000000000000E+00 -0.327306847400E-01
  0.583124116380E+00  0.224100846140E+00 -0.389242397680E-01
  0.583124116380E+00  0.000000000000E+00 -0.389242397680E-01
  0.494699909170E+00  0.224100846140E+00 -0.442892746710E-01
  0.494699909170E+00  0.000000000000E+00 -0.442892746710E-01
  0.406197046100E+00  0.000000000000E+00 -0.481351698480E-01
  0.406197046100E+00  0.224100846140E+00 -0.481351698480E-01
  0.322148057390E+00  0.000000000000E+00 -0.499220386450E-01
  0.322148057390E+00  0.224100846140E+00 -0.499220386450E-01
  0.246240745400E+00  0.000000000000E+00 -0.494246641260E-01
  0.246240745400E+00  0.224100846140E+00 -0.494246641260E-01
  0.180771082860E+00  0.000000000000E+00 -0.467582932350E-01
  0.180771082860E+00  0.224100846140E+00 -0.467582932350E-01
  0.126557836510E+00  0.000000000000E+00 -0.422895365970E-01
  0.126557836510E+00  0.224100846140E+00 -0.422895365970E-01
  0.832331623890E-01  0.000000000000E+00 -0.364528323560E-01
  0.832331623890E-01  0.224100846140E+00 -0.364528323560E-01
  0.497093485250E-01  0.000000000000E+00 -0.295749625020E-01
  0.497093485250E-01  0.224100846140E+00 -0.295749625020E-01
  0.246816596840E-01  0.000000000000E+00 -0.217022398280E-01
  0.246816596840E-01  0.224100846140E+00 -0.217022398280E-01
  0.732365982350E-02  0.000000000000E+00 -0.122714258330E-01
  0.732365982350E-02  0.224100846140E+00 -0.122714258330E-01
  0.000000000000E+00  0.000000000000E+00  0.000000000000E+00
  0.000000000000E+00  0.224100846140E+00  0.000000000000E+00
  0.732365982350E-02  0.224100846140E+00  0.122714258330E-01
  0.732365982350E-02  0.000000000000E+00  0.122714258330E-01
  0.246816596840E-01  0.224100846140E+00  0.217022398280E-01
  0.246816596840E-01  0.000000000000E+00  0.217022398280E-01
  0.497093485250E-01  0.224100846140E+00  0.295749625020E-01
  0.497093485250E-01  0.000000000000E+00  0.295749625020E-01
  0.832331623890E-01  0.224100846140E+00  0.364528323560E-01
  0.832331623890E-01  0.000000000000E+00  0.364528323560E-01
  0.126557836510E+00  0.224100846140E+00  0.422895365970E-01
  0.126557836510E+00  0.000000000000E+00  0.422895365970E-01
  0.180771082860E+00  0.224100846140E+00  0.467582932350E-01
  0.180771082860E+00  0.000000000000E+00  0.467582932350E-01
  0.246240745400E+00  0.224100846140E+00  0.494246641260E-01
  0.246240745400E+00  0.000000000000E+00  0.494246641260E-01
  0.322148057390E+00  0.224100846140E+00  0.499220386450E-01
  0.322148057390E+00  0.000000000000E+00  0.499220386450E-01
  0.406197046100E+00  0.224100846140E+00  0.481351698480E-01
  0.406197046100E+00  0.000000000000E+00  0.481351698480E-01
  0.494699909170E+00  0.224100846140E+00  0.442892746710E-01
  0.494699909170E+00  0.000000000000E+00  0.442892746710E-01
  0.583124116380E+00  0.000000000000E+00  0.389242397680E-01
  0.583124116380E+00  0.224100846140E+00  0.389242397680E-01
  0.666965306180E+00  0.000000000000E+00  0.327306847400E-01
  0.666965306180E+00  0.224100846140E+00  0.327306847400E-01
  0.742610019070E+00  0.000000000000E+00  0.263731107280E-01
  0.742610019070E+00  0.224100846140E+00  0.263731107280E-01
  0.807861744690E+00  0.000000000000E+00  0.203686189510E-01
  0.807861744690E+00  0.224100846140E+00  0.203686189510E-01
  0.862001352470E+00  0.000000000000E+00  0.150370898030E-01
  0.862001352470E+00  0.224100846140E+00  0.150370898030E-01
  0.905490052860E+00  0.000000000000E+00  0.105277887700E-01
  0.905490052860E+00  0.224100846140E+00  0.105277887700E-01
  0.939523307000E+00  0.000000000000E+00  0.685472369040E-02
  0.939523307000E+00  0.224100846140E+00  0.685472369040E-02
  0.965617092460E+00  0.000000000000E+00  0.394962905220E-02
  0.965617092460E+00  0.224100846140E+00  0.394962905220E-02
  0.985311378880E+00  0.000000000000E+00  0.170449895420E-02
  0.985311378880E+00  0.224100846140E+00  0.170449895420E-02
  0.985311378880E+00  0.474396230640E+00 -0.170449895420E-02
  0.100000000000E+01  0.474396230640E+00  0.000000000000E+00
  0.965617092460E+00  0.474396230640E+00 -0.394962905220E-02
  0.939523307000E+00  0.474396230640E+00 -0.685472369040E-02
  0.905490052860E+00  0.474396230640E+00 -0.105277887700E-01
  0.862001352470E+00  0.474396230640E+00 -0.150370898030E-01
  0.807861744690E+00  0.474396230640E+00 -0.203686189510E-01
  0.742610019070E+00  0.474396230640E+00 -0.263731107280E-01
  0.666965306180E+00  0.474396230640E+00 -0.327306847400E-01
  0.583124116380E+00  0.474396230640E+00 -0.389242397680E-01
  0.494699909170E+00  0.474396230640E+00 -0.442892746710E-01
  0.406197046100E+00  0.474396230640E+00 -0.481351698480E-01
  0.322148057390E+00  0.474396230640E+00 -0.499220386450E-01
  0.246240745400E+00  0.474396230640E+00 -0.494246641260E-01
  0.180771082860E+00  0.474396230640E+00 -0.467582932350E-01
  0.126557836510E+00  0.474396230640E+00 -0.422895365970E-01
  0.832331623890E-01  0.474396230640E+00 -0.364528323560E-01
  0.497093485250E-01  0.474396230640E+00 -0.295749625020E-01
  0.246816596840E-01  0.474396230640E+00 -0.217022398280E-01
  0.732365982350E-02  0.474396230640E+00 -0.122714258330E-01
  0.000000000000E+00  0.474396230640E+00  0.000000000000E+00
  0.732365982350E-02  0.474396230640E+00  0.122714258330E-01
  0.246816596840E-01  0.474396230640E+00  0.217022398280E-01
  0.497093485250E-01  0.474396230640E+00  0.295749625020E-01
  0.832331623890E-01  0.474396230640E+00  0.364528323560E-01
  0.126557836510E+00  0.474396230640E+00  0.422895365970E-01
  0.180771082860E+00  0.474396230640E+00  0.467582932350E-01
  0.246240745400E+00  0.474396230640E+00  0.494246641260E-01
  0.322148057390E+00  0.474396230640E+00  0.499220386450E-01
  0.406197046100E+00  0.474396230640E+00  0.481351698480E-01
  0.494699909170E+00  0.474396230640E+00  0.442892746710E-01
  0.583124116380E+00  0.474396230640E+00  0.389242397680E-01
  0.666965306180E+00  0.474396230640E+00  0.327306847400E-01
  0.742610019070E+00  0.474396230640E+00  0.263731107280E-01
  0.807861744690E+00  0.474396230640E+00  0.203686189510E-01
  0.862001352470E+00  0.474396230640E+00  0.150370898030E-01
  0.905490052860E+00  0.474396230640E+00  0.105277887700E-01
  0.939523307000E+00  0.474396230640E+00  0.685472369040E-02
  0.965617092460E+00  0.474396230640E+00  0.394962905220E-02
  0.985311378880E+00  0.474396230640E+00  0.170449895420E-02
  0.985311378880E+00  0.748095716550E+00 -0.170449895420E-02
  0.100000000000E+01  0.748095716550E+00  0.000000000000E+00
  0.965617092460E+00  0.748095716550E+00 -0.394962905220E-02
  0.939523307000E+00  0.748095716550E+00 -0.685472369040E-02
  0.905490052860E+00  0.748095716550E+00 -0.105277887700E-01
  0.862001352470E+00  0.748095716550E+00 -0.150370898030E-01
  0.807861744690E+00  0.748095716550E+00 -0.203686189510E-01
  0.742610019070E+00  0.748095716550E+00 -0.263731107280E-01
  0.666965306180E+00  0.748095716550E+00 -0.327306847400E-01
  0.583124116380E+00  0.748095716550E+00 -0.389242397680E-01
  0.494699909170E+00  0.748095716550E+00 -0.442892746710E-01
  0.406197046100E+00  0.748095716550E+00 -0.481351698480E-01
  0.322148057390E+00  0.748095716550E+00 -0.499220386450E-01
  0.246240745400E+00  0.748095716550E+00 -0.494246641260E-01
  0.180771082860E+00  0.748095716550E+00 -0.467582932350E-01
  0.126557836510E+00  0.748095716550E+00 -0.422895365970E-01
  0.832331623890E-01  0.748095716550E+00 -0.364528323560E-01
  0.497093485250E-01  0.748095716550E+00 -0.295749625020E-01
  0.246816596840E-01  0.748095716550E+00 -0.217022398280E-01
  0.732365982350E-02  0.748095716550E+00 -0.122714258330E-01
  0.000000000000E+00  0.748095716550E+00  0.000000000000E+00
  0.732365982350E-02  0.748095716550E+00  0.122714258330E-01
  0.246816596840E-01  0.748095716550E+00  0.217022398280E-01
  0.497093485250E-01  0.748095716550E+00  0.295749625020E-01
  0.832331623890E-01  0.748095716550E+00  0.364528323560E-01
  0.126557836510E+00  0.748095716550E+00  0.422895365970E-01
  0.180771082860E+00  0.748095716550E+00  0.467582932350E-01
  0.246240745400E+00  0.748095716550E+00  0.494246641260E-01
  0.322148057390E+00  0.748095716550E+00  0.499220386450E-01
  0.406197046100E+00  0.748095716550E+00  0.481351698480E-01
  0.494699909170E+00  0.748095716550E+00  0.442892746710E-01
  0.583124116380E+00  0.748095716550E+00  0.389242397680E-01
  0.666965306180E+00  0.748095716550E+00  0.327306847400E-01
  0.742610019070E+00  0.748095716550E+00  0.263731107280E-01
  0.807861744690E+00  0.748095716550E+00  0.203686189510E-01
  0.862001352470E+00  0.748095716550E+00  0.150370898030E-01
  0.905490052860E+00  0.748095716550E+00  0.105277887700E-01
  0.939523307000E+00  0.748095716550E+00  0.685472369040E-02
  0.965617092460E+00  0.748095716550E+00  0.394962905220E-02
  0.985311378880E+00  0.748095716550E+00  0.170449895420E-02
  0.985311378880E+00  0.104054975430E+01 -0.170449895420E-02
[...]
CELL_DATA                1976
SCALARS C_p_inc float 1
LOOKUP_TABLE default
  0.257932934218E+00
  0.258012504410E+00
  0.169769579155E+00
  0.169853209026E+00
  0.131321115077E+00
  0.131408315270E+00
  0.101739757626E+00
  0.101832271975E+00
  0.771632227204E-01
  0.772618576124E-01
  0.559454954352E-01
  0.560509251696E-01
  0.374932161267E-01
  0.376060468687E-01
  0.215580261750E-01
  0.216788105433E-01
  0.832991751339E-02
  0.845891250988E-02
 -0.116262696876E-02
 -0.102545202938E-02
 -0.470440401930E-02
 -0.485823102831E-02
  0.830700092430E-03
  0.651949959424E-03
  0.199044068078E-01
  0.196990678680E-01
  0.573692320197E-01
  0.571342725403E-01
  0.118629353863E+00
  0.118360354934E+00
  0.210785172675E+00
  0.210476950545E+00
  0.346385876345E+00
  0.346034559471E+00
  0.552168552130E+00
  0.551782886476E+00
  0.873392275063E+00
  0.873088677020E+00
  0.750468486924E+00
  0.751089602438E+00
 -0.152104655227E+01
 -0.152304900579E+01
 -0.197783552814E+01
 -0.197934538032E+01
 -0.153481685267E+01
 -0.153575793432E+01
 -0.122862624266E+01
 -0.122929752864E+01
 -0.101828691218E+01
 -0.101880157743E+01
 -0.857759219653E+00
 -0.858170499851E+00
 -0.724814151441E+00
 -0.725151444767E+00
 -0.608501672425E+00
 -0.608782681345E+00
 -0.504105823628E+00
 -0.504341415966E+00
 -0.410070496153E+00
 -0.410266541361E+00
 -0.326192589430E+00
 -0.326021688687E+00
 -0.251719358527E+00
 -0.251564507038E+00
 -0.185697235228E+00
 -0.185556248032E+00
 -0.126488729878E+00
 -0.126360184603E+00
 -0.721300943849E-01
 -0.720124621995E-01
 -0.206659541143E-01
 -0.205579142961E-01
  0.299058069777E-01
  0.300053305960E-01
  0.825467717507E-01
  0.826387092991E-01
  0.142576452971E+00
  0.142661527316E+00
  0.252690726861E+00
  0.252773362734E+00
  0.257744781710E+00
  0.257931109474E+00
  0.169537062815E+00
  0.169767780128E+00
  0.131056769679E+00
  0.131319354015E+00
  0.101447153869E+00
  0.101738050051E+00
  0.768429460440E-01
  0.771615877213E-01
  0.555966466894E-01
  0.559439552705E-01
  0.371141283705E-01
  0.374917946282E-01
  0.211465307322E-01
  0.215567458305E-01
  0.788391838999E-02
  0.832879548543E-02
 -0.164574433447E-02
 -0.116358224160E-02
 -0.485922457018E-02
 -0.540107061426E-02
  0.651127394963E-03
  0.263589493504E-04
  0.196984152060E-01
  0.189826978958E-01
  0.571337769402E-01
  0.563157052452E-01
  0.118359995875E+00
  0.117424477824E+00
  0.210476704303E+00
  0.209406543548E+00
  0.346034402503E+00
  0.344817249015E+00
  0.551782797400E+00
  0.550449876562E+00
  0.873088637303E+00
  0.872044540185E+00
  0.751089595241E+00
  0.753292322997E+00
 -0.151404788320E+01
 -0.152104657984E+01
 -0.197275294127E+01
 -0.197783560535E+01
 -0.153156670884E+01
 -0.153481699633E+01
 -0.122629712908E+01
 -0.122862647338E+01
 -0.101649746972E+01
 -0.101828725446E+01
 -0.856327159167E+00
 -0.857759700989E+00
 -0.723638521086E+00
 -0.724814799872E+00
 -0.607521335203E+00
 -0.608502512395E+00
 -0.503282137943E+00
 -0.504106870456E+00
 -0.409378166695E+00
 -0.410071751021E+00
 -0.326022897199E+00
 -0.325424828470E+00
 -0.251565917759E+00
 -0.251031286065E+00
 -0.185557848729E+00
 -0.185078763589E+00
 -0.126361952814E+00
 -0.125932205728E+00
 -0.720143696519E-01
 -0.716284779297E-01
 -0.205599317830E-01
 -0.202137202147E-01
  0.300032298363E-01
  0.303123204174E-01
  0.826365478999E-01
  0.829087907492E-01
  0.142659323450E+00
  0.142890302212E+00
  0.252771130981E+00
  0.252937650935E+00
  0.257415582049E+00
  0.257740543611E+00
  0.169130226789E+00
  0.169532886447E+00
  0.130588955777E+00
  0.131052683147E+00
  0.100922052140E+00
  0.101443194195E+00
  0.762599287095E-01
  0.768391599827E-01
  0.549527468382E-01
  0.555930895353E-01
  0.364049714825E-01
  0.371108597454E-01
  0.203665983154E-01
  0.211436069169E-01
  0.702704353963E-02
  0.788138207918E-02
 -0.258762390840E-02
 -0.164787245642E-02
 -0.540357394428E-02
 -0.646193916970E-02
  0.242687855649E-04
 -0.118952488720E-02
  0.189810242713E-01
  0.175937738755E-01
  0.563144220379E-01
  0.547306342802E-01
  0.117423537944E+00
  0.115614115702E+00
  0.209405889951E+00
  0.207338008777E+00
  0.344816823814E+00
  0.342467026347E+00
  0.550449626809E+00
  0.547878982828E+00
  0.872044421364E+00
  0.870029294683E+00
  0.753292301330E+00
  0.757497563194E+00
 -0.150054887941E+01
 -0.151404796673E+01
 -0.196294835585E+01
 -0.197275316079E+01
 -0.152530267220E+01
 -0.153156709955E+01
 -0.122180068565E+01
 -0.122629774198E+01
 -0.101303670186E+01
 -0.101649836662E+01
 -0.853552952476E+00
 -0.856328408691E+00
 -0.721357552590E+00
 -0.723640191728E+00
 -0.605616208542E+00
 -0.607523484015E+00
 -0.501677440792E+00
 -0.503284796698E+00
 -0.408022716176E+00
 -0.409381331019E+00
 -0.325427537414E+00
 -0.324259467017E+00
 -0.251034494603E+00
 -0.250004919582E+00
 -0.185082441947E+00
 -0.184172752089E+00
 -0.125936297360E+00
 -0.125132175135E+00
 -0.716329108840E-01
 -0.709222418693E-01
 -0.202184201718E-01
 -0.195915881961E-01
  0.303074208858E-01
  0.308572925997E-01
  0.829037475787E-01
  0.833798725492E-01
  0.142885158853E+00
  0.143284245074E+00
  0.252932439029E+00
  0.253227309664E+00
  0.256913048389E+00
  0.257407732711E+00
  0.168508082050E+00
  0.169122497770E+00
  0.129869472302E+00
  0.130581402140E+00
  0.100108791603E+00
  0.100914746611E+00
  0.753502981212E-01
  0.762529633728E-01
  0.539406852203E-01
  0.549462305094E-01
  0.352821929556E-01
  0.363990207845E-01
  0.191229059158E-01
  0.203613216149E-01
  0.565085047644E-02
  0.702251988704E-02
 -0.411102011154E-02
 -0.259136173801E-02
 -0.646686077419E-02
 -0.817975806096E-02
 -0.119366492253E-02
 -0.315303170682E-02
  0.175904335815E-01
  0.153545681543E-01
  0.547280526011E-01
  0.521780127554E-01
  0.115612207523E+00
  0.112701046344E+00
  0.207336666594E+00
  0.204011289755E+00
  0.342466139032E+00
  0.338687855639E+00
  0.547878448230E+00
  0.543742928003E+00
  0.870029028986E+00
  0.866770462208E+00
  0.757497513147E+00
  0.764160263339E+00
 -0.147893507828E+01
 -0.150054906240E+01
 -0.194722618245E+01
 -0.196294882159E+01
 -0.151525285215E+01
 -0.152530347806E+01
 -0.121457578405E+01
 -0.122180193122E+01
 -0.100746673952E+01
 -0.101303850892E+01
 -0.849080229773E+00
 -0.853555455390E+00
 -0.717673332463E+00
 -0.721360883355E+00
 -0.602533030526E+00
 -0.605620473378E+00
 -0.499074457540E+00
 -0.501682692412E+00
 -0.405817366135E+00
 -0.408028933529E+00
 -0.324264241349E+00
 -0.322365324094E+00
 -0.250010668589E+00
 -0.248348061464E+00
 -0.184179427406E+00
 -0.182721161918E+00
 -0.125139670443E+00
 -0.123860720572E+00
 -0.709304163044E-01
 -0.698095898413E-01
 -0.196002938642E-01
 -0.186203544604E-01
  0.308481906255E-01
  0.317002526900E-01
  0.833704861316E-01
  0.841021490830E-01
  0.143274660776E+00
  0.143884386301E+00
  0.253217590345E+00
  0.253672899414E+00
  0.256190506697E+00
  0.256899475714E+00
  0.167614587106E+00
  0.168494730001E+00
  0.128834391637E+00
  0.129856441365E+00
  0.989356658847E-01
  0.100096214410E+00
  0.740342195368E-01
  0.753383422696E-01
  0.524718690063E-01
  0.539295477715E-01
  0.336476044434E-01
  0.352720830835E-01
  0.173066536909E-01
  0.191140142841E-01
  0.363482485854E-02
  0.564330989366E-02
 -0.634925454583E-02
 -0.411716562565E-02
 -0.818860262376E-02
 -0.107032806059E-01
 -0.316051035874E-02
 -0.603144707763E-02
  0.153485022193E-01
  0.120772902354E-01
  0.521732976837E-01
  0.484465685268E-01
  0.112697538010E+00
  0.108446409358E+00
  0.204008800768E+00
  0.199154700663E+00
  0.338686190076E+00
  0.333169849980E+00
  0.543741905445E+00
  0.537695478460E+00
  0.866769937491E+00
  0.861963535994E+00
  0.764160158547E+00
  0.773682339626E+00
 -0.144761683776E+01
 -0.147893542081E+01
 -0.192438115533E+01
 -0.194722704629E+01
 -0.150062701700E+01
 -0.151525432585E+01
 -0.120404025498E+01
 -0.121457804605E+01
 -0.999327183572E+00
 -0.100747001008E+01
 -0.842529022898E+00
 -0.849084751832E+00
 -0.712263596023E+00
 -0.717679343593E+00
 -0.597993816202E+00
 -0.602540719067E+00
 -0.495231284981E+00
 -0.499083911174E+00
 -0.402551229374E+00
 -0.405828535177E+00
 -0.322373178731E+00
 -0.319558339270E+00
 -0.248357678653E+00
 -0.245899316792E+00
 -0.182732474444E+00
 -0.180582838448E+00
 -0.123873546291E+00
 -0.121994608269E+00
 -0.698236755473E-01
 -0.681830263124E-01
 -0.186354289232E-01
 -0.172063365518E-01
  0.316844392802E-01
  0.329226281163E-01
  0.840858047011E-01
  0.851458357580E-01
  0.143867672175E+00
  0.144750057427E+00
  0.253655933077E+00
  0.254320847127E+00
  0.255191838021E+00
  0.256167572990E+00
  0.166382264402E+00
  0.167592046294E+00
  0.127407660380E+00
  0.128812421504E+00
  0.973187317278E-01
  0.989145001832E-01
  0.722198958589E-01
  0.740141523766E-01
  0.504463453536E-01
  0.524532440030E-01
  0.313925639064E-01
  0.336307826792E-01
  0.147997796581E-01
  0.172919583210E-01
  0.850676691693E-03
  0.362247118094E-02
 -0.944158002823E-02
 -0.635921295906E-02
 -0.107185672848E-01
 -0.141854767229E-01
 -0.604441413752E-02
 -0.999489074485E-02
  0.120667371655E-01
  0.757307533449E-02
  0.484383334634E-01
  0.433258915683E-01
  0.108440251499E+00
  0.102614050727E+00
  0.199150302370E+00
  0.192500546472E+00
  0.333166877750E+00
  0.325606780448E+00
  0.537693625555E+00
  0.529388881177E+00
  0.861962559358E+00
  0.855277973987E+00
  0.773682127371E+00
  0.786346819278E+00
 -0.140517451964E+01
 -0.144761742077E+01
 -0.189329092029E+01
 -0.192438263942E+01
 -0.148067011761E+01
 -0.150062954008E+01
 -0.118962545235E+01
 -0.120404412545E+01
 -0.988158243456E+00
 -0.999332786312E+00
 -0.833511025079E+00
 -0.842536785208E+00
 -0.704791164533E+00
 -0.712273938412E+00
 -0.591700898061E+00
 -0.598007074196E+00
 -0.489883186941E+00
 -0.495247616179E+00
 -0.397988957878E+00
 -0.402570545788E+00
 -0.319571038027E+00
 -0.315629634333E+00
 -0.245915117671E+00
 -0.242472581408E+00
 -0.180601657074E+00
 -0.177592694042E+00
 -0.122016142142E+00
 -0.119387843172E+00
 -0.682068339837E-01
 -0.659136565729E-01
 -0.172319357868E-01
 -0.152358890314E-01
  0.328956858610E-01
  0.346243255949E-01
  0.851179259507E-01
  0.865980090333E-01
  0.144721472255E+00
  0.145955392829E+00
  0.254291800922E+00
  0.255228400997E+00
  0.253841454457E+00
  0.255153349703E+00
  0.164728896428E+00
  0.166344469993E+00
  0.125500735624E+00
  0.127370868299E+00
  0.951631828662E-01
  0.972833461595E-01
  0.698062473128E-01
  0.721864228523E-01
  0.477566227146E-01
  0.504153720302E-01
  0.284028809100E-01
  0.313647010282E-01
  0.114809391665E-01
  0.147755644934E-01
 -0.283057786925E-02
  0.830452341386E-03
 -0.135248736839E-01
 -0.945775597758E-02
 -0.142114223561E-01
 -0.187737216585E-01
 -0.100169393975E-01
 -0.152048541539E-01
  0.755509299685E-02
  0.166534717674E-02
  0.433118190617E-01
  0.366219121043E-01
  0.102603485150E+00
  0.949883324197E-01
  0.192492955048E+00
  0.183805404541E+00
  0.325601604508E+00
  0.315718598186E+00
  0.529385608700E+00
  0.518496709974E+00
  0.855276203972E+00
  0.846367899372E+00
  0.786346391074E+00
  0.802246430186E+00
 -0.135052653934E+01
 -0.140517544468E+01
 -0.185302576482E+01
 -0.189329334199E+01
 -0.145472659298E+01
 -0.148067425739E+01
 -0.117081835179E+01
 -0.118963183508E+01
 -0.973529513844E+00
 -0.988167532917E+00
 -0.821649220409E+00
 -0.833523967552E+00
 -0.694916842977E+00
 -0.704808506295E+00
 -0.583344773713E+00
 -0.591723249162E+00
 -0.482746756358E+00
 -0.489910853953E+00
 -0.391872447244E+00
 -0.398021815594E+00
 -0.315650155917E+00
 -0.310346244881E+00
 -0.242498521652E+00
 -0.237857648607E+00
 -0.177623961582E+00
 -0.173562598743E+00
 -0.119423940466E+00
 -0.115872945515E+00
 -0.659538209255E-01
 -0.628527287380E-01
 -0.152792716151E-01
 -0.125769258103E-01
  0.345785216532E-01
  0.369226630542E-01
  0.865504542967E-01
  0.885626843945E-01
  0.145906610982E+00
  0.147591972086E+00
  0.255178777560E+00
  0.256472801228E+00
  0.252063180881E+00
  0.253777055752E+00
  0.162565314504E+00
  0.164665710849E+00
  0.123016774593E+00
  0.125439297060E+00
  0.923666463699E-01
  0.951041848479E-01
  0.666866118971E-01
  0.697505513047E-01
  0.442925549381E-01
  0.477052190917E-01
  0.245653848750E-01
  0.283567879085E-01
  0.723404259365E-02
  0.114410363217E-01
 -0.752802118962E-02
 -0.286375306337E-02
 -0.187210013497E-01
 -0.135512769781E-01
 -0.188173256551E-01
 -0.245950237621E-01
 -0.152419530664E-01
 -0.217974860014E-01
  0.163503977009E-02
 -0.579157852396E-02
  0.365981330806E-01
  0.281774521975E-01
  0.949704078569E-01
  0.853968871352E-01
  0.183792447154E+00
  0.172875434609E+00
  0.315709681564E+00
  0.303279440812E+00
  0.518490989028E+00
  0.504743234657E+00
  0.846364718058E+00
  0.834890966814E+00
  0.802245558456E+00
  0.821216739322E+00
 -0.128310809893E+01
 -0.135052791421E+01
 -0.180297024884E+01
 -0.185302955292E+01
 -0.142231355278E+01
 -0.145473316140E+01
 -0.114721044902E+01
 -0.117082858714E+01
 -0.955074085315E+00
 -0.973544555675E+00
 -0.806601720054E+00
 -0.821670373439E+00
 -0.682315626908E+00
 -0.694945443250E+00
 -0.572614551145E+00
 -0.583381954144E+00
 -0.473526123391E+00
 -0.482793144421E+00
 -0.383924169934E+00
 -0.391927915451E+00
 -0.310379483213E+00
 -0.303453512427E+00
 -0.237900357348E+00
 -0.231822641353E+00
 -0.173614715104E+00
 -0.168284298096E+00
 -0.115933653479E+00
 -0.111264547410E+00
 -0.629207099650E-01
 -0.588359984986E-01
 -0.126506856131E-01
 -0.908417875461E-02
  0.368445406420E-01
  0.399458744776E-01
  0.884813973626E-01
  0.911522050645E-01
  0.147508460145E+00
  0.149755754383E+00
  0.256387760348E+00
  0.258126620533E+00
  0.249759520031E+00
  0.251955802832E+00
  0.159782186627E+00
  0.162460067801E+00
  0.119841825926E+00
  0.122914578038E+00
  0.888139726749E-01
  0.922686806692E-01
  0.627471179492E-01
  0.665943274101E-01
  0.399435424943E-01
  0.442075978497E-01
  0.197742360733E-01
  0.244894213495E-01
  0.195881623127E-02
  0.716847937974E-02
 -0.133362125659E-01
 -0.758236940403E-02
 -0.251186903836E-01
 -0.187641532365E-01
 -0.246677373938E-01
 -0.317348565956E-01
 -0.218594377713E-01
 -0.298603877573E-01
 -0.584229436552E-02
 -0.148881219129E-01
  0.281375332506E-01
  0.178973767202E-01
  0.853666507398E-01
  0.737367747788E-01
  0.172853419919E+00
  0.159594218629E+00
  0.303264128527E+00
  0.288147983906E+00
  0.504733244461E+00
  0.487936354869E+00
  0.834885233556E+00
  0.820536018065E+00
  0.821214939317E+00
  0.842792788351E+00
 -0.120302541118E+01
 -0.128310998975E+01
 -0.174293598431E+01
 -0.180297592518E+01
 -0.138319145200E+01
 -0.142232363745E+01
 -0.111854630507E+01
 -0.114722643154E+01
 -0.932523197573E+00
 -0.955097918299E+00
 -0.788086547114E+00
 -0.806635691629E+00
 -0.666694069682E+00
 -0.682362150868E+00
 -0.559209713196E+00
 -0.572675766594E+00
 -0.461920640961E+00
 -0.473603344572E+00
 -0.373852111533E+00
 -0.384017392349E+00
 -0.303507289633E+00
 -0.294679706792E+00
 -0.231893025877E+00
 -0.224119218348E+00
 -0.168371357009E+00
 -0.161535306516E+00
 -0.111366947032E+00
 -0.105365756531E+00
 -0.589514529625E-01
 -0.536901607876E-01
 -0.921004659735E-02
 -0.460518443187E-02
  0.398121176363E-01
  0.438281750665E-01
  0.910127057547E-01
  0.944841745088E-01
  0.149612202923E+00
  0.152547386438E+00
  0.257980273981E+00
  0.260265502925E+00
  0.246764433103E+00
  0.249581542369E+00
  0.156218614786E+00
  0.159608019290E+00
  0.115821715090E+00
  0.119673038849E+00
  0.843604001555E-01
  0.886525571555E-01
  0.578560264252E-01
  0.625954798743E-01
  0.345946422388E-01
  0.398043584690E-01
  0.139345761580E-01
  0.196501489421E-01
 -0.441750156871E-02
  0.185198000023E-02
 -0.203057748198E-01
 -0.134246495886E-01
 -0.327479213924E-01
 -0.251889419497E-01
 -0.318550531503E-01
 -0.402071721085E-01
 -0.299630647820E-01
 -0.394010826394E-01
 -0.149724835453E-01
 -0.256291357249E-01
  0.178306448353E-01
  0.577625749701E-02
  0.736858886969E-01
  0.599995991311E-01
  0.159556825612E+00
  0.143946529223E+00
  0.288121632454E+00
  0.270291799514E+00
  0.487918818432E+00
  0.467995025333E+00
  0.820525581734E+00
  0.803054346041E+00
  0.842789013702E+00
  0.866212419110E+00
 -0.111112925487E+01
 -0.120302773098E+01
 -0.167322918148E+01
 -0.174294406368E+01
 -0.133741094292E+01
 -0.138320636177E+01
 -0.108475759924E+01
 -0.111857053258E+01
 -0.905731522951E+00
 -0.932560082171E+00
 -0.765900441823E+00
 -0.788140112300E+00
 -0.647804301837E+00
 -0.666768707519E+00
 -0.542850843990E+00
 -0.559309505216E+00
 -0.447633633232E+00
 -0.462048350383E+00
 -0.361357462353E+00
 -0.374008197184E+00
 -0.294766193169E+00
 -0.283745354039E+00
 -0.224234922019E+00
 -0.214493700707E+00
 -0.161680678016E+00
 -0.153091098859E+00
 -0.105538631121E+00
 -0.979805874611E-01
 -0.538865651980E-01
 -0.472447287522E-01
 -0.482043523646E-02
  0.100917674386E-02
  0.435985917526E-01
  0.487014985121E-01
  0.942441138618E-01
  0.986769458912E-01
  0.152299892809E+00
  0.156074648765E+00
  0.260012842445E+00
  0.262986889640E+00
  0.242856103146E+00
  0.246472059028E+00
  0.151638993196E+00
  0.155933162480E+00
  0.110729033753E+00
  0.115545902210E+00
  0.787985273478E-01
  0.840975777338E-01
  0.518361897974E-01
  0.576101203108E-01
  0.281085584867E-01
  0.343698616055E-01
  0.695727301832E-02
  0.137348855814E-01
 -0.119306102478E-01
 -0.458908825373E-02
 -0.284191805594E-01
 -0.204479133588E-01
 -0.415443056568E-01
 -0.328613637554E-01
 -0.404036360504E-01
 -0.499121138994E-01
 -0.395698171200E-01
 -0.503045177498E-01
 -0.257687320844E-01
 -0.378977598158E-01
  0.566491239568E-02
 -0.807522543479E-02
  0.599138473732E-01
  0.442879866248E-01
  0.143882735547E+00
  0.126026940748E+00
  0.270246107087E+00
  0.249791648335E+00
  0.467963898038E+00
  0.444954961722E+00
  0.803035044581E+00
  0.782280482906E+00
  0.866204383347E+00
  0.890482741189E+00
 -0.100894603628E+01
 -0.111113155714E+01
 -0.159462887154E+01
 -0.167323992628E+01
 -0.128530832678E+01
 -0.133743198415E+01
 -0.104596324527E+01
 -0.108479306164E+01
 -0.874678635924E+00
 -0.905787104231E+00
 -0.739921118604E+00
 -0.765983229315E+00
 -0.625447772658E+00
 -0.647922323253E+00
 -0.523286185147E+00
 -0.543011919637E+00
 -0.430382942618E+00
 -0.447843517477E+00
 -0.346149074672E+00
 -0.361617875776E+00
 -0.283883078172E+00
 -0.270383416220E+00
 -0.214682893411E+00
 -0.202710377000E+00
 -0.153333171123E+00
 -0.142748653093E+00
 -0.982720726402E-01
 -0.889359139300E-01
 -0.475787317830E-01
 -0.393518457279E-01
  0.640960849066E-03
  0.788637090424E-02
  0.483071509428E-01
  0.546768799485E-01
  0.982634083824E-01
  0.103827102225E+00
  0.155647430908E+00
  0.160417891651E+00
  0.262550119201E+00
  0.266339950844E+00
  0.237583509794E+00
  0.242379525354E+00
  0.145600748482E+00
  0.151175639284E+00
  0.104152997729E+00
  0.110283643302E+00
  0.717660411793E-01
  0.783767152510E-01
  0.443915813348E-01
  0.514441951454E-01
  0.202738666141E-01
  0.277526106505E-01
 -0.126773266246E-02
  0.664266226039E-02
 -0.205784420226E-01
 -0.122005334026E-01
 -0.375639133286E-01
 -0.286437424378E-01
 -0.513026323554E-01
 -0.417256780947E-01
 -0.502287112248E-01
 -0.605795843506E-01
 -0.505792666864E-01
 -0.622781282842E-01
 -0.381279695214E-01
 -0.514143475906E-01
 -0.826142276637E-02
 -0.234098897351E-01
  0.441424492632E-01
  0.268143154759E-01
  0.125916881500E+00
  0.106020024549E+00
  0.249711243290E+00
  0.226808713138E+00
  0.444898701356E+00
  0.418932143949E+00
  0.782244010071E+00
  0.758119869552E+00
  0.890465388062E+00
  0.914503896914E+00
 -0.898430537490E+00
 -0.100894721775E+01
 -0.150824288525E+01
 -0.159464184954E+01
 -0.122742545920E+01
 -0.128533632863E+01
 -0.100241585599E+01
 -0.104601306905E+01
 -0.839429895258E+00
 -0.874759991981E+00
 -0.710079202265E+00
 -0.740046518499E+00
 -0.599458988671E+00
 -0.625631930343E+00
 -0.500289917701E+00
 -0.523544057971E+00
 -0.409915923592E+00
 -0.430726262884E+00
 -0.327973558181E+00
 -0.346582461383E+00
 -0.270600414802E+00
 -0.254382522781E+00
 -0.203017829826E+00
 -0.188597728560E+00
 -0.143150133047E+00
 -0.130367357928E+00
 -0.894260398986E-01
 -0.781119814513E-01