# vtk DataFile Version 3.0
MachLine results file. Generated by MachLine, USU AeroLab (c) 2022.
ASCII
DATASET POLYDATA
POINTS                1028 float
  0.100000000000E+01  0.000000000000E+00  0.000000000000E+00
  0.985311378880E+00  0.224100846140E+00 -0.170449895420E-02
  0.100000000000E+01  0.224100846140E+00  0.000000000000E+00
  0.985311378880E+00  0.000000000000E+00 -0.170449895420E-02
  0.965617092460E+00  0.224100846140E+00 -0.394962905220E-02
  0.965617092460E+00  0.000000000000E+00 -0.394962905220E-02
  0.939523307000E+00  0.224100846140E+00 -0.685472369040E-02
  0.939523307000E+00  0.000000000000E+00 -0.685472369040E-02
  0.905490052860E+00  0.224100846140E+00 -0.105277887700E-01
  0.905490052860E+00  0.000000000000E+00 -0.105277887700E-01
  0.862001352470E+00  0.224100846140E+00 -0.150370898030E-01
  0.862001352470E+00  0.000000000000E+00 -0.150370898030E-01
  0.807861744690E+00  0.224100846140E+00 -0.203686189510E-01
  0.807861744690E+00  0.000000000000E+00 -0.203686189510E-01
  0.742610019070E+00  0.224100846140E+00 -0.263731107280E-01
  0.742610019070E+00  0.000000000000E+00 -0.263731107280E-01
  0.666965306180E+00  0.224100846140E+00 -0.327306847400E-01
  0.666965306180E+00  0.000000000000E+00 -0.327306847400E-01
  0.583124116380E+00  0.224100846140E+00 -0.389242397680E-01
  0.583124116380E+00  0.000000000000E+00 -0.389242397680E-01
  0.494699909170E+00  0.224100846140E+00 -0.442892746710E-01
  0.494699909170E+00  0.000000000000E+00 -0.442892746710E-01
  0.406197046100E+00  0.000000000000E+00 -0.481351698480E-01
  0.406197046100E+00  0.224100846140E+00 -0.481351698480E-01
  0.322148057390E+00  0.000000000000E+00 -0.499220386450E-01
  0.322148057390E+00  0.224100846140E+00 -0.499220386450E-01
  0.246240745400E+00  0.000000000000E+00 -0.494246641260E-01
  0.246240745400E+00  0.224100846140E+00 -0.494246641260E-01
  0.180771082860E+00  0.000000000000E+00 -0.467582932350E-01
  0.180771082860E+00  0.224100846140E+00 -0.467582932350E-01
  0.126557836510E+00  0.000000000000E+00 -0.422895365970E-01
  0.126557836510E+00  0.224100846140E+00 -0.422895365970E-01
  0.832331623890E-01  0.000000000000E+00 -0.364528323560E-01
  0.832331623890E-01  0.224100846140E+00 -0.364528323560E-01
  0.497093485250E-01  0.000000000000E+00 -0.295749625020E-01
  0.497093485250E-01  0.224100846140E+00 -0.295749625020E-01
  0.246816596840E-01  0.000000000000E+00 -0.217022398280E-01
  0.246816596840E-01  0.224100846140E+00 -0.217022398280E-01
  0.732365982350E-02  0.000000000000E+00 -0.122714258330E-01
  0.732365982350E-02  0.224100846140E+00 -0.122714258330E-01
  0.000000000000E+00  0.000000000000E+00  0.000000000000E+00
  0.000000000000E+00  0.224100846140E+00  0.000000000000E+00
  0.732365982350E-02  0.224100846140E+00  0.122714258330E-01
  0.732365982350E-02  0.000000000000E+00  0.122714258330E-01
  0.246816596840E-01  0.224100846140E+00  0.217022398280E-01
  0.246816596840E-01  0.000000000000E+00  0.217022398280E-01
  0.497093485250E-01  0.224100846140E+00  0.295749625020E-01
  0.497093485250E-01  0.000000000000E+00  0.295749625020E-01
  0.832331623890E-01  0.224100846140E+00  0.364528323560E-01
  0.832331623890E-01  0.000000000000E+00  0.364528323560E-01
  0.126557836510E+00  0.224100846140E+00  0.422895365970E-01
  0.126557836510E+00  0.000000000000E+00  0.422895365970E-01
  0.180771082860E+00  0.224100846140E+00  0.467582932350E-01
  0.180771082860E+00  0.000000000000E+00  0.467582932350E-01
  0.246240745400E+00  0.224100846140E+00  0.494246641260E-01
  0.246240745400E+00  0.000000000000E+00  0.494246641260E-01
  0.322148057390E+00  0.224100846140E+00  0.499220386450E-01
  0.322148057390E+00  0.000000000000E+00  0.499220386450E-01
  0.406197046100E+00  0.224100846140E+00  0.481351698480E-01
  0.406197046100E+00  0.000000000000E+00  0.481351698480E-01
  0.494699909170E+00  0.224100846140E+00  0.442892746710E-01
  0.494699909170E+00  0.000000000000E+00  0.442892746710E-01
  0.583124116380E+00  0.000000000000E+00  0.389242397680E-01
  0.583124116380E+00  0.224100846140E+00  0.389242397680E-01
  0.666965306180E+00  0.000000000000E+00  0.327306847400E-01
  0.666965306180E+00  0.224100846140E+00  0.327306847400E-01
  0.742610019070E+00  0.000000000000E+00  0.263731107280E-01
  0.742610019070E+00  0.224100846140E+00  0.263731107280E-01
  0.807861744690E+00  0.000000000000E+00  0.203686189510E-01
  0.807861744690E+00  0.224100846140E+00  0.203686189510E-01
  0.862001352470E+00  0.000000000000E+00  0.150370898030E-01
  0.862001352470E+00  0.224100846140E+00  0.150370898030E-01
  0.905490052860E+00  0.000000000000E+00  0.105277887700E-01
  0.905490052860E+00  0.224100846140E+00  0.105277887700E-01
  0.939523307000E+00  0.000000000000E+00  0.685472369040E-02
  0.939523307000E+00  0.224100846140E+00  0.685472369040E-02
  0.965617092460E+00  0.000000000000E+00  0.394962905220E-02
  0.965617092460E+00  0.224100846140E+00  0.394962905220E-02
  0.985311378880E+00  0.000000000000E+00  0.170449895420E-02
  0.985311378880E+00  0.224100846140E+00  0.170449895420E-02
  0.985311378880E+00  0.474396230640E+00 -0.170449895420E-02
  0.100000000000E+01  0.474396230640E+00  0.000000000000E+00
  0.965617092460E+00  0.474396230640E+00 -0.394962905220E-02
  0.939523307000E+00  0.474396230640E+00 -0.685472369040E-02
  0.905490052860E+00  0.474396230640E+00 -0.105277887700E-01
  0.862001352470E+00  0.474396230640E+00 -0.150370898030E-01
  0.807861744690E+00  0.474396230640E+00 -0.203686189510E-01
  0.742610019070E+00  0.474396230640E+00 -0.263731107280E-01
  0.666965306180E+00  0.474396230640E+00 -0.327306847400E-01
  0.583124116380E+00  0.474396230640E+00 -0.389242397680E-01
  0.494699909170E+00  0.474396230640E+00 -0.442892746710E-01
  0.406197046100E+00  0.474396230640E+00 -0.481351698480E-01
  0.322148057390E+00  0.474396230640E+00 -0.499220386450E-01
  0.246240745400E+00  0.474396230640E+00 -0.494246641260E-01
  0.180771082860E+00  0.474396230640E+00 -0.467582932350E-01
  0.126557836510E+00  0.474396230640E+00 -0.422895365970E-01
  0.832331623890E-01  0.474396230640E+00 -0.364528323560E-01
  0.497093485250E-01  0.474396230640E+00 -0.295749625020E-01
  0.246816596840E-01  0.474396230640E+00 -0.217022398280E-01
  0.732365982350E-02  0.474396230640E+00 -0.122714258330E-01
  0.000000000000E+00  0.474396230640E+00  0.000000000000E+00
  0.732365982350E-02  0.474396230640E+00  0.122714258330E-01
  0.246816596840E-01  0.474396230640E+00  0.217022398280E-01
  0.497093485250E-01  0.474396230640E+00  0.295749625020E-01
  0.832331623890E-01  0.474396230640E+00  0.364528323560E-01
  0.126557836510E+00  0.474396230640E+00  0.422895365970E-01
  0.180771082860E+00  0.474396230640E+00  0.467582932350E-01
  0.246240745400E+00  0.474396230640E+00  0.494246641260E-01
  0.322148057390E+00  0.474396230640E+00  0.499220386450E-01
  0.406197046100E+00  0.474396230640E+00  0.481351698480E-01
  0.494699909170E+00  0.474396230640E+00  0.442892746710E-01
  0.583124116380E+00  0.474396230640E+00  0.389242397680E-01
  0.666965306180E+00  0.474396230640E+00  0.327306847400E-01
  0.742610019070E+00  0.474396230640E+00  0.263731107280E-01
  0.807861744690E+00  0.474396230640E+00  0.203686189510E-01
  0.862001352470E+00  0.474396230640E+00  0.150370898030E-01
  0.905490052860E+00  0.474396230640E+00  0.105277887700E-01
  0.939523307000E+00  0.474396230640E+00  0.685472369040E-02
  0.965617092460E+00  0.474396230640E+00  0.394962905220E-02
  0.985311378880E+00  0.474396230640E+00  0.170449895420E-02
  0.985311378880E+00  0.748095716550E+00 -0.170449895420E-02
  0.100000000000E+01  0.748095716550E+00  0.000000000000E+00
  0.965617092460E+00  0.748095716550E+00 -0.394962905220E-02
  0.939523307000E+00  0.748095716550E+00 -0.685472369040E-02
  0.905490052860E+00  0.748095716550E+00 -0.105277887700E-01
  0.862001352470E+00  0.748095716550E+00 -0.150370898030E-01
  0.807861744690E+00  0.748095716550E+00 -0.203686189510E-01
  0.742610019070E+00  0.748095716550E+00 -0.263731107280E-01
  0.666965306180E+00  0.748095716550E+00 -0.327306847400E-01
  0.583124116380E+00  0.748095716550E+00 -0.389242397680E-01
  0.494699909170E+00  0.748095716550E+00 -0.442892746710E-01
  0.406197046100E+00  0.748095716550E+00 -0.481351698480E-01
  0.322148057390E+00  0.748095716550E+00 -0.499220386450E-01
  0.246240745400E+00  0.748095716550E+00 -0.494246641260E-01
  0.180771082860E+00  0.748095716550E+00 -0.467582932350E-01
  0.126557836510E+00  0.748095716550E+00 -0.422895365970E-01
  0.832331623890E-01  0.748095716550E+00 -0.364528323560E-01
  0.497093485250E-01  0.748095716550E+00 -0.295749625020E-01
  0.246816596840E-01  0.748095716550E+00 -0.217022398280E-01
  0.732365982350E-02  0.748095716550E+00 -0.122714258330E-01
  0.000000000000E+00  0.748095716550E+00  0.000000000000E+00
  0.732365982350E-02  0.748095716550E+00  0.122714258330E-01
  0.246816596840E-01  0.748095716550E+00  0.217022398280E-01
  0.497093485250E-01  0.748095716550E+00  0.295749625020E-01
  0.832331623890E-01  0.748095716550E+00  0.364528323560E-01
  0.126557836510E+00  0.748095716550E+00  0.422895365970E-01
  0.180771082860E+00  0.748095716550E+00  0.467582932350E-01
  0.246240745400E+00  0.748095716550E+00  0.494246641260E-01
  0.322148057390E+00  0.748095716550E+00  0.499220386450E-01
  0.406197046100E+00  0.748095716550E+00  0.481351698480E-01
  0.494699909170E+00  0.748095716550E+00  0.442892746710E-01
  0.583124116380E+00  0.748095716550E+00  0.389242397680E-01
  0.666965306180E+00  0.748095716550E+00  0.327306847400E-01
  0.742610019070E+00  0.748095716550E+00  0.263731107280E-01
  0.807861744690E+00  0.748095716550E+00  0.203686189510E-01
  0.862001352470E+00  0.748095716550E+00  0.150370898030E-01
  0.905490052860E+00  0.748095716550E+00  0.105277887700E-01
  0.939523307000E+00  0.748095716550E+00  0.685472369040E-02
  0.965617092460E+00  0.748095716550E+00  0.394962905220E-02
  0.985311378880E+00  0.748095716550E+00  0.170449895420E-02
  0.985311378880E+00  0.104054975430E+01 -0.170449895420E-02
[...]
CELL_DATA                1976
SCALARS C_p_inc float 1
LOOKUP_TABLE default
 -0.113864470975E+01
 -0.113891849789E+01
 -0.587125817675E+00
 -0.587292179326E+00
 -0.389223160261E+00
 -0.389337010630E+00
 -0.298569102725E+00
 -0.298654027087E+00
 -0.249240889463E+00
 -0.249306844608E+00
 -0.220433195416E+00
 -0.220485199671E+00
 -0.203505234348E+00
 -0.203546340567E+00
 -0.194306691379E+00
 -0.194339031441E+00
 -0.190338053657E+00
 -0.190363232059E+00
 -0.189271517577E+00
 -0.189290891726E+00
 -0.188308169214E+00
 -0.188293515883E+00
 -0.183585251290E+00
 -0.183574872431E+00
 -0.170637872970E+00
 -0.170631616659E+00
 -0.144685890768E+00
 -0.144683706421E+00
 -0.100663992517E+00
 -0.100666005858E+00
 -0.320607309808E-01
 -0.320673185747E-01
  0.734440489663E-01
  0.734321249839E-01
  0.247018087228E+00
  0.246999431755E+00
  0.588833884382E+00
  0.588808505730E+00
  0.994834266829E+00
  0.994836742971E+00
 -0.344891501138E+00
 -0.344951295040E+00
 -0.106975952635E+01
 -0.106984814758E+01
 -0.936772586762E+00
 -0.936822168692E+00
 -0.786834300330E+00
 -0.786869751360E+00
 -0.666762984186E+00
 -0.666789824798E+00
 -0.563767032612E+00
 -0.563787448407E+00
 -0.469111882105E+00
 -0.469126903193E+00
 -0.378262761047E+00
 -0.378272857487E+00
 -0.289812443274E+00
 -0.289817822939E+00
 -0.203999127727E+00
 -0.203999255843E+00
 -0.121433691770E+00
 -0.121437424307E+00
 -0.421801728861E-01
 -0.421908421733E-01
  0.348321986175E-01
  0.348147581411E-01
  0.111585431733E+00
  0.111560602219E+00
  0.190975644170E+00
  0.190942762538E+00
  0.276932778380E+00
  0.276891146394E+00
  0.375513155175E+00
  0.375461963947E+00
  0.498298261126E+00
  0.498236664847E+00
  0.670018412618E+00
  0.669947655207E+00
  0.932044845270E+00
  0.932000222632E+00
 -0.113736254990E+01
 -0.113864472378E+01
 -0.586451642616E+00
 -0.587125827299E+00
 -0.388786975953E+00
 -0.389223166584E+00
 -0.298254946076E+00
 -0.298569106496E+00
 -0.249003146491E+00
 -0.249240891357E+00
 -0.220249235733E+00
 -0.220433196091E+00
 -0.203361695376E+00
 -0.203505234418E+00
 -0.194194672989E+00
 -0.194306691354E+00
 -0.190251167292E+00
 -0.190338053889E+00
 -0.189204937094E+00
 -0.189271518239E+00
 -0.188293516458E+00
 -0.188243914682E+00
 -0.183574873450E+00
 -0.183540484530E+00
 -0.170631618044E+00
 -0.170611631179E+00
 -0.144683708027E+00
 -0.144677895941E+00
 -0.100666007531E+00
 -0.100674733262E+00
 -0.320673201866E-01
 -0.320917152399E-01
  0.734321235213E-01
  0.733897199352E-01
  0.246999430497E+00
  0.246933996801E+00
  0.588808504716E+00
  0.588717841132E+00
  0.994836742275E+00
  0.994852897719E+00
 -0.344647571949E+00
 -0.344891501308E+00
 -0.106952897337E+01
 -0.106975952639E+01
 -0.936600286294E+00
 -0.936772586758E+00
 -0.786706269205E+00
 -0.786834300348E+00
 -0.666664978792E+00
 -0.666762984307E+00
 -0.563691700971E+00
 -0.563767032912E+00
 -0.469055598606E+00
 -0.469111882638E+00
 -0.378223885969E+00
 -0.378262761822E+00
 -0.289790394077E+00
 -0.289812444224E+00
 -0.203993843303E+00
 -0.203999128717E+00
 -0.121437425309E+00
 -0.121450820771E+00
 -0.421908430633E-01
 -0.422259369529E-01
  0.348147575395E-01
  0.347556610567E-01
  0.111560601973E+00
  0.111474564574E+00
  0.190942762545E+00
  0.190826242357E+00
  0.276891146374E+00
  0.276739785917E+00
  0.375461963482E+00
  0.375270017059E+00
  0.498236663417E+00
  0.497996642445E+00
  0.669947652192E+00
  0.669656725495E+00
  0.932000217111E+00
  0.931776345099E+00
 -0.113432301120E+01
 -0.113736257245E+01
 -0.584997728596E+00
 -0.586451656241E+00
 -0.387890769807E+00
 -0.388786983258E+00
 -0.297632588473E+00
 -0.298254948987E+00
 -0.248545736270E+00
 -0.249003146713E+00
 -0.219903160338E+00
 -0.220249234783E+00
 -0.203095947056E+00
 -0.203361694507E+00
 -0.193989423602E+00
 -0.194194673092E+00
 -0.190092987202E+00
 -0.190251168835E+00
 -0.189084442273E+00
 -0.189204940135E+00
 -0.188243916793E+00
 -0.188155716470E+00
 -0.183540487921E+00
 -0.183481895497E+00
 -0.170611635573E+00
 -0.170581118396E+00
 -0.144677900905E+00
 -0.144675247147E+00
 -0.100674738352E+00
 -0.100700994464E+00
 -0.320917200956E-01
 -0.321494830614E-01
  0.733897155568E-01
  0.732955842930E-01
  0.246933993036E+00
  0.246795080697E+00
  0.588717838040E+00
  0.588536926531E+00
  0.994852895475E+00
  0.994886336941E+00
 -0.344085258056E+00
 -0.344647572237E+00
 -0.106902226609E+01
 -0.106952897335E+01
 -0.936238657333E+00
 -0.936600286223E+00
 -0.786436571405E+00
 -0.786706269318E+00
 -0.666456233048E+00
 -0.666664979336E+00
 -0.563528736337E+00
 -0.563691702196E+00
 -0.468930836706E+00
 -0.469055600700E+00
 -0.378133765585E+00
 -0.378223888968E+00
 -0.289733630659E+00
 -0.289790397789E+00
 -0.203970549672E+00
 -0.203993847291E+00
 -0.121450824846E+00
 -0.121463619919E+00
 -0.422259410747E-01
 -0.422794440030E-01
  0.347556576087E-01
  0.346562897357E-01
  0.111474562402E+00
  0.111322220598E+00
  0.190826241713E+00
  0.190611557772E+00
  0.276739786574E+00
  0.276450271744E+00
  0.375270018312E+00
  0.374888352874E+00
  0.497996643194E+00
  0.497498793791E+00
  0.669656724309E+00
  0.669022358697E+00
  0.931776340048E+00
  0.931240833458E+00
 -0.112971834021E+01
 -0.113432299535E+01
 -0.582896120854E+00
 -0.584997716093E+00
 -0.386630838512E+00
 -0.387890758226E+00
 -0.296772154592E+00
 -0.297632578183E+00
 -0.247918320799E+00
 -0.248545728263E+00
 -0.219428762101E+00
 -0.219903155634E+00
 -0.202730069852E+00
 -0.203095946439E+00
 -0.193705089373E+00
 -0.193989427430E+00
 -0.189872954603E+00
 -0.190092995285E+00
 -0.188917299421E+00
 -0.189084453889E+00
 -0.188155724690E+00
 -0.188036565735E+00
 -0.183481906559E+00
 -0.183409259287E+00
 -0.170581131441E+00
 -0.170554045656E+00
 -0.144675261068E+00
 -0.144694700552E+00
 -0.100701008208E+00
 -0.100769829163E+00
 -0.321494958175E-01
 -0.322729945726E-01
  0.732955730366E-01
  0.731084716195E-01
  0.246795071188E+00
  0.246530860554E+00
  0.588536918833E+00
  0.588207229446E+00
  0.994886331364E+00
  0.994947486091E+00
 -0.343014471247E+00
 -0.344085258169E+00
 -0.106807454974E+01
 -0.106902226572E+01
 -0.935574240187E+00
 -0.936238657138E+00
 -0.785939427500E+00
 -0.786436571999E+00
 -0.666068160610E+00
 -0.666456235130E+00
 -0.563221533567E+00
 -0.563528740638E+00
 -0.468689865227E+00
 -0.468930843828E+00
 -0.377951381360E+00
 -0.378133775769E+00
 -0.289606101623E+00
 -0.289733643568E+00
 -0.203896498697E+00
 -0.203970564334E+00
 -0.121463634380E+00
 -0.121444418301E+00
 -0.422794602762E-01
 -0.423191194480E-01
  0.346562735011E-01
  0.345519611761E-01
  0.111322206479E+00
  0.111144286516E+00
  0.190611547625E+00
  0.190346850151E+00
  0.276450266903E+00
  0.276079421351E+00
  0.374888354087E+00
  0.374382373889E+00
  0.497498801415E+00
  0.496814544476E+00
  0.669022373317E+00
  0.668113457463E+00
  0.931240858076E+00
  0.930426972597E+00
 -0.112799644088E+01
 -0.112971825278E+01
 -0.581857429558E+00
 -0.582896072226E+00
 -0.385860452425E+00
 -0.386630809321E+00
 -0.296148012738E+00
 -0.296772137598E+00
 -0.247393234324E+00
 -0.247918312598E+00
 -0.218980260003E+00
 -0.219428761020E+00
 -0.202346289647E+00
 -0.202730075162E+00
 -0.193379645796E+00
 -0.193705100749E+00
 -0.189602656567E+00
 -0.189872971612E+00
 -0.188700887723E+00
 -0.188917321138E+00
 -0.188036578590E+00
 -0.187876186599E+00
 -0.183409277405E+00
 -0.183308298335E+00
 -0.170554067999E+00
 -0.170515417676E+00
 -0.144694725345E+00
 -0.144722713962E+00
 -0.100769854468E+00
 -0.100870660855E+00
 -0.322730187514E-01
 -0.324559611153E-01
  0.731084496991E-01
  0.728289157799E-01
  0.246530841519E+00
  0.246134323320E+00
  0.588207213531E+00
  0.587713703016E+00
  0.994947474017E+00
  0.995039274847E+00
 -0.341365186662E+00
 -0.343014471197E+00
 -0.106661872877E+01
 -0.106807454898E+01
 -0.934558903736E+00
 -0.935574239837E+00
 -0.785177031026E+00
 -0.785939428586E+00
 -0.665469173032E+00
 -0.666068164412E+00
 -0.562742556310E+00
 -0.563221541468E+00
 -0.468307804772E+00
 -0.468689878421E+00
 -0.377653247693E+00
 -0.377951400449E+00
 -0.289383951710E+00
 -0.289606126277E+00
 -0.203744648728E+00
 -0.203896527635E+00
 -0.121444443742E+00
 -0.121359910293E+00
 -0.423191515128E-01
 -0.422996024208E-01
  0.345519243675E-01
  0.345106065845E-01
  0.111144247351E+00
  0.111045413727E+00
  0.190346811096E+00
  0.190193060109E+00
  0.276079384767E+00
  0.275872349405E+00
  0.374382342169E+00
  0.374122457736E+00
  0.496814520567E+00
  0.496501931549E+00
  0.668113446386E+00
  0.667757799709E+00
  0.930426987501E+00
  0.930168257484E+00
 -0.112716065535E+01
 -0.112799642170E+01
 -0.581118275251E+00
 -0.581857416388E+00
 -0.385183087585E+00
 -0.385860443864E+00
 -0.295520913866E+00
 -0.296148008914E+00
 -0.246813702005E+00
 -0.247393236347E+00
 -0.218449172941E+00
 -0.218980269752E+00
 -0.201866569777E+00
 -0.202346309397E+00
 -0.192955614138E+00
 -0.193379677500E+00
 -0.189239429923E+00
 -0.189602700905E+00
 -0.188403597486E+00
 -0.188700943411E+00
 -0.187876225239E+00
 -0.187654339557E+00
 -0.183308348788E+00
 -0.183172402897E+00
 -0.170515476926E+00
 -0.170473073221E+00
 -0.144722777521E+00
 -0.144782129830E+00
 -0.100870724118E+00
 -0.101042187324E+00
 -0.324560203645E-01
 -0.327545701479E-01
  0.728288629940E-01
  0.723803517764E-01
  0.246134278270E+00
  0.245504540046E+00
  0.587713666107E+00
  0.586937545676E+00
  0.995039247402E+00
  0.995182135338E+00
 -0.338759702858E+00
 -0.341365185933E+00
 -0.106433526897E+01
 -0.106661872654E+01
 -0.932975354107E+00
 -0.934558902852E+00
 -0.783987880023E+00
 -0.785177034091E+00
 -0.664532830296E+00
 -0.665469183298E+00
 -0.561990689845E+00
 -0.562742577318E+00
 -0.467704010055E+00
 -0.468307839658E+00
 -0.377176815894E+00
 -0.377653298196E+00
 -0.289021494397E+00
 -0.289384017280E+00
 -0.203484981839E+00
 -0.203744726421E+00
 -0.121359974742E+00
 -0.121194313931E+00
 -0.422996813470E-01
 -0.422196457129E-01
  0.345105175020E-01
  0.345164354141E-01
  0.111045319218E+00
  0.110989169195E+00
  0.190192964061E+00
  0.190087254752E+00
  0.275872254291E+00
  0.275729988696E+00
  0.374122364656E+00
  0.373957669004E+00
  0.496501840560E+00
  0.496332185104E+00
  0.667757710117E+00
  0.667610543536E+00
  0.930168167928E+00
  0.930105433135E+00
 -0.112257620323E+01
 -0.112716067700E+01
 -0.578673235872E+00
 -0.581118282161E+00
 -0.383464136441E+00
 -0.385183087691E+00
 -0.294165960190E+00
 -0.295520914655E+00
 -0.245690276120E+00
 -0.246813711969E+00
 -0.217496561893E+00
 -0.218449201559E+00
 -0.201054468815E+00
 -0.201866626348E+00
 -0.192269652668E+00
 -0.192955705527E+00
 -0.188674536694E+00
 -0.189239557934E+00
 -0.187959809640E+00
 -0.188403757314E+00
 -0.187654462354E+00
 -0.187340570233E+00
 -0.183172555479E+00
 -0.183001178036E+00
 -0.170473245041E+00
 -0.170454340780E+00
 -0.144782307752E+00
 -0.144926949922E+00
 -0.101042359155E+00
 -0.101365038305E+00
 -0.327547268835E-01
 -0.332772942629E-01
  0.723802154422E-01
  0.716235107151E-01
  0.245504426348E+00
  0.244467107619E+00
  0.586937454824E+00
  0.585682085554E+00
  0.995182069604E+00
  0.995406472748E+00
 -0.334607579354E+00
 -0.338759700019E+00
 -0.106070524188E+01
 -0.106433526319E+01
 -0.930461933217E+00
 -0.932975352935E+00
 -0.782097802143E+00
 -0.783987890667E+00
 -0.663041037423E+00
 -0.664532861755E+00
 -0.560789516986E+00
 -0.561990751972E+00
 -0.466737002838E+00
 -0.467704111664E+00
 -0.376413026846E+00
 -0.377176961857E+00
 -0.288442224731E+00
 -0.289021682832E+00
 -0.203075632434E+00
 -0.203485203297E+00
 -0.121194497913E+00
 -0.120945919600E+00
 -0.422198610933E-01
 -0.421249385024E-01
  0.345162052539E-01
  0.344684328172E-01
  0.110988941656E+00
  0.110807624464E+00
  0.190087044060E+00
  0.189778203574E+00
  0.275729804188E+00
  0.275294621766E+00
  0.373957515520E+00
  0.373390297034E+00
  0.496332064514E+00
  0.495618889209E+00
  0.667610456672E+00
  0.666742945742E+00
  0.930105382283E+00
  0.929384897926E+00
 -0.111245525133E+01
 -0.112257628157E+01
 -0.573653209422E+00
 -0.578673264058E+00
 -0.380148106698E+00
 -0.383464138304E+00
 -0.291681687609E+00
 -0.294165959202E+00
 -0.243714957888E+00
 -0.245690297516E+00
 -0.215878680948E+00
 -0.217496632320E+00
 -0.199714519997E+00
 -0.201054613172E+00
 -0.191165499010E+00
 -0.192269888349E+00
 -0.187785890755E+00
 -0.188674867089E+00
 -0.187278854828E+00
 -0.187960220722E+00
 -0.187340889597E+00
 -0.186876216313E+00
 -0.183001576110E+00
 -0.182769136574E+00
 -0.170454787494E+00
 -0.170466422515E+00
 -0.144927409401E+00
 -0.145196613045E+00
 -0.101365478480E+00
 -0.101911049102E+00
 -0.332776924154E-01
 -0.341300296801E-01
  0.716231672062E-01
  0.704143307296E-01
  0.244466823415E+00
  0.242833337746E+00
  0.585681860375E+00
  0.583725796516E+00
  0.995406311449E+00
  0.995742374537E+00
 -0.328235705887E+00
 -0.334607572404E+00
 -0.105513916636E+01
 -0.106070522899E+01
 -0.926606808000E+00
 -0.930461933024E+00
 -0.779192671954E+00
 -0.782097832920E+00
 -0.660741005687E+00
 -0.663041122211E+00
 -0.558931176149E+00
 -0.560789681225E+00
 -0.465236820381E+00
 -0.466737269357E+00
 -0.375227951593E+00
 -0.376413407895E+00
 -0.287549072106E+00
 -0.288442713880E+00
 -0.202457937839E+00
 -0.203076201889E+00
 -0.120946392264E+00
 -0.120596222763E+00
 -0.421254883870E-01
 -0.420382955284E-01
  0.344678522244E-01
  0.343021553931E-01
  0.110807061130E+00
  0.110394172066E+00
  0.189777695528E+00
  0.189115534859E+00
  0.275294192200E+00
  0.274368446287E+00
  0.373389955363E+00
  0.372168245530E+00
  0.495618635026E+00
  0.494044658981E+00
  0.666742772769E+00
  0.664762955831E+00
  0.929384795628E+00
  0.927668021304E+00
 -0.109804187146E+01
 -0.111245526054E+01
 -0.566313615499E+00
 -0.573653190776E+00
 -0.375213525851E+00
 -0.380148072622E+00
 -0.287944691120E+00
 -0.291681679532E+00
 -0.240725341864E+00
 -0.243715030797E+00
 -0.213423351086E+00
 -0.215878897237E+00
 -0.197680852078E+00
 -0.199714939346E+00
 -0.189493846838E+00
 -0.191166162377E+00
 -0.186448207773E+00
 -0.187786802765E+00
 -0.186265077345E+00
 -0.187279974720E+00
 -0.186877101764E+00
 -0.186202719312E+00
 -0.182770227325E+00
 -0.182461031230E+00
 -0.170467633374E+00
 -0.170539538363E+00
 -0.145197845462E+00
 -0.145667662604E+00
 -0.101912217731E+00
 -0.102803803457E+00
 -0.341310765588E-01
 -0.354855784328E-01
  0.704134356069E-01
  0.685255357806E-01
  0.242832603372E+00
  0.240313060370E+00
  0.583725219661E+00
  0.580733819212E+00
  0.995741965326E+00
  0.996226707710E+00
 -0.318655240886E+00
 -0.328235690872E+00
 -0.104676231973E+01
 -0.105513913657E+01
 -0.920792576642E+00
 -0.926606811566E+00
 -0.774795668335E+00
 -0.779192757180E+00
 -0.657242956895E+00
 -0.660741234157E+00
 -0.556088573501E+00
 -0.558931617114E+00
 -0.462928437949E+00
 -0.465237537644E+00
 -0.373395643719E+00
 -0.375228981362E+00
 -0.286166072467E+00
 -0.287550399181E+00
 -0.201507296471E+00
 -0.202459486428E+00
 -0.120597532449E+00
 -0.120072490539E+00
 -0.420398239167E-01
 -0.419361523754E-01
  0.343005369493E-01
  0.339992400194E-01
  0.110392594956E+00
  0.109699419705E+00
  0.189114100500E+00
  0.188033333395E+00
  0.274367213065E+00
  0.272887748419E+00
  0.372167233304E+00
  0.370255143082E+00
  0.494043861562E+00
  0.491637125349E+00
  0.664762353501E+00
  0.661816164438E+00
  0.927667592042E+00
  0.925173525859E+00
 -0.107663560966E+01
 -0.109804187401E+01
 -0.555672803903E+00
 -0.566313548674E+00
 -0.368168792127E+00
 -0.375213440663E+00
 -0.282644504898E+00
 -0.287944689532E+00
 -0.236483653030E+00
 -0.240725552379E+00
 -0.209920279583E+00
 -0.213423919902E+00
 -0.194753210823E+00
 -0.197681923030E+00
 -0.187062393964E+00
 -0.189495524048E+00
 -0.184484291364E+00
 -0.186450509396E+00
 -0.184768017788E+00
 -0.186267906775E+00
 -0.186204943818E+00
 -0.185210029316E+00
 -0.182463800061E+00
 -0.182017816887E+00
 -0.170542629657E+00
 -0.170670905799E+00
 -0.145670815730E+00
 -0.146394869959E+00
 -0.102806793380E+00
 -0.104155067168E+00
 -0.354882546433E-01
 -0.375133278037E-01
  0.685232488677E-01
  0.657256781412E-01
  0.240311183361E+00
  0.236603772627E+00
  0.580732341879E+00
  0.576348786409E+00
  0.996225654874E+00
  0.996877519581E+00
 -0.304846552942E+00
 -0.318655220217E+00
 -0.103464650469E+01
 -0.104676225420E+01
 -0.912347373233E+00
 -0.920792584034E+00
 -0.768371853842E+00
 -0.774795869374E+00
 -0.652093331471E+00
 -0.657243509495E+00
 -0.551865531079E+00
 -0.556089660847E+00
 -0.459465244765E+00
 -0.462930235930E+00
 -0.370620961915E+00
 -0.373398260977E+00
 -0.284056213454E+00
 -0.286169481263E+00
 -0.200050806168E+00
 -0.201511301864E+00
 -0.120075860251E+00
 -0.119270669152E+00
 -0.419401286844E-01
 -0.417805251048E-01
  0.339950008309E-01
  0.335431236888E-01
  0.109695267450E+00
  0.108663580399E+00
  0.188029535454E+00
  0.186434550678E+00
  0.272884458691E+00
  0.270713718613E+00
  0.370252418092E+00
  0.367450085442E+00
  0.491634958877E+00
  0.488088894310E+00
  0.661814520131E+00
  0.657411341588E+00
  0.925172365108E+00
  0.921312471760E+00
 -0.105133147425E+01
 -0.107663516146E+01
 -0.542475688659E+00
 -0.555672488712E+00
 -0.359096073626E+00
 -0.368168578657E+00
 -0.275618424411E+00
 -0.282644573152E+00
 -0.230728642333E+00
 -0.236484286707E+00
 -0.205073706264E+00
 -0.209921833105E+00
 -0.190633435027E+00
 -0.194756055168E+00
 -0.183589492383E+00
 -0.187066816064E+00
 -0.181643051250E+00
 -0.184490363680E+00
 -0.182579097400E+00
 -0.184775508781E+00
 -0.185215955947E+00
 -0.183753168553E+00
 -0.182025203910E+00
 -0.181377109468E+00
 -0.170679151391E+00
 -0.170887767409E+00
 -0.146403262641E+00
 -0.147495753829E+00
 -0.104162998212E+00
 -0.106169836664E+00
 -0.375203999283E-01
 -0.405040896090E-01
  0.657196543492E-01
  0.616344104602E-01
  0.236598838827E+00
  0.231225275264E+00
  0.576344905315E+00
  0.570017237416E+00
  0.996874745981E+00
  0.997698813291E+00
 -0.285325545273E+00
 -0.304846550266E+00
 -0.101744808365E+01
 -0.103464635268E+01
 -0.900292409677E+00
 -0.912347372613E+00
 -0.759131188847E+00
 -0.768372317257E+00
 -0.644609790382E+00
 -0.652094679517E+00
 -0.545653286647E+00
 -0.551868271423E+00
 -0.454302958848E+00
 -0.459469891870E+00
 -0.366431444380E+00
 -0.370627869043E+00
 -0.280835944203E+00
 -0.284065359143E+00
 -0.197811526983E+00
 -0.200061678323E+00
 -0.119279824252E+00
 -0.118032101237E+00
 -0.417914009346E-01
 -0.415298525215E-01
  0.335315060876E-01
  0.328726433263E-01
  0.108652204876E+00
  0.107148904021E+00
  0.186424138946E+00
  0.184140223216E+00
  0.270704649583E+00
  0.267670993783E+00
  0.367442458714E+00
  0.363641147156E+00
  0.488082641499E+00
  0.483440053128E+00
  0.657406322870E+00
  0.651875162168E+00
  0.921308556442E+00
  0.916616998840E+00
 -0.101468664431E+01
 -0.105133152624E+01
 -0.523753374533E+00
 -0.542475384909E+00
 -0.346396411032E+00
 -0.359095758474E+00
 -0.265847181688E+00
 -0.275618701945E+00
 -0.222734368140E+00
 -0.230730298978E+00
 -0.198320901479E+00
 -0.205077682744E+00
 -0.184857112532E+00
 -0.190640716662E+00
 -0.178677884875E+00
 -0.183600866998E+00
 -0.177583871739E+00
 -0.181658769601E+00
 -0.179417608051E+00
 -0.182598615002E+00
 -0.183768545970E+00
 -0.181630589661E+00
 -0.181396427164E+00
 -0.180436936590E+00
 -0.170909439837E+00
 -0.171202158732E+00
 -0.147517857456E+00
 -0.149101855380E+00
 -0.106190716049E+00
 -0.109095777223E+00
 -0.405226780801E-01
 -0.448152740896E-01
  0.616186000220E-01
  0.557870377573E-01
  0.231212325899E+00
  0.223600916816E+00
  0.570007024120E+00
  0.561083191654E+00
  0.997691452646E+00
  0.998629389250E+00
 -0.258541479901E+00
 -0.285325699924E+00
 -0.993701822609E+00
 -0.101744775158E+01
 -0.883521499578E+00
 -0.900292337098E+00
 -0.746142797410E+00
 -0.759132165861E+00
 -0.633951351418E+00
 -0.644612923769E+00
 -0.536667107018E+00
 -0.545659979262E+00
 -0.446709715776E+00
 -0.454314722207E+00
 -0.360167455080E+00
 -0.366449431388E+00
 -0.275953011107E+00
 -0.280860283631E+00
 -0.194383725362E+00
 -0.197840885636E+00
 -0.118056635602E+00
 -0.116133516907E+00
 -0.415593186003E-01
 -0.411560087110E-01
  0.328411147673E-01
  0.318290743449E-01
  0.107118207859E+00
  0.104825515842E+00