# vtk DataFile Version 3.0
MachLine results file. Generated by MachLine, USU AeroLab (c) 2022.
ASCII
DATASET POLYDATA
POINTS                1191 float
  0.100000000000E+01  0.000000000000E+00  0.000000000000E+00
  0.982808546230E+00  0.251860313995E+00 -0.197481452610E-02
  0.982808546230E+00  0.000000000000E+00 -0.197481452610E-02
  0.982808546230E+00  0.251860313995E+00  0.197481452610E-02
  0.965617092460E+00  0.503720627990E+00 -0.394962905220E-02
  0.982808546230E+00  0.503720627990E+00 -0.197481452610E-02
  0.965617092460E+00  0.805599058095E+00 -0.394962905220E-02
  0.935553572660E+00  0.805599058095E+00 -0.723870891110E-02
  0.100000000000E+01  0.503720627990E+00  0.000000000000E+00
  0.100000000000E+01  0.251860313995E+00  0.000000000000E+00
  0.982808546230E+00  0.805599058095E+00 -0.197481452610E-02
  0.982808546230E+00  0.503720627990E+00  0.197481452610E-02
  0.982808546230E+00  0.805599058095E+00  0.197481452610E-02
  0.100000000000E+01  0.251860313995E+00  0.000000000000E+00
  0.965617092460E+00  0.000000000000E+00 -0.394962905220E-02
  0.935553572660E+00  0.251860313995E+00 -0.723870891110E-02
  0.965617092460E+00  0.251860313995E+00 -0.394962905220E-02
  0.935553572660E+00  0.000000000000E+00 -0.723870891110E-02
  0.905490052860E+00  0.503720627990E+00 -0.105277887700E-01
  0.935553572660E+00  0.503720627990E+00 -0.723870891110E-02
  0.905490052860E+00  0.805599058095E+00 -0.105277887700E-01
  0.856675898775E+00  0.805599058095E+00 -0.154482038605E-01
  0.905490052860E+00  0.000000000000E+00 -0.105277887700E-01
  0.856675898775E+00  0.251860313995E+00 -0.154482038605E-01
  0.905490052860E+00  0.251860313995E+00 -0.105277887700E-01
  0.856675898775E+00  0.000000000000E+00 -0.154482038605E-01
  0.807861744690E+00  0.503720627990E+00 -0.203686189510E-01
  0.856675898775E+00  0.503720627990E+00 -0.154482038605E-01
  0.807861744690E+00  0.805599058095E+00 -0.203686189510E-01
  0.737413525435E+00  0.805599058095E+00 -0.265496518455E-01
  0.807861744690E+00  0.000000000000E+00 -0.203686189510E-01
  0.737413525435E+00  0.251860313995E+00 -0.265496518455E-01
  0.807861744690E+00  0.251860313995E+00 -0.203686189510E-01
  0.737413525435E+00  0.000000000000E+00 -0.265496518455E-01
  0.666965306180E+00  0.503720627990E+00 -0.327306847400E-01
  0.737413525435E+00  0.503720627990E+00 -0.265496518455E-01
  0.666965306180E+00  0.805599058095E+00 -0.327306847400E-01
  0.580832607675E+00  0.805599058095E+00 -0.385099797055E-01
  0.666965306180E+00  0.000000000000E+00 -0.327306847400E-01
  0.666965306180E+00  0.251860313995E+00 -0.327306847400E-01
  0.580832607675E+00  0.251860313995E+00 -0.385099797055E-01
  0.580832607675E+00  0.000000000000E+00 -0.385099797055E-01
  0.494699909170E+00  0.503720627990E+00 -0.442892746710E-01
  0.580832607675E+00  0.503720627990E+00 -0.385099797055E-01
  0.494699909170E+00  0.805599058095E+00 -0.442892746710E-01
  0.494699909170E+00  0.000000000000E+00 -0.442892746710E-01
  0.494699909170E+00  0.251860313995E+00 -0.442892746710E-01
  0.408423983280E+00  0.000000000000E+00 -0.471056566580E-01
  0.322148057390E+00  0.000000000000E+00 -0.499220386450E-01
  0.408423983280E+00  0.251860313995E+00 -0.471056566580E-01
  0.322148057390E+00  0.251860313995E+00 -0.499220386450E-01
  0.251459570125E+00  0.000000000000E+00 -0.483401659400E-01
  0.322148057390E+00  0.503720627990E+00 -0.499220386450E-01
  0.408423983280E+00  0.503720627990E+00 -0.471056566580E-01
  0.408423983280E+00  0.805599058095E+00 -0.471056566580E-01
  0.322148057390E+00  0.805599058095E+00 -0.499220386450E-01
  0.180771082860E+00  0.000000000000E+00 -0.467582932350E-01
  0.251459570125E+00  0.251860313995E+00 -0.483401659400E-01
  0.180771082860E+00  0.251860313995E+00 -0.467582932350E-01
  0.132002122625E+00  0.000000000000E+00 -0.416055627955E-01
  0.180771082860E+00  0.503720627990E+00 -0.467582932350E-01
  0.251459570125E+00  0.503720627990E+00 -0.483401659400E-01
  0.251459570125E+00  0.805599058095E+00 -0.483401659400E-01
  0.180771082860E+00  0.805599058095E+00 -0.467582932350E-01
  0.832331623890E-01  0.000000000000E+00 -0.364528323560E-01
  0.132002122625E+00  0.251860313995E+00 -0.416055627955E-01
  0.832331623890E-01  0.251860313995E+00 -0.364528323560E-01
  0.539574110365E-01  0.000000000000E+00 -0.290775360920E-01
  0.832331623890E-01  0.503720627990E+00 -0.364528323560E-01
  0.132002122625E+00  0.503720627990E+00 -0.416055627955E-01
  0.132002122625E+00  0.805599058095E+00 -0.416055627955E-01
  0.832331623890E-01  0.805599058095E+00 -0.364528323560E-01
  0.246816596840E-01  0.000000000000E+00 -0.217022398280E-01
  0.246816596840E-01  0.251860313995E+00 -0.217022398280E-01
  0.539574110365E-01  0.251860313995E+00 -0.290775360920E-01
  0.123408298420E-01  0.000000000000E+00 -0.108511199140E-01
  0.246816596840E-01  0.503720627990E+00 -0.217022398280E-01
  0.539574110365E-01  0.503720627990E+00 -0.290775360920E-01
  0.539574110365E-01  0.805599058095E+00 -0.290775360920E-01
  0.246816596840E-01  0.805599058095E+00 -0.217022398280E-01
  0.000000000000E+00  0.000000000000E+00  0.000000000000E+00
  0.123408298420E-01  0.251860313995E+00 -0.108511199140E-01
  0.000000000000E+00  0.251860313995E+00  0.000000000000E+00
  0.123408298420E-01  0.251860313995E+00  0.108511199140E-01
  0.123408298420E-01  0.000000000000E+00  0.108511199140E-01
  0.000000000000E+00  0.503720627990E+00  0.000000000000E+00
  0.123408298420E-01  0.503720627990E+00 -0.108511199140E-01
  0.123408298420E-01  0.805599058095E+00 -0.108511199140E-01
  0.000000000000E+00  0.805599058095E+00  0.000000000000E+00
  0.123408298420E-01  0.805599058095E+00  0.108511199140E-01
  0.246816596840E-01  0.503720627990E+00  0.217022398280E-01
  0.123408298420E-01  0.503720627990E+00  0.108511199140E-01
  0.246816596840E-01  0.805599058095E+00  0.217022398280E-01
  0.539574110365E-01  0.805599058095E+00  0.290775360920E-01
  0.246816596840E-01  0.000000000000E+00  0.217022398280E-01
  0.539574110365E-01  0.251860313995E+00  0.290775360920E-01
  0.246816596840E-01  0.251860313995E+00  0.217022398280E-01
  0.539574110365E-01  0.000000000000E+00  0.290775360920E-01
  0.832331623890E-01  0.503720627990E+00  0.364528323560E-01
  0.539574110365E-01  0.503720627990E+00  0.290775360920E-01
  0.132002122625E+00  0.805599058095E+00  0.416055627955E-01
  0.832331623890E-01  0.805599058095E+00  0.364528323560E-01
  0.832331623890E-01  0.000000000000E+00  0.364528323560E-01
  0.832331623890E-01  0.251860313995E+00  0.364528323560E-01
  0.132002122625E+00  0.251860313995E+00  0.416055627955E-01
  0.132002122625E+00  0.000000000000E+00  0.416055627955E-01
  0.180771082860E+00  0.503720627990E+00  0.467582932350E-01
  0.132002122625E+00  0.503720627990E+00  0.416055627955E-01
  0.251459570125E+00  0.805599058095E+00  0.483401659400E-01
  0.180771082860E+00  0.805599058095E+00  0.467582932350E-01
  0.180771082860E+00  0.000000000000E+00  0.467582932350E-01
  0.180771082860E+00  0.251860313995E+00  0.467582932350E-01
  0.251459570125E+00  0.251860313995E+00  0.483401659400E-01
  0.251459570125E+00  0.000000000000E+00  0.483401659400E-01
  0.322148057390E+00  0.503720627990E+00  0.499220386450E-01
  0.251459570125E+00  0.503720627990E+00  0.483401659400E-01
  0.322148057390E+00  0.805599058095E+00  0.499220386450E-01
  0.408423983280E+00  0.805599058095E+00  0.471056566580E-01
  0.322148057390E+00  0.000000000000E+00  0.499220386450E-01
  0.322148057390E+00  0.251860313995E+00  0.499220386450E-01
  0.408423983280E+00  0.251860313995E+00  0.471056566580E-01
  0.408423983280E+00  0.000000000000E+00  0.471056566580E-01
  0.494699909170E+00  0.503720627990E+00  0.442892746710E-01
  0.408423983280E+00  0.503720627990E+00  0.471056566580E-01
  0.494699909170E+00  0.805599058095E+00  0.442892746710E-01
  0.494699909170E+00  0.000000000000E+00  0.442892746710E-01
  0.494699909170E+00  0.251860313995E+00  0.442892746710E-01
  0.580832607675E+00  0.000000000000E+00  0.385099797055E-01
  0.666965306180E+00  0.000000000000E+00  0.327306847400E-01
  0.580832607675E+00  0.251860313995E+00  0.385099797055E-01
  0.666965306180E+00  0.251860313995E+00  0.327306847400E-01
  0.737413525435E+00  0.000000000000E+00  0.265496518455E-01
  0.666965306180E+00  0.503720627990E+00  0.327306847400E-01
  0.580832607675E+00  0.503720627990E+00  0.385099797055E-01
  0.666965306180E+00  0.805599058095E+00  0.327306847400E-01
  0.580832607675E+00  0.805599058095E+00  0.385099797055E-01
  0.807861744690E+00  0.000000000000E+00  0.203686189510E-01
  0.737413525435E+00  0.251860313995E+00  0.265496518455E-01
  0.807861744690E+00  0.251860313995E+00  0.203686189510E-01
  0.856675898775E+00  0.000000000000E+00  0.154482038605E-01
  0.807861744690E+00  0.503720627990E+00  0.203686189510E-01
  0.737413525435E+00  0.503720627990E+00  0.265496518455E-01
  0.807861744690E+00  0.805599058095E+00  0.203686189510E-01
  0.737413525435E+00  0.805599058095E+00  0.265496518455E-01
  0.905490052860E+00  0.000000000000E+00  0.105277887700E-01
  0.856675898775E+00  0.251860313995E+00  0.154482038605E-01
  0.905490052860E+00  0.251860313995E+00  0.105277887700E-01
  0.935553572660E+00  0.000000000000E+00  0.723870891110E-02
  0.905490052860E+00  0.503720627990E+00  0.105277887700E-01
  0.856675898775E+00  0.503720627990E+00  0.154482038605E-01
  0.856675898775E+00  0.805599058095E+00  0.154482038605E-01
  0.905490052860E+00  0.805599058095E+00  0.105277887700E-01
  0.965617092460E+00  0.000000000000E+00  0.394962905220E-02
  0.935553572660E+00  0.251860313995E+00  0.723870891110E-02
  0.965617092460E+00  0.251860313995E+00  0.394962905220E-02
  0.982808546230E+00  0.000000000000E+00  0.197481452610E-02
  0.965617092460E+00  0.503720627990E+00  0.394962905220E-02
  0.935553572660E+00  0.503720627990E+00  0.723870891110E-02
  0.965617092460E+00  0.805599058095E+00  0.394962905220E-02
  0.935553572660E+00  0.805599058095E+00  0.723870891110E-02
  0.965617092460E+00  0.110747748820E+01 -0.394962905220E-02
[...]
CELL_DATA                2304
SCALARS C_p_inc float 1
LOOKUP_TABLE default
  0.235747965164E+00
  0.235747965164E+00
  0.235747965164E+00
  0.235747965164E+00
  0.183577921004E+00
  0.183577921004E+00
  0.183577921004E+00
  0.183577921004E+00
  0.128867308387E+00
  0.128867308387E+00
  0.128867308387E+00
  0.128867308387E+00
  0.107514678487E+00
  0.107514678487E+00
  0.107514678487E+00
  0.107514678487E+00
  0.763772117271E-01
  0.763772117271E-01
  0.763772117271E-01
  0.763772117271E-01
  0.603607172165E-01
  0.603607172165E-01
  0.603607172165E-01
  0.603607172165E-01
  0.387276941606E-01
  0.387276941606E-01
  0.387276941606E-01
  0.387276941606E-01
  0.258291612985E-01
  0.258291612985E-01
  0.258291612985E-01
  0.258291612985E-01
  0.128978103069E-01
  0.128978103069E-01
  0.128978103069E-01
  0.128978103069E-01
  0.424363720217E-02
  0.424363720217E-02
  0.424363720217E-02
  0.424363720217E-02
  0.566621248020E-02
  0.566621248020E-02
  0.566621248020E-02
  0.566621248020E-02
  0.772820423603E-02
  0.772820423603E-02
  0.772820423603E-02
  0.772820423603E-02
  0.372340061953E-01
  0.372340061953E-01
  0.372340061953E-01
  0.372340061953E-01
  0.627817754440E-01
  0.627817754440E-01
  0.627817754440E-01
  0.627817754440E-01
  0.145207475252E+00
  0.145207475252E+00
  0.145207475252E+00
  0.145207475252E+00
  0.208769998589E+00
  0.208769998589E+00
  0.208769998589E+00
  0.208769998589E+00
  0.400847909465E+00
  0.400847909465E+00
  0.400847909465E+00
  0.400847909465E+00
  0.539629919698E+00
  0.539629919698E+00
  0.539629919698E+00
  0.539629919698E+00
  0.962806582420E+00
  0.962806582420E+00
  0.962806582420E+00
  0.962806582420E+00
  0.909764480462E+00
  0.909764480462E+00
  0.909764480462E+00
  0.909764480462E+00
 -0.149032097790E+01
 -0.149032097790E+01
 -0.149032097790E+01
 -0.149032097790E+01
 -0.175763375568E+01
 -0.175763375568E+01
 -0.175763375568E+01
 -0.175763375568E+01
 -0.157801356135E+01
 -0.157801356135E+01
 -0.157801356135E+01
 -0.157801356135E+01
 -0.131241571003E+01
 -0.131241571003E+01
 -0.131241571003E+01
 -0.131241571003E+01
 -0.100400445099E+01
 -0.100400445099E+01
 -0.100400445099E+01
 -0.100400445099E+01
 -0.894566206718E+00
 -0.894566206718E+00
 -0.894566206718E+00
 -0.894566206718E+00
 -0.708640440681E+00
 -0.708640440681E+00
 -0.708640440681E+00
 -0.708640440681E+00
 -0.630151055999E+00
 -0.630151055999E+00
 -0.630151055999E+00
 -0.630151055999E+00
 -0.494067916220E+00
 -0.494067916220E+00
 -0.494067916220E+00
 -0.494067916220E+00
 -0.427886933022E+00
 -0.427886933022E+00
 -0.427886933022E+00
 -0.427886933022E+00
 -0.322668600499E+00
 -0.322668600499E+00
 -0.322668600499E+00
 -0.322668600499E+00
 -0.268599627733E+00
 -0.268599627733E+00
 -0.268599627733E+00
 -0.268599627733E+00
 -0.185504545379E+00
 -0.185504545379E+00
 -0.185504545379E+00
 -0.185504545379E+00
 -0.142734693435E+00
 -0.142734693435E+00
 -0.142734693435E+00
 -0.142734693435E+00
 -0.731932323815E-01
 -0.731932323815E-01
 -0.731932323815E-01
 -0.731932323815E-01
 -0.367755905109E-01
 -0.367755905109E-01
 -0.367755905109E-01
 -0.367755905109E-01
  0.285638153722E-01
  0.285638153722E-01
  0.285638153722E-01
  0.285638153722E-01
  0.650183707214E-01
  0.650183707214E-01
  0.650183707214E-01
  0.650183707214E-01
  0.146594359834E+00
  0.146594359834E+00
  0.146594359834E+00
  0.146594359834E+00
  0.212746139384E+00
  0.212746139384E+00
  0.212746139384E+00
  0.212746139384E+00
  0.233084901535E+00
  0.233084901535E+00
  0.233084901535E+00
  0.233084901535E+00
  0.183338531206E+00
  0.183338531206E+00
  0.183338531206E+00
  0.183338531206E+00
  0.128947166674E+00
  0.128947166674E+00
  0.128947166674E+00
  0.128947166674E+00
  0.107403302443E+00
  0.107403302443E+00
  0.107403302443E+00
  0.107403302443E+00
  0.758623422370E-01
  0.758623422370E-01
  0.758623422370E-01
  0.758623422370E-01
  0.600111916504E-01
  0.600111916504E-01
  0.600111916504E-01
  0.600111916504E-01
  0.377334718857E-01
  0.377334718857E-01
  0.377334718857E-01
  0.377334718857E-01
  0.251326004853E-01
  0.251326004853E-01
  0.251326004853E-01
  0.251326004853E-01
  0.114407105264E-01
  0.114407105264E-01
  0.114407105264E-01
  0.114407105264E-01
  0.319083282331E-02
  0.319083282331E-02
  0.319083282331E-02
  0.319083282331E-02
  0.439782956778E-02
  0.439782956778E-02
  0.439782956778E-02
  0.439782956778E-02
  0.556242380606E-02
  0.556242380606E-02
  0.556242380606E-02
  0.556242380606E-02
  0.355411467281E-01
  0.355411467281E-01
  0.355411467281E-01
  0.355411467281E-01
  0.599266163841E-01
  0.599266163841E-01
  0.599266163841E-01
  0.599266163841E-01
  0.142934642729E+00
  0.142934642729E+00
  0.142934642729E+00
  0.142934642729E+00
  0.205006846083E+00
  0.205006846083E+00
  0.205006846083E+00
  0.205006846083E+00
  0.397742897425E+00
  0.397742897425E+00
  0.397742897425E+00
  0.397742897425E+00
  0.534506603869E+00
  0.534506603869E+00
  0.534506603869E+00
  0.534506603869E+00
  0.961749448665E+00
  0.961749448665E+00
  0.961749448665E+00
  0.961749448665E+00
  0.913656156055E+00
  0.913656156055E+00
  0.913656156055E+00
  0.913656156055E+00
 -0.146539349785E+01
 -0.146539349785E+01
 -0.146539349785E+01
 -0.146539349785E+01
 -0.174751765248E+01
 -0.174751765248E+01
 -0.174751765248E+01
 -0.174751765248E+01
 -0.156530325730E+01
 -0.156530325730E+01
 -0.156530325730E+01
 -0.156530325730E+01
 -0.130613163551E+01
 -0.130613163551E+01
 -0.130613163551E+01
 -0.130613163551E+01
 -0.997613291987E+00
 -0.997613291987E+00
 -0.997613291987E+00
 -0.997613291987E+00
 -0.890972886005E+00
 -0.890972886005E+00
 -0.890972886005E+00
 -0.890972886005E+00
 -0.704481262294E+00
 -0.704481262294E+00
 -0.704481262294E+00
 -0.704481262294E+00
 -0.627837959179E+00
 -0.627837959179E+00
 -0.627837959179E+00
 -0.627837959179E+00
 -0.491167510163E+00
 -0.491167510163E+00
 -0.491167510163E+00
 -0.491167510163E+00
 -0.426241385747E+00
 -0.426241385747E+00
 -0.426241385747E+00
 -0.426241385747E+00
 -0.321390597686E+00
 -0.321390597686E+00
 -0.321390597686E+00
 -0.321390597686E+00
 -0.266761854970E+00
 -0.266761854970E+00
 -0.266761854970E+00
 -0.266761854970E+00
 -0.184780161227E+00
 -0.184780161227E+00
 -0.184780161227E+00
 -0.184780161227E+00
 -0.141611875254E+00
 -0.141611875254E+00
 -0.141611875254E+00
 -0.141611875254E+00
 -0.728300064338E-01
 -0.728300064338E-01
 -0.728300064338E-01
 -0.728300064338E-01
 -0.362402743535E-01
 -0.362402743535E-01
 -0.362402743535E-01
 -0.362402743535E-01
  0.285926588600E-01
  0.285926588600E-01
  0.285926588600E-01
  0.285926588600E-01
  0.651169172361E-01
  0.651169172361E-01
  0.651169172361E-01
  0.651169172361E-01
  0.145871164235E+00
  0.145871164235E+00
  0.145871164235E+00
  0.145871164235E+00
  0.208683631445E+00
  0.208683631445E+00
  0.208683631445E+00
  0.208683631445E+00
  0.230542860965E+00
  0.230542860965E+00
  0.230542860965E+00
  0.230542860965E+00
  0.182318292800E+00
  0.182318292800E+00
  0.182318292800E+00
  0.182318292800E+00
  0.127911928440E+00
  0.127911928440E+00
  0.127911928440E+00
  0.127911928440E+00
  0.106408772358E+00
  0.106408772358E+00
  0.106408772358E+00
  0.106408772358E+00
  0.741161841536E-01
  0.741161841536E-01
  0.741161841536E-01
  0.741161841536E-01
  0.584105432826E-01
  0.584105432826E-01
  0.584105432826E-01
  0.584105432826E-01
  0.351665671561E-01
  0.351665671561E-01
  0.351665671561E-01
  0.351665671561E-01
  0.228124424535E-01
  0.228124424535E-01
  0.228124424535E-01
  0.228124424535E-01
  0.784166537423E-02
  0.784166537423E-02
  0.784166537423E-02
  0.784166537423E-02
  0.451951842277E-04
  0.451951842277E-04
  0.451951842277E-04
  0.451951842277E-04
  0.709704252635E-03
  0.709704252635E-03
  0.709704252635E-03
  0.709704252635E-03
  0.196042015984E-03
  0.196042015984E-03
  0.196042015984E-03
  0.196042015984E-03
  0.305843209776E-01
  0.305843209776E-01
  0.305843209776E-01
  0.305843209776E-01
  0.529034083750E-01
  0.529034083750E-01
  0.529034083750E-01
  0.529034083750E-01
  0.136303467129E+00
  0.136303467129E+00
  0.136303467129E+00
  0.136303467129E+00
  0.195733006987E+00
  0.195733006987E+00
  0.195733006987E+00
  0.195733006987E+00
  0.389102024115E+00
  0.389102024115E+00
  0.389102024115E+00
  0.389102024115E+00
  0.523305813985E+00
  0.523305813985E+00
  0.523305813985E+00
  0.523305813985E+00
  0.957070911463E+00
  0.957070911463E+00
  0.957070911463E+00
  0.957070911463E+00
  0.923935488461E+00
  0.923935488461E+00
  0.923935488461E+00
  0.923935488461E+00
 -0.141409514434E+01
 -0.141409514434E+01
 -0.141409514434E+01
 -0.141409514434E+01
 -0.171254420989E+01
 -0.171254420989E+01
 -0.171254420989E+01
 -0.171254420989E+01
 -0.153651531487E+01
 -0.153651531487E+01
 -0.153651531487E+01
 -0.153651531487E+01
 -0.128780242382E+01
 -0.128780242382E+01
 -0.128780242382E+01
 -0.128780242382E+01
 -0.982055219197E+00
 -0.982055219197E+00
 -0.982055219197E+00
 -0.982055219197E+00
 -0.880640730582E+00
 -0.880640730582E+00
 -0.880640730582E+00
 -0.880640730582E+00
 -0.694119521297E+00
 -0.694119521297E+00
 -0.694119521297E+00
 -0.694119521297E+00
 -0.620796450553E+00
 -0.620796450553E+00
 -0.620796450553E+00
 -0.620796450553E+00
 -0.483985541221E+00
 -0.483985541221E+00
 -0.483985541221E+00
 -0.483985541221E+00
 -0.421285346704E+00
 -0.421285346704E+00
 -0.421285346704E+00
 -0.421285346704E+00
 -0.317568594732E+00
 -0.317568594732E+00
 -0.317568594732E+00
 -0.317568594732E+00
 -0.262171460187E+00
 -0.262171460187E+00
 -0.262171460187E+00
 -0.262171460187E+00
 -0.182202190115E+00
 -0.182202190115E+00
 -0.182202190115E+00
 -0.182202190115E+00
 -0.138502970226E+00
 -0.138502970226E+00
 -0.138502970226E+00
 -0.138502970226E+00
 -0.712458143123E-01
 -0.712458143123E-01
 -0.712458143123E-01
 -0.712458143123E-01
 -0.342652744758E-01
 -0.342652744758E-01
 -0.342652744758E-01
 -0.342652744758E-01
  0.294260015012E-01
  0.294260015012E-01
  0.294260015012E-01
  0.294260015012E-01
  0.661740963749E-01
  0.661740963749E-01
  0.661740963749E-01
  0.661740963749E-01
  0.145758770154E+00
  0.145758770154E+00
  0.145758770154E+00
  0.145758770154E+00
  0.207032545975E+00
  0.207032545975E+00
  0.207032545975E+00
  0.207032545975E+00
  0.229084803597E+00
  0.229084803597E+00
  0.229084803597E+00
  0.229084803597E+00
  0.180303185712E+00
  0.180303185712E+00
  0.180303185712E+00
  0.180303185712E+00
  0.125868955470E+00
  0.125868955470E+00
  0.125868955470E+00
  0.125868955470E+00
  0.104271596377E+00
  0.104271596377E+00
  0.104271596377E+00
  0.104271596377E+00
  0.707997544648E-01
  0.707997544648E-01
  0.707997544648E-01
  0.707997544648E-01
  0.551540541075E-01
  0.551540541075E-01
  0.551540541075E-01
  0.551540541075E-01
  0.302370370604E-01
  0.302370370604E-01
  0.302370370604E-01
  0.302370370604E-01
  0.181334705419E-01
  0.181334705419E-01
  0.181334705419E-01
  0.181334705419E-01
  0.101818569517E-02
  0.101818569517E-02
  0.101818569517E-02
  0.101818569517E-02
 -0.629604000539E-02
 -0.629604000539E-02
 -0.629604000539E-02
 -0.629604000539E-02
 -0.681461919859E-02
 -0.681461919859E-02
 -0.681461919859E-02
 -0.681461919859E-02
 -0.989384434835E-02
 -0.989384434835E-02
 -0.989384434835E-02
 -0.989384434835E-02
  0.206224505343E-01
  0.206224505343E-01
  0.206224505343E-01
  0.206224505343E-01
  0.397349306699E-01
  0.397349306699E-01
  0.397349306699E-01
  0.397349306699E-01
  0.123169382378E+00
  0.123169382378E+00
  0.123169382378E+00
  0.123169382378E+00
  0.178536125731E+00
  0.178536125731E+00
  0.178536125731E+00
  0.178536125731E+00
  0.372051447534E+00
  0.372051447534E+00
  0.372051447534E+00
  0.372051447534E+00
  0.501871397360E+00
  0.501871397360E+00
  0.501871397360E+00
  0.501871397360E+00
  0.947412288531E+00
  0.947412288531E+00
  0.947412288531E+00
  0.947412288531E+00
  0.941050871893E+00
  0.941050871893E+00
  0.941050871893E+00
  0.941050871893E+00
 -0.131863932101E+01
 -0.131863932101E+01
 -0.131863932101E+01
 -0.131863932101E+01
 -0.164846679969E+01
 -0.164846679969E+01
 -0.164846679969E+01
 -0.164846679969E+01
 -0.148096339567E+01
 -0.148096339567E+01
 -0.148096339567E+01
 -0.148096339567E+01
 -0.125314845504E+01
 -0.125314845504E+01
 -0.125314845504E+01
 -0.125314845504E+01
 -0.952853219554E+00
 -0.952853219554E+00
 -0.952853219554E+00
 -0.952853219554E+00
 -0.859762948443E+00
 -0.859762948443E+00
 -0.859762948443E+00
 -0.859762948443E+00
 -0.674455752960E+00
 -0.674455752960E+00
 -0.674455752960E+00
 -0.674455752960E+00
 -0.606418333369E+00
 -0.606418333369E+00
 -0.606418333369E+00
 -0.606418333369E+00
 -0.469998092596E+00
 -0.469998092596E+00
 -0.469998092596E+00
 -0.469998092596E+00
 -0.411032707903E+00
 -0.411032707903E+00
 -0.411032707903E+00
 -0.411032707903E+00
 -0.309484305286E+00
 -0.309484305286E+00
 -0.309484305286E+00
 -0.309484305286E+00
 -0.253210436685E+00
 -0.253210436685E+00
 -0.253210436685E+00
 -0.253210436685E+00
 -0.176652842937E+00
 -0.176652842937E+00
 -0.176652842937E+00
 -0.176652842937E+00
 -0.132393184608E+00
 -0.132393184608E+00
 -0.132393184608E+00
 -0.132393184608E+00
 -0.676986408502E-01
 -0.676986408502E-01
 -0.676986408502E-01
 -0.676986408502E-01
 -0.304388630273E-01
 -0.304388630273E-01
 -0.304388630273E-01
 -0.304388630273E-01
  0.314993694626E-01
  0.314993694626E-01
  0.314993694626E-01
  0.314993694626E-01
  0.682284896002E-01
  0.682284896002E-01
  0.682284896002E-01
  0.682284896002E-01
  0.146895084725E+00
  0.146895084725E+00
  0.146895084725E+00
  0.146895084725E+00
  0.204738871201E+00
  0.204738871201E+00
  0.204738871201E+00
  0.204738871201E+00
  0.225435170983E+00
  0.225435170983E+00
  0.225435170983E+00
  0.225435170983E+00
  0.179214358136E+00
  0.179214358136E+00
  0.179214358136E+00
  0.179214358136E+00
  0.122479863737E+00
  0.122479863737E+00
  0.122479863737E+00
  0.122479863737E+00
  0.100719641232E+00
  0.100719641232E+00
  0.100719641232E+00
  0.100719641232E+00
  0.652463253311E-01
  0.652463253311E-01
  0.652463253311E-01
  0.652463253311E-01
  0.496088849427E-01
  0.496088849427E-01
  0.496088849427E-01
  0.496088849427E-01
  0.221114597064E-01
  0.221114597064E-01
  0.221114597064E-01
  0.221114597064E-01
  0.102477275477E-01
  0.102477275477E-01
  0.102477275477E-01
  0.102477275477E-01
 -0.101655145569E-01
 -0.101655145569E-01
 -0.101655145569E-01
 -0.101655145569E-01
 -0.170193380977E-01
 -0.170193380977E-01
 -0.170193380977E-01
 -0.170193380977E-01
 -0.195181572245E-01
 -0.195181572245E-01
 -0.195181572245E-01
 -0.195181572245E-01
 -0.260530605505E-01
 -0.260530605505E-01
 -0.260530605505E-01
 -0.260530605505E-01
  0.396438585563E-02
  0.396438585563E-02
  0.396438585563E-02
  0.396438585563E-02
  0.188339008693E-01
  0.188339008693E-01
  0.188339008693E-01
  0.188339008693E-01
  0.101378457415E+00
  0.101378457415E+00
  0.101378457415E+00
  0.101378457415E+00
  0.151348557297E+00
  0.151348557297E+00
  0.151348557297E+00
  0.151348557297E+00
  0.343625213858E+00
  0.343625213858E+00
  0.343625213858E+00
  0.343625213858E+00
  0.467548535293E+00
  0.467548535293E+00
  0.467548535293E+00
  0.467548535293E+00
  0.929811667054E+00
  0.929811667054E+00
  0.929811667054E+00
  0.929811667054E+00
  0.962708596725E+00
  0.962708596725E+00
  0.962708596725E+00
  0.962708596725E+00
 -0.117058337304E+01
 -0.117058337304E+01
 -0.117058337304E+01
 -0.117058337304E+01
 -0.154551528005E+01
 -0.154551528005E+01
 -0.154551528005E+01
 -0.154551528005E+01
 -0.139469943110E+01
 -0.139469943110E+01
 -0.139469943110E+01
 -0.139469943110E+01
 -0.119487319921E+01
 -0.119487319921E+01
 -0.119487319921E+01
 -0.119487319921E+01
 -0.906055654042E+00
 -0.906055654042E+00
 -0.906055654042E+00
 -0.906055654042E+00
 -0.824495090920E+00
 -0.824495090920E+00
 -0.824495090920E+00
 -0.824495090920E+00
 -0.641984036531E+00
 -0.641984036531E+00
 -0.641984036531E+00
 -0.641984036531E+00
 -0.581605692643E+00
 -0.581605692643E+00
 -0.581605692643E+00
 -0.581605692643E+00
 -0.446178282376E+00
 -0.446178282376E+00
 -0.446178282376E+00
 -0.446178282376E+00
 -0.392928771010E+00
 -0.392928771010E+00
 -0.392928771010E+00
 -0.392928771010E+00
 -0.294850392285E+00
 -0.294850392285E+00
 -0.294850392285E+00
 -0.294850392285E+00
 -0.237593089361E+00
 -0.237593089361E+00
 -0.237593089361E+00
 -0.237593089361E+00
 -0.166514227861E+00
 -0.166514227861E+00
 -0.166514227861E+00
 -0.166514227861E+00
 -0.121749860723E+00
 -0.121749860723E+00
 -0.121749860723E+00
 -0.121749860723E+00
 -0.611613513887E-01
 -0.611613513887E-01
 -0.611613513887E-01
 -0.611613513887E-01
 -0.237726659508E-01
 -0.237726659508E-01
 -0.237726659508E-01
 -0.237726659508E-01
  0.351379972269E-01
  0.351379972269E-01
  0.351379972269E-01
  0.351379972269E-01
  0.716857228665E-01
  0.716857228665E-01
  0.716857228665E-01
  0.716857228665E-01
  0.147346655673E+00
  0.147346655673E+00
  0.147346655673E+00
  0.147346655673E+00
  0.205151052584E+00
  0.205151052584E+00
  0.205151052584E+00
  0.205151052584E+00
  0.221413351307E+00
  0.221413351307E+00
  0.221413351307E+00
  0.221413351307E+00
  0.175785490462E+00
  0.175785490462E+00
  0.175785490462E+00
  0.175785490462E+00
  0.116525229742E+00
  0.116525229742E+00
  0.116525229742E+00
  0.116525229742E+00
  0.949528966057E-01
  0.949528966057E-01
  0.949528966057E-01
  0.949528966057E-01
  0.563739977368E-01
  0.563739977368E-01
  0.563739977368E-01
  0.563739977368E-01
  0.409555215787E-01
  0.409555215787E-01
  0.409555215787E-01
  0.409555215787E-01
  0.992437968008E-02
  0.992437968008E-02
  0.992437968008E-02
  0.992437968008E-02
 -0.171523656796E-02
 -0.171523656796E-02
 -0.171523656796E-02
 -0.171523656796E-02
 -0.261532470934E-01
 -0.261532470934E-01
 -0.261532470934E-01
 -0.261532470934E-01
 -0.329102981983E-01
 -0.329102981983E-01
 -0.329102981983E-01
 -0.329102981983E-01
 -0.382113437336E-01
 -0.382113437336E-01
 -0.382113437336E-01
 -0.382113437336E-01
 -0.485385410493E-01
 -0.485385410493E-01
 -0.485385410493E-01
 -0.485385410493E-01
 -0.202707335017E-01
 -0.202707335017E-01
 -0.202707335017E-01
 -0.202707335017E-01
 -0.101135151566E-01
 -0.101135151566E-01
 -0.101135151566E-01
 -0.101135151566E-01
  0.697452965263E-01
  0.697452965263E-01
  0.697452965263E-01
  0.697452965263E-01
  0.113664855733E+00
  0.113664855733E+00
  0.113664855733E+00
  0.113664855733E+00
  0.302069777386E+00
  0.302069777386E+00
  0.302069777386E+00
  0.302069777386E+00
  0.419014808652E+00
  0.419014808652E+00
  0.419014808652E+00
  0.419014808652E+00
  0.900530940502E+00
  0.900530940502E+00
  0.900530940502E+00
  0.900530940502E+00
  0.983874667196E+00
  0.983874667196E+00
  0.983874667196E+00
  0.983874667196E+00
 -0.971187622786E+00
 -0.971187622786E+00
 -0.971187622786E+00
 -0.971187622786E+00
 -0.139786218770E+01
 -0.139786218770E+01
 -0.139786218770E+01
 -0.139786218770E+01
 -0.127788874312E+01
 -0.127788874312E+01
 -0.127788874312E+01
 -0.127788874312E+01
 -0.111174556976E+01
 -0.111174556976E+01
 -0.111174556976E+01
 -0.111174556976E+01
 -0.839139193037E+00
 -0.839139193037E+00
 -0.839139193037E+00
 -0.839139193037E+00
 -0.771653690448E+00
 -0.771653690448E+00
 -0.771653690448E+00
 -0.771653690448E+00
 -0.593619627490E+00
 -0.593619627490E+00
 -0.593619627490E+00
 -0.593619627490E+00
 -0.542918117391E+00
 -0.542918117391E+00
 -0.542918117391E+00
 -0.542918117391E+00
 -0.409200319560E+00
 -0.409200319560E+00
 -0.409200319560E+00
 -0.409200319560E+00
 -0.363771206632E+00
 -0.363771206632E+00
 -0.363771206632E+00
 -0.363771206632E+00
 -0.270857458604E+00
 -0.270857458604E+00
 -0.270857458604E+00
 -0.270857458604E+00
 -0.212781757725E+00
 -0.212781757725E+00
 -0.212781757725E+00
 -0.212781757725E+00
 -0.149801692607E+00
 -0.149801692607E+00
 -0.149801692607E+00
 -0.149801692607E+00
 -0.104923765615E+00
 -0.104923765615E+00
 -0.104923765615E+00
 -0.104923765615E+00
 -0.504977221834E-01
 -0.504977221834E-01
 -0.504977221834E-01
 -0.504977221834E-01
 -0.135232441801E-01
 -0.135232441801E-01
 -0.135232441801E-01
 -0.135232441801E-01
  0.410262968205E-01
  0.410262968205E-01
  0.410262968205E-01
  0.410262968205E-01