# vtk DataFile Version 3.0
MachLine results file. Generated by MachLine, USU AeroLab (c) 2022.
ASCII
DATASET POLYDATA
POINTS                1028 float
  0.999998120393E+00  0.000000000000E+00 -0.108327420918E-06
  0.985311172601E+00  0.224100846140E+00 -0.170270554547E-02
  0.999998168950E+00  0.224100846140E+00 -0.105528976470E-06
  0.985311184047E+00  0.000000000000E+00 -0.170280002531E-02
  0.965616887796E+00  0.224100846140E+00 -0.394781249641E-02
  0.965616899138E+00  0.000000000000E+00 -0.394790636524E-02
  0.939523104585E+00  0.224100846140E+00 -0.685287732738E-02
  0.939523115769E+00  0.000000000000E+00 -0.685297025985E-02
  0.905489853566E+00  0.224100846140E+00 -0.105259052041E-01
  0.905489864525E+00  0.000000000000E+00 -0.105259968279E-01
  0.862001157585E+00  0.224100846140E+00 -0.150351618221E-01
  0.862001168281E+00  0.000000000000E+00 -0.150352518453E-01
  0.807861556312E+00  0.224100846140E+00 -0.203666411822E-01
  0.807861566769E+00  0.000000000000E+00 -0.203667296274E-01
  0.742609840476E+00  0.224100846140E+00 -0.263710819728E-01
  0.742609850756E+00  0.000000000000E+00 -0.263711694377E-01
  0.666965142390E+00  0.224100846140E+00 -0.327286103206E-01
  0.666965152684E+00  0.000000000000E+00 -0.327286980389E-01
  0.583123974636E+00  0.224100846140E+00 -0.389221326890E-01
  0.583123985097E+00  0.000000000000E+00 -0.389222222209E-01
  0.494699801128E+00  0.224100846140E+00 -0.442871993638E-01
  0.494699819758E+00  0.000000000000E+00 -0.442875572159E-01
  0.406196973255E+00  0.000000000000E+00 -0.481331493512E-01
  0.406196977811E+00  0.224100846140E+00 -0.481330591164E-01
  0.322148033505E+00  0.000000000000E+00 -0.499200461759E-01
  0.322148042091E+00  0.224100846140E+00 -0.499199578357E-01
  0.246240780347E+00  0.000000000000E+00 -0.494227158799E-01
  0.246240793517E+00  0.224100846140E+00 -0.494226281075E-01
  0.180771186326E+00  0.000000000000E+00 -0.467563983930E-01
  0.180771204913E+00  0.224100846140E+00 -0.467563102858E-01
  0.126558019933E+00  0.000000000000E+00 -0.422876985852E-01
  0.126558045535E+00  0.224100846140E+00 -0.422876101204E-01
  0.832334436165E-01  0.000000000000E+00 -0.364510526575E-01
  0.832334793461E-01  0.224100846140E+00 -0.364509650159E-01
  0.497097617411E-01  0.000000000000E+00 -0.295732478160E-01
  0.497098144463E-01  0.224100846140E+00 -0.295731645202E-01
  0.246822848412E-01  0.000000000000E+00 -0.217006231552E-01
  0.246823735591E-01  0.224100846140E+00 -0.217005571165E-01
  0.732472657991E-02  0.000000000000E+00 -0.122700906396E-01
  0.732490952579E-02  0.224100846140E+00 -0.122701246293E-01
  0.189063492641E-05  0.000000000000E+00  0.000000000000E+00
  0.184137002823E-05  0.224100846140E+00  0.000000000000E+00
  0.732490952579E-02  0.224100846140E+00  0.122701246293E-01
  0.732472657991E-02  0.000000000000E+00  0.122700906396E-01
  0.246823735591E-01  0.224100846140E+00  0.217005571165E-01
  0.246822848412E-01  0.000000000000E+00  0.217006231552E-01
  0.497098144463E-01  0.224100846140E+00  0.295731645202E-01
  0.497097617411E-01  0.000000000000E+00  0.295732478160E-01
  0.832334793461E-01  0.224100846140E+00  0.364509650159E-01
  0.832334436165E-01  0.000000000000E+00  0.364510526575E-01
  0.126558045535E+00  0.224100846140E+00  0.422876101204E-01
  0.126558019933E+00  0.000000000000E+00  0.422876985852E-01
  0.180771204913E+00  0.224100846140E+00  0.467563102858E-01
  0.180771186326E+00  0.000000000000E+00  0.467563983930E-01
  0.246240793517E+00  0.224100846140E+00  0.494226281075E-01
  0.246240780347E+00  0.000000000000E+00  0.494227158799E-01
  0.322148042091E+00  0.224100846140E+00  0.499199578357E-01
  0.322148033505E+00  0.000000000000E+00  0.499200461759E-01
  0.406196977811E+00  0.224100846140E+00  0.481330591164E-01
  0.406196973255E+00  0.000000000000E+00  0.481331493512E-01
  0.494699801128E+00  0.224100846140E+00  0.442871993638E-01
  0.494699819758E+00  0.000000000000E+00  0.442875572159E-01
  0.583123985097E+00  0.000000000000E+00  0.389222222209E-01
  0.583123974636E+00  0.224100846140E+00  0.389221326890E-01
  0.666965152684E+00  0.000000000000E+00  0.327286980389E-01
  0.666965142390E+00  0.224100846140E+00  0.327286103206E-01
  0.742609850756E+00  0.000000000000E+00  0.263711694377E-01
  0.742609840476E+00  0.224100846140E+00  0.263710819728E-01
  0.807861566769E+00  0.000000000000E+00  0.203667296274E-01
  0.807861556312E+00  0.224100846140E+00  0.203666411822E-01
  0.862001168281E+00  0.000000000000E+00  0.150352518453E-01
  0.862001157585E+00  0.224100846140E+00  0.150351618221E-01
  0.905489864525E+00  0.000000000000E+00  0.105259968279E-01
  0.905489853566E+00  0.224100846140E+00  0.105259052041E-01
  0.939523115769E+00  0.000000000000E+00  0.685297025985E-02
  0.939523104585E+00  0.224100846140E+00  0.685287732738E-02
  0.965616899138E+00  0.000000000000E+00  0.394790636524E-02
  0.965616887796E+00  0.224100846140E+00  0.394781249641E-02
  0.985311184047E+00  0.000000000000E+00  0.170280002531E-02
  0.985311172601E+00  0.224100846140E+00  0.170270554547E-02
  0.985311151845E+00  0.474396230640E+00 -0.170252508941E-02
  0.999997993514E+00  0.474396230640E+00 -0.115639882531E-06
  0.965616867478E+00  0.474396230640E+00 -0.394763215726E-02
  0.939523084838E+00  0.474396230640E+00 -0.685269719959E-02
  0.905489834544E+00  0.474396230640E+00 -0.105257254262E-01
  0.862001139465E+00  0.474396230640E+00 -0.150349825696E-01
  0.807861539305E+00  0.474396230640E+00 -0.203664626318E-01
  0.742609824829E+00  0.474396230640E+00 -0.263709042350E-01
  0.666965128418E+00  0.474396230640E+00 -0.327284333560E-01
  0.583123962768E+00  0.474396230640E+00 -0.389219562562E-01
  0.494699791724E+00  0.474396230640E+00 -0.442870187160E-01
  0.406196972092E+00  0.474396230640E+00 -0.481328823772E-01
  0.322148040786E+00  0.474396230640E+00 -0.499197803250E-01
  0.246240797732E+00  0.474396230640E+00 -0.494224497319E-01
  0.180771215932E+00  0.474396230640E+00 -0.467561312658E-01
  0.126558064970E+00  0.474396230640E+00 -0.422874310053E-01
  0.832335095989E-01  0.474396230640E+00 -0.364507867833E-01
  0.497098599022E-01  0.474396230640E+00 -0.295729891066E-01
  0.246824444365E-01  0.474396230640E+00 -0.217003900478E-01
  0.732503535479E-02  0.474396230640E+00 -0.122699936147E-01
  0.201798827982E-05  0.474396230640E+00  0.000000000000E+00
  0.732503535479E-02  0.474396230640E+00  0.122699936147E-01
  0.246824444365E-01  0.474396230640E+00  0.217003900478E-01
  0.497098599022E-01  0.474396230640E+00  0.295729891066E-01
  0.832335095989E-01  0.474396230640E+00  0.364507867833E-01
  0.126558064970E+00  0.474396230640E+00  0.422874310053E-01
  0.180771215932E+00  0.474396230640E+00  0.467561312658E-01
  0.246240797732E+00  0.474396230640E+00  0.494224497319E-01
  0.322148040786E+00  0.474396230640E+00  0.499197803250E-01
  0.406196972092E+00  0.474396230640E+00  0.481328823772E-01
  0.494699791724E+00  0.474396230640E+00  0.442870187160E-01
  0.583123962768E+00  0.474396230640E+00  0.389219562562E-01
  0.666965128418E+00  0.474396230640E+00  0.327284333560E-01
  0.742609824829E+00  0.474396230640E+00  0.263709042350E-01
  0.807861539305E+00  0.474396230640E+00  0.203664626318E-01
  0.862001139465E+00  0.474396230640E+00  0.150349825696E-01
  0.905489834544E+00  0.474396230640E+00  0.105257254262E-01
  0.939523084838E+00  0.474396230640E+00  0.685269719959E-02
  0.965616867478E+00  0.474396230640E+00  0.394763215726E-02
  0.985311151845E+00  0.474396230640E+00  0.170252508941E-02
  0.985311134199E+00  0.748095716550E+00 -0.170237167158E-02
  0.999997848520E+00  0.748095716550E+00 -0.123996333094E-06
  0.965616850202E+00  0.748095716550E+00 -0.394747881531E-02
  0.939523068043E+00  0.748095716550E+00 -0.685254399892E-02
  0.905489818359E+00  0.748095716550E+00 -0.105255724640E-01
  0.862001124040E+00  0.748095716550E+00 -0.150348299703E-01
  0.807861524817E+00  0.748095716550E+00 -0.203663105229E-01
  0.742609811489E+00  0.748095716550E+00 -0.263707526983E-01
  0.666965116496E+00  0.748095716550E+00 -0.327282823664E-01
  0.583123952636E+00  0.748095716550E+00 -0.389218056409E-01
  0.494699783479E+00  0.748095716550E+00 -0.442868603532E-01
  0.406196967211E+00  0.748095716550E+00 -0.481327315004E-01
  0.322148039673E+00  0.748095716550E+00 -0.499196288694E-01
  0.246240801326E+00  0.748095716550E+00 -0.494222976514E-01
  0.180771225319E+00  0.748095716550E+00 -0.467559787569E-01
  0.126558081514E+00  0.748095716550E+00 -0.422872785231E-01
  0.832335353391E-01  0.748095716550E+00 -0.364506351359E-01
  0.497098985630E-01  0.748095716550E+00 -0.295728399154E-01
  0.246825047033E-01  0.748095716550E+00 -0.217002479899E-01
  0.732514232988E-02  0.748095716550E+00 -0.122698822311E-01
  0.216395827701E-05  0.748095716550E+00  0.000000000000E+00
  0.732514232988E-02  0.748095716550E+00  0.122698822311E-01
  0.246825047033E-01  0.748095716550E+00  0.217002479899E-01
  0.497098985630E-01  0.748095716550E+00  0.295728399154E-01
  0.832335353391E-01  0.748095716550E+00  0.364506351359E-01
  0.126558081514E+00  0.748095716550E+00  0.422872785231E-01
  0.180771225319E+00  0.748095716550E+00  0.467559787569E-01
  0.246240801326E+00  0.748095716550E+00  0.494222976514E-01
  0.322148039673E+00  0.748095716550E+00  0.499196288694E-01
  0.406196967211E+00  0.748095716550E+00  0.481327315004E-01
  0.494699783479E+00  0.748095716550E+00  0.442868603532E-01
  0.583123952636E+00  0.748095716550E+00  0.389218056409E-01
  0.666965116496E+00  0.748095716550E+00  0.327282823664E-01
  0.742609811489E+00  0.748095716550E+00  0.263707526983E-01
  0.807861524817E+00  0.748095716550E+00  0.203663105229E-01
  0.862001124040E+00  0.748095716550E+00  0.150348299703E-01
  0.905489818359E+00  0.748095716550E+00  0.105255724640E-01
  0.939523068043E+00  0.748095716550E+00  0.685254399892E-02
  0.965616850202E+00  0.748095716550E+00  0.394747881531E-02
  0.985311134199E+00  0.748095716550E+00  0.170237167158E-02
  0.985311121147E+00  0.104054975430E+01 -0.170225819975E-02
[...]
POINT_DATA                1028
SCALARS phi float 1
LOOKUP_TABLE default
 -0.202950646698E-06
 -0.265089945169E-07
 -0.198157289088E-06
 -0.271018120168E-07
 -0.570245783926E-08
 -0.579300195314E-08
 -0.322041477860E-08
 -0.324685056272E-08
 -0.221491672225E-08
 -0.221625998109E-08
 -0.162703210627E-08
 -0.161691104603E-08
 -0.119853542022E-08
 -0.118351334982E-08
 -0.832054806998E-09
 -0.815215017019E-09
 -0.481982617012E-09
 -0.464420540219E-09
 -0.119154443257E-09
 -0.101119645643E-09
  0.276770526636E-09
  0.295065148530E-09
  0.737185572135E-09
  0.718977466755E-09
  0.122874598517E-08
  0.121129651968E-08
  0.176229744339E-08
  0.174625975485E-08
  0.232377614373E-08
  0.230967046530E-08
  0.289755207328E-08
  0.288571111451E-08
  0.347346910262E-08
  0.346407639379E-08
  0.405189317515E-08
  0.404506383250E-08
  0.465059563776E-08
  0.464649101140E-08
  0.532562523942E-08
  0.532465711106E-08
  0.618314333067E-08
  0.618628123034E-08
  0.706469219236E-08
  0.705719736122E-08
  0.778450777450E-08
  0.777326178425E-08
  0.844558060986E-08
  0.843066701173E-08
  0.910535543491E-08
  0.908650288345E-08
  0.978359931958E-08
  0.976031186428E-08
  0.104811568730E-07
  0.104527426333E-07
  0.111851999867E-07
  0.111507527187E-07
  0.118727582462E-07
  0.118310896028E-07
  0.125169648309E-07
  0.124664924980E-07
  0.130926912575E-07
  0.130314115072E-07
  0.135088014212E-07
  0.135832609743E-07
  0.138919969105E-07
  0.139812578077E-07
  0.141841889657E-07
  0.142873729791E-07
  0.143974745077E-07
  0.145084923034E-07
  0.145477344615E-07
  0.146530517928E-07
  0.146546687424E-07
  0.147332036571E-07
  0.147349086335E-07
  0.147603312697E-07
  0.148007724896E-07
  0.147442099085E-07
  0.148094979127E-07
  0.146362286978E-07
 -0.286881703011E-07
 -0.215359640541E-06
 -0.612569972178E-08
 -0.343737823968E-08
 -0.235365290799E-08
 -0.172771739623E-08
 -0.128009850289E-08
 -0.905248060540E-09
 -0.553183839014E-09
 -0.191490512683E-09
  0.202884486988E-09
  0.645166932248E-09
  0.114023887381E-08
  0.168064527920E-08
  0.225155917868E-08
  0.283635430420E-08
  0.342410157173E-08
  0.401481892870E-08
  0.462648734600E-08
  0.531633677359E-08
  0.619303322513E-08
  0.708725223647E-08
  0.782056316234E-08
  0.849466974540E-08
  0.916827648523E-08
  0.986187845969E-08
  0.105768824150E-07
  0.113010177796E-07
  0.120120429859E-07
  0.126842517835E-07
  0.132942892580E-07
  0.138278350437E-07
  0.142799463886E-07
  0.146533352882E-07
  0.149561523409E-07
  0.151972177065E-07
  0.153882291007E-07
  0.155391928595E-07
  0.156584393333E-07
  0.156874955734E-07
 -0.305981374439E-07
 -0.229379411378E-06
 -0.655838453684E-08
 -0.369760272748E-08
 -0.255064342911E-08
 -0.189696080719E-08
 -0.144005720890E-08
 -0.106784741813E-08
 -0.725787447503E-09
 -0.376396178114E-09
  0.863361292180E-11
  0.448567555062E-09
  0.949865313141E-09
  0.150409777341E-08
  0.209407819210E-08
  0.270070539543E-08
  0.331130979581E-08
  0.392516582431E-08
  0.456060602477E-08
  0.527692133045E-08
  0.618689154075E-08
  0.711513940127E-08
  0.787681087716E-08
  0.857770697527E-08
  0.927907774229E-08
  0.100026297904E-07
  0.107503768491E-07
  0.115102815959E-07
  0.122602100046E-07
  0.129749132115E-07
  0.136322769011E-07
  0.142201198108E-07
  0.147356826671E-07
  0.151824424595E-07
  0.155666496186E-07
  0.158924372759E-07
  0.161656963649E-07
  0.163913481052E-07
  0.165745823906E-07
  0.166452750507E-07
 -0.319585718028E-07
 -0.239013826234E-06
 -0.692167871283E-08
 -0.396665427588E-08
 -0.280796601249E-08
 -0.217529566929E-08
 -0.176031749247E-08
 -0.144413513092E-08
 -0.116360655833E-08
 -0.869259487307E-09
 -0.520180041402E-09
 -0.888253450827E-10
  0.431818978144E-09
  0.102696341361E-08
  0.167036208823E-08
  0.233500388469E-08
  0.300335847858E-08
  0.367294786252E-08
  0.436309991608E-08
  0.513766647975E-08
  0.611762946551E-08
  0.711459679364E-08
  0.793157550055E-08
  0.868320657738E-08
  0.943564578554E-08
  0.102124076556E-07
  0.110156059031E-07
  0.118318364099E-07
  0.126363779874E-07
  0.134010086595E-07
  0.141013600814E-07
  0.147247736886E-07
  0.152696314065E-07
  0.157412270128E-07
  0.161472730811E-07
  0.164924657195E-07
  0.167828091424E-07
  0.170231000823E-07
  0.172184265838E-07
  0.172906551681E-07
 -0.327022968774E-07
 -0.243309706598E-06
 -0.729741029062E-08
 -0.440300308713E-08
 -0.337812993204E-08
 -0.293663338438E-08
 -0.276387989231E-08
 -0.272211216415E-08
 -0.271043375244E-08
 -0.262894761516E-08
 -0.239242198448E-08
 -0.195401421129E-08
 -0.131934606816E-08
 -0.539180401715E-09
  0.319116667119E-09
  0.119700604984E-08
  0.206054939778E-08
  0.290371755113E-08
  0.375111713219E-08
  0.468020809608E-08
  0.583141734206E-08
  0.698535732729E-08
  0.792230694935E-08
  0.878009370070E-08
  0.963639881779E-08
  0.105185487785E-07
  0.114282280028E-07
  0.123477817398E-07
  0.132445850001E-07
  0.140803222215E-07
  0.148209782294E-07
  0.154486233216E-07
  0.159628296449E-07
  0.163763837317E-07
  0.167082484827E-07
  0.169743514036E-07
  0.171895846619E-07
  0.173639068297E-07
  0.175043423124E-07
  0.175283085060E-07
 -0.353363322179E-07
 -0.242036444806E-06
 -0.124293440887E-07
 -0.119273616678E-07
 -0.132511331803E-07
 -0.149746898805E-07
 -0.165900779399E-07
 -0.177687848879E-07
 -0.182926141040E-07
 -0.180795743654E-07
 -0.172139078790E-07
 -0.156673911345E-07
 -0.135110836477E-07
 -0.110446784878E-07
 -0.850205343975E-08
 -0.604330194220E-08
 -0.375697823546E-08
 -0.166496361836E-08
  0.275469501376E-09
  0.219637214666E-08
  0.430321039913E-08
  0.613171642627E-08
  0.745162014731E-08
  0.860536112507E-08
  0.973609234206E-08
  0.108962625936E-07
  0.120967816736E-07
  0.133144325062E-07
  0.144937703159E-07
  0.155601002942E-07
  0.164367544957E-07
  0.170810717237E-07
  0.174890876191E-07
  0.176909219114E-07
  0.177431331017E-07
  0.177021552972E-07
  0.176182767264E-07
  0.175235269975E-07
  0.174352391552E-07
  0.172729087977E-07
 -0.216840200788E-06
 -0.236468352854E-06
 -0.199972416286E-06
 -0.184491667950E-06
 -0.169055335772E-06
 -0.153370720801E-06
 -0.137537643951E-06
 -0.121875792292E-06
 -0.106808199233E-06
 -0.927599891256E-07
 -0.800834865167E-07
 -0.687607355019E-07
 -0.586503530239E-07
 -0.497033207647E-07
 -0.417718669515E-07
 -0.346695498352E-07
 -0.282032705801E-07
 -0.221715161369E-07
 -0.163207690487E-07
 -0.100383110227E-07
  0.136569758072E-07
  0.194808080223E-07
  0.250733133561E-07
  0.308561622434E-07
  0.370798588639E-07
  0.439030956763E-07
  0.514693763408E-07
  0.599296857851E-07
  0.694490240730E-07
  0.802070048963E-07
  0.923819121704E-07
  0.105847958051E-06
  0.120330640986E-06
  0.135670375111E-06
  0.151581749874E-06
  0.167740439490E-06
  0.183907653602E-06
  0.200054366243E-06
  0.216568833103E-06
  0.234752088608E-06
 -0.294172785853E-07
 -0.220500349989E-06
 -0.640807834573E-08
 -0.386331192384E-08
 -0.300932534100E-08
 -0.267529307735E-08
 -0.257455136030E-08
 -0.257752619942E-08
 -0.258442595449E-08
 -0.248723978913E-08
 -0.218858457399E-08
 -0.163769651312E-08
 -0.843619570035E-09
  0.137774510550E-09
  0.123123506529E-08
  0.237064585323E-08
  0.351971924523E-08
  0.467836828999E-08
  0.589226518272E-08
  0.729545465011E-08
  0.915895089632E-08
  0.112195897017E-07
  0.131194233255E-07
  0.150794377957E-07
  0.172467842924E-07
  0.196771100837E-07
  0.223606201472E-07
  0.252208855727E-07
  0.281173717241E-07
  0.308730509959E-07
  0.333174824847E-07
  0.350864484515E-07
  0.358444703849E-07
  0.355799916855E-07
  0.343687711207E-07
  0.323675459490E-07
  0.297931591377E-07
  0.268627508120E-07
  0.237415438663E-07
  0.204050079958E-07
 -0.274791210862E-07
 -0.205785301619E-06
 -0.589391632375E-08
 -0.338878365994E-08
 -0.244484452128E-08
 -0.196113057044E-08
 -0.166581890296E-08
 -0.144845756223E-08
 -0.124536521373E-08
 -0.100239062537E-08
 -0.672164426549E-09
 -0.221599478784E-09
  0.358019350277E-09
  0.104773168960E-08
  0.181302399829E-08
  0.261737612833E-08
  0.343606956082E-08
  0.426397037123E-08
  0.512447187462E-08
  0.609893276854E-08
  0.734593673390E-08
  0.863331876821E-08
  0.970640739312E-08
  0.107107903310E-07
  0.117330680241E-07
  0.128030813659E-07
  0.139158030481E-07
  0.150318280375E-07
  0.160772671131E-07
  0.169564883679E-07
  0.175772092419E-07
  0.178857973918E-07
  0.178881796216E-07
  0.176474886891E-07
  0.172585739727E-07
  0.168129059355E-07
  0.163812307330E-07
  0.160034577222E-07
  0.156947308240E-07
  0.153908365115E-07
 -0.249409484558E-07
 -0.186360084916E-06
 -0.535340971553E-08
 -0.304822548106E-08
 -0.215236547682E-08
 -0.166876812716E-08
 -0.135267529122E-08
 -0.110680961271E-08
 -0.877773364411E-09
 -0.623062889477E-09
 -0.306965002896E-09
  0.957523060407E-10
  0.593116012901E-09
  0.117275031353E-08
  0.180998652524E-08
  0.247761865885E-08
  0.315670926204E-08
  0.384322427355E-08
  0.455578648417E-08
  0.535977025262E-08
  0.638062273156E-08
  0.742018708977E-08
  0.827028477646E-08
  0.904854207534E-08
  0.982094806173E-08
  0.106067637173E-07
  0.113993852725E-07
  0.121711642084E-07
  0.128776075057E-07
  0.134684115839E-07
  0.139024195385E-07
  0.141651298573E-07
  0.142733428410E-07
  0.142674860260E-07
  0.141958612782E-07
  0.140978204909E-07
  0.140009962374E-07
  0.139188860750E-07
  0.138557553556E-07
  0.137590211099E-07
 -0.221002278249E-07
 -0.164749943743E-06
 -0.476785188414E-08
 -0.272626496378E-08
 -0.193408310548E-08
 -0.150973164179E-08
 -0.123699495785E-08
 -0.102922696060E-08
 -0.837153207867E-09
 -0.619982107319E-09
 -0.343022258167E-09
  0.174835053119E-10
  0.467807020552E-09
  0.994626624118E-09
  0.157346070548E-08
  0.217825359139E-08
  0.279116691565E-08
  0.340822722128E-08
  0.404581838864E-08
  0.476152143408E-08
  0.566449518541E-08
  0.657688161571E-08
  0.731652520514E-08
  0.798762356952E-08
  0.864729104988E-08
  0.931123876266E-08
  0.997289797619E-08
  0.106086462653E-07
  0.111826125939E-07
  0.116568880781E-07
  0.120036059773E-07
  0.122174687416E-07
  0.123166793153E-07
  0.123349151761E-07
  0.123088256775E-07
  0.122659550156E-07
  0.122245362721E-07
  0.121924335905E-07
  0.121714898368E-07
  0.121206619776E-07
 -0.191563971248E-07
 -0.142312849529E-06
 -0.419018113956E-08
 -0.245550822731E-08
 -0.181474192965E-08
 -0.150742739471E-08
 -0.134576822949E-08
 -0.124852971711E-08
 -0.116032370170E-08
 -0.102935199427E-08
 -0.811696693366E-09
 -0.481102512429E-09
 -0.364220372612E-10
  0.498970659929E-09
  0.108986637423E-08
  0.170241403613E-08
  0.231502259723E-08
  0.292289683429E-08
  0.354242215422E-08
  0.422930043764E-08
  0.508667594157E-08
  0.594657585673E-08
  0.664101169195E-08
  0.727040256471E-08
  0.788945199448E-08
  0.851345844169E-08
  0.913593973736E-08
  0.973271660661E-08
  0.102658976274E-07
  0.106942030014E-07
  0.109863334680E-07
  0.111348723089E-07
  0.111581135789E-07
  0.110924628545E-07
  0.109796856884E-07
  0.108535421484E-07
  0.107372589569E-07
  0.106414991992E-07
  0.105687567101E-07
  0.104878720916E-07
 -0.162975118088E-07
 -0.120182028093E-06
 -0.373733412620E-08
 -0.240902877854E-08
 -0.206122993326E-08
 -0.205308420959E-08
 -0.220866999689E-08
 -0.241909084431E-08
 -0.258587297408E-08
 -0.262150105096E-08
 -0.246738230628E-08
 -0.210142821352E-08
 -0.154176080236E-08
 -0.842014031416E-09
 -0.687175351344E-10
  0.718031224756E-09
  0.147962046088E-08
  0.220518790728E-08
  0.291408571579E-08
  0.367042697624E-08
  0.458693873856E-08
  0.549514908577E-08
  0.623299813152E-08
  0.691404238723E-08
  0.760177577136E-08
  0.831689167882E-08
  0.905254372505E-08
  0.977520915428E-08
  0.104281431552E-07
  0.109447847989E-07
  0.112681178034E-07
  0.113735919641E-07
  0.112727344299E-07
  0.110070383641E-07
  0.106388082406E-07
  0.102323456201E-07
  0.984151447489E-08
  0.949918243023E-08
  0.921868322998E-08
  0.897920011608E-08
 -0.155606131001E-07
 -0.997354482959E-07
 -0.684141759216E-08
 -0.735855830436E-08
 -0.850914475339E-08
 -0.962945888652E-08
 -0.104579829380E-07
 -0.108557514887E-07
 -0.107820480461E-07
 -0.102792658361E-07
 -0.946459315435E-08
 -0.837947737478E-08
 -0.707290857480E-08
 -0.566152050241E-08
 -0.421745053117E-08
 -0.279140299764E-08
 -0.141659797781E-08
 -0.105176624354E-09
  0.116303350978E-08
  0.247568204825E-08
  0.400386111765E-08
  0.542304680329E-08
  0.655715678977E-08
  0.765896212424E-08
  0.882271779593E-08
  0.100701304205E-07
  0.113876594751E-07
  0.127385335284E-07
  0.140683972565E-07
  0.153038864636E-07
  0.163314973524E-07
  0.171092290578E-07
  0.176039439588E-07
  0.177010541398E-07
  0.173422143902E-07
  0.165221777822E-07
  0.152899797302E-07
  0.137272889236E-07
  0.119174445729E-07
  0.987862432827E-08
 -0.127754204264E-07
 -0.785726534530E-07
 -0.756048430806E-08
 -0.924572231970E-08
 -0.113791107439E-07
 -0.134118629848E-07
 -0.150652542837E-07
 -0.161391051773E-07
 -0.165152692945E-07
 -0.161511954106E-07
 -0.150612656557E-07
 -0.134478425923E-07
 -0.115258706641E-07
 -0.940700005045E-08
 -0.721820029442E-08
 -0.506565694253E-08
 -0.301528614577E-08
 -0.108743956201E-08
  0.752546219784E-09
  0.263752055613E-08
  0.476623251283E-08
  0.677198823407E-08
  0.845224631257E-08
  0.100961322913E-07
  0.118432199291E-07
  0.137296520923E-07
  0.157347953139E-07
  0.177916058951E-07
  0.197925353641E-07
  0.216079241991E-07
  0.231196945043E-07
  0.241049909894E-07
  0.243518092982E-07
  0.238334168061E-07
  0.225772656161E-07
  0.206750373662E-07
  0.182743525590E-07
  0.155350065936E-07
  0.125857245355E-07
  0.945180471737E-08
 -0.870152876142E-08
 -0.610646609563E-07
 -0.258640744238E-08
 -0.235372684537E-08
 -0.278499123416E-08
 -0.354563743643E-08
 -0.448719742266E-08
 -0.544124292151E-08
 -0.621656139413E-08
 -0.663660462523E-08
 -0.659188426760E-08
 -0.607930176013E-08
 -0.518050880319E-08
 -0.401705291253E-08
 -0.272246407709E-08
 -0.141257936598E-08
 -0.161103970442E-09
  0.100855388624E-08
  0.212491928914E-08
  0.328708353592E-08
  0.466547114830E-08
  0.601732261241E-08
  0.711671867965E-08
  0.814049963549E-08
  0.918728868676E-08
  0.102888889943E-07
  0.114299133509E-07
  0.125468052024E-07
  0.135315349800E-07
  0.142504415525E-07
  0.145706950845E-07
  0.143898689561E-07
  0.136851685921E-07
  0.125413064621E-07
  0.111175128686E-07
  0.959766930514E-08
  0.814566676957E-08
  0.686987485302E-08
  0.581804867478E-08
  0.498722769679E-08
 -0.633921475729E-08
 -0.441691243615E-07
 -0.181107116803E-08
 -0.154697092289E-08
 -0.173331686157E-08
 -0.213153415404E-08
 -0.266020188169E-08
 -0.323307684444E-08
 -0.373669412079E-08
 -0.404567334147E-08
 -0.406237124495E-08
 -0.375014261843E-08
 -0.313959407777E-08
 -0.231049645909E-08
 -0.136178102128E-08
 -0.383800536491E-09
  0.567002847451E-09
  0.147511287213E-08
  0.236368517814E-08
  0.331062368492E-08
  0.445108897656E-08
  0.556705686411E-08
  0.645591699544E-08
  0.725720382400E-08
  0.804455876913E-08
  0.883742311275E-08
  0.962153112218E-08
  0.103512686461E-07
  0.109485331513E-07
  0.113129336211E-07
  0.113498478376E-07
  0.110065160493E-07
  0.102959586169E-07
  0.929898456153E-08
  0.813992691653E-08
  0.695056770125E-08
  0.584299373815E-08
  0.488989334441E-08
  0.412234176655E-08
  0.353738219272E-08
 -0.385252047277E-08
 -0.255174186642E-07
 -0.120115088709E-08
 -0.111398057098E-08
 -0.131711102788E-08
 -0.165879576741E-08
 -0.208199412571E-08
 -0.252515002658E-08
 -0.290777031099E-08
 -0.313886051179E-08
 -0.314382487664E-08
 -0.288934388513E-08
 -0.239209141731E-08
 -0.170652470627E-08
 -0.902099676209E-09
 -0.566686073067E-10
  0.772009445954E-09
  0.157358373554E-08
  0.236971763046E-08
  0.322292632859E-08
  0.424311047409E-08
  0.522383458018E-08
  0.598505379285E-08
  0.665455002560E-08
  0.729726705798E-08
  0.792074114284E-08
  0.850352498832E-08
  0.902622595243E-08
  0.943179051592E-08
  0.963105498217E-08
  0.954960774173E-08
  0.915440779778E-08
  0.846619516159E-08
  0.755504135988E-08
  0.651832490414E-08
  0.545302425783E-08
  0.443864253685E-08
  0.352926171274E-08
  0.275944669198E-08
  0.215409506898E-08
 -0.824778785199E-09
 -0.605279958099E-10
 -0.832501362985E-09
 -0.106909741823E-08
 -0.135687824518E-08
 -0.167932962328E-08
 -0.202081552186E-08
 -0.235085987135E-08
 -0.262061083771E-08
 -0.276748726366E-08
 -0.273449764481E-08
 -0.249287804570E-08
 -0.205252202300E-08
 -0.145154178434E-08
 -0.730501929780E-09
  0.441075717617E-10
  0.785394579234E-09
  0.149045494696E-08
  0.220074431248E-08
  0.300610112844E-08
  0.404236028331E-08
  0.484374536314E-08
  0.550093507551E-08
  0.611147166554E-08
  0.670142198331E-08
  0.723432416055E-08
  0.762173628030E-08
  0.801874225787E-08
  0.831618474214E-08
  0.841051213049E-08
  0.824192671403E-08
  0.778957337348E-08
  0.708028816132E-08
  0.618282766304E-08
  0.518561468765E-08
  0.417171159769E-08
  0.320297549247E-08
  0.231179316662E-08
  0.150306431190E-08
  0.753734834963E-09
 -0.760634768712E-09
 -0.781795458232E-09
 -0.100092656038E-08
 -0.126556389674E-08
 -0.155959345785E-08
 -0.186718632569E-08
 -0.215900869752E-08
 -0.238985685061E-08
 -0.250364181296E-08
 -0.245092306780E-08
 -0.220803894873E-08
 -0.178546801129E-08
 -0.121715247083E-08
 -0.534344995334E-09
  0.203743504706E-09
  0.906111671806E-09
  0.157380352500E-08
  0.225069864135E-08
  0.303035551860E-08
  0.479634845035E-08
  0.540743346975E-08
  0.597944169872E-08
  0.653197880507E-08
  0.703227881482E-08
  0.734796971012E-08
  0.770898486019E-08
  0.797498216450E-08
  0.805219002240E-08
  0.788643412901E-08
  0.745794469063E-08
  0.678960522874E-08
  0.594152595179E-08
  0.499441846560E-08
  0.402614786996E-08
  0.309625093620E-08
  0.223703573374E-08
  0.145434683047E-08
  0.719533051197E-09
 -0.660428919885E-09
 -0.660310433068E-09
 -0.829060063656E-09
 -0.103440319157E-08
 -0.126139018328E-08
 -0.149593350901E-08
 -0.171299719895E-08
 -0.187480126736E-08
 -0.193520846223E-08
 -0.185456703727E-08
 -0.161419572538E-08
 -0.122351195408E-08
 -0.710382254757E-09
 -0.937138838752E-10
  0.577725096929E-09
  0.120665002296E-08
  0.180003075986E-08
  0.240412684552E-08
  0.311310419804E-08
  0.469165236175E-08
  0.521266800557E-08
  0.570856057217E-08
  0.618776927266E-08
  0.664028420964E-08
  0.692604159268E-08
  0.723965297780E-08
  0.746191106913E-08
  0.751663280837E-08
  0.735452716956E-08
  0.695915318948E-08
  0.635048568245E-08
  0.557602692144E-08
  0.470561425589E-08
  0.380874677283E-08
  0.294017213007E-08
  0.213068299809E-08
  0.138616742390E-08
  0.667605920199E-09
 -0.543441952897E-09
 -0.502705325284E-09
 -0.601597115873E-09
 -0.724702246130E-09
 -0.858849942553E-09
 -0.993196389715E-09
 -0.110936088787E-08
 -0.117966541396E-08
 -0.117020134728E-08
 -0.105325524084E-08
 -0.814253789990E-09
 -0.459894932900E-09
 -0.120467004427E-10
  0.524307656319E-09
  0.111388106377E-08
  0.164899435773E-08
  0.214508252827E-08
  0.265036321709E-08
  0.325400363946E-08
  0.456076311092E-08
  0.497170172739E-08
  0.537086348659E-08
  0.575562332170E-08
  0.612174992295E-08
  0.550110863980E-08
  0.626814457370E-08
  0.700363688067E-08
  0.765999663959E-08
  0.818443594147E-08
  0.851532111663E-08
  0.859760467854E-08
  0.840911256253E-08
  0.794986940861E-08
  0.723706762920E-08
  0.630016086522E-08
  0.516791105395E-08
  0.385018041407E-08
  0.231714036326E-08
 -0.109074031578E-08
 -0.216695756998E-08
 -0.294796056663E-08
 -0.359256157462E-08
 -0.410873446724E-08
 -0.448393439392E-08
 -0.470322947081E-08
 -0.475822999578E-08
 -0.465022781913E-08
 -0.439306761021E-08
 -0.402218557375E-08
 -0.357703674667E-08
 -0.309524498567E-08
 -0.263866936287E-08
 -0.223125065993E-08
 -0.176583075592E-08
 -0.126630373201E-08
 -0.735543882746E-09
 -0.546300227278E-10
  0.155497920443E-08
  0.190966401720E-08
  0.231769256218E-08
  0.275587155527E-08
  0.324448391070E-08
  0.387130877876E-08
  0.438660757111E-08
  0.487341576816E-08
  0.530721436850E-08
  0.565017938860E-08
  0.586327164077E-08
  0.591196432607E-08
  0.577811941349E-08
  0.546118545872E-08
  0.497242643241E-08