# vtk DataFile Version 3.0
MachLine results file. Generated by MachLine, USU AeroLab (c) 2022.
ASCII
DATASET POLYDATA
POINTS                3668 float
  0.100000000000E+01  0.000000000000E+00  0.000000000000E+00
  0.100000000000E+01  0.000000000000E+00  0.000000000000E+00
  0.993202468320E+00  0.105801853900E+00 -0.792016659510E-03
  0.100000000000E+01  0.105801853900E+00  0.000000000000E+00
  0.100000000000E+01  0.105801853900E+00  0.000000000000E+00
  0.993202468320E+00  0.000000000000E+00 -0.792016659510E-03
  0.985311378880E+00  0.105801853900E+00 -0.170449895420E-02
  0.985311378880E+00  0.000000000000E+00 -0.170449895420E-02
  0.976172401820E+00  0.105801853900E+00 -0.275202043860E-02
  0.976172401820E+00  0.000000000000E+00 -0.275202043860E-02
  0.965617092460E+00  0.105801853900E+00 -0.394962905220E-02
  0.965617092460E+00  0.000000000000E+00 -0.394962905220E-02
  0.953464384210E+00  0.105801853900E+00 -0.531238367060E-02
  0.953464384210E+00  0.000000000000E+00 -0.531238367060E-02
  0.939523307000E+00  0.105801853900E+00 -0.685472369040E-02
  0.939523307000E+00  0.000000000000E+00 -0.685472369040E-02
  0.923597246950E+00  0.105801853900E+00 -0.858965946630E-02
  0.923597246950E+00  0.000000000000E+00 -0.858965946630E-02
  0.905490052860E+00  0.105801853900E+00 -0.105277887700E-01
  0.905490052860E+00  0.000000000000E+00 -0.105277887700E-01
  0.885014233920E+00  0.105801853900E+00 -0.126761706840E-01
  0.885014233920E+00  0.000000000000E+00 -0.126761706840E-01
  0.862001352470E+00  0.105801853900E+00 -0.150370898030E-01
  0.862001352470E+00  0.000000000000E+00 -0.150370898030E-01
  0.836314376120E+00  0.105801853900E+00 -0.176058258720E-01
  0.836314376120E+00  0.000000000000E+00 -0.176058258720E-01
  0.807861744690E+00  0.105801853900E+00 -0.203686189510E-01
  0.807861744690E+00  0.000000000000E+00 -0.203686189510E-01
  0.776612353210E+00  0.105801853900E+00 -0.233021693190E-01
  0.776612353210E+00  0.000000000000E+00 -0.233021693190E-01
  0.742610019070E+00  0.105801853900E+00 -0.263731107280E-01
  0.742610019070E+00  0.000000000000E+00 -0.263731107280E-01
  0.705985648880E+00  0.105801853900E+00 -0.295361410510E-01
  0.705985648880E+00  0.000000000000E+00 -0.295361410510E-01
  0.666965306180E+00  0.105801853900E+00 -0.327306847400E-01
  0.666965306180E+00  0.000000000000E+00 -0.327306847400E-01
  0.625872718430E+00  0.105801853900E+00 -0.358861224890E-01
  0.625872718430E+00  0.000000000000E+00 -0.358861224890E-01
  0.583124116380E+00  0.105801853900E+00 -0.389242397680E-01
  0.583124116380E+00  0.000000000000E+00 -0.389242397680E-01
  0.539215102660E+00  0.105801853900E+00 -0.417549573400E-01
  0.539215102660E+00  0.000000000000E+00 -0.417549573400E-01
  0.494699909170E+00  0.105801853900E+00 -0.442892746710E-01
  0.494699909170E+00  0.000000000000E+00 -0.442892746710E-01
  0.450164560540E+00  0.000000000000E+00 -0.464416172790E-01
  0.450164560540E+00  0.105801853900E+00 -0.464416172790E-01
  0.406197046100E+00  0.000000000000E+00 -0.481351698480E-01
  0.406197046100E+00  0.105801853900E+00 -0.481351698480E-01
  0.363356901030E+00  0.000000000000E+00 -0.493087119800E-01
  0.363356901030E+00  0.105801853900E+00 -0.493087119800E-01
  0.322148057390E+00  0.000000000000E+00 -0.499220386450E-01
  0.322148057390E+00  0.105801853900E+00 -0.499220386450E-01
  0.282997350300E+00  0.000000000000E+00 -0.499590509500E-01
  0.282997350300E+00  0.105801853900E+00 -0.499590509500E-01
  0.246240745400E+00  0.000000000000E+00 -0.494246641260E-01
  0.246240745400E+00  0.105801853900E+00 -0.494246641260E-01
  0.212117343290E+00  0.000000000000E+00 -0.483434669210E-01
  0.212117343290E+00  0.105801853900E+00 -0.483434669210E-01
  0.180771082860E+00  0.000000000000E+00 -0.467582932350E-01
  0.180771082860E+00  0.105801853900E+00 -0.467582932350E-01
  0.152257598000E+00  0.000000000000E+00 -0.447219656100E-01
  0.152257598000E+00  0.105801853900E+00 -0.447219656100E-01
  0.126557836510E+00  0.000000000000E+00 -0.422895365970E-01
  0.126557836510E+00  0.105801853900E+00 -0.422895365970E-01
  0.103591331880E+00  0.000000000000E+00 -0.395176429100E-01
  0.103591331880E+00  0.105801853900E+00 -0.395176429100E-01
  0.832331623890E-01  0.000000000000E+00 -0.364528323560E-01
  0.832331623890E-01  0.105801853900E+00 -0.364528323560E-01
  0.653287015030E-01  0.000000000000E+00 -0.331319734090E-01
  0.653287015030E-01  0.105801853900E+00 -0.331319734090E-01
  0.497093485250E-01  0.000000000000E+00 -0.295749625020E-01
  0.497093485250E-01  0.105801853900E+00 -0.295749625020E-01
  0.362089001590E-01  0.000000000000E+00 -0.257770350910E-01
  0.362089001590E-01  0.105801853900E+00 -0.257770350910E-01
  0.246816596840E-01  0.000000000000E+00 -0.217022398280E-01
  0.246816596840E-01  0.105801853900E+00 -0.217022398280E-01
  0.150380219590E-01  0.000000000000E+00 -0.172594695730E-01
  0.150380219590E-01  0.105801853900E+00 -0.172594695730E-01
  0.732365982350E-02  0.000000000000E+00 -0.122714258330E-01
  0.732365982350E-02  0.105801853900E+00 -0.122714258330E-01
  0.195566523840E-02  0.000000000000E+00 -0.646624164430E-02
  0.195566523840E-02  0.105801853900E+00 -0.646624164430E-02
  0.000000000000E+00  0.000000000000E+00  0.000000000000E+00
  0.000000000000E+00  0.105801853900E+00  0.000000000000E+00
  0.195566523840E-02  0.105801853900E+00  0.646624164430E-02
  0.195566523840E-02  0.000000000000E+00  0.646624164430E-02
  0.732365982350E-02  0.105801853900E+00  0.122714258330E-01
  0.732365982350E-02  0.000000000000E+00  0.122714258330E-01
  0.150380219590E-01  0.105801853900E+00  0.172594695730E-01
  0.150380219590E-01  0.000000000000E+00  0.172594695730E-01
  0.246816596840E-01  0.105801853900E+00  0.217022398280E-01
  0.246816596840E-01  0.000000000000E+00  0.217022398280E-01
  0.362089001590E-01  0.105801853900E+00  0.257770350910E-01
  0.362089001590E-01  0.000000000000E+00  0.257770350910E-01
  0.497093485250E-01  0.105801853900E+00  0.295749625020E-01
  0.497093485250E-01  0.000000000000E+00  0.295749625020E-01
  0.653287015030E-01  0.105801853900E+00  0.331319734090E-01
  0.653287015030E-01  0.000000000000E+00  0.331319734090E-01
  0.832331623890E-01  0.105801853900E+00  0.364528323560E-01
  0.832331623890E-01  0.000000000000E+00  0.364528323560E-01
  0.103591331880E+00  0.105801853900E+00  0.395176429100E-01
  0.103591331880E+00  0.000000000000E+00  0.395176429100E-01
  0.126557836510E+00  0.105801853900E+00  0.422895365970E-01
  0.126557836510E+00  0.000000000000E+00  0.422895365970E-01
  0.152257598000E+00  0.105801853900E+00  0.447219656100E-01
  0.152257598000E+00  0.000000000000E+00  0.447219656100E-01
  0.180771082860E+00  0.105801853900E+00  0.467582932350E-01
  0.180771082860E+00  0.000000000000E+00  0.467582932350E-01
  0.212117343290E+00  0.105801853900E+00  0.483434669210E-01
  0.212117343290E+00  0.000000000000E+00  0.483434669210E-01
  0.246240745400E+00  0.105801853900E+00  0.494246641260E-01
  0.246240745400E+00  0.000000000000E+00  0.494246641260E-01
  0.282997350300E+00  0.105801853900E+00  0.499590509500E-01
  0.282997350300E+00  0.000000000000E+00  0.499590509500E-01
  0.322148057390E+00  0.105801853900E+00  0.499220386450E-01
  0.322148057390E+00  0.000000000000E+00  0.499220386450E-01
  0.363356901030E+00  0.105801853900E+00  0.493087119800E-01
  0.363356901030E+00  0.000000000000E+00  0.493087119800E-01
  0.406197046100E+00  0.105801853900E+00  0.481351698480E-01
  0.406197046100E+00  0.000000000000E+00  0.481351698480E-01
  0.450164560540E+00  0.105801853900E+00  0.464416172790E-01
  0.450164560540E+00  0.000000000000E+00  0.464416172790E-01
  0.494699909170E+00  0.105801853900E+00  0.442892746710E-01
  0.494699909170E+00  0.000000000000E+00  0.442892746710E-01
  0.539215102660E+00  0.000000000000E+00  0.417549573400E-01
  0.539215102660E+00  0.105801853900E+00  0.417549573400E-01
  0.583124116380E+00  0.000000000000E+00  0.389242397680E-01
  0.583124116380E+00  0.105801853900E+00  0.389242397680E-01
  0.625872718430E+00  0.000000000000E+00  0.358861224890E-01
  0.625872718430E+00  0.105801853900E+00  0.358861224890E-01
  0.666965306180E+00  0.000000000000E+00  0.327306847400E-01
  0.666965306180E+00  0.105801853900E+00  0.327306847400E-01
  0.705985648880E+00  0.000000000000E+00  0.295361410510E-01
  0.705985648880E+00  0.105801853900E+00  0.295361410510E-01
  0.742610019070E+00  0.000000000000E+00  0.263731107280E-01
  0.742610019070E+00  0.105801853900E+00  0.263731107280E-01
  0.776612353210E+00  0.000000000000E+00  0.233021693190E-01
  0.776612353210E+00  0.105801853900E+00  0.233021693190E-01
  0.807861744690E+00  0.000000000000E+00  0.203686189510E-01
  0.807861744690E+00  0.105801853900E+00  0.203686189510E-01
  0.836314376120E+00  0.000000000000E+00  0.176058258720E-01
  0.836314376120E+00  0.105801853900E+00  0.176058258720E-01
  0.862001352470E+00  0.000000000000E+00  0.150370898030E-01
  0.862001352470E+00  0.105801853900E+00  0.150370898030E-01
  0.885014233920E+00  0.000000000000E+00  0.126761706840E-01
  0.885014233920E+00  0.105801853900E+00  0.126761706840E-01
  0.905490052860E+00  0.000000000000E+00  0.105277887700E-01
  0.905490052860E+00  0.105801853900E+00  0.105277887700E-01
  0.923597246950E+00  0.000000000000E+00  0.858965946630E-02
  0.923597246950E+00  0.105801853900E+00  0.858965946630E-02
  0.939523307000E+00  0.000000000000E+00  0.685472369040E-02
  0.939523307000E+00  0.105801853900E+00  0.685472369040E-02
  0.953464384210E+00  0.000000000000E+00  0.531238367060E-02
  0.953464384210E+00  0.105801853900E+00  0.531238367060E-02
  0.965617092460E+00  0.000000000000E+00  0.394962905220E-02
  0.965617092460E+00  0.105801853900E+00  0.394962905220E-02
  0.976172401820E+00  0.000000000000E+00  0.275202043860E-02
  0.976172401820E+00  0.105801853900E+00  0.275202043860E-02
  0.985311378880E+00  0.000000000000E+00  0.170449895420E-02
  0.985311378880E+00  0.105801853900E+00  0.170449895420E-02
  0.993202468320E+00  0.000000000000E+00  0.792016659510E-03
[...]
CELL_DATA                7176
SCALARS C_p_inc float 1
LOOKUP_TABLE default
  0.301193904483E+00
  0.301208328680E+00
  0.219306858880E+00
  0.219329988970E+00
  0.186827189579E+00
  0.186840978259E+00
  0.162787145476E+00
  0.162802034863E+00
  0.143287736488E+00
  0.143302588602E+00
  0.126527335901E+00
  0.126542464239E+00
  0.111644128025E+00
  0.111659699623E+00
  0.981639757555E-01
  0.981800935754E-01
  0.858015416088E-01
  0.858182808002E-01
  0.743509300339E-01
  0.743683527235E-01
  0.636683730969E-01
  0.636865379876E-01
  0.537079866253E-01
  0.537269538590E-01
  0.444669452738E-01
  0.444867794677E-01
  0.358968867551E-01
  0.359176607010E-01
  0.279103882819E-01
  0.279321860052E-01
  0.205669557673E-01
  0.205898654148E-01
  0.140091594621E-01
  0.140332639436E-01
  0.824177392179E-02
  0.826714405856E-02
  0.345870530739E-02
  0.348538056107E-02
 -0.171460159293E-05
  0.264311684183E-04
 -0.181908462045E-02
 -0.184908260267E-02
 -0.161992064435E-02
 -0.165228306358E-02
  0.116437961386E-02
  0.112960323021E-02
  0.711954592913E-02
  0.708222684271E-02
  0.167978342154E-01
  0.167578619570E-01
  0.307814659991E-01
  0.307386776925E-01
  0.497726233104E-01
  0.497268349380E-01
  0.744389416626E-01
  0.743899487548E-01
  0.105418113108E+00
  0.105365685006E+00
  0.143609967420E+00
  0.143553864427E+00
  0.190057812838E+00
  0.189997792090E+00
  0.246183362923E+00
  0.246119205499E+00
  0.314058904807E+00
  0.313990493702E+00
  0.396488192743E+00
  0.396415645350E+00
  0.497618773051E+00
  0.497542819961E+00
  0.622803145297E+00
  0.622726060281E+00
  0.776368528972E+00
  0.776296885732E+00
  0.942823057284E+00
  0.942777270724E+00
  0.964581838984E+00
  0.964630241564E+00
  0.211150551136E+00
  0.211448121568E+00
 -0.142756308574E+01
 -0.142794659470E+01
 -0.222738792067E+01
 -0.222781442027E+01
 -0.213134780173E+01
 -0.213169343567E+01
 -0.186347664484E+01
 -0.186374001200E+01
 -0.163222028057E+01
 -0.163243013534E+01
 -0.144834560233E+01
 -0.144851901356E+01
 -0.130031004389E+01
 -0.130045707594E+01
 -0.117794879721E+01
 -0.117807582572E+01
 -0.107427700395E+01
 -0.107438832529E+01
 -0.984067106069E+00
 -0.984165739177E+00
 -0.903958637006E+00
 -0.904046788397E+00
 -0.831397245827E+00
 -0.831476573364E+00
 -0.764545287748E+00
 -0.764617066312E+00
 -0.702252712979E+00
 -0.702317943237E+00
 -0.643518499443E+00
 -0.643577977226E+00
 -0.587830719343E+00
 -0.587885086060E+00
 -0.534994554696E+00
 -0.535044327219E+00
 -0.484801345329E+00
 -0.484846930531E+00
 -0.437136501208E+00
 -0.437178208689E+00
 -0.392031434503E+00
 -0.392070286448E+00
 -0.349557152262E+00
 -0.349522678671E+00
 -0.309593361514E+00
 -0.309560605357E+00
 -0.272005239844E+00
 -0.271974322435E+00
 -0.236745766455E+00
 -0.236717037737E+00
 -0.203630874047E+00
 -0.203603969631E+00
 -0.172299054925E+00
 -0.172273816662E+00
 -0.142606428716E+00
 -0.142582703153E+00
 -0.114345064622E+00
 -0.114322707106E+00
 -0.871719659961E-01
 -0.871508421167E-01
 -0.608240961218E-01
 -0.608040833797E-01
 -0.351144186675E-01
 -0.350954042766E-01
 -0.982493684784E-02
 -0.980681404296E-02
  0.153556032736E-01
  0.153729393606E-01
  0.407943751685E-01
  0.408110339823E-01
  0.669398498750E-01
  0.669559564347E-01
  0.944491379727E-01
  0.944648527180E-01
  0.124415877630E+00
  0.124431374358E+00
  0.158983049445E+00
  0.158998943223E+00
  0.202617080322E+00
  0.202636846852E+00
  0.297270051862E+00
  0.297294954634E+00
  0.301171260997E+00
  0.301193592607E+00
  0.219281170276E+00
  0.219306547988E+00
  0.186790936979E+00
  0.186826880231E+00
  0.162749797246E+00
  0.162786838123E+00
  0.143247304437E+00
  0.143287431588E+00
  0.126484080780E+00
  0.126527033996E+00
  0.111598317591E+00
  0.111643829709E+00
  0.981155886274E-01
  0.981636817012E-01
  0.857505453917E-01
  0.858012525680E-01
  0.742972460686E-01
  0.743506468390E-01
  0.636118819613E-01
  0.636680966580E-01
  0.536485357749E-01
  0.537077179211E-01
  0.444043523834E-01
  0.444666853355E-01
  0.358309369173E-01
  0.358966366436E-01
  0.278408300078E-01
  0.279101490572E-01
  0.204935219814E-01
  0.205667284489E-01
  0.139315884590E-01
  0.140089449806E-01
  0.815980268684E-02
  0.824157307089E-02
  0.337211080487E-02
  0.345851869234E-02
 -0.933402166075E-04
 -0.188656365774E-05
 -0.184925808980E-02
 -0.194698289733E-02
 -0.165244362501E-02
 -0.175752500561E-02
  0.112945780563E-02
  0.101649623229E-02
  0.708209650739E-02
  0.696095772174E-02
  0.167577463798E-01
  0.166279668470E-01
  0.307385763080E-01
  0.305996103271E-01
  0.497267469916E-01
  0.495779894734E-01
  0.743898733502E-01
  0.742306573902E-01
  0.105365621152E+00
  0.105195200053E+00
  0.143553811085E+00
  0.143371412895E+00
  0.189997748206E+00
  0.189802593152E+00
  0.246119170038E+00
  0.245910562673E+00
  0.313990465666E+00
  0.313768038368E+00
  0.396415623797E+00
  0.396179758835E+00
  0.497542804008E+00
  0.497295845302E+00
  0.622726049103E+00
  0.622475284483E+00
  0.776296878553E+00
  0.776063573765E+00
  0.942777266793E+00
  0.942628466789E+00
  0.964630240089E+00
  0.964781136169E+00
  0.211448121519E+00
  0.212242427692E+00
 -0.142588604284E+01
 -0.142756308809E+01
 -0.222606640780E+01
 -0.222738792606E+01
 -0.213025086843E+01
 -0.213134781122E+01
 -0.186263188863E+01
 -0.186347665914E+01
 -0.163154275893E+01
 -0.163222030046E+01
 -0.144778407770E+01
 -0.144834562865E+01
 -0.129983318583E+01
 -0.130031007754E+01
 -0.117753641038E+01
 -0.117794883920E+01
 -0.107391538131E+01
 -0.107427705536E+01
 -0.983746575302E+00
 -0.984067168057E+00
 -0.903672104997E+00
 -0.903958710779E+00
 -0.831139377099E+00
 -0.831397332622E+00
 -0.764311972481E+00
 -0.764545388794E+00
 -0.702040719706E+00
 -0.702252829450E+00
 -0.643325257898E+00
 -0.643518632401E+00
 -0.587654152032E+00
 -0.587830869684E+00
 -0.534832970126E+00
 -0.534994723084E+00
 -0.484653383227E+00
 -0.484801532140E+00
 -0.437001073661E+00
 -0.437136706483E+00
 -0.391907843895E+00
 -0.392031657889E+00
 -0.349522897774E+00
 -0.349408915771E+00
 -0.309560842198E+00
 -0.309453543592E+00
 -0.271974576656E+00
 -0.271875746269E+00
 -0.236717308323E+00
 -0.236625013422E+00
 -0.203604255582E+00
 -0.203518205318E+00
 -0.172274116778E+00
 -0.172193803837E+00
 -0.142583016139E+00
 -0.142507959256E+00
 -0.114323031632E+00
 -0.114252786099E+00
 -0.871511768663E-01
 -0.870853396685E-01
 -0.608044270906E-01
 -0.607426439887E-01
 -0.350957557655E-01
 -0.350377236104E-01
 -0.980717222232E-02
 -0.975264233772E-02
  0.153725754750E-01
  0.154237917657E-01
  0.408106652708E-01
  0.408586845766E-01
  0.669555836784E-01
  0.670004248092E-01
  0.944644766085E-01
  0.945060144740E-01
  0.124430995510E+00
  0.124469059662E+00
  0.158998562185E+00
  0.159032707838E+00
  0.202636464175E+00
  0.202656811197E+00
  0.297294571317E+00
  0.297305489229E+00
  0.301145200064E+00
  0.301170594655E+00
  0.219214661640E+00
  0.219280508003E+00
  0.186736888488E+00
  0.186790278124E+00
  0.162689254258E+00
  0.162749142346E+00
  0.143181659105E+00
  0.143246654524E+00
  0.126413467908E+00
  0.126483436917E+00
  0.111522555105E+00
  0.111597681049E+00
  0.980347348917E-01
  0.981149608646E-01
  0.856644213711E-01
  0.857499280746E-01
  0.742056625507E-01
  0.742966410687E-01
  0.635146004363E-01
  0.636112913449E-01
  0.535452742575E-01
  0.536479617781E-01
  0.442947874673E-01
  0.444037973712E-01
  0.357146964109E-01
  0.358304033238E-01
  0.277174847648E-01
  0.278403202600E-01
  0.203626117916E-01
  0.204930384006E-01
  0.137926479140E-01
  0.139311331482E-01
  0.801234398301E-02
  0.815937742233E-02
  0.321562886037E-02
  0.337171693805E-02
 -0.259673506452E-03
 -0.937017386968E-04
 -0.194737750445E-02
 -0.212476873454E-02
 -0.175788718998E-02
 -0.194847657836E-02
  0.101616710694E-02
  0.811534390739E-03
  0.696066173074E-02
  0.674123783216E-02
  0.166277034596E-01
  0.163926157407E-01
  0.305993784707E-01
  0.303476168242E-01
  0.495777876268E-01
  0.493082489637E-01
  0.742304836832E-01
  0.739419631042E-01
  0.105195052370E+00
  0.104886215753E+00
  0.143371288980E+00
  0.143040758499E+00
  0.189802490693E+00
  0.189448885349E+00
  0.245910479376E+00
  0.245532585694E+00
  0.313767972015E+00
  0.313365179878E+00
  0.396179707314E+00
  0.395752803213E+00
  0.497295806635E+00
  0.496849182089E+00
  0.622475256830E+00
  0.622022378401E+00
  0.776063555420E+00
  0.775643324475E+00
  0.942628456170E+00
  0.942361441478E+00
  0.964781131805E+00
  0.965050884131E+00
  0.212242427617E+00
  0.213799093040E+00
 -0.142321527659E+01
 -0.142588604898E+01
 -0.222345007739E+01
 -0.222606642197E+01
 -0.212827341625E+01
 -0.213025089242E+01
 -0.186110444448E+01
 -0.186263192373E+01
 -0.163031780390E+01
 -0.163154280681E+01
 -0.144676837511E+01
 -0.144778414024E+01
 -0.129897008161E+01
 -0.129983326508E+01
 -0.117678957810E+01
 -0.117753650860E+01
 -0.107326016483E+01
 -0.107391550094E+01
 -0.983165594238E+00
 -0.983746718929E+00
 -0.903152602819E+00
 -0.903672275321E+00
 -0.830671757910E+00
 -0.831139576854E+00
 -0.763888845508E+00
 -0.764312204347E+00
 -0.701656259688E+00
 -0.702040986205E+00
 -0.642974832233E+00
 -0.643325561262E+00
 -0.587334002654E+00
 -0.587654494071E+00
 -0.534540009017E+00
 -0.534833352100E+00
 -0.484385085772E+00
 -0.484653805728E+00
 -0.436755358627E+00
 -0.437001536537E+00
 -0.391682229908E+00
 -0.391908346422E+00
 -0.349409378202E+00
 -0.349201676267E+00
 -0.309454045308E+00
 -0.309262270090E+00
 -0.271876286037E+00
 -0.271697995307E+00
 -0.236625589518E+00
 -0.236460194785E+00
 -0.203518815415E+00
 -0.203365358978E+00
 -0.172194445214E+00
 -0.172052023533E+00
 -0.142508628954E+00
 -0.142376397448E+00
 -0.114253481056E+00
 -0.114130664616E+00
 -0.870860568421E-01
 -0.869719594420E-01
 -0.607433804556E-01
 -0.606373844037E-01
 -0.350384766368E-01
 -0.349400381850E-01
 -0.975340942560E-02
 -0.966205884455E-02
  0.154230128544E-01
  0.155076687635E-01
  0.408578958128E-01
  0.409361625568E-01
  0.669996279028E-01
  0.670717085663E-01
  0.945052108887E-01
  0.945712343006E-01
  0.124468250638E+00
  0.124528199967E+00
  0.159031894416E+00
  0.159086588033E+00
  0.202655993663E+00
  0.202704209277E+00
  0.297304668168E+00
  0.297326865336E+00
  0.301108135241E+00
  0.301144123020E+00
  0.219170813425E+00
  0.219213587295E+00
  0.186668550822E+00
  0.186735817074E+00
  0.162610867347E+00
  0.162688188620E+00
  0.143093355941E+00
  0.143180600895E+00
  0.126315940285E+00
  0.126412419117E+00
  0.111416216998E+00
  0.111521517993E+00
  0.979195738407E-01
  0.980337120352E-01
  0.855404719267E-01
  0.856634156772E-01
  0.740726784251E-01
  0.742046772721E-01
  0.633722632025E-01
  0.635136391551E-01
  0.533931834098E-01
  0.535443408418E-01
  0.441324723791E-01
  0.442938859959E-01
  0.355416113512E-01
  0.357138310651E-01
  0.275330004020E-01
  0.277166596881E-01
  0.201660469465E-01
  0.203618309128E-01
  0.135832977559E-01
  0.137919147498E-01
  0.778945486209E-02
  0.801166145207E-02
  0.297840938956E-02
  0.321499911732E-02
 -0.512389843531E-03
 -0.260249057793E-03
 -0.212544185630E-02
 -0.239514735376E-02
 -0.194909634833E-02
 -0.223873103528E-02
  0.810969388302E-03
  0.500085814500E-03
  0.674072806840E-02
  0.640740752020E-02
  0.163921606524E-01
  0.160350453330E-01
  0.303472148993E-01
  0.299647593753E-01
  0.493078978851E-01
  0.488984249702E-01
  0.739416599127E-01
  0.735033453275E-01
  0.104885957021E+00
  0.104416790037E+00
  0.143040540515E+00
  0.142538444674E+00
  0.189448704266E+00
  0.188911603279E+00
  0.245532437664E+00
  0.244958514744E+00
  0.313365061159E+00
  0.312753416449E+00
  0.395752710234E+00
  0.395104575208E+00
  0.496849111504E+00
  0.496171198942E+00
  0.622022327108E+00
  0.621335141904E+00
  0.775643289637E+00
  0.775005909560E+00
  0.942361420569E+00
  0.941956231287E+00
  0.965050875050E+00
  0.965457083161E+00
  0.213799093236E+00
  0.216160361343E+00
 -0.141908792402E+01
 -0.142321528916E+01
 -0.221954455585E+01
 -0.222345010538E+01
 -0.212526549795E+01
 -0.212827346132E+01
 -0.185878659366E+01
 -0.186110450895E+01
 -0.162845892346E+01
 -0.163031789052E+01
 -0.144522673308E+01
 -0.144676848705E+01
 -0.129765970037E+01
 -0.129897022241E+01
 -0.117565536781E+01
 -0.117678975161E+01
 -0.107226480379E+01
 -0.107326037521E+01
 -0.982282779775E+00
 -0.983165845893E+00
 -0.902363024136E+00
 -0.903152900298E+00
 -0.829960892623E+00
 -0.830672105794E+00
 -0.763245514191E+00
 -0.763889248239E+00
 -0.701071645084E+00
 -0.701656721379E+00
 -0.642441926458E+00
 -0.642975356443E+00
 -0.586847113804E+00
 -0.587334592158E+00
 -0.534094441137E+00
 -0.534540665598E+00
 -0.483976976276E+00
 -0.484385810038E+00
 -0.436381495102E+00
 -0.436756149905E+00
 -0.391339597552E+00
 -0.391683086332E+00
 -0.349202413743E+00
 -0.348886676231E+00
 -0.309263074022E+00
 -0.308971412974E+00
 -0.271698863627E+00
 -0.271429114097E+00
 -0.236461124600E+00
 -0.236211673175E+00
 -0.203366346455E+00
 -0.203135719496E+00
 -0.172053064108E+00
 -0.171839902213E+00
 -0.142377486087E+00
 -0.142180526805E+00
 -0.114131796060E+00
 -0.113949886510E+00
 -0.869731284348E-01
 -0.868052405583E-01
 -0.606385858684E-01
 -0.604838115340E-01
 -0.349412673587E-01
 -0.347988147602E-01
 -0.966331136440E-02
 -0.953251459107E-02
  0.155063968164E-01
  0.156260531616E-01
  0.409348746482E-01
  0.410437209975E-01
  0.670704077261E-01
  0.671685660246E-01
  0.945699231622E-01
  0.946572028931E-01
  0.124526880818E+00
  0.124602655617E+00
  0.159085262976E+00
  0.159147548322E+00
  0.202702880209E+00
  0.202743637607E+00
  0.297325533297E+00
  0.297338310351E+00
  0.301066012164E+00
  0.301106543413E+00
  0.219102273185E+00
  0.219169227052E+00
  0.186582616784E+00
  0.186666972657E+00
  0.162504920782E+00
  0.162609299035E+00
  0.142976103800E+00
  0.143091799646E+00
  0.126186277661E+00
  0.126314398773E+00
  0.111274228172E+00
  0.111414693557E+00
  0.977652533887E-01
  0.979180722985E-01
  0.853735173217E-01
  0.855389966660E-01
  0.738928107125E-01
  0.740712343779E-01
  0.631789527595E-01
  0.633708558222E-01
  0.531858291216E-01
  0.533918185927E-01
  0.439103881160E-01
  0.441311563356E-01
  0.353040185733E-01
  0.355403504268E-01
  0.272790150442E-01
  0.275318008477E-01
  0.198947176569E-01
  0.201649146344E-01
  0.132936371328E-01
  0.135822378690E-01
  0.748040123501E-02
  0.778847160639E-02
  0.264884109545E-02
  0.297750574398E-02
 -0.864037768741E-03
 -0.513212104039E-03
 -0.239617363319E-02
 -0.277158061696E-02
 -0.223967864523E-02
 -0.264277393207E-02
  0.499219492285E-03
  0.666172722242E-04
  0.640662367876E-02
  0.594283042703E-02
  0.160343435764E-01
  0.155374544410E-01
  0.299641378236E-01
  0.294320009272E-01
  0.488978804624E-01
  0.483281659039E-01
  0.735028736611E-01
  0.728930500750E-01
  0.104416386231E+00
  0.103763666807E+00
  0.142538103255E+00
  0.141839607317E+00
  0.188911318518E+00
  0.188164165031E+00
  0.244958280868E+00
  0.244159948247E+00
  0.312753227816E+00
  0.311902463236E+00
  0.395104426418E+00
  0.394202938028E+00
  0.496171084935E+00
  0.495228191729E+00
  0.621335058007E+00
  0.620379238065E+00
  0.775005851548E+00
  0.774119134192E+00
  0.941956195540E+00
  0.941391464059E+00
  0.965457067042E+00
  0.966016895379E+00
  0.216160361865E+00
  0.219436870026E+00
 -0.141334651547E+01
 -0.141908794577E+01
 -0.221411395399E+01
 -0.221954460283E+01
 -0.212108572146E+01
 -0.212526557212E+01
 -0.185556549693E+01
 -0.185878669789E+01
 -0.162587513413E+01
 -0.162845906187E+01
 -0.144308349866E+01
 -0.144522691051E+01
 -0.129583755604E+01
 -0.129765992220E+01
 -0.117407779731E+01
 -0.117565563994E+01
 -0.107087997644E+01
 -0.107226513257E+01
 -0.981054224599E+00
 -0.982283171886E+00
 -0.901263955912E+00
 -0.902363486459E+00
 -0.828971167456E+00
 -0.829961432034E+00
 -0.762349629238E+00
 -0.763246137292E+00
 -0.700257371870E+00
 -0.701072357907E+00
 -0.641699549999E+00
 -0.642442734105E+00
 -0.586168741256E+00
 -0.586848020104E+00
 -0.533473551432E+00
 -0.534095448333E+00
 -0.483408192184E+00
 -0.483978084763E+00
 -0.435860328626E+00
 -0.436382703295E+00
 -0.390861908720E+00
 -0.391340902046E+00
 -0.348887731923E+00
 -0.348447744171E+00
 -0.308972568743E+00
 -0.308566723041E+00
 -0.271430367465E+00
 -0.271055714445E+00
 -0.236213020122E+00
 -0.235867286686E+00
 -0.203137154471E+00
 -0.202818272210E+00
 -0.171841418460E+00
 -0.171547492326E+00
 -0.142182116755E+00
 -0.141911383855E+00
 -0.113951542184E+00
 -0.113702385111E+00
 -0.868069539250E-01
 -0.865779203175E-01
 -0.604855748123E-01
 -0.602753650485E-01
 -0.348006206397E-01
 -0.346080798854E-01
 -0.953435638257E-02
 -0.935849009782E-02
  0.156241814435E-01
  0.157841810095E-01
  0.410418246071E-01
  0.411865701751E-01
  0.671666494976E-01
  0.672965194177E-01
  0.946552700818E-01
  0.947703992202E-01
  0.124600709731E+00
  0.124700475718E+00
  0.159145591964E+00
  0.159226629922E+00
  0.202741672608E+00
  0.202800144595E+00
  0.297336338165E+00
  0.297352824215E+00
  0.300985858369E+00
  0.301063786237E+00
  0.219002706605E+00
  0.219100058091E+00
  0.186463614852E+00
  0.186580414190E+00
  0.162370553943E+00
  0.162502732991E+00
  0.142822453653E+00
  0.142973933935E+00
  0.126018321152E+00
  0.126184129670E+00
  0.111090726937E+00
  0.111272106718E+00
  0.975657155729E-01
  0.977631639397E-01
  0.851574573042E-01
  0.853714661653E-01
  0.736595259270E-01
  0.738908049455E-01
  0.629277504776E-01
  0.631770002275E-01
  0.529158087470E-01
  0.531839383005E-01
  0.436205819541E-01
  0.439085679110E-01
  0.349933548258E-01
  0.353022780435E-01
  0.269462984955E-01
  0.272773630545E-01
  0.195386739276E-01
  0.198931624521E-01
  0.129129473338E-01
  0.132921858799E-01
  0.707364779987E-02
  0.747905960784E-02
  0.221452380433E-02
  0.264761292277E-02
 -0.132793512086E-02
 -0.865150463166E-03
 -0.277305481880E-02
 -0.326835559327E-02
 -0.264413844182E-02
 -0.317592394308E-02
  0.653667838250E-04
 -0.505274880285E-03
  0.594169625671E-02
  0.532995950073E-02
  0.155364365874E-01
  0.148810859477E-01
  0.294310972108E-01
  0.287292984385E-01
  0.483273722399E-01
  0.475760587047E-01
  0.728923608072E-01
  0.720882005335E-01
  0.103763075083E+00
  0.102902399892E+00
  0.141839105506E+00
  0.140918118123E+00
  0.188163745071E+00
  0.187178643249E+00
  0.244159601966E+00
  0.243107050681E+00
  0.311902182613E+00
  0.310780505856E+00
  0.394202715370E+00
  0.393014124658E+00
  0.495228019823E+00
  0.493984724808E+00
  0.620379110275E+00
  0.619118508274E+00
  0.774119044583E+00
  0.772948934272E+00
  0.941391407723E+00
  0.940644008642E+00
  0.966016869241E+00
  0.966746684685E+00
  0.219436870926E+00
  0.223743034885E+00
 -0.140578494832E+01
 -0.141334654965E+01
 -0.220696165771E+01
 -0.221411402667E+01
 -0.211558210128E+01
 -0.212108583426E+01
 -0.185132328125E+01
 -0.185556565347E+01
 -0.162247126189E+01
 -0.162587534020E+01
 -0.144025932106E+01
 -0.144308376118E+01
 -0.129343594335E+01
 -0.129583788278E+01
 -0.117199800863E+01
 -0.117407819676E+01
 -0.106905378383E+01
 -0.107088045773E+01
 -0.979433634299E+00
 -0.981054797300E+00
 -0.899813758102E+00
 -0.901264629859E+00
 -0.827664879687E+00
 -0.828971952414E+00
 -0.761166873236E+00
 -0.762350534509E+00
 -0.699182074759E+00
 -0.700258405853E+00
 -0.640718949160E+00
 -0.641700719658E+00
 -0.585272469691E+00
 -0.586170051631E+00
 -0.532653039790E+00
 -0.533475005193E+00
 -0.482656366565E+00
 -0.483409789274E+00
 -0.435171275013E+00
 -0.435862066100E+00
 -0.390230225785E+00
 -0.390863781016E+00
 -0.348449174658E+00
 -0.347867492209E+00
 -0.308568296311E+00
 -0.308032234564E+00
 -0.271057427641E+00
 -0.270563159283E+00
 -0.235869134607E+00
 -0.235413636719E+00
 -0.202820247326E+00
 -0.202400768701E+00
 -0.171549585240E+00
 -0.171163608933E+00
 -0.141913583873E+00
 -0.141558758124E+00
 -0.113704680838E+00
 -0.113378832646E+00
 -0.865803002079E-01
 -0.862814592929E-01
 -0.602778178614E-01
 -0.600041944313E-01
 -0.346105950311E-01
 -0.343605674359E-01
 -0.936105787640E-02
 -0.913318539196E-02
  0.157815692726E-01
  0.159885404996E-01
  0.411839220783E-01
  0.413710474708E-01