# vtk DataFile Version 3.0
MachLine results file. Generated by MachLine, USU AeroLab (c) 2022.
ASCII
DATASET POLYDATA
POINTS                1191 float
  0.999999612964E+00  0.000000000000E+00 -0.299629940957E-22
  0.965617049477E+00  0.503720627990E+00 -0.394924574474E-02
  0.999999602301E+00  0.503720627990E+00  0.538797267559E-22
  0.965617053137E+00  0.000000000000E+00 -0.394927838106E-02
  0.905490011310E+00  0.503720627990E+00 -0.105273934301E-01
  0.905490014666E+00  0.000000000000E+00 -0.105274253670E-01
  0.807861705894E+00  0.503720627990E+00 -0.203682073873E-01
  0.807861708818E+00  0.000000000000E+00 -0.203682384041E-01
  0.666965273087E+00  0.503720627990E+00 -0.327302572312E-01
  0.666965275482E+00  0.000000000000E+00 -0.327302881751E-01
  0.494699888275E+00  0.503720627990E+00 -0.442888555670E-01
  0.494699892330E+00  0.000000000000E+00 -0.442889369061E-01
  0.322148055350E+00  0.000000000000E+00 -0.499216409056E-01
  0.322148055191E+00  0.503720627990E+00 -0.499216098701E-01
  0.180771107237E+00  0.000000000000E+00 -0.467579117927E-01
  0.180771109224E+00  0.503720627990E+00 -0.467578807019E-01
  0.832332263738E-01  0.000000000000E+00 -0.364524726248E-01
  0.832332319973E-01  0.503720627990E+00 -0.364524410088E-01
  0.246818237436E-01  0.000000000000E+00 -0.217019277690E-01
  0.246818390179E-01  0.503720627990E+00 -0.217018987155E-01
  0.386542488993E-06  0.000000000000E+00  0.000000000000E+00
  0.397085149218E-06  0.503720627990E+00  0.000000000000E+00
  0.246818390179E-01  0.503720627990E+00  0.217018987155E-01
  0.246818237436E-01  0.000000000000E+00  0.217019277690E-01
  0.832332319973E-01  0.503720627990E+00  0.364524410088E-01
  0.832332263738E-01  0.000000000000E+00  0.364524726248E-01
  0.180771109224E+00  0.503720627990E+00  0.467578807019E-01
  0.180771107237E+00  0.000000000000E+00  0.467579117927E-01
  0.322148055191E+00  0.503720627990E+00  0.499216098701E-01
  0.322148055350E+00  0.000000000000E+00  0.499216409056E-01
  0.494699888275E+00  0.503720627990E+00  0.442888555670E-01
  0.494699892330E+00  0.000000000000E+00  0.442889369061E-01
  0.666965275482E+00  0.000000000000E+00  0.327302881751E-01
  0.666965273087E+00  0.503720627990E+00  0.327302572312E-01
  0.807861708818E+00  0.000000000000E+00  0.203682384041E-01
  0.807861705894E+00  0.503720627990E+00  0.203682073873E-01
  0.905490014666E+00  0.000000000000E+00  0.105274253670E-01
  0.905490011310E+00  0.503720627990E+00  0.105273934301E-01
  0.965617053137E+00  0.000000000000E+00  0.394927838106E-02
  0.965617049477E+00  0.503720627990E+00  0.394924574474E-02
  0.965617044026E+00  0.110747748820E+01 -0.394919713954E-02
  0.999999562203E+00  0.110747748820E+01 -0.593122772200E-22
  0.905490006211E+00  0.110747748820E+01 -0.105273449121E-01
  0.807861701340E+00  0.110747748820E+01 -0.203681590722E-01
  0.666965269368E+00  0.110747748820E+01 -0.327302091992E-01
  0.494699885471E+00  0.110747748820E+01 -0.442887993241E-01
  0.322148054944E+00  0.110747748820E+01 -0.499215616949E-01
  0.180771112319E+00  0.110747748820E+01 -0.467578322712E-01
  0.832332405407E-01  0.110747748820E+01 -0.364523929769E-01
  0.246818617792E-01  0.110747748820E+01 -0.217018554210E-01
  0.437186376405E-06  0.110747748820E+01  0.000000000000E+00
  0.246818617792E-01  0.110747748820E+01  0.217018554210E-01
  0.832332405407E-01  0.110747748820E+01  0.364523929769E-01
  0.180771112319E+00  0.110747748820E+01  0.467578322712E-01
  0.322148054944E+00  0.110747748820E+01  0.499215616949E-01
  0.494699885471E+00  0.110747748820E+01  0.442887993241E-01
  0.666965269368E+00  0.110747748820E+01  0.327302091992E-01
  0.807861701340E+00  0.110747748820E+01  0.203681590722E-01
  0.905490006211E+00  0.110747748820E+01  0.105273449121E-01
  0.965617044026E+00  0.110747748820E+01  0.394919713954E-02
  0.965617043216E+00  0.175813428970E+01 -0.394918991016E-02
  0.999999566922E+00  0.175813428970E+01  0.502910833834E-22
  0.905490005450E+00  0.175813428970E+01 -0.105273376716E-01
  0.807861700657E+00  0.175813428970E+01 -0.203681518313E-01
  0.666965268811E+00  0.175813428970E+01 -0.327302019994E-01
  0.494699884540E+00  0.175813428970E+01 -0.442887806413E-01
  0.322148054907E+00  0.175813428970E+01 -0.499215544735E-01
  0.180771112783E+00  0.175813428970E+01 -0.467578250129E-01
  0.832332418156E-01  0.175813428970E+01 -0.364523858090E-01
  0.246818651650E-01  0.175813428970E+01 -0.217018489809E-01
  0.432466009363E-06  0.175813428970E+01  0.000000000000E+00
  0.246818651650E-01  0.175813428970E+01  0.217018489809E-01
  0.832332418156E-01  0.175813428970E+01  0.364523858090E-01
  0.180771112783E+00  0.175813428970E+01  0.467578250129E-01
  0.322148054907E+00  0.175813428970E+01  0.499215544735E-01
  0.494699884540E+00  0.175813428970E+01  0.442887806413E-01
  0.666965268811E+00  0.175813428970E+01  0.327302019994E-01
  0.807861700657E+00  0.175813428970E+01  0.203681518313E-01
  0.905490005450E+00  0.175813428970E+01  0.105273376716E-01
  0.965617043216E+00  0.175813428970E+01  0.394918991016E-02
  0.965617047362E+00  0.238369488720E+01 -0.394922688111E-02
  0.999999614435E+00  0.238369488720E+01 -0.223868063397E-22
  0.905490009324E+00  0.238369488720E+01 -0.105273745344E-01
  0.807861704113E+00  0.238369488720E+01 -0.203681884960E-01
  0.666965271635E+00  0.238369488720E+01 -0.327302384781E-01
  0.494699885870E+00  0.238369488720E+01 -0.442888073265E-01
  0.322148055094E+00  0.238369488720E+01 -0.499215910610E-01
  0.180771110434E+00  0.238369488720E+01 -0.467578617654E-01
  0.832332353246E-01  0.238369488720E+01 -0.364524223022E-01
  0.246818478526E-01  0.238369488720E+01 -0.217018819110E-01
  0.384947657420E-06  0.238369488720E+01  0.000000000000E+00
  0.246818478526E-01  0.238369488720E+01  0.217018819110E-01
  0.832332353246E-01  0.238369488720E+01  0.364524223022E-01
  0.180771110434E+00  0.238369488720E+01  0.467578617654E-01
  0.322148055094E+00  0.238369488720E+01  0.499215910610E-01
  0.494699885870E+00  0.238369488720E+01  0.442888073265E-01
  0.666965271635E+00  0.238369488720E+01  0.327302384781E-01
  0.807861704113E+00  0.238369488720E+01  0.203681884960E-01
  0.905490009324E+00  0.238369488720E+01  0.105273745344E-01
  0.965617047362E+00  0.238369488720E+01  0.394922688111E-02
  0.965617054909E+00  0.292249171970E+01 -0.394929418870E-02
  0.999999687277E+00  0.292249171970E+01  0.423673975050E-22
  0.905490016372E+00  0.292249171970E+01 -0.105274415972E-01
  0.807861710392E+00  0.292249171970E+01 -0.203682551044E-01
  0.666965276755E+00  0.292249171970E+01 -0.327303046163E-01
  0.494699888941E+00  0.292249171970E+01 -0.442888689269E-01
  0.322148055435E+00  0.292249171970E+01 -0.499216573965E-01
  0.180771106167E+00  0.292249171970E+01 -0.467579285333E-01
  0.832332235158E-01  0.292249171970E+01 -0.364524886930E-01
  0.246818163338E-01  0.292249171970E+01 -0.217019418631E-01
  0.312096109922E-06  0.292249171970E+01  0.000000000000E+00
  0.246818163338E-01  0.292249171970E+01  0.217019418631E-01
  0.832332235158E-01  0.292249171970E+01  0.364524886930E-01
  0.180771106167E+00  0.292249171970E+01  0.467579285333E-01
  0.322148055435E+00  0.292249171970E+01  0.499216573965E-01
  0.494699888941E+00  0.292249171970E+01  0.442888689269E-01
  0.666965276755E+00  0.292249171970E+01  0.327303046163E-01
  0.807861710392E+00  0.292249171970E+01  0.203682551044E-01
  0.905490016372E+00  0.292249171970E+01  0.105274415972E-01
  0.965617054909E+00  0.292249171970E+01  0.394929418870E-02
  0.965617063512E+00  0.334432208550E+01 -0.394937090574E-02
  0.999999764384E+00  0.334432208550E+01 -0.273607918993E-22
  0.905490024387E+00  0.334432208550E+01 -0.105275178592E-01
  0.807861717504E+00  0.334432208550E+01 -0.203683305521E-01
  0.666965282529E+00  0.334432208550E+01 -0.327303792133E-01
  0.494699892697E+00  0.334432208550E+01 -0.442889442541E-01
  0.322148055818E+00  0.334432208550E+01 -0.499217322161E-01
  0.180771101334E+00  0.334432208550E+01 -0.467580041619E-01
  0.832332100871E-01  0.334432208550E+01 -0.364525641912E-01
  0.246817804077E-01  0.334432208550E+01 -0.217020101986E-01
  0.234970998803E-06  0.334432208550E+01  0.000000000000E+00
  0.246817804077E-01  0.334432208550E+01  0.217020101986E-01
  0.832332100871E-01  0.334432208550E+01  0.364525641912E-01
  0.180771101334E+00  0.334432208550E+01  0.467580041619E-01
  0.322148055818E+00  0.334432208550E+01  0.499217322161E-01
  0.494699892697E+00  0.334432208550E+01  0.442889442541E-01
  0.666965282529E+00  0.334432208550E+01  0.327303792133E-01
  0.807861717504E+00  0.334432208550E+01  0.203683305521E-01
  0.905490024387E+00  0.334432208550E+01  0.105275178592E-01
  0.965617063512E+00  0.334432208550E+01  0.394937090574E-02
  0.965617071309E+00  0.365057098370E+01 -0.394944043538E-02
  0.999999831297E+00  0.365057098370E+01 -0.261207362855E-22
  0.905490031615E+00  0.365057098370E+01 -0.105275866315E-01
  0.807861723867E+00  0.365057098370E+01 -0.203683980553E-01
  0.666965287655E+00  0.365057098370E+01 -0.327304454260E-01
  0.494699896182E+00  0.365057098370E+01 -0.442890141556E-01
  0.322148056159E+00  0.365057098370E+01 -0.499217986266E-01
  0.180771097009E+00  0.365057098370E+01 -0.467580718274E-01
  0.832331979770E-01  0.365057098370E+01 -0.364526322754E-01
  0.246817478451E-01  0.365057098370E+01 -0.217020721361E-01
  0.168029713973E-06  0.365057098370E+01  0.000000000000E+00
  0.246817478451E-01  0.365057098370E+01  0.217020721361E-01
  0.832331979770E-01  0.365057098370E+01  0.364526322754E-01
  0.180771097009E+00  0.365057098370E+01  0.467580718274E-01
  0.322148056159E+00  0.365057098370E+01  0.499217986266E-01
  0.494699896182E+00  0.365057098370E+01  0.442890141556E-01
  0.666965287655E+00  0.365057098370E+01  0.327304454260E-01
  0.807861723867E+00  0.365057098370E+01  0.203683980553E-01
  0.905490031615E+00  0.365057098370E+01  0.105275866315E-01
  0.965617071309E+00  0.365057098370E+01  0.394944043538E-02
  0.965617077428E+00  0.386093553560E+01 -0.394949499818E-02
[...]
POINT_DATA                1191
SCALARS phi float 1
LOOKUP_TABLE default
  0.884708972748E-14
 -0.473232564246E-14
 -0.151822998617E-13
 -0.135308431126E-14
 -0.104430353254E-13
 -0.206779038336E-14
 -0.104291575376E-13
  0.562050406216E-15
  0.286923262927E-14
 -0.232106001086E-14
  0.467854921471E-14
  0.485375628578E-14
  0.144502465549E-14
  0.351108031538E-14
 -0.816360867795E-14
  0.974914593499E-15
 -0.221350715535E-14
  0.331679128607E-14
  0.361516372394E-14
 -0.225514051877E-14
 -0.582173198538E-14
  0.851402282009E-14
  0.138777878078E-16
  0.101307850997E-14
 -0.506539254985E-14
 -0.700828284295E-15
  0.266106581215E-14
 -0.283106871279E-14
  0.975977111628E-14
  0.269098979211E-15
  0.443742265155E-14
  0.210248485288E-14
 -0.201227923213E-14
 -0.203309591384E-14
 -0.548172618409E-15
 -0.126287869051E-14
 -0.437150315946E-15
  0.142177936091E-13
  0.282412981889E-14
 -0.125802146478E-13
 -0.132671651443E-13
 -0.351108031538E-14
 -0.630745455865E-14
  0.634214902817E-14
  0.952710133006E-14
 -0.919403442268E-16
 -0.102175212735E-13
 -0.606459327201E-14
 -0.396904731303E-14
 -0.379557496544E-14
 -0.707073288808E-14
 -0.156819002228E-14
  0.173819292293E-13
  0.140269740267E-13
  0.766487567860E-14
  0.373312492030E-14
 -0.107552855511E-13
 -0.158623114643E-13
  0.803523914072E-14
  0.129410371308E-13
  0.763972218820E-14
 -0.156472057533E-13
  0.319189119580E-14
 -0.651562137577E-14
 -0.384067777581E-14
  0.182145964978E-14
  0.953230550049E-14
  0.827463098041E-14
  0.551642065361E-14
  0.249800180541E-15
  0.102695629778E-13
 -0.598132654517E-14
 -0.512784259499E-14
 -0.766400831687E-14
 -0.760112459086E-14
  0.464558946867E-14
  0.166672231572E-13
 -0.133226762955E-14
  0.254657406273E-14
 -0.376781938982E-14
  0.513478148889E-14
  0.341740524767E-13
  0.144190215323E-13
 -0.473926453637E-14
 -0.149047441056E-13
 -0.624500451352E-14
  0.752349571531E-14
  0.138430933383E-14
  0.800054467121E-14
  0.127398092076E-13
  0.117336695915E-13
  0.392741394961E-14
 -0.441313652288E-14
 -0.538805111638E-14
 -0.120441850937E-13
  0.129410371308E-13
  0.170141678524E-13
  0.133226762955E-14
 -0.138569711261E-13
 -0.134614541736E-14
  0.109773301560E-13
 -0.170558012158E-13
 -0.666133814775E-15
  0.456579218877E-14
 -0.908648156717E-14
  0.440793235246E-14
 -0.369669572731E-14
  0.977343206365E-14
  0.691807722220E-14
 -0.306005221162E-14
 -0.213717932240E-14
  0.254657406273E-14
 -0.113797860024E-14
 -0.596397931041E-14
 -0.161069074744E-14
  0.260208521397E-15
  0.796585020169E-14
 -0.111924358670E-13
 -0.472538674856E-14
 -0.302535774210E-14
  0.293515212135E-14
 -0.367830765846E-13
  0.145161660470E-13
 -0.748706652232E-14
 -0.106858966120E-13
 -0.822258927613E-14
  0.321791204794E-14
  0.127363397606E-13
  0.428823643261E-14
  0.850708392619E-14
 -0.222044604925E-14
 -0.249800180541E-15
 -0.105540576278E-13
 -0.316413562018E-14
 -0.525122480222E-14
  0.313638004457E-14
  0.103458908107E-13
  0.106373243547E-13
 -0.999200722163E-14
 -0.140928935188E-13
  0.293515212135E-14
 -0.774380559676E-14
  0.194427807187E-13
  0.482947015712E-14
 -0.953404022397E-14
 -0.499426888734E-14
  0.574019998201E-14
  0.636643515683E-14
  0.732747196253E-14
  0.136696209907E-14
 -0.663358257214E-14
 -0.530131494259E-14
 -0.961730695082E-14
 -0.428129753871E-14
 -0.780780062999E-14
  0.515559817060E-14
  0.765013052906E-14
  0.245636844198E-14
 -0.219130269485E-13
 -0.332373017997E-14
  0.641847686111E-14
 -0.529368215929E-13
  0.575928194024E-15
 -0.425701141005E-14
 -0.122471477404E-14
 -0.268188249386E-14
  0.100822128424E-13
  0.547478729018E-14
 -0.770217223334E-15
  0.228983498829E-15
 -0.414251966063E-14
 -0.346250805805E-14
 -0.155084278752E-14
 -0.557540125179E-14
 -0.758290999436E-14
  0.676889100326E-14
 -0.267841304691E-14
 -0.143635103811E-14
 -0.351801920928E-14
 -0.832667268469E-15
 -0.308780778724E-14
 -0.256045185054E-14
 -0.196370697481E-14
  0.175900960464E-14
 -0.125940924356E-14
  0.870831184940E-15
  0.669169580858E-15
  0.334801630864E-14
  0.309127723419E-14
 -0.183186799063E-14
  0.463865057476E-14
 -0.247718512369E-14
 -0.136349265212E-14
 -0.612357387020E-15
  0.740987132763E-14
  0.124553145575E-14
 -0.111369247158E-14
  0.224126273096E-14
  0.912464548364E-15
 -0.510008701937E-15
 -0.281372147803E-14
 -0.120736753928E-14
  0.895117313604E-15
 -0.104777297949E-14
 -0.104430353254E-14
 -0.426958815525E-15
  0.635602681598E-14
  0.870484240245E-14
  0.147104550763E-14
  0.160982338571E-14
  0.224473217791E-14
 -0.134614541736E-14
  0.122644949752E-14
  0.327168847569E-14
 -0.985322934355E-15
  0.839606162373E-15
 -0.256739074445E-15
 -0.211636264069E-15
 -0.215105711021E-14
 -0.756339435526E-15
  0.503069808033E-15
  0.270616862252E-15
 -0.117093834628E-14
 -0.130711413915E-14
  0.550601231275E-14
  0.688338275268E-14
  0.286576318231E-14
  0.322311621836E-14
  0.107552855511E-14
 -0.616694195710E-15
  0.915066633578E-15
  0.350761086843E-14
 -0.165492619608E-14
  0.103736463863E-14
 -0.187003190710E-14
 -0.499600361081E-15
 -0.202615701994E-14
 -0.194289029309E-14
  0.638378239159E-15
  0.954097911787E-15
 -0.133573707650E-14
 -0.148858247777E-14
  0.419976553534E-14
  0.269229083472E-14
  0.142594269725E-14
  0.146410661372E-14
 -0.221350715535E-14
  0.745931094670E-16
  0.100093544564E-14
  0.271310751643E-14
 -0.151614831800E-14
  0.106165076730E-14
 -0.245289899503E-14
 -0.106512021425E-14
 -0.209207651203E-14
 -0.348332473976E-14
  0.104777297949E-14
  0.919403442268E-15
 -0.150400525367E-14
 -0.421537804662E-15
  0.260555466092E-14
  0.173472347598E-15
 -0.249800180541E-14
 -0.230371277610E-14
 -0.326128013484E-14
 -0.225514051877E-15
  0.133833916172E-14
  0.159594559790E-14
 -0.103736463863E-14
  0.711236625150E-15
 -0.252575738102E-14
 -0.174860126378E-14
 -0.252228793407E-14
 -0.414945855454E-14
  0.111369247158E-14
  0.607153216592E-15
 -0.914199271840E-15
  0.145152986852E-14
  0.103042574473E-14
 -0.697358837343E-15
 -0.497518692910E-14
 -0.500294250472E-14
 -0.286229373536E-14
 -0.872565908416E-15
  0.249886916714E-14
  0.104256880906E-14
 -0.853483950181E-15
  0.117961196366E-14
 -0.313638004457E-14
 -0.224126273096E-14
 -0.256739074445E-14
 -0.403843625207E-14
  0.111369247158E-14
 -0.187350135405E-15
  0.336536354340E-15
  0.271224015469E-14
 -0.385108611667E-15
 -0.187697080101E-14
 -0.649827414101E-14
  0.296984659087E-14
 -0.419109191796E-14
  0.326821902874E-14
  0.250494069931E-14
  0.338618022511E-14
  0.478089789979E-14
  0.320576898361E-14
 -0.386149445752E-14
  0.413003778312E-14
  0.134614541736E-14
  0.426048085700E-14
  0.149274987987E-13
 -0.140235045798E-13
  0.732747196253E-14
  0.317107451409E-14
  0.999200722163E-14
  0.588418203051E-14
  0.115220333274E-13
  0.127727689536E-13
 -0.507233144376E-14
 -0.108177355962E-13
  0.502375918643E-14
  0.328209681655E-14
 -0.695277169172E-14
  0.601602101469E-14
  0.645317133063E-15
 -0.159594559790E-15
  0.284494650060E-14
  0.104083408559E-15
  0.514598265259E-14
  0.975608482889E-14
  0.397251675999E-14
  0.890260087871E-14
 -0.422578638748E-14
  0.153349555276E-14
  0.265759636520E-14
  0.832667268469E-16
  0.564825963778E-14
 -0.388578058619E-15
 -0.771605002114E-14
 -0.334454686168E-14
  0.251881848712E-14
 -0.488498130835E-14
  0.213717932240E-14
 -0.205564731903E-14
 -0.800748356511E-14
 -0.201921812604E-14
 -0.302709246558E-14
 -0.911770658973E-14
  0.390659726790E-14
 -0.197129639001E-14
 -0.575928194024E-15
  0.277555756156E-15
 -0.478436734674E-14
 -0.545397060847E-14
  0.385629028710E-14
  0.104083408559E-14
 -0.777156117238E-14
  0.295943825002E-14
  0.168962066560E-14
 -0.511396480718E-14
  0.242514341942E-14
 -0.890953977262E-14
  0.156125112838E-14
  0.660062282609E-14
 -0.293515212135E-14
 -0.272004641033E-14
 -0.645317133063E-14
 -0.790340015655E-14
  0.262984078958E-14
  0.238004060904E-14
 -0.791033905045E-14
 -0.630745455865E-14
  0.164243618705E-13
  0.162647673108E-13
 -0.541233724505E-14
 -0.453803661316E-14
 -0.167851843536E-13
  0.913505382449E-14
 -0.436803371251E-14
 -0.838218383592E-14
 -0.341740524767E-14
  0.564825963778E-14
 -0.192207361138E-14
 -0.408353906245E-14
  0.120875531806E-13
  0.219824158876E-13
 -0.147312717580E-13
  0.767441665772E-14
  0.491273688397E-14
 -0.123963339593E-13
  0.935362898247E-14
 -0.176247905159E-14
  0.485722573274E-15
 -0.103425839941E-13
  0.978384040451E-15
  0.693889390391E-16
 -0.134884508077E-13
  0.199423810798E-13
  0.200534033823E-14
 -0.943689570931E-15
 -0.584254866709E-14
  0.381639164715E-15
 -0.990874049478E-14
 -0.277555756156E-14
 -0.703603841856E-14
 -0.727889970520E-14
  0.183811299515E-13
  0.111022302463E-14
 -0.122818422099E-13
 -0.320923843056E-14
  0.173472347598E-14
 -0.281025203108E-15
 -0.506886199680E-14
  0.132081845461E-13
  0.118516307879E-13
  0.167782454596E-13
  0.891647866652E-14
 -0.447558656802E-15
  0.527876353740E-14
  0.416333634234E-16
 -0.876382300063E-14
  0.814105727276E-14
 -0.112548859121E-13
  0.319189119580E-15
  0.310862446895E-14
  0.293862156830E-14
  0.235228503342E-14
  0.299066327258E-14
  0.848973669143E-14
  0.850708392619E-14
  0.957046941696E-14
 -0.130381816454E-13
 -0.623112672571E-14
 -0.938485400503E-14
  0.501682029252E-14
 -0.130034871759E-13
  0.605071548421E-14
 -0.519723153403E-14
 -0.904831765070E-14
 -0.871525074331E-14
 -0.498906471691E-14
  0.193595139919E-14
 -0.345556916415E-14
 -0.292821322745E-14
 -0.981159598012E-14
 -0.132741040382E-13
  0.258820742616E-14
  0.340005801291E-15
  0.105748743096E-13
 -0.106165076730E-13
  0.245810316546E-14
  0.173472347598E-15
 -0.462824223391E-14
  0.374353326116E-14
 -0.474620343027E-14
  0.676292789131E-14
 -0.456822486740E-14
  0.384414722276E-14
 -0.145716771982E-15
  0.482947015712E-14
  0.616867668057E-14
  0.818789480661E-14
 -0.634908792208E-15
  0.133920652345E-14
 -0.693195501000E-14
  0.777156117238E-14
  0.174860126378E-14
  0.131838984174E-14
  0.908995101412E-15
  0.282412981889E-14
 -0.127189925259E-13
  0.489192020225E-15
  0.196787031115E-13
  0.259861576701E-14
 -0.713990498669E-14
 -0.299413271954E-14
  0.222044604925E-14
 -0.401588484689E-14
 -0.504457586814E-14
 -0.873953687197E-14
 -0.580785419757E-14
  0.435415592470E-14
  0.199146255042E-14
 -0.700134394904E-14
  0.383026943496E-14
 -0.781319453580E-14
 -0.783401121751E-14
  0.527355936697E-15
  0.145786160921E-13
 -0.725114412958E-14
 -0.877770078844E-14
 -0.261457522299E-13
  0.189188942290E-13
  0.277555756156E-16
  0.143288159116E-13
  0.402455846427E-14
  0.746624984060E-14
 -0.614716610947E-13
  0.979771819232E-14
 -0.537070388162E-14
  0.423966417529E-14
 -0.159872115546E-13
  0.183880688454E-14
 -0.201123839805E-13
  0.295596880306E-14
 -0.481559236931E-14
  0.110206982429E-13
  0.120806142867E-13
  0.853483950181E-15
  0.661970478433E-14
  0.853137005485E-14
  0.100613961607E-13
 -0.200117700189E-13
 -0.330985239216E-14
  0.734828864424E-14
  0.105263020522E-13
  0.346944695195E-17
  0.906913433241E-14
  0.129909375358E-13
  0.190125692967E-14
  0.269576028167E-14
  0.247718512369E-14
 -0.402455846427E-15
 -0.306005221162E-14
 -0.122540866343E-13
 -0.156819002228E-13
 -0.954097911787E-14
 -0.104465047723E-13
 -0.109426356865E-13
 -0.154841417466E-13
  0.324740234703E-14
 -0.102348685083E-13
  0.491273688397E-14
  0.534957549179E-14
  0.119210197269E-13
  0.850014503229E-14
 -0.552531111142E-14
 -0.521457876879E-14
 -0.514172038280E-14
 -0.782360287666E-14
  0.111646802914E-13
 -0.124102117471E-13
  0.447211712107E-14
  0.534294830601E-14
  0.926342336172E-14
 -0.251534904017E-14
 -0.210595429984E-13
  0.169309011255E-14
 -0.245081732686E-13
  0.511396480718E-14
 -0.471324368423E-14
  0.129202204491E-13
  0.173402958659E-13
 -0.916627884706E-14
  0.235957087202E-13
 -0.140235045798E-13
  0.102279296144E-13
  0.105956909913E-13
 -0.623980034309E-14
  0.133018596138E-13
  0.317801340799E-14
 -0.164035451888E-13
  0.194913529761E-13
 -0.828850876822E-14
 -0.400721122951E-14
 -0.954271384135E-14
 -0.891994811347E-14
  0.797972798949E-15
 -0.758768048392E-14
 -0.272698530424E-14
 -0.287270207622E-14
  0.417894885363E-14
  0.692501611610E-14
  0.975608482889E-14
 -0.393088339656E-14
  0.464212002171E-14
 -0.442007541679E-14
 -0.111425625671E-13
  0.115879528195E-14
  0.348332473976E-14
 -0.578009862195E-14
 -0.342781358853E-14
 -0.201227923213E-14
 -0.559274848655E-14
 -0.655725473919E-15
 -0.480171458150E-14
 -0.364985819346E-14
  0.133990041284E-13
 -0.115854117207E-14
  0.370536934469E-14
  0.287964097012E-15
 -0.591887650003E-14
 -0.134510458327E-13
 -0.693368973348E-14
 -0.124900090270E-15
  0.969710423071E-15
 -0.251881848712E-14
 -0.556152346398E-14
  0.156125112838E-14
  0.224334439913E-13
  0.145300438348E-13
  0.298372437868E-15
 -0.507927033766E-14
 -0.105679354157E-13
 -0.352495810318E-14
  0.124622534514E-13
  0.750094431012E-14
  0.368455266297E-14
  0.936750677027E-15
  0.245636844198E-14
  0.140859546249E-14
  0.582867087928E-15
 -0.168476343987E-13
  0.168615121865E-14
  0.794503351997E-14
  0.136349265212E-13
 -0.212330153460E-14
 -0.231897834269E-13
  0.121291865440E-13
 -0.557887069874E-14
 -0.106477326955E-13
 -0.520417042793E-15
 -0.128369537222E-14
  0.964506252643E-15
 -0.123026588916E-13
 -0.990874049478E-13
  0.134059430223E-13
 -0.569683189511E-14
 -0.436456426556E-14
  0.578009862195E-14
 -0.869096461464E-14
  0.477742845284E-14
 -0.227595720048E-14
 -0.335842464949E-14
  0.505151476204E-14
 -0.770217223334E-15
  0.157859836314E-13
  0.117961196366E-15
 -0.104777297949E-14
 -0.978255291443E-15
 -0.124100491168E-14
  0.250494069931E-14
 -0.580785419757E-14
  0.161190505388E-13
  0.801789190596E-14
 -0.541233724505E-14
 -0.989486270697E-14
  0.763972218820E-14
 -0.155223056630E-13
  0.791727794436E-14
 -0.108246744901E-13
  0.134614541736E-14
  0.414251966063E-14
  0.235922392733E-14
 -0.486416462664E-14
  0.902576624551E-14
 -0.107726327858E-13
 -0.600214322688E-14
  0.103528297046E-13
 -0.931199561904E-14
 -0.315936513062E-15
 -0.653643805748E-14
 -0.355965257270E-14
 -0.582867087928E-15
  0.767441665772E-14
 -0.834748936640E-14
  0.633521013427E-14
  0.285188539451E-14
  0.207403538788E-13
  0.221350715535E-13
 -0.560662627436E-14
 -0.766053886991E-14
 -0.593969318174E-14
 -0.553029844141E-14
 -0.122540866343E-13
  0.106165076730E-14
 -0.340283357048E-13
 -0.559795265698E-14
  0.200672811701E-13
  0.197272753688E-13
 -0.132255317808E-13
  0.439925873508E-14
 -0.142837131012E-13
 -0.134718625144E-13
  0.393435284352E-14
  0.130416510924E-13
 -0.655725473919E-14
  0.168615121865E-13
 -0.925648446781E-14
  0.296117297349E-14
 -0.405307298140E-14
 -0.346944695195E-16
  0.650868248186E-14
  0.584601811404E-14
  0.420496970577E-14
 -0.784441955837E-14
 -0.632133234646E-14
  0.192207361138E-14
  0.267841304691E-14
  0.499600361081E-15
 -0.284494650060E-14
  0.558580959265E-14
  0.328903571045E-14
  0.251187959321E-14
 -0.657113252700E-14
  0.305430594011E-14
  0.104083408559E-13
  0.471844785466E-15
 -0.881586470491E-14
 -0.544009282066E-14
 -0.716093850883E-14
 -0.527008992002E-14
  0.216493489802E-14
 -0.566907631949E-14
 -0.666133814775E-15
  0.696664947952E-14
  0.544703171457E-14
  0.848626724448E-14
 -0.139471767469E-14
 -0.914893161230E-14
  0.199666672085E-13
  0.225652829755E-13
 -0.652602971662E-14
  0.736910532595E-14
  0.224195662035E-13
 -0.142177936091E-13
 -0.718002046707E-14
 -0.941607902760E-14
  0.184574577844E-14
 -0.108199040005E-13
 -0.963118473862E-14
 -0.487630769097E-14
 -0.369322628035E-14
 -0.188182802674E-13
  0.694583279781E-14
  0.283453815975E-13
 -0.742461647718E-14
 -0.247024622979E-14
  0.940567068675E-14
 -0.125802146478E-13
 -0.950628464835E-15
 -0.115879528195E-14
 -0.287964097012E-14
 -0.170696790036E-14
 -0.142941214420E-14
 -0.106234465669E-13
 -0.105054853705E-13
 -0.229677388219E-14
 -0.506018837942E-14
 -0.250233861410E-15
 -0.442770820008E-13
  0.931112825731E-14
  0.915240105925E-14
  0.656766308005E-14
 -0.558754431612E-14
  0.487804241445E-14
 -0.953404022397E-14
 -0.317107451409E-14
  0.111438636097E-13
  0.465599780952E-14
  0.695971058562E-14
  0.321097315403E-14
 -0.534294830601E-15
  0.625888230132E-14
  0.406272238074E-14
 -0.140165656859E-14
  0.110328413072E-14
 -0.970057367766E-14
  0.486416462664E-14
 -0.126981758442E-14
 -0.842728664630E-14
 -0.583214032623E-14
  0.920097331658E-14
 -0.889425252198E-14
 -0.649480469406E-14
  0.782360287666E-14
  0.691807722220E-14
  0.658154086786E-14
  0.880025219363E-14
  0.276861866766E-14
 -0.137650307819E-13
 -0.367761376907E-15
 -0.742808592413E-14
  0.555805401703E-14
 -0.308954251071E-14
 -0.401761957036E-14
 -0.786350151660E-14
  0.638378239159E-15
  0.151267887105E-14
  0.846545056277E-14
  0.882627304577E-14
 -0.908648156717E-14
  0.503069808033E-16
  0.556499291093E-14
  0.139471767469E-14
  0.174166236988E-14
  0.589805981832E-14
 -0.591193760613E-14
  0.213024042850E-14
  0.369843045078E-14
  0.173472347598E-15
 -0.249800180541E-15
  0.456579218877E-14
 -0.377822773068E-14
 -0.943689570931E-15
  0.201618235995E-14
  0.208166817117E-14
 -0.469069227904E-14
  0.599693905645E-14
  0.724420523568E-14
 -0.320923843056E-14
 -0.340699690682E-14
 -0.180411241502E-15
 -0.234534613952E-14
 -0.693889390391E-17
 -0.261075883135E-14
  0.132185928869E-14
  0.134961486431E-14
  0.179023462721E-14
  0.695450641519E-14
 -0.133920652345E-14
  0.221697660230E-14
 -0.188737914186E-14
  0.361516372394E-14
  0.183186799063E-14
  0.910382880193E-14
  0.110154940725E-14
  0.231065167000E-14
  0.586336534880E-14
 -0.313638004457E-14
  0.268188249386E-14
  0.691807722220E-14
 -0.106642125686E-13
 -0.179717352111E-14
 -0.596397931041E-14
 -0.655205056876E-14
 -0.524710483396E-14
  0.168615121865E-14
  0.433680868994E-14
 -0.186482773668E-14
  0.144328993201E-14
 -0.587377368966E-14
 -0.182492909673E-14
  0.194289029309E-14
 -0.873585058458E-14
  0.224820162487E-14
 -0.534294830601E-15
 -0.186656246015E-14
 -0.148665801891E-14
  0.690419943439E-14
 -0.361516372394E-14
 -0.895117313604E-15
  0.220656826144E-14
 -0.251534904017E-14
  0.284494650060E-15
  0.546437894933E-14
 -0.719910242530E-14
  0.138777878078E-15
  0.282759926584E-14
 -0.440619762898E-15
  0.610622663544E-15
 -0.154043444667E-14
  0.523886489745E-15
  0.180758186197E-14
 -0.936750677027E-16
 -0.180411241502E-15
 -0.241473507856E-14
  0.237310171514E-14
  0.468375338514E-15
 -0.215105711021E-14
  0.184921522539E-14
  0.123165366794E-14
  0.256739074445E-14
  0.228419713699E-14
 -0.657460197395E-15
  0.563091240302E-14
  0.146410661372E-14
 -0.112757025938E-14
 -0.963465418558E-14
  0.384241249929E-15
  0.150573997715E-14
  0.150227053020E-14
  0.594316262870E-14
  0.342434414158E-14
 -0.229677388219E-14
 -0.443568792807E-14
 -0.441660596984E-14
 -0.370189989773E-14
 -0.155431223448E-14
  0.686950496487E-15
 -0.815666978404E-14
 -0.267754568517E-14
  0.619296280924E-15
  0.292127433354E-14
 -0.763278329430E-15
 -0.235748920385E-14
 -0.689118900832E-14
  0.308780778724E-14
  0.240779618466E-14
  0.143635103811E-14
  0.109981468377E-14
  0.190125692967E-14
  0.138777878078E-15
 -0.347638584586E-14
  0.269576028167E-14
  0.441660596984E-14
  0.208166817117E-14
  0.209207651203E-14
  0.107552855511E-14
  0.236616282123E-14
  0.234881558647E-14
  0.489538964921E-14
  0.205391259556E-14
 -0.326128013484E-14
  0.936750677027E-15
 -0.140859546249E-14
 -0.471844785466E-15
  0.148492329544E-14
 -0.315719672628E-15
  0.919403442268E-16
  0.175900960464E-14
  0.150920942410E-14
  0.178329573330E-14
 -0.474425186636E-14
  0.796758492516E-14
  0.114491749414E-14
  0.700828284295E-15
 -0.342391046071E-15
  0.481212292236E-14
  0.129323635134E-14
  0.560662627436E-14
  0.922872889220E-15
 -0.439231984117E-14
  0.217100643018E-14
 -0.192380833486E-14
 -0.250147125236E-14
 -0.551989010056E-14
  0.267147415300E-14
  0.458313942353E-14
 -0.263157551306E-14
  0.162717062047E-14
 -0.107552855511E-15
 -0.649480469406E-14
 -0.218835366494E-14
 -0.572458747072E-16
 -0.534294830601E-15
 -0.468136814036E-14
 -0.414078493716E-14