# vtk DataFile Version 3.0
MachLine results file. Generated by MachLine, USU AeroLab (c) 2022.
ASCII
DATASET POLYDATA
POINTS                1191 float
  0.100000000000E+01  0.000000000000E+00  0.000000000000E+00
  0.965617092460E+00  0.503720627990E+00 -0.394962905220E-02
  0.100000000000E+01  0.503720627990E+00  0.000000000000E+00
  0.965617092460E+00  0.000000000000E+00 -0.394962905220E-02
  0.905490052860E+00  0.503720627990E+00 -0.105277887700E-01
  0.905490052860E+00  0.000000000000E+00 -0.105277887700E-01
  0.807861744690E+00  0.503720627990E+00 -0.203686189510E-01
  0.807861744690E+00  0.000000000000E+00 -0.203686189510E-01
  0.666965306180E+00  0.503720627990E+00 -0.327306847400E-01
  0.666965306180E+00  0.000000000000E+00 -0.327306847400E-01
  0.494699909170E+00  0.503720627990E+00 -0.442892746710E-01
  0.494699909170E+00  0.000000000000E+00 -0.442892746710E-01
  0.322148057390E+00  0.000000000000E+00 -0.499220386450E-01
  0.322148057390E+00  0.503720627990E+00 -0.499220386450E-01
  0.180771082860E+00  0.000000000000E+00 -0.467582932350E-01
  0.180771082860E+00  0.503720627990E+00 -0.467582932350E-01
  0.832331623890E-01  0.000000000000E+00 -0.364528323560E-01
  0.832331623890E-01  0.503720627990E+00 -0.364528323560E-01
  0.246816596840E-01  0.000000000000E+00 -0.217022398280E-01
  0.246816596840E-01  0.503720627990E+00 -0.217022398280E-01
  0.000000000000E+00  0.000000000000E+00  0.000000000000E+00
  0.000000000000E+00  0.503720627990E+00  0.000000000000E+00
  0.246816596840E-01  0.503720627990E+00  0.217022398280E-01
  0.246816596840E-01  0.000000000000E+00  0.217022398280E-01
  0.832331623890E-01  0.503720627990E+00  0.364528323560E-01
  0.832331623890E-01  0.000000000000E+00  0.364528323560E-01
  0.180771082860E+00  0.503720627990E+00  0.467582932350E-01
  0.180771082860E+00  0.000000000000E+00  0.467582932350E-01
  0.322148057390E+00  0.503720627990E+00  0.499220386450E-01
  0.322148057390E+00  0.000000000000E+00  0.499220386450E-01
  0.494699909170E+00  0.503720627990E+00  0.442892746710E-01
  0.494699909170E+00  0.000000000000E+00  0.442892746710E-01
  0.666965306180E+00  0.000000000000E+00  0.327306847400E-01
  0.666965306180E+00  0.503720627990E+00  0.327306847400E-01
  0.807861744690E+00  0.000000000000E+00  0.203686189510E-01
  0.807861744690E+00  0.503720627990E+00  0.203686189510E-01
  0.905490052860E+00  0.000000000000E+00  0.105277887700E-01
  0.905490052860E+00  0.503720627990E+00  0.105277887700E-01
  0.965617092460E+00  0.000000000000E+00  0.394962905220E-02
  0.965617092460E+00  0.503720627990E+00  0.394962905220E-02
  0.965617092460E+00  0.110747748820E+01 -0.394962905220E-02
  0.100000000000E+01  0.110747748820E+01  0.000000000000E+00
  0.905490052860E+00  0.110747748820E+01 -0.105277887700E-01
  0.807861744690E+00  0.110747748820E+01 -0.203686189510E-01
  0.666965306180E+00  0.110747748820E+01 -0.327306847400E-01
  0.494699909170E+00  0.110747748820E+01 -0.442892746710E-01
  0.322148057390E+00  0.110747748820E+01 -0.499220386450E-01
  0.180771082860E+00  0.110747748820E+01 -0.467582932350E-01
  0.832331623890E-01  0.110747748820E+01 -0.364528323560E-01
  0.246816596840E-01  0.110747748820E+01 -0.217022398280E-01
  0.000000000000E+00  0.110747748820E+01  0.000000000000E+00
  0.246816596840E-01  0.110747748820E+01  0.217022398280E-01
  0.832331623890E-01  0.110747748820E+01  0.364528323560E-01
  0.180771082860E+00  0.110747748820E+01  0.467582932350E-01
  0.322148057390E+00  0.110747748820E+01  0.499220386450E-01
  0.494699909170E+00  0.110747748820E+01  0.442892746710E-01
  0.666965306180E+00  0.110747748820E+01  0.327306847400E-01
  0.807861744690E+00  0.110747748820E+01  0.203686189510E-01
  0.905490052860E+00  0.110747748820E+01  0.105277887700E-01
  0.965617092460E+00  0.110747748820E+01  0.394962905220E-02
  0.965617092460E+00  0.175813428970E+01 -0.394962905220E-02
  0.100000000000E+01  0.175813428970E+01  0.000000000000E+00
  0.905490052860E+00  0.175813428970E+01 -0.105277887700E-01
  0.807861744690E+00  0.175813428970E+01 -0.203686189510E-01
  0.666965306180E+00  0.175813428970E+01 -0.327306847400E-01
  0.494699909170E+00  0.175813428970E+01 -0.442892746710E-01
  0.322148057390E+00  0.175813428970E+01 -0.499220386450E-01
  0.180771082860E+00  0.175813428970E+01 -0.467582932350E-01
  0.832331623890E-01  0.175813428970E+01 -0.364528323560E-01
  0.246816596840E-01  0.175813428970E+01 -0.217022398280E-01
  0.000000000000E+00  0.175813428970E+01  0.000000000000E+00
  0.246816596840E-01  0.175813428970E+01  0.217022398280E-01
  0.832331623890E-01  0.175813428970E+01  0.364528323560E-01
  0.180771082860E+00  0.175813428970E+01  0.467582932350E-01
  0.322148057390E+00  0.175813428970E+01  0.499220386450E-01
  0.494699909170E+00  0.175813428970E+01  0.442892746710E-01
  0.666965306180E+00  0.175813428970E+01  0.327306847400E-01
  0.807861744690E+00  0.175813428970E+01  0.203686189510E-01
  0.905490052860E+00  0.175813428970E+01  0.105277887700E-01
  0.965617092460E+00  0.175813428970E+01  0.394962905220E-02
  0.965617092460E+00  0.238369488720E+01 -0.394962905220E-02
  0.100000000000E+01  0.238369488720E+01  0.000000000000E+00
  0.905490052860E+00  0.238369488720E+01 -0.105277887700E-01
  0.807861744690E+00  0.238369488720E+01 -0.203686189510E-01
  0.666965306180E+00  0.238369488720E+01 -0.327306847400E-01
  0.494699909170E+00  0.238369488720E+01 -0.442892746710E-01
  0.322148057390E+00  0.238369488720E+01 -0.499220386450E-01
  0.180771082860E+00  0.238369488720E+01 -0.467582932350E-01
  0.832331623890E-01  0.238369488720E+01 -0.364528323560E-01
  0.246816596840E-01  0.238369488720E+01 -0.217022398280E-01
  0.000000000000E+00  0.238369488720E+01  0.000000000000E+00
  0.246816596840E-01  0.238369488720E+01  0.217022398280E-01
  0.832331623890E-01  0.238369488720E+01  0.364528323560E-01
  0.180771082860E+00  0.238369488720E+01  0.467582932350E-01
  0.322148057390E+00  0.238369488720E+01  0.499220386450E-01
  0.494699909170E+00  0.238369488720E+01  0.442892746710E-01
  0.666965306180E+00  0.238369488720E+01  0.327306847400E-01
  0.807861744690E+00  0.238369488720E+01  0.203686189510E-01
  0.905490052860E+00  0.238369488720E+01  0.105277887700E-01
  0.965617092460E+00  0.238369488720E+01  0.394962905220E-02
  0.965617092460E+00  0.292249171970E+01 -0.394962905220E-02
  0.100000000000E+01  0.292249171970E+01  0.000000000000E+00
  0.905490052860E+00  0.292249171970E+01 -0.105277887700E-01
  0.807861744690E+00  0.292249171970E+01 -0.203686189510E-01
  0.666965306180E+00  0.292249171970E+01 -0.327306847400E-01
  0.494699909170E+00  0.292249171970E+01 -0.442892746710E-01
  0.322148057390E+00  0.292249171970E+01 -0.499220386450E-01
  0.180771082860E+00  0.292249171970E+01 -0.467582932350E-01
  0.832331623890E-01  0.292249171970E+01 -0.364528323560E-01
  0.246816596840E-01  0.292249171970E+01 -0.217022398280E-01
  0.000000000000E+00  0.292249171970E+01  0.000000000000E+00
  0.246816596840E-01  0.292249171970E+01  0.217022398280E-01
  0.832331623890E-01  0.292249171970E+01  0.364528323560E-01
  0.180771082860E+00  0.292249171970E+01  0.467582932350E-01
  0.322148057390E+00  0.292249171970E+01  0.499220386450E-01
  0.494699909170E+00  0.292249171970E+01  0.442892746710E-01
  0.666965306180E+00  0.292249171970E+01  0.327306847400E-01
  0.807861744690E+00  0.292249171970E+01  0.203686189510E-01
  0.905490052860E+00  0.292249171970E+01  0.105277887700E-01
  0.965617092460E+00  0.292249171970E+01  0.394962905220E-02
  0.965617092460E+00  0.334432208550E+01 -0.394962905220E-02
  0.100000000000E+01  0.334432208550E+01  0.000000000000E+00
  0.905490052860E+00  0.334432208550E+01 -0.105277887700E-01
  0.807861744690E+00  0.334432208550E+01 -0.203686189510E-01
  0.666965306180E+00  0.334432208550E+01 -0.327306847400E-01
  0.494699909170E+00  0.334432208550E+01 -0.442892746710E-01
  0.322148057390E+00  0.334432208550E+01 -0.499220386450E-01
  0.180771082860E+00  0.334432208550E+01 -0.467582932350E-01
  0.832331623890E-01  0.334432208550E+01 -0.364528323560E-01
  0.246816596840E-01  0.334432208550E+01 -0.217022398280E-01
  0.000000000000E+00  0.334432208550E+01  0.000000000000E+00
  0.246816596840E-01  0.334432208550E+01  0.217022398280E-01
  0.832331623890E-01  0.334432208550E+01  0.364528323560E-01
  0.180771082860E+00  0.334432208550E+01  0.467582932350E-01
  0.322148057390E+00  0.334432208550E+01  0.499220386450E-01
  0.494699909170E+00  0.334432208550E+01  0.442892746710E-01
  0.666965306180E+00  0.334432208550E+01  0.327306847400E-01
  0.807861744690E+00  0.334432208550E+01  0.203686189510E-01
  0.905490052860E+00  0.334432208550E+01  0.105277887700E-01
  0.965617092460E+00  0.334432208550E+01  0.394962905220E-02
  0.965617092460E+00  0.365057098370E+01 -0.394962905220E-02
  0.100000000000E+01  0.365057098370E+01  0.000000000000E+00
  0.905490052860E+00  0.365057098370E+01 -0.105277887700E-01
  0.807861744690E+00  0.365057098370E+01 -0.203686189510E-01
  0.666965306180E+00  0.365057098370E+01 -0.327306847400E-01
  0.494699909170E+00  0.365057098370E+01 -0.442892746710E-01
  0.322148057390E+00  0.365057098370E+01 -0.499220386450E-01
  0.180771082860E+00  0.365057098370E+01 -0.467582932350E-01
  0.832331623890E-01  0.365057098370E+01 -0.364528323560E-01
  0.246816596840E-01  0.365057098370E+01 -0.217022398280E-01
  0.000000000000E+00  0.365057098370E+01  0.000000000000E+00
  0.246816596840E-01  0.365057098370E+01  0.217022398280E-01
  0.832331623890E-01  0.365057098370E+01  0.364528323560E-01
  0.180771082860E+00  0.365057098370E+01  0.467582932350E-01
  0.322148057390E+00  0.365057098370E+01  0.499220386450E-01
  0.494699909170E+00  0.365057098370E+01  0.442892746710E-01
  0.666965306180E+00  0.365057098370E+01  0.327306847400E-01
  0.807861744690E+00  0.365057098370E+01  0.203686189510E-01
  0.905490052860E+00  0.365057098370E+01  0.105277887700E-01
  0.965617092460E+00  0.365057098370E+01  0.394962905220E-02
  0.965617092460E+00  0.386093553560E+01 -0.394962905220E-02
[...]
CELL_DATA                 576
SCALARS C_p_inc float 1
LOOKUP_TABLE default
  0.778611628785E+00
  0.417934586801E+00
  0.332966277521E+00
  0.183972132639E+00
  0.128337364183E+00
  0.428369950151E-01
 -0.338412444525E-01
 -0.101034222327E+00
 -0.207842113249E+00
 -0.278058670329E+00
 -0.405755384555E+00
 -0.522285277163E+00
 -0.630213850204E+00
 -0.749255388274E+00
 -0.828400590485E+00
 -0.885388857181E+00
 -0.794657047255E+00
 -0.757038279125E+00
 -0.611411772160E+00
 -0.619687098645E+00
  0.999195433858E+00
  0.784801247325E+00
  0.144526896787E+00
 -0.877465490897E-01
 -0.272574060205E+00
 -0.345779799213E+00
 -0.372125706555E+00
 -0.389109556506E+00
 -0.387610492032E+00
 -0.402372688466E+00
 -0.417251567705E+00
 -0.403606968846E+00
 -0.415154397868E+00
 -0.404132931923E+00
 -0.394301060838E+00
 -0.409587824295E+00
 -0.374702760098E+00
 -0.467555059082E+00
 -0.421657138728E+00
 -0.968211240115E+00
  0.999813103479E+00
  0.734897962906E+00
  0.570714321219E+00
  0.359667916409E+00
  0.246467150662E+00
  0.102457971209E+00
 -0.131488419541E-01
 -0.122891087762E+00
 -0.247327333628E+00
 -0.339592147549E+00
 -0.467720116203E+00
 -0.588888013855E+00
 -0.695079636205E+00
 -0.823270871770E+00
 -0.897208133569E+00
 -0.977096036153E+00
 -0.882847882815E+00
 -0.922192004127E+00
 -0.958183153991E+00
 -0.110157951638E+01
  0.955977577951E+00
  0.848996088306E+00
  0.245853557910E+00
  0.185073061756E-01
 -0.168366673881E+00
 -0.250617945643E+00
 -0.284771356635E+00
 -0.317637606824E+00
 -0.312867865173E+00
 -0.335986292020E+00
 -0.361124615456E+00
 -0.352068027119E+00
 -0.394406519809E+00
 -0.421104586329E+00
 -0.469780140814E+00
 -0.563513939069E+00
 -0.625598572955E+00
 -0.884648783888E+00
 -0.110157105983E+01
 -0.245421869182E+01
  0.972174579636E+00
  0.809411382581E+00
  0.527306462306E+00
  0.413059871974E+00
  0.234002498757E+00
  0.130857334335E+00
 -0.178486105301E-02
 -0.114087005363E+00
 -0.225036160702E+00
 -0.347715691709E+00
 -0.466146007135E+00
 -0.558506723081E+00
 -0.706005874086E+00
 -0.795911044611E+00
 -0.921312548581E+00
 -0.945922108433E+00
 -0.915568414171E+00
 -0.878420828814E+00
 -0.107868375258E+01
 -0.102844622834E+01
  0.966345416803E+00
  0.879124825038E+00
  0.218709609970E+00
  0.389904764793E-01
 -0.192972561785E+00
 -0.226157144281E+00
 -0.303505890691E+00
 -0.295806152786E+00
 -0.330967825691E+00
 -0.321002945377E+00
 -0.336450106526E+00
 -0.363149626574E+00
 -0.388629882681E+00
 -0.421938549841E+00
 -0.492842631261E+00
 -0.532426348578E+00
 -0.701976493620E+00
 -0.781987272586E+00
 -0.132424595347E+01
 -0.189045380204E+01
  0.797846164155E+00
  0.572479240600E+00
  0.369685687141E+00
  0.271987870486E+00
  0.156079824580E+00
  0.786209353693E-01
 -0.170310434469E-01
 -0.101143662499E+00
 -0.199424721622E+00
 -0.300794014856E+00
 -0.409346625711E+00
 -0.508061360948E+00
 -0.637732724554E+00
 -0.729970121054E+00
 -0.832550335947E+00
 -0.855243417288E+00
 -0.796146261756E+00
 -0.736976129267E+00
 -0.779153955833E+00
 -0.602662883356E+00
  0.999286766323E+00
  0.793355853679E+00
  0.125764847594E+00
 -0.472562848043E-01
 -0.263128079246E+00
 -0.297188482717E+00
 -0.355954715471E+00
 -0.351821367022E+00
 -0.368091216533E+00
 -0.366321627760E+00
 -0.371811929652E+00
 -0.370335539287E+00
 -0.385764207292E+00
 -0.378077868429E+00
 -0.405108493953E+00
 -0.398530107422E+00
 -0.459207403037E+00
 -0.480721766156E+00
 -0.684074308806E+00
 -0.978308407861E+00
  0.932964181626E+00
  0.598136234618E+00
  0.461663296318E+00
  0.290746141898E+00
  0.200453041795E+00
  0.882392530322E-01
 -0.103416657118E-01
 -0.101147830156E+00
 -0.216201759066E+00
 -0.303445244553E+00
 -0.422012674253E+00
 -0.537161063546E+00
 -0.641511458505E+00
 -0.751673968466E+00
 -0.824151540543E+00
 -0.870164337463E+00
 -0.778079010996E+00
 -0.745240211988E+00
 -0.679937696545E+00
 -0.535682419698E+00
  0.999977645506E+00
  0.759660409391E+00
  0.136373795764E+00
 -0.567441766245E-01
 -0.244047319897E+00
 -0.298122301899E+00
 -0.324126010372E+00
 -0.336898067455E+00
 -0.317865025048E+00
 -0.334019588330E+00
 -0.344308614567E+00
 -0.316877654916E+00
 -0.354056313527E+00
 -0.345520683055E+00
 -0.381667857511E+00
 -0.414432589653E+00
 -0.448992582056E+00
 -0.586065826518E+00
 -0.697116003074E+00
 -0.149699992963E+01
  0.992230329409E+00
  0.765508334050E+00
  0.552515991438E+00
  0.389387322464E+00
  0.243910930286E+00
  0.123922177246E+00
 -0.624941311595E-02
 -0.109999313757E+00
 -0.230348921320E+00
 -0.331933630685E+00
 -0.447685791823E+00
 -0.541462424149E+00
 -0.661704681285E+00
 -0.744196616998E+00
 -0.835138855642E+00
 -0.849988440466E+00
 -0.777504877276E+00
 -0.704909708039E+00
 -0.644008434211E+00
 -0.373054248606E+00
  0.996027865303E+00
  0.748153943733E+00
  0.110289523407E+00
 -0.508844182465E-01
 -0.249258264587E+00
 -0.273456708350E+00
 -0.296610510130E+00
 -0.286136916982E+00
 -0.254242733148E+00
 -0.258337123389E+00
 -0.257685143362E+00
 -0.230338062095E+00
 -0.284042227196E+00
 -0.286117500372E+00
 -0.369273988298E+00
 -0.417291725067E+00
 -0.544300275565E+00
 -0.700547975938E+00
 -0.105285013947E+01
 -0.201875862821E+01
  0.953440277208E+00
  0.745884458661E+00
  0.490746589275E+00
  0.368289786865E+00
  0.195432594341E+00
  0.104011336297E+00
 -0.417728047294E-01
 -0.123564131773E+00
 -0.229262151404E+00
 -0.318108595729E+00
 -0.405323514822E+00
 -0.459622807866E+00
 -0.595831683467E+00
 -0.642702307179E+00
 -0.756313909105E+00
 -0.743526539775E+00
 -0.676241675916E+00
 -0.553930395336E+00
 -0.375786584665E+00
  0.631858607162E-01
  0.928146455006E+00
  0.623782259722E+00
 -0.206593726466E-01
 -0.133090915097E+00
 -0.327029803285E+00
 -0.310512795413E+00
 -0.304661922836E+00
 -0.264065276258E+00
 -0.204162276404E+00
 -0.192829024886E+00
 -0.171138745933E+00
 -0.146301302932E+00
 -0.198448758646E+00
 -0.199027067871E+00
 -0.296403854540E+00
 -0.324949736917E+00
 -0.474505353708E+00
 -0.565701074829E+00
 -0.963091367385E+00
 -0.156078852537E+01
  0.909496704355E+00
  0.633101356319E+00
  0.372670423748E+00
  0.262157465440E+00
  0.644560832281E-01
  0.409811584702E-02
 -0.132391154255E+00
 -0.177007117071E+00
 -0.231296997517E+00
 -0.281909790388E+00
 -0.315789599869E+00
 -0.331901366108E+00
 -0.445165561337E+00
 -0.465862363833E+00
 -0.611422279038E+00
 -0.598855847415E+00
 -0.549966374112E+00
 -0.419425036875E+00
 -0.582444268032E-01
  0.438896599497E+00
  0.748512449267E+00
  0.402898694753E+00
 -0.192624895982E+00
 -0.264260112656E+00
 -0.388716810644E+00
 -0.352999490572E+00
 -0.271517388597E+00
 -0.227666946139E+00
 -0.161430297393E+00
 -0.138380255402E+00
 -0.113053112909E+00
 -0.943927787105E-01
 -0.105831267988E+00
 -0.922008318485E-01
 -0.171018630729E+00
 -0.179956063183E+00
 -0.324867910995E+00
 -0.401877132771E+00
 -0.694373344450E+00
 -0.135393602728E+01
  0.531838426374E+00
  0.495825123109E+00
  0.155650092392E+00
  0.979812300592E-01
 -0.742829354577E-01
 -0.120556362957E+00
 -0.149003199440E+00
 -0.185381225649E+00
 -0.180021108702E+00
 -0.224168849603E+00
 -0.238700578486E+00
 -0.254185040940E+00
 -0.310726757902E+00
 -0.313292916040E+00
 -0.399394872974E+00
 -0.347532192960E+00
 -0.379154522035E+00
 -0.239701379607E+00
  0.153404456302E+00
  0.610455920691E+00
  0.539656701472E+00
  0.192970840764E+00
 -0.224717642353E+00
 -0.286022119853E+00
 -0.277044836667E+00
 -0.284910474886E+00
 -0.227787380929E+00
 -0.199873582636E+00
 -0.172115386905E+00
 -0.142321506908E+00
 -0.120856492039E+00
 -0.101446486910E+00
 -0.696822469990E-01
 -0.532487520780E-01
 -0.451443501836E-01
 -0.600201879612E-01
 -0.167452186620E+00
 -0.200248212606E+00
 -0.514173360527E+00
 -0.409566960153E+00
 -0.279025958460E+00
  0.330828914328E-01
  0.298178169455E-01
 -0.821190143692E-01
 -0.549207421819E-01
 -0.150811867497E+00
 -0.144114207343E+00
 -0.185229553492E+00
 -0.193029321766E+00
 -0.210576314003E+00
 -0.232098212314E+00
 -0.244211897974E+00
 -0.245855089092E+00
 -0.243759327873E+00
 -0.218413981175E+00
 -0.147382276676E+00
 -0.124932609348E+00
  0.275350959325E+00
  0.142290684538E+00
 -0.192481873449E+00
 -0.190745351764E+00
 -0.222697071174E+00
 -0.230759275100E+00
 -0.207840851465E+00
 -0.197346611261E+00
 -0.169235400401E+00
 -0.149280023090E+00
 -0.123540839739E+00
 -0.103830196590E+00
 -0.848972629752E-01
 -0.720149013633E-01
 -0.845819796054E-01
 -0.777568659874E-01
 -0.142416389939E+00
 -0.178241742907E+00
 -0.242603297883E+00
 -0.551817849910E-01
 -0.855506405378E-01
 -0.354569203861E-01
 -0.142985834337E+00
 -0.132917531338E+00
 -0.168075778039E+00
 -0.174222380811E+00
 -0.181138669851E+00
 -0.198631184636E+00
 -0.205614491265E+00
 -0.214897456100E+00
 -0.220333897031E+00
 -0.218510926452E+00
 -0.214306300235E+00
 -0.196517763560E+00
 -0.167382361919E+00
 -0.165912155753E+00
  0.120628063097E+00
  0.415376834424E-02
 -0.224870023258E+00
 -0.215306896383E+00
 -0.204124214825E+00
 -0.215099018878E+00
 -0.190733274962E+00
 -0.185017946592E+00
 -0.162089263100E+00
 -0.143887003540E+00
 -0.123440862847E+00
 -0.105456315680E+00
 -0.865381616596E-01
 -0.740031682927E-01
 -0.621649237973E-01
 -0.616238905840E-01
 -0.651418708200E-01
 -0.843673201241E-01
 -0.284176886510E-01
 -0.812855417620E-01
 -0.112293774209E+00
 -0.121647931852E+00
 -0.150075685188E+00
 -0.160119419580E+00
 -0.157212468206E+00
 -0.172117270746E+00
 -0.164524449150E+00
 -0.185864711986E+00
 -0.186481361395E+00
 -0.192426001910E+00
 -0.195377433544E+00
 -0.193819920184E+00
 -0.189967619386E+00
 -0.177534654864E+00
 -0.172522369797E+00
 -0.191920370040E+00
  0.439153974820E-01
 -0.415224682500E-01
 -0.227930946625E+00
 -0.206300149956E+00
 -0.177629017968E+00
 -0.190766083088E+00
 -0.174232836563E+00
 -0.171450676364E+00
 -0.156607609538E+00
 -0.140674446135E+00
 -0.126571978183E+00
 -0.109418862262E+00
 -0.920988343069E-01
 -0.778767648294E-01
 -0.638026516871E-01
 -0.591347302133E-01
 -0.568401274064E-01
 -0.648086784496E-01
 -0.100916301096E-01
 -0.938838819897E-01
 -0.120838784664E+00
 -0.146716054414E+00
 -0.140983941927E+00
 -0.155994829269E+00
 -0.139086058035E+00
 -0.154465877455E+00
 -0.147425797719E+00
 -0.165701215980E+00
 -0.167423231945E+00
 -0.171664253297E+00
 -0.176547812260E+00
 -0.174831319522E+00
 -0.170859872410E+00
 -0.160684697183E+00
 -0.164799236773E+00
 -0.207890548495E+00
 -0.807061079644E-02
 -0.652416279395E-01
 -0.222156106345E+00
 -0.176552320063E+00
 -0.152462540566E+00
 -0.165090839145E+00
 -0.161813372988E+00
 -0.160791701446E+00
 -0.152491120908E+00
 -0.140193521450E+00
 -0.128918632815E+00
 -0.113758450291E+00
 -0.952238270718E-01
 -0.816427375895E-01
 -0.645521220011E-01
 -0.596213855945E-01
 -0.516666363833E-01
 -0.541285127379E-01
 -0.710783273768E-02
 -0.832065802476E-01
 -0.111466593817E+00
 -0.142994114519E+00
 -0.122343522809E+00
 -0.135949698328E+00
 -0.120209940141E+00
 -0.132676915955E+00
 -0.134099250862E+00
 -0.146508624480E+00
 -0.153883726473E+00
 -0.157053112712E+00
 -0.164431138869E+00
 -0.162104156606E+00
 -0.155143644073E+00
 -0.145062720338E+00
 -0.149253852575E+00
 -0.214016120633E+00
 -0.437503189220E-01
 -0.763861094719E-01
 -0.216642286988E+00
 -0.145288697051E+00
 -0.135585831050E+00
 -0.145322284052E+00
 -0.154786287782E+00
 -0.154965349401E+00
 -0.149159535837E+00
 -0.141481860148E+00
 -0.128899747452E+00
 -0.117158956905E+00
 -0.965854421526E-01
 -0.861498390028E-01
 -0.687620716740E-01
 -0.664826166406E-01
 -0.580610542560E-01
 -0.560838717965E-01
 -0.135674751411E-01
 -0.633852932874E-01
 -0.814016318749E-01
 -0.117654390952E+00
 -0.986211823120E-01
 -0.109231380280E+00
 -0.104203472340E+00
 -0.113582499386E+00
 -0.125418625377E+00
 -0.133359009012E+00
 -0.146717139077E+00
 -0.149959513614E+00
 -0.157404505819E+00
 -0.154652677222E+00
 -0.142704863208E+00
 -0.131913125296E+00
 -0.133006121244E+00
 -0.215084099604E+00
 -0.660277111237E-01
 -0.775168870130E-01
 -0.216722794797E+00
 -0.126189612330E+00
 -0.130999754405E+00
 -0.136351407550E+00
 -0.153276684637E+00
 -0.153887914659E+00
 -0.148420358988E+00
 -0.143427063962E+00
 -0.128126641698E+00
 -0.119962612574E+00
 -0.100237835095E+00
 -0.952512123863E-01
 -0.815801596948E-01
 -0.904329936329E-01
 -0.801579958081E-01
 -0.936953207389E-01
 -0.319009327715E-01
SCALARS sigma float 1
LOOKUP_TABLE default
  0.829296366639E-01
  0.829296366639E-01
  0.883094137507E-01
  0.883094137507E-01
  0.967841986471E-01
  0.967841986471E-01
  0.109660016895E+00
  0.109660016895E+00
  0.130029179896E+00
  0.130029179896E+00
  0.164018797803E+00
  0.164018797803E+00
  0.218005069786E+00
  0.218005069786E+00
  0.298061271898E+00
  0.298061271898E+00
  0.429722334664E+00
  0.429722334664E+00
  0.794781778540E+00
  0.794781778540E+00
  0.500223443293E+00
  0.500223443293E+00
  0.493740467227E-01
  0.493740467227E-01
 -0.919998796551E-01
 -0.919998796551E-01
 -0.174129026614E+00
 -0.174129026614E+00
 -0.228004653355E+00
 -0.228004653355E+00
 -0.261323129157E+00
 -0.261323129157E+00
 -0.281071197789E+00
 -0.281071197789E+00
 -0.293470505004E+00
 -0.293470505004E+00
 -0.301596345675E+00
 -0.301596345675E+00
 -0.306740106566E+00
 -0.306740106566E+00
  0.829296366639E-01
  0.829296366639E-01
  0.883094137507E-01
  0.883094137507E-01
  0.967841986471E-01
  0.967841986471E-01
  0.109660016895E+00
  0.109660016895E+00
  0.130029179896E+00
  0.130029179896E+00
  0.164018797803E+00
  0.164018797803E+00
  0.218005069786E+00
  0.218005069786E+00
  0.298061271898E+00
  0.298061271898E+00
  0.429722334664E+00
  0.429722334664E+00
  0.794781778540E+00
  0.794781778540E+00
  0.500223443293E+00
  0.500223443293E+00
  0.493740467227E-01
  0.493740467227E-01
 -0.919998796551E-01
 -0.919998796551E-01
 -0.174129026614E+00
 -0.174129026614E+00
 -0.228004653355E+00
 -0.228004653355E+00
 -0.261323129157E+00
 -0.261323129157E+00
 -0.281071197789E+00
 -0.281071197789E+00
 -0.293470505004E+00
 -0.293470505004E+00
 -0.301596345675E+00
 -0.301596345675E+00
 -0.306740106566E+00
 -0.306740106566E+00
  0.829296366639E-01
  0.829296366639E-01
  0.883094137507E-01
  0.883094137507E-01
  0.967841986471E-01
  0.967841986471E-01
  0.109660016895E+00
  0.109660016895E+00
  0.130029179896E+00
  0.130029179896E+00
  0.164018797803E+00
  0.164018797803E+00
  0.218005069786E+00
  0.218005069786E+00
  0.298061271898E+00
  0.298061271898E+00
  0.429722334664E+00
  0.429722334664E+00
  0.794781778540E+00
  0.794781778540E+00
  0.500223443293E+00
  0.500223443293E+00
  0.493740467227E-01
  0.493740467227E-01
 -0.919998796551E-01
 -0.919998796551E-01
 -0.174129026614E+00
 -0.174129026614E+00
 -0.228004653355E+00
 -0.228004653355E+00
 -0.261323129157E+00
 -0.261323129157E+00
 -0.281071197789E+00
 -0.281071197789E+00
 -0.293470505004E+00
 -0.293470505004E+00
 -0.301596345675E+00
 -0.301596345675E+00
 -0.306740106566E+00
 -0.306740106566E+00
  0.829296366639E-01
  0.829296366639E-01
  0.883094137507E-01
  0.883094137507E-01
  0.967841986471E-01
  0.967841986471E-01
  0.109660016895E+00
  0.109660016895E+00
  0.130029179896E+00
  0.130029179896E+00
  0.164018797803E+00
  0.164018797803E+00
  0.218005069786E+00
  0.218005069786E+00
  0.298061271898E+00
  0.298061271898E+00
  0.429722334664E+00
  0.429722334664E+00
  0.794781778540E+00
  0.794781778540E+00
  0.500223443293E+00
  0.500223443293E+00
  0.493740467227E-01
  0.493740467227E-01
 -0.919998796551E-01
 -0.919998796551E-01
 -0.174129026614E+00
 -0.174129026614E+00
 -0.228004653355E+00
 -0.228004653355E+00
 -0.261323129157E+00
 -0.261323129157E+00
 -0.281071197789E+00
 -0.281071197789E+00
 -0.293470505004E+00
 -0.293470505004E+00
 -0.301596345675E+00
 -0.301596345675E+00
 -0.306740106566E+00
 -0.306740106566E+00
  0.829296366639E-01
  0.829296366639E-01
  0.883094137507E-01
  0.883094137507E-01
  0.967841986471E-01
  0.967841986471E-01
  0.109660016895E+00
  0.109660016895E+00
  0.130029179896E+00
  0.130029179896E+00
  0.164018797803E+00
  0.164018797803E+00
  0.218005069786E+00
  0.218005069786E+00
  0.298061271898E+00
  0.298061271898E+00
  0.429722334664E+00
  0.429722334664E+00
  0.794781778540E+00
  0.794781778540E+00
  0.500223443293E+00
  0.500223443293E+00
  0.493740467227E-01
  0.493740467227E-01
 -0.919998796551E-01
 -0.919998796551E-01
 -0.174129026614E+00
 -0.174129026614E+00
 -0.228004653355E+00
 -0.228004653355E+00
 -0.261323129157E+00
 -0.261323129157E+00
 -0.281071197789E+00
 -0.281071197789E+00
 -0.293470505004E+00
 -0.293470505004E+00
 -0.301596345675E+00
 -0.301596345675E+00
 -0.306740106566E+00
 -0.306740106566E+00
  0.829296366639E-01
  0.829296366639E-01
  0.883094137507E-01
  0.883094137507E-01
  0.967841986471E-01
  0.967841986471E-01
  0.109660016895E+00
  0.109660016895E+00
  0.130029179896E+00
  0.130029179896E+00
  0.164018797803E+00
  0.164018797803E+00
  0.218005069786E+00
  0.218005069786E+00
  0.298061271898E+00
  0.298061271898E+00
  0.429722334664E+00
  0.429722334664E+00
  0.794781778540E+00
  0.794781778540E+00
  0.500223443293E+00
  0.500223443293E+00
  0.493740467227E-01
  0.493740467227E-01
 -0.919998796551E-01
 -0.919998796551E-01
 -0.174129026614E+00
 -0.174129026614E+00
 -0.228004653355E+00
 -0.228004653355E+00
 -0.261323129157E+00
 -0.261323129157E+00
 -0.281071197789E+00
 -0.281071197789E+00
 -0.293470505004E+00
 -0.293470505004E+00
 -0.301596345675E+00
 -0.301596345675E+00
 -0.306740106566E+00
 -0.306740106566E+00
  0.829296366639E-01
  0.829296366639E-01
  0.883094137507E-01
  0.883094137507E-01
  0.967841986471E-01
  0.967841986471E-01
  0.109660016895E+00
  0.109660016895E+00
  0.130029179896E+00
  0.130029179896E+00
  0.164018797803E+00
  0.164018797803E+00
  0.218005069786E+00
  0.218005069786E+00
  0.298061271898E+00
  0.298061271898E+00
  0.429722334664E+00
  0.429722334664E+00
  0.794781778540E+00
  0.794781778540E+00
  0.500223443293E+00
  0.500223443293E+00
  0.493740467227E-01
  0.493740467227E-01
 -0.919998796551E-01
 -0.919998796551E-01
 -0.174129026614E+00
 -0.174129026614E+00
 -0.228004653355E+00
 -0.228004653355E+00
 -0.261323129157E+00
 -0.261323129157E+00
 -0.281071197789E+00
 -0.281071197789E+00
 -0.293470505004E+00
 -0.293470505004E+00
 -0.301596345675E+00
 -0.301596345675E+00
 -0.306740106566E+00
 -0.306740106566E+00
  0.829296366639E-01
  0.829296366639E-01
  0.883094137507E-01
  0.883094137507E-01
  0.967841986471E-01
  0.967841986471E-01
  0.109660016895E+00
  0.109660016895E+00
  0.130029179896E+00
  0.130029179896E+00
  0.164018797803E+00
  0.164018797803E+00
  0.218005069786E+00
  0.218005069786E+00
  0.298061271898E+00
  0.298061271898E+00
  0.429722334664E+00
  0.429722334664E+00
  0.794781778540E+00
  0.794781778540E+00
  0.500223443293E+00
  0.500223443293E+00
  0.493740467227E-01
  0.493740467227E-01
 -0.919998796551E-01
 -0.919998796551E-01
 -0.174129026614E+00
 -0.174129026614E+00
 -0.228004653355E+00
 -0.228004653355E+00
 -0.261323129157E+00
 -0.261323129157E+00
 -0.281071197789E+00
 -0.281071197789E+00
 -0.293470505004E+00
 -0.293470505004E+00
 -0.301596345675E+00
 -0.301596345675E+00
 -0.306740106566E+00
 -0.306740106566E+00
  0.829296366639E-01
  0.829296366639E-01
  0.883094137507E-01
  0.883094137507E-01
  0.967841986471E-01
  0.967841986471E-01
  0.109660016895E+00
  0.109660016895E+00
  0.130029179896E+00
  0.130029179896E+00
  0.164018797803E+00
  0.164018797803E+00
  0.218005069786E+00
  0.218005069786E+00
  0.298061271898E+00
  0.298061271898E+00
  0.429722334664E+00
  0.429722334664E+00
  0.794781778540E+00
  0.794781778540E+00
  0.500223443293E+00
  0.500223443293E+00
  0.493740467227E-01
  0.493740467227E-01
 -0.919998796551E-01
 -0.919998796551E-01
 -0.174129026614E+00
 -0.174129026614E+00
 -0.228004653355E+00
 -0.228004653355E+00
 -0.261323129157E+00
 -0.261323129157E+00
 -0.281071197789E+00
 -0.281071197789E+00
 -0.293470505004E+00
 -0.293470505004E+00
 -0.301596345675E+00
 -0.301596345675E+00
 -0.306740106566E+00
 -0.306740106566E+00
  0.821987233425E-01
  0.875301540790E-01
  0.875301542848E-01
  0.959286470181E-01
  0.959286468985E-01
  0.108688308314E+00
  0.108688308347E+00
  0.128873360952E+00
  0.128873360937E+00
  0.162555909759E+00