# vtk DataFile Version 3.0
MachLine results file. Generated by MachLine, USU AeroLab (c) 2022.
ASCII
DATASET POLYDATA
POINTS                1191 float
  0.999999571391E+00  0.000000000000E+00 -0.244562084057E-07
  0.999999571391E+00  0.000000000000E+00  0.244562084057E-07
  0.965617058103E+00  0.503720627990E+00 -0.394932266718E-02
  0.999999575188E+00  0.503720627990E+00 -0.242395761133E-07
  0.999999575188E+00  0.503720627990E+00  0.242395761133E-07
  0.965617066218E+00  0.000000000000E+00 -0.394939311955E-02
  0.905490008153E+00  0.503720627990E+00 -0.105273633906E-01
  0.905490003311E+00  0.000000000000E+00 -0.105273108020E-01
  0.807861701636E+00  0.503720627990E+00 -0.203681622126E-01
  0.807861707831E+00  0.000000000000E+00 -0.203682186998E-01
  0.666965268537E+00  0.503720627990E+00 -0.327301984587E-01
  0.666965275163E+00  0.000000000000E+00 -0.327302654292E-01
  0.494699884751E+00  0.503720627990E+00 -0.442887848755E-01
  0.494699883027E+00  0.000000000000E+00 -0.442887502942E-01
  0.322148051919E+00  0.000000000000E+00 -0.499216560497E-01
  0.322148054910E+00  0.503720627990E+00 -0.499215551083E-01
  0.180771106200E+00  0.000000000000E+00 -0.467578267934E-01
  0.180771121055E+00  0.503720627990E+00 -0.467576955661E-01
  0.832332286590E-01  0.000000000000E+00 -0.364524008998E-01
  0.832332531405E-01  0.503720627990E+00 -0.364523221391E-01
  0.246818201473E-01  0.000000000000E+00 -0.217018640739E-01
  0.246818822016E-01  0.503720627990E+00 -0.217018165754E-01
  0.430593829421E-06  0.000000000000E+00  0.000000000000E+00
  0.555142330357E-06  0.503720627990E+00  0.000000000000E+00
  0.246818129520E-01  0.503720627990E+00  0.217019482957E-01
  0.246817533178E-01  0.000000000000E+00  0.217020205675E-01
  0.832332371934E-01  0.503720627990E+00  0.364524117957E-01
  0.832332350518E-01  0.000000000000E+00  0.364523592788E-01
  0.180771111568E+00  0.503720627990E+00  0.467578440140E-01
  0.180771102943E+00  0.000000000000E+00  0.467578918906E-01
  0.322148054905E+00  0.503720627990E+00  0.499215540541E-01
  0.322148051379E+00  0.000000000000E+00  0.499216182820E-01
  0.494699884756E+00  0.503720627990E+00  0.442887849794E-01
  0.494699883028E+00  0.000000000000E+00  0.442887503253E-01
  0.666965277953E+00  0.000000000000E+00  0.327303031461E-01
  0.666965268872E+00  0.503720627990E+00  0.327302027801E-01
  0.807861701859E+00  0.000000000000E+00  0.203681538401E-01
  0.807861688481E+00  0.503720627990E+00  0.203680226671E-01
  0.905490007840E+00  0.000000000000E+00  0.105273544892E-01
  0.905489998669E+00  0.503720627990E+00  0.105272731519E-01
  0.965617046575E+00  0.000000000000E+00  0.394921651172E-02
  0.965617038938E+00  0.503720627990E+00  0.394915176408E-02
  0.965617041729E+00  0.110747748820E+01 -0.394917665246E-02
  0.999999424307E+00  0.110747748820E+01 -0.328487430459E-07
  0.999999424307E+00  0.110747748820E+01  0.328487430459E-07
  0.905489983062E+00  0.110747748820E+01 -0.105271246622E-01
  0.807861694005E+00  0.110747748820E+01 -0.203680812587E-01
  0.666965259385E+00  0.110747748820E+01 -0.327300802324E-01
  0.494699872085E+00  0.110747748820E+01 -0.442885308361E-01
  0.322148053187E+00  0.110747748820E+01 -0.499212191192E-01
  0.180771130145E+00  0.110747748820E+01 -0.467575533259E-01
  0.832332871699E-01  0.110747748820E+01 -0.364521308211E-01
  0.246819630978E-01  0.110747748820E+01 -0.217016627022E-01
  0.594869778391E-06  0.110747748820E+01  0.000000000000E+00
  0.246819374287E-01  0.110747748820E+01  0.217017115276E-01
  0.832332648800E-01  0.110747748820E+01  0.364522561382E-01
  0.180771116930E+00  0.110747748820E+01  0.467577601182E-01
  0.322148054307E+00  0.110747748820E+01  0.499214375810E-01
  0.494699872623E+00  0.110747748820E+01  0.442885416221E-01
  0.666965243327E+00  0.110747748820E+01  0.327298727899E-01
  0.807861675117E+00  0.110747748820E+01  0.203678808900E-01
  0.905489978335E+00  0.110747748820E+01  0.105270796856E-01
  0.965617010586E+00  0.110747748820E+01  0.394889893036E-02
  0.965616996853E+00  0.175813428970E+01 -0.394877646456E-02
  0.999999291029E+00  0.175813428970E+01 -0.404535391882E-07
  0.999999291029E+00  0.175813428970E+01  0.404535391882E-07
  0.905489991257E+00  0.175813428970E+01 -0.105272026301E-01
  0.807861692788E+00  0.175813428970E+01 -0.203680683512E-01
  0.666965256639E+00  0.175813428970E+01 -0.327300447597E-01
  0.494699872266E+00  0.175813428970E+01 -0.442885344641E-01
  0.322148053100E+00  0.175813428970E+01 -0.499212021319E-01
  0.180771138243E+00  0.175813428970E+01 -0.467574266105E-01
  0.832333097658E-01  0.175813428970E+01 -0.364520037842E-01
  0.246820201939E-01  0.175813428970E+01 -0.217015540991E-01
  0.692906608133E-06  0.175813428970E+01  0.000000000000E+00
  0.246819208872E-01  0.175813428970E+01  0.217017429913E-01
  0.832332519529E-01  0.175813428970E+01  0.364523288160E-01
  0.180771117369E+00  0.175813428970E+01  0.467577532488E-01
  0.322148054146E+00  0.175813428970E+01  0.499214060993E-01
  0.494699872633E+00  0.175813428970E+01  0.442885418300E-01
  0.666965242658E+00  0.175813428970E+01  0.327298641431E-01
  0.807861663717E+00  0.175813428970E+01  0.203677599590E-01
  0.905489964847E+00  0.175813428970E+01  0.105269513477E-01
  0.965616986780E+00  0.175813428970E+01  0.394868663921E-02
  0.965617001114E+00  0.238369488720E+01 -0.394881445808E-02
  0.999999181755E+00  0.238369488720E+01 -0.466886075159E-07
  0.999999181755E+00  0.238369488720E+01  0.466886075159E-07
  0.905489976573E+00  0.238369488720E+01 -0.105270629199E-01
  0.807861693314E+00  0.238369488720E+01 -0.203680739286E-01
  0.666965258784E+00  0.238369488720E+01 -0.327300724714E-01
  0.494699872139E+00  0.238369488720E+01 -0.442885319058E-01
  0.322148053045E+00  0.238369488720E+01 -0.499211914721E-01
  0.180771142375E+00  0.238369488720E+01 -0.467573619583E-01
  0.832333247848E-01  0.238369488720E+01 -0.364519193453E-01
  0.246820617627E-01  0.238369488720E+01 -0.217014750308E-01
  0.781231094039E-06  0.238369488720E+01  0.000000000000E+00
  0.246819435586E-01  0.238369488720E+01  0.217016998677E-01
  0.832332505130E-01  0.238369488720E+01  0.364523369113E-01
  0.180771113863E+00  0.238369488720E+01  0.467578081014E-01
  0.322148054384E+00  0.238369488720E+01  0.499214525132E-01
  0.494699872713E+00  0.238369488720E+01  0.442885434262E-01
  0.666965241125E+00  0.238369488720E+01  0.327298443458E-01
  0.807861658466E+00  0.238369488720E+01  0.203677042491E-01
  0.905489956496E+00  0.238369488720E+01  0.105268718869E-01
  0.965616980493E+00  0.238369488720E+01  0.394863057109E-02
  0.965617000451E+00  0.292249171970E+01 -0.394880854638E-02
  0.999999100672E+00  0.292249171970E+01 -0.513151873417E-07
  0.999999100672E+00  0.292249171970E+01  0.513151873417E-07
  0.905489977787E+00  0.292249171970E+01 -0.105270744696E-01
  0.807861682930E+00  0.292249171970E+01 -0.203679637778E-01
  0.666965260145E+00  0.292249171970E+01 -0.327300900482E-01
  0.494699873617E+00  0.292249171970E+01 -0.442885615573E-01
  0.322148053249E+00  0.292249171970E+01 -0.499212313082E-01
  0.180771142396E+00  0.292249171970E+01 -0.467573616289E-01
  0.832333344561E-01  0.292249171970E+01 -0.364518649723E-01
  0.246820961915E-01  0.292249171970E+01 -0.217014095436E-01
  0.868635233571E-06  0.292249171970E+01  0.000000000000E+00
  0.246819747896E-01  0.292249171970E+01  0.217016404631E-01
  0.832332517785E-01  0.292249171970E+01  0.364523297967E-01
  0.180771109607E+00  0.292249171970E+01  0.467578747095E-01
  0.322148054907E+00  0.292249171970E+01  0.499215546076E-01
  0.494699875603E+00  0.292249171970E+01  0.442886013982E-01
  0.666965243729E+00  0.292249171970E+01  0.327298779868E-01
  0.807861657537E+00  0.292249171970E+01  0.203676943953E-01
  0.905489951661E+00  0.292249171970E+01  0.105268258867E-01
  0.965616979578E+00  0.292249171970E+01  0.394862240827E-02
  0.965617000734E+00  0.334432208550E+01 -0.394881107590E-02
  0.999999042414E+00  0.334432208550E+01 -0.546393705207E-07
  0.999999042414E+00  0.334432208550E+01  0.546393705207E-07
  0.905489979551E+00  0.334432208550E+01 -0.105270912474E-01
  0.807861693059E+00  0.334432208550E+01 -0.203680712239E-01
  0.666965258688E+00  0.334432208550E+01 -0.327300712309E-01
  0.494699874091E+00  0.334432208550E+01 -0.442885710716E-01
  0.322148053363E+00  0.334432208550E+01 -0.499212534270E-01
  0.180771141305E+00  0.334432208550E+01 -0.467573786923E-01
  0.832333359222E-01  0.334432208550E+01 -0.364518567292E-01
  0.246821256447E-01  0.334432208550E+01 -0.217013535203E-01
  0.958676320429E-06  0.334432208550E+01  0.000000000000E+00
  0.246820196944E-01  0.334432208550E+01  0.217015550494E-01
  0.832332622727E-01  0.334432208550E+01  0.364522707969E-01
  0.180771107490E+00  0.334432208550E+01  0.467579078232E-01
  0.322148055533E+00  0.334432208550E+01  0.499216766407E-01
  0.494699880589E+00  0.334432208550E+01  0.442887013995E-01
  0.666965248778E+00  0.334432208550E+01  0.327299432082E-01
  0.807861659929E+00  0.334432208550E+01  0.203677197666E-01
  0.905489949744E+00  0.334432208550E+01  0.105268076432E-01
  0.965616980588E+00  0.334432208550E+01  0.394863141617E-02
  0.965616997477E+00  0.365057098370E+01 -0.394878202501E-02
  0.999998998470E+00  0.365057098370E+01 -0.571467818981E-07
  0.999998998470E+00  0.365057098370E+01  0.571467818981E-07
  0.905489978459E+00  0.365057098370E+01 -0.105270808576E-01
  0.807861698325E+00  0.365057098370E+01 -0.203681270939E-01
  0.666965271788E+00  0.365057098370E+01 -0.327302404517E-01
  0.494699876345E+00  0.365057098370E+01 -0.442886162714E-01
  0.322148053776E+00  0.365057098370E+01 -0.499213340003E-01
  0.180771140500E+00  0.365057098370E+01 -0.467573912919E-01
  0.832333369312E-01  0.365057098370E+01 -0.364518510571E-01
  0.246821367762E-01  0.365057098370E+01 -0.217013323471E-01
  0.103505574219E-05  0.365057098370E+01  0.000000000000E+00
  0.246820691668E-01  0.365057098370E+01  0.217014609474E-01
  0.832332814749E-01  0.365057098370E+01  0.364521628392E-01
[...]
POINT_DATA                1191
SCALARS phi float 1
LOOKUP_TABLE default
 -0.971445146547E-16
 -0.312250225676E-15
 -0.728583859910E-16
 -0.555111512313E-16
 -0.728583859910E-16
  0.728583859910E-16
  0.152655665886E-15
 -0.624500451352E-16
  0.312250225676E-16
  0.291433543964E-15
 -0.145716771982E-15
 -0.312250225676E-16
 -0.398986399475E-16
 -0.303576608296E-16
 -0.121430643318E-16
  0.381639164715E-16
 -0.242861286637E-16
  0.797972798949E-16
 -0.485722573274E-16
  0.902056207508E-16
  0.340005801291E-15
  0.693889390391E-16
 -0.346944695195E-16
 -0.111022302463E-15
 -0.228983498829E-15
  0.242861286637E-15
 -0.104083408559E-15
  0.416333634234E-16
 -0.104083408559E-16
  0.156125112838E-15
  0.120563281580E-15
  0.338704758684E-15
  0.693889390391E-16
  0.260208521397E-16
  0.298372437868E-15
  0.138777878078E-16
  0.392047505571E-15
 -0.242861286637E-16
 -0.235922392733E-15
 -0.156125112838E-15
  0.281025203108E-15
 -0.346944695195E-17
  0.693889390391E-16
 -0.346944695195E-16
 -0.381639164715E-16
 -0.520417042793E-16
  0.520417042793E-16
  0.190819582357E-15
 -0.745931094670E-16
 -0.520417042793E-16
  0.100613961607E-15
  0.256739074445E-15
 -0.117961196366E-15
  0.305311331772E-15
  0.485722573274E-16
 -0.693889390391E-16
  0.000000000000E+00
 -0.852182907574E-16
 -0.346944695195E-16
 -0.336536354340E-15
  0.176941794550E-15
 -0.187350135405E-15
  0.225514051877E-15
 -0.242861286637E-16
  0.693889390391E-17
  0.728583859910E-16
 -0.100613961607E-15
 -0.346944695195E-17
  0.624500451352E-16
 -0.615826833972E-16
  0.000000000000E+00
 -0.183880688454E-15
 -0.145716771982E-15
 -0.249800180541E-15
  0.555111512313E-16
 -0.485722573274E-16
 -0.138777878078E-16
  0.485722573274E-16
 -0.229200339263E-15
  0.520417042793E-16
  0.277555756156E-16
  0.215105711021E-15
 -0.346944695195E-17
 -0.451028103754E-16
 -0.485722573274E-16
  0.381639164715E-16
  0.346944695195E-17
 -0.156125112838E-15
 -0.100613961607E-15
  0.312250225676E-16
  0.719910242530E-16
 -0.433680868994E-16
  0.312250225676E-16
 -0.832667268469E-16
 -0.624500451352E-16
  0.242861286637E-15
  0.277555756156E-16
  0.971445146547E-16
 -0.936750677027E-16
  0.134441069388E-16
 -0.105818132035E-15
  0.336536354340E-15
 -0.447558656802E-15
 -0.867361737988E-16
 -0.353883589099E-15
  0.693889390391E-16
  0.693889390391E-16
  0.555111512313E-16
 -0.128369537222E-15
  0.104083408559E-16
  0.832667268469E-16
  0.364291929955E-16
 -0.589805981832E-16
  0.173472347598E-16
  0.416333634234E-16
 -0.555111512313E-16
  0.763278329430E-16
 -0.201227923213E-15
 -0.166533453694E-15
 -0.242861286637E-16
  0.184205949105E-15
  0.624500451352E-16
  0.763278329430E-16
  0.138777878078E-15
  0.222044604925E-15
  0.797972798949E-16
 -0.149186218934E-15
  0.249800180541E-15
  0.284494650060E-15
 -0.693889390391E-17
  0.208166817117E-16
  0.208166817117E-16
  0.243728648375E-15
 -0.520417042793E-17
 -0.346944695195E-17
 -0.555111512313E-16
  0.159594559790E-15
  0.242861286637E-15
  0.117961196366E-15
 -0.128369537222E-15
 -0.124900090270E-15
  0.110480201376E-15
  0.215105711021E-15
 -0.215105711021E-15
 -0.381639164715E-16
 -0.270616862252E-15
 -0.589805981832E-16
  0.902056207508E-16
  0.797972798949E-16
 -0.867361737988E-16
  0.131838984174E-15
  0.346944695195E-17
 -0.520417042793E-16
  0.520417042793E-17
  0.485722573274E-16
  0.728583859910E-16
  0.832667268469E-16
 -0.360822483003E-15
  0.902056207508E-16
  0.131838984174E-15
 -0.173472347598E-16
 -0.468375338514E-16
  0.340439482160E-16
  0.451028103754E-16
  0.194289029309E-15
 -0.277555756156E-16
 -0.728583859910E-16
 -0.485722573274E-16
 -0.277555756156E-16
  0.867361737988E-16
  0.693889390391E-16
 -0.346944695195E-17
  0.277555756156E-16
  0.138777878078E-16
  0.485722573274E-16
  0.598479599212E-16
 -0.971445146547E-16
  0.124900090270E-15
 -0.138777878078E-15
  0.832667268469E-16
  0.173472347598E-15
  0.173472347598E-16
  0.104083408559E-16
  0.294902990916E-16
  0.485722573274E-16
 -0.416333634234E-16
  0.194289029309E-15
  0.176941794550E-15
  0.346944695195E-17
  0.381639164715E-16
 -0.173472347598E-17
  0.100613961607E-15
  0.624500451352E-16
  0.225514051877E-16
 -0.346944695195E-16
 -0.520417042793E-17
  0.919403442268E-16
  0.208166817117E-16
  0.485722573274E-16
 -0.728583859910E-16
  0.208166817117E-16
 -0.485722573274E-16
  0.693889390391E-17
 -0.121430643318E-16
  0.624500451352E-16
 -0.131838984174E-15
 -0.936750677027E-16
 -0.277555756156E-16
 -0.277555756156E-16
  0.312250225676E-16
  0.832667268469E-16
 -0.173472347598E-16
  0.867361737988E-17
  0.156125112838E-16
 -0.108420217249E-16
  0.693889390391E-17
 -0.971445146547E-16
 -0.416333634234E-16
  0.346944695195E-16
 -0.381639164715E-16
  0.641847686111E-16
  0.260208521397E-17
 -0.867361737988E-17
  0.346944695195E-16
 -0.277555756156E-16
 -0.693889390391E-17
 -0.451028103754E-16
  0.693889390391E-17
  0.693889390391E-17
 -0.693889390391E-17
 -0.190819582357E-16
  0.156125112838E-16
  0.889045781438E-17
 -0.190819582357E-16
 -0.416333634234E-16
  0.138777878078E-15
 -0.104083408559E-16
  0.520417042793E-16
  0.000000000000E+00
  0.130104260698E-16
  0.277555756156E-16
  0.485722573274E-16
  0.000000000000E+00
 -0.149186218934E-15
  0.693889390391E-17
  0.451028103754E-16
  0.624500451352E-16
  0.138777878078E-16
  0.659194920871E-16
 -0.416333634234E-16
 -0.190819582357E-16
  0.260208521397E-16
  0.971445146547E-16
 -0.277555756156E-16
  0.346944695195E-16
  0.346944695195E-17
 -0.173472347598E-17
 -0.130104260698E-16
 -0.156125112838E-16
  0.451028103754E-16
  0.218575157973E-15
 -0.173472347598E-16
 -0.138777878078E-16
  0.589805981832E-16
  0.451028103754E-16
 -0.277555756156E-16
  0.693889390391E-16
  0.468375338514E-16
 -0.639679281766E-17
 -0.242861286637E-16
  0.312250225676E-16
 -0.693889390391E-17
  0.208166817117E-16
 -0.156125112838E-16
  0.173472347598E-16
 -0.199493199737E-16
  0.156125112838E-16
 -0.485722573274E-16
 -0.312250225676E-16
  0.728583859910E-16
  0.971445146547E-16
  0.520417042793E-16
 -0.138777878078E-16
 -0.346944695195E-17
 -0.277555756156E-16
  0.138777878078E-16
 -0.216840434497E-18
 -0.138777878078E-16
  0.107552855511E-15
  0.555111512313E-16
 -0.346944695195E-16
  0.208166817117E-16
  0.537764277553E-16
  0.173472347598E-17
  0.000000000000E+00
  0.242861286637E-16
  0.624500451352E-16
  0.208166817117E-16
 -0.902056207508E-16
 -0.693889390391E-16
  0.138777878078E-16
  0.381639164715E-16
 -0.121430643318E-15
 -0.433680868994E-16
 -0.216840434497E-17
  0.112757025938E-16
  0.728583859910E-16
  0.104083408559E-16
  0.138777878078E-15
  0.728583859910E-16
 -0.173472347598E-15
  0.312250225676E-16
  0.728583859910E-16
  0.156125112838E-15
  0.156125112838E-15
  0.277555756156E-16
 -0.107552855511E-15
 -0.124900090270E-15
  0.263677968348E-15
 -0.222044604925E-15
 -0.170002900646E-15
 -0.242861286637E-16
  0.520417042793E-16
 -0.346944695195E-17
 -0.364291929955E-16
  0.797972798949E-16
 -0.201227923213E-15
 -0.138777878078E-16
  0.173472347598E-16
 -0.346944695195E-16
 -0.520417042793E-16
 -0.312250225676E-16
  0.624500451352E-16
 -0.624500451352E-16
  0.555111512313E-16
 -0.111022302463E-15
 -0.100613961607E-15
 -0.180411241502E-15
 -0.305745012641E-16
 -0.277555756156E-16
 -0.156125112838E-15
 -0.277555756156E-16
 -0.832667268469E-16
  0.138777878078E-16
  0.971445146547E-16
 -0.111022302463E-15
  0.902056207508E-16
  0.346944695195E-16
 -0.624500451352E-16
  0.971445146547E-16
 -0.832667268469E-16
 -0.624500451352E-16
 -0.208166817117E-16
  0.284494650060E-15
  0.114491749414E-15
 -0.485722573274E-16
 -0.451028103754E-16
 -0.832667268469E-16
  0.485722573274E-16
  0.201227923213E-15
  0.159594559790E-15
 -0.988792381307E-16
 -0.127068494615E-15
  0.256739074445E-15
  0.693889390391E-17
 -0.624500451352E-16
  0.277555756156E-15
  0.119695919842E-15
 -0.156125112838E-16
 -0.138777878078E-16
  0.111022302463E-15
  0.329597460436E-15
  0.763278329430E-16
  0.763278329430E-16
 -0.107552855511E-15
  0.971445146547E-16
  0.208166817117E-16
 -0.624500451352E-16
  0.159594559790E-15
 -0.520417042793E-16
 -0.430211422042E-15
  0.187350135405E-15
  0.215105711021E-15
 -0.104083408559E-15
  0.346944695195E-17
 -0.346944695195E-16
  0.138777878078E-16
  0.180411241502E-15
  0.242861286637E-16
 -0.346944695195E-16
  0.131838984174E-15
  0.416333634234E-16
  0.124900090270E-15
  0.797972798949E-16
  0.485722573274E-16
  0.107552855511E-15
 -0.114491749414E-15
  0.589805981832E-16
  0.832667268469E-16
  0.702563007771E-16
  0.867361737988E-16
 -0.208166817117E-16
 -0.115901212239E-15
 -0.971445146547E-16
  0.416333634234E-16
 -0.100613961607E-15
 -0.187350135405E-15
 -0.235922392733E-15
 -0.145716771982E-15
  0.260859042700E-15
  0.346944695195E-16
 -0.693889390391E-16
 -0.340005801291E-15
 -0.693889390391E-16
  0.104083408559E-15
 -0.244596010113E-15
  0.228983498829E-15
  0.138777878078E-16
  0.763278329430E-16
 -0.346944695195E-16
 -0.208166817117E-16
  0.104083408559E-16
  0.138777878078E-16
 -0.124900090270E-15
  0.277555756156E-16
 -0.104083408559E-16
  0.208166817117E-16
  0.693889390391E-17
 -0.312250225676E-16
  0.971445146547E-16
  0.173472347598E-15
  0.154390389362E-15
  0.367761376907E-15
 -0.105818132035E-15
  0.492661467177E-15
 -0.104083408559E-16
  0.260208521397E-15
  0.433680868994E-17
  0.104083408559E-15
 -0.954097911787E-16
 -0.763278329430E-16
 -0.242861286637E-15
 -0.107552855511E-15
 -0.461436444610E-15
  0.797972798949E-16
  0.555111512313E-16
 -0.346944695195E-17
 -0.176941794550E-15
 -0.128369537222E-15
 -0.659194920871E-16
  0.312250225676E-15
 -0.131838984174E-15
  0.416333634234E-16
  0.346944695195E-16
  0.104083408559E-16
  0.451028103754E-16
 -0.728583859910E-16
 -0.121430643318E-15
  0.104083408559E-16
  0.489192020225E-15
  0.105818132035E-15
 -0.465122731996E-16
 -0.503069808033E-16
 -0.104083408559E-16
 -0.164798730218E-15
  0.142247325030E-15
 -0.138777878078E-15
 -0.131838984174E-15
  0.513478148889E-15
 -0.693889390391E-17
  0.107552855511E-15
  0.624500451352E-16
  0.214672030152E-16
  0.416333634234E-16
 -0.260208521397E-15
  0.624500451352E-16
 -0.131838984174E-15
 -0.131838984174E-15
 -0.277555756156E-16
  0.187350135405E-15
  0.277555756156E-16
 -0.249800180541E-15
 -0.138777878078E-16
  0.124900090270E-15
  0.346944695195E-17
  0.138777878078E-16
  0.208166817117E-16
  0.112757025938E-15
  0.173472347598E-16
  0.442354486374E-16
 -0.104083408559E-16
 -0.451028103754E-16
  0.208166817117E-16
  0.451028103754E-16
  0.163064006742E-15
 -0.124900090270E-15
 -0.147451495458E-15
 -0.253269627493E-15
 -0.173472347598E-16
 -0.388578058619E-15
  0.589805981832E-16
 -0.624500451352E-16
 -0.416333634234E-16
  0.763278329430E-16
  0.121430643318E-16
 -0.579397640976E-15
 -0.166533453694E-15
 -0.190819582357E-15
  0.187350135405E-15
 -0.270616862252E-15
  0.346944695195E-16
 -0.797972798949E-16
  0.166533453694E-15
  0.624500451352E-16
 -0.183880688454E-15
  0.277555756156E-16
 -0.867361737988E-16
 -0.589805981832E-16
  0.126634813746E-15
 -0.763278329430E-16
 -0.832667268469E-16
 -0.832667268469E-16
 -0.170002900646E-15
 -0.485722573274E-16
 -0.135308431126E-15
 -0.100613961607E-15
 -0.693889390391E-17
  0.659194920871E-16
 -0.281025203108E-15
  0.367761376907E-15
  0.944340092235E-16
  0.902056207508E-16
  0.982287168272E-16
 -0.128369537222E-15
  0.763278329430E-16
  0.263677968348E-15
 -0.971445146547E-16
 -0.104083408559E-15
 -0.693889390391E-16
  0.194289029309E-15
  0.208166817117E-16
  0.208166817117E-16
  0.138777878078E-16
  0.902056207508E-16
 -0.902056207508E-16
  0.111022302463E-15
  0.368628738645E-17
  0.194289029309E-15
  0.555111512313E-16
 -0.126634813746E-15
  0.867361737988E-17
  0.555111512313E-16
 -0.128369537222E-15
 -0.133573707650E-15
  0.196891114523E-15
  0.135308431126E-15
 -0.398986399475E-15
 -0.152655665886E-15
 -0.867361737988E-16
  0.100613961607E-15
 -0.346944695195E-17
 -0.201227923213E-15
 -0.107552855511E-15
 -0.555111512313E-16
 -0.624500451352E-16
 -0.121430643318E-15
  0.277555756156E-16
  0.832667268469E-16
 -0.104083408559E-15
  0.440619762898E-15
  0.274086309204E-15
  0.142247325030E-15
  0.242861286637E-16
  0.128369537222E-15
 -0.100613961607E-15
 -0.971445146547E-16
  0.277555756156E-16
 -0.149186218934E-15
  0.555111512313E-16
 -0.693889390391E-17
 -0.693889390391E-17
  0.131838984174E-15
 -0.117527515497E-15
 -0.719910242530E-16
 -0.131838984174E-15
  0.503069808033E-16
  0.138777878078E-16
  0.187350135405E-15
 -0.416333634234E-16
 -0.416333634234E-16
  0.693889390391E-16
  0.126634813746E-15
  0.548606299278E-16
  0.131838984174E-15
  0.152655665886E-15
 -0.520417042793E-16
 -0.520417042793E-16
 -0.693889390391E-17
 -0.138777878078E-16
 -0.242861286637E-16
 -0.159594559790E-15
  0.763278329430E-16
  0.117961196366E-15
  0.832667268469E-16
  0.000000000000E+00
  0.131838984174E-15
 -0.693889390391E-17
  0.797972798949E-16
  0.111564403549E-15
  0.141379963292E-15
  0.246330733589E-15
  0.176941794550E-15
  0.190819582357E-15
 -0.624500451352E-16
  0.104083408559E-15
  0.225514051877E-15
 -0.152655665886E-15
  0.451028103754E-16
  0.374700270811E-15
  0.971445146547E-16
 -0.797972798949E-16
 -0.204697370165E-15
  0.173472347598E-15
  0.152655665886E-15
  0.104083408559E-15
  0.124900090270E-15
  0.121430643318E-15
  0.142247325030E-15
  0.201227923213E-15
 -0.242861286637E-16
  0.346944695195E-16
  0.117961196366E-15
 -0.208166817117E-16
  0.693889390391E-17
 -0.346944695195E-17
  0.693889390391E-16
 -0.246330733589E-15
  0.763278329430E-16
 -0.111022302463E-15
 -0.763278329430E-16
  0.156125112838E-15
  0.485722573274E-16
 -0.208166817117E-16
 -0.242861286637E-16
  0.402455846427E-15
 -0.563785129692E-16
 -0.201715814191E-15
  0.971445146547E-16
 -0.353883589099E-15
  0.100613961607E-15
  0.433680868994E-16
  0.138777878078E-16
 -0.194289029309E-15
 -0.203342117450E-15
  0.555111512313E-16
  0.173472347598E-15
  0.114491749414E-15
  0.208166817117E-15
  0.555111512313E-16
  0.235922392733E-15
 -0.111022302463E-15
  0.346944695195E-16
 -0.693889390391E-16
  0.693889390391E-17
 -0.693889390391E-16
  0.936750677027E-16
 -0.693889390391E-16
 -0.728583859910E-16
  0.138777878078E-15
  0.832667268469E-16
  0.971445146547E-16
  0.163064006742E-15
  0.218575157973E-15
  0.128369537222E-15
 -0.624500451352E-16
  0.208166817117E-16
  0.320923843056E-15
  0.104083408559E-15
  0.128369537222E-15
  0.319189119580E-15
 -0.346944695195E-16
  0.218575157973E-15
  0.902056207508E-16
 -0.183880688454E-15
  0.659194920871E-16
  0.173472347598E-16
  0.152655665886E-15
  0.235922392733E-15
  0.100613961607E-15
  0.173472347598E-16
 -0.102348685083E-15
  0.693889390391E-17
 -0.485722573274E-16
  0.728583859910E-16
  0.107552855511E-15
 -0.624500451352E-16
 -0.693889390391E-16
  0.659194920871E-16
  0.131838984174E-15
  0.763278329430E-16
  0.138777878078E-16
  0.121430643318E-15
  0.312250225676E-15
  0.168268177170E-15
  0.126634813746E-15
 -0.520417042793E-16
  0.124493514456E-15
 -0.277555756156E-16
  0.204697370165E-15
  0.253269627493E-15
 -0.346944695195E-17
  0.936750677027E-16
  0.246330733589E-15
  0.624500451352E-16
  0.272351585728E-15
  0.150920942410E-15
 -0.555111512313E-16
  0.124900090270E-15
 -0.124900090270E-15
  0.104083408559E-15
  0.971445146547E-16
  0.170463686569E-15
  0.104083408559E-15
  0.693889390391E-17
  0.149186218934E-15
  0.228983498829E-15
  0.145716771982E-15
 -0.138777878078E-16
  0.187350135405E-15
  0.164798730218E-16
  0.535460347936E-16
  0.312250225676E-16
  0.131838984174E-15
 -0.693889390391E-16
  0.135308431126E-15
  0.555111512313E-16
 -0.197758476261E-15
  0.346944695195E-17
  0.247198095327E-15
  0.171737624122E-15
 -0.117961196366E-15
  0.832667268469E-16
 -0.763278329430E-16
 -0.183880688454E-15
  0.000000000000E+00
  0.659194920871E-16
 -0.315719672628E-15
 -0.346944695195E-16
  0.346944695195E-17
  0.451028103754E-16
 -0.693889390391E-17
  0.555111512313E-16
  0.208166817117E-15
  0.159594559790E-15
  0.416333634234E-16
  0.902056207508E-16
  0.451028103754E-16
  0.242861286637E-16
 -0.624500451352E-16
 -0.555111512313E-16
  0.124900090270E-15
  0.201227923213E-15
  0.156125112838E-15
 -0.277555756156E-16
  0.797972798949E-16
  0.237657116209E-15
 -0.242861286637E-16
  0.277555756156E-16
 -0.346944695195E-17
  0.279290479632E-15
  0.204697370165E-15
  0.176941794550E-15
  0.277555756156E-16
  0.188217497143E-15
  0.156125112838E-15
  0.104083408559E-16
  0.103866568124E-15
  0.173472347598E-15
  0.277555756156E-15
  0.503069808033E-16
  0.124900090270E-15
  0.572458747072E-16
  0.124900090270E-15
  0.111022302463E-15
  0.138777878078E-15
  0.117961196366E-15
  0.166533453694E-15
  0.201227923213E-15
  0.194289029309E-15
  0.173472347598E-15
  0.151788304148E-15
  0.194289029309E-15
  0.761109925085E-16
  0.131838984174E-15
  0.305311331772E-15
  0.222044604925E-15
  0.189084858881E-15
  0.954097911787E-16
  0.763278329430E-16
  0.263677968348E-15
  0.797972798949E-16
  0.159594559790E-15
  0.884708972748E-16
  0.315719672628E-15
  0.142247325030E-15
  0.152655665886E-15
 -0.416333634234E-16
 -0.222044604925E-15
  0.199493199737E-15
  0.322658566532E-15
  0.589805981832E-16
  0.173472347598E-16
  0.222044604925E-15
  0.797972798949E-16
  0.555111512313E-16
 -0.832667268469E-16
  0.451028103754E-16
  0.242861286637E-16
  0.159594559790E-15
 -0.312250225676E-16
 -0.693889390391E-16
  0.312250225676E-16
  0.242861286637E-16
 -0.346944695195E-17
 -0.451028103754E-16
  0.208166817117E-16
  0.104083408559E-16
  0.867361737988E-16
  0.763278329430E-16
  0.281892564846E-16
  0.641847686111E-16
  0.919403442268E-16
  0.711236625150E-16
  0.173472347598E-16
  0.100613961607E-15
  0.555111512313E-16
  0.156125112838E-15
 -0.152655665886E-15
 -0.346944695195E-16
  0.906393016198E-16
  0.291433543964E-15
  0.277555756156E-16
  0.128369537222E-15
  0.152655665886E-15
  0.242861286637E-15
  0.208166817117E-15
  0.249800180541E-15
  0.176941794550E-15
  0.145716771982E-15
  0.222044604925E-15
  0.142247325030E-15
  0.175207071074E-15
  0.988792381307E-16
  0.187350135405E-15
  0.114491749414E-15
  0.164798730218E-15
  0.222044604925E-15
  0.191253263226E-15
  0.213370987545E-15
  0.131838984174E-15
  0.180411241502E-15
  0.624500451352E-16
  0.235922392733E-15
  0.332199545650E-15
  0.277555756156E-16
  0.124900090270E-15
 -0.728583859910E-16
  0.659194920871E-16
 -0.728583859910E-16
  0.265412691824E-15
 -0.346944695195E-17
  0.242861286637E-16
  0.381639164715E-16
  0.303359767861E-15
 -0.312250225676E-16
  0.000000000000E+00
  0.589805981832E-16
  0.728583859910E-16
  0.000000000000E+00
 -0.971445146547E-16
 -0.589805981832E-16
  0.346944695195E-17
 -0.104083408559E-16
 -0.659194920871E-16
  0.104083408559E-16
  0.910729824888E-17
 -0.559448321003E-16
 -0.121430643318E-15
 -0.346944695195E-16
  0.157859836314E-15
  0.728583859910E-16
  0.867361737988E-18
  0.117961196366E-15
  0.211636264069E-15
  0.190819582357E-15
 -0.173472347598E-16
 -0.104083408559E-15
 -0.346944695195E-17
  0.667868538251E-16
 -0.329597460436E-16
  0.138777878078E-15
  0.161329283266E-15
  0.971445146547E-16
  0.163064006742E-15
  0.222911966663E-15
  0.228332977525E-15
  0.202095284951E-15
  0.152655665886E-15
  0.208166817117E-15
  0.282759926584E-15
  0.197758476261E-15
  0.225514051877E-15
  0.250017020975E-15
  0.170002900646E-15
  0.555111512313E-16
  0.242861286637E-15
  0.381639164715E-16
  0.150920942410E-15
  0.265412691824E-15
 -0.485722573274E-16
  0.180411241502E-15
  0.117961196366E-15
  0.298372437868E-15
  0.156125112838E-15
 -0.173472347598E-16
 -0.277555756156E-16
  0.305311331772E-15
  0.346944695195E-17
  0.520417042793E-16
  0.100613961607E-15
 -0.100613961607E-15
 -0.346944695195E-17
  0.346944695195E-17
  0.138777878078E-15
  0.173472347598E-16
 -0.312250225676E-16
  0.555111512313E-16
  0.000000000000E+00
  0.173472347598E-16
  0.897719398818E-16
  0.104083408559E-16
 -0.229850860567E-16
  0.277555756156E-16
 -0.381639164715E-16
  0.117961196366E-15
 -0.346944695195E-17
  0.139645239816E-15
  0.180411241502E-15