# vtk DataFile Version 3.0
MachLine results file. Generated by MachLine, USU AeroLab (c) 2022.
ASCII
DATASET POLYDATA
POINTS                4031 float
  0.999812039347E+00  0.000000000000E+00 -0.108327420918E-04
  0.985290751007E+00  0.224100846140E+00 -0.152515808165E-02
  0.999816894973E+00  0.224100846140E+00 -0.105528976470E-04
  0.985291895567E+00  0.000000000000E+00 -0.153460606476E-02
  0.965596626100E+00  0.224100846140E+00 -0.376797347319E-02
  0.965597760228E+00  0.000000000000E+00 -0.377736035652E-02
  0.939503065511E+00  0.224100846140E+00 -0.667008738850E-02
  0.939504183881E+00  0.000000000000E+00 -0.667938063587E-02
  0.905470123428E+00  0.224100846140E+00 -0.103394321844E-01
  0.905471219395E+00  0.000000000000E+00 -0.103485945556E-01
  0.861981863948E+00  0.224100846140E+00 -0.148442917158E-01
  0.861982933556E+00  0.000000000000E+00 -0.148532940301E-01
  0.807842906849E+00  0.224100846140E+00 -0.201708420759E-01
  0.807843952573E+00  0.000000000000E+00 -0.201796865862E-01
  0.742592159650E+00  0.224100846140E+00 -0.261702352093E-01
  0.742593187624E+00  0.000000000000E+00 -0.261789817002E-01
  0.666948927230E+00  0.224100846140E+00 -0.325232428012E-01
  0.666949956616E+00  0.000000000000E+00 -0.325320146259E-01
  0.583109942012E+00  0.224100846140E+00 -0.387135318661E-01
  0.583110988044E+00  0.000000000000E+00 -0.387224850620E-01
  0.494689105000E+00  0.224100846140E+00 -0.440817439540E-01
  0.494690967999E+00  0.000000000000E+00 -0.441175291590E-01
  0.406189761582E+00  0.000000000000E+00 -0.479331201719E-01
  0.406190217152E+00  0.224100846140E+00 -0.479240966866E-01
  0.322145668850E+00  0.000000000000E+00 -0.497227917347E-01
  0.322146527515E+00  0.224100846140E+00 -0.497139577188E-01
  0.246244240113E+00  0.000000000000E+00 -0.492298395207E-01
  0.246245557063E+00  0.224100846140E+00 -0.492210622761E-01
  0.180781429443E+00  0.000000000000E+00 -0.465688090301E-01
  0.180783288183E+00  0.224100846140E+00 -0.465599983154E-01
  0.126576178843E+00  0.000000000000E+00 -0.421057354203E-01
  0.126578739043E+00  0.224100846140E+00 -0.420968889355E-01
  0.832612851349E-01  0.000000000000E+00 -0.362748625092E-01
  0.832648581038E-01  0.224100846140E+00 -0.362660983415E-01
  0.497506701370E-01  0.000000000000E+00 -0.294034939028E-01
  0.497559406533E-01  0.224100846140E+00 -0.293951643265E-01
  0.247441754083E-01  0.000000000000E+00 -0.215405725473E-01
  0.247530471988E-01  0.224100846140E+00 -0.215339686793E-01
  0.743033546470E-02  0.000000000000E+00 -0.121379064882E-01
  0.744863005279E-02  0.224100846140E+00 -0.121413054605E-01
  0.189063492641E-03  0.000000000000E+00  0.000000000000E+00
  0.184137002823E-03  0.224100846140E+00  0.000000000000E+00
  0.744863005279E-02  0.224100846140E+00  0.121413054605E-01
  0.743033546470E-02  0.000000000000E+00  0.121379064882E-01
  0.247530471988E-01  0.224100846140E+00  0.215339686793E-01
  0.247441754083E-01  0.000000000000E+00  0.215405725473E-01
  0.497559406533E-01  0.224100846140E+00  0.293951643265E-01
  0.497506701370E-01  0.000000000000E+00  0.294034939028E-01
  0.832648581038E-01  0.224100846140E+00  0.362660983415E-01
  0.832612851349E-01  0.000000000000E+00  0.362748625092E-01
  0.126578739043E+00  0.224100846140E+00  0.420968889355E-01
  0.126576178843E+00  0.000000000000E+00  0.421057354203E-01
  0.180783288183E+00  0.224100846140E+00  0.465599983154E-01
  0.180781429443E+00  0.000000000000E+00  0.465688090301E-01
  0.246245557063E+00  0.224100846140E+00  0.492210622761E-01
  0.246244240113E+00  0.000000000000E+00  0.492298395207E-01
  0.322146527515E+00  0.224100846140E+00  0.497139577188E-01
  0.322145668850E+00  0.000000000000E+00  0.497227917347E-01
  0.406190217152E+00  0.224100846140E+00  0.479240966866E-01
  0.406189761582E+00  0.000000000000E+00  0.479331201719E-01
  0.494689105000E+00  0.224100846140E+00  0.440817439540E-01
  0.494690967999E+00  0.000000000000E+00  0.441175291590E-01
  0.583110988044E+00  0.000000000000E+00  0.387224850620E-01
  0.583109942012E+00  0.224100846140E+00  0.387135318661E-01
  0.666949956616E+00  0.000000000000E+00  0.325320146259E-01
  0.666948927230E+00  0.224100846140E+00  0.325232428012E-01
  0.742593187624E+00  0.000000000000E+00  0.261789817002E-01
  0.742592159650E+00  0.224100846140E+00  0.261702352093E-01
  0.807843952573E+00  0.000000000000E+00  0.201796865862E-01
  0.807842906849E+00  0.224100846140E+00  0.201708420759E-01
  0.861982933556E+00  0.000000000000E+00  0.148532940301E-01
  0.861981863948E+00  0.224100846140E+00  0.148442917158E-01
  0.905471219395E+00  0.000000000000E+00  0.103485945556E-01
  0.905470123428E+00  0.224100846140E+00  0.103394321844E-01
  0.939504183881E+00  0.000000000000E+00  0.667938063587E-02
  0.939503065511E+00  0.224100846140E+00  0.667008738850E-02
  0.965597760228E+00  0.000000000000E+00  0.377736035652E-02
  0.965596626100E+00  0.224100846140E+00  0.376797347319E-02
  0.985291895567E+00  0.000000000000E+00  0.153460606476E-02
  0.985290751007E+00  0.224100846140E+00  0.152515808165E-02
  0.985288675393E+00  0.474396230640E+00 -0.150711247536E-02
  0.999799351377E+00  0.474396230640E+00 -0.115639882531E-04
  0.965594594295E+00  0.474396230640E+00 -0.374993955848E-02
  0.939501090788E+00  0.474396230640E+00 -0.665207460928E-02
  0.905468221253E+00  0.474396230640E+00 -0.103214543907E-01
  0.861980052018E+00  0.474396230640E+00 -0.148263664592E-01
  0.807841206194E+00  0.474396230640E+00 -0.201529870344E-01
  0.742590594999E+00  0.474396230640E+00 -0.261524614285E-01
  0.666947529974E+00  0.474396230640E+00 -0.325055463439E-01
  0.583108755145E+00  0.474396230640E+00 -0.386958885914E-01
  0.494688164537E+00  0.474396230640E+00 -0.440636791683E-01
  0.406189645340E+00  0.474396230640E+00 -0.479064227721E-01
  0.322146397004E+00  0.474396230640E+00 -0.496962066442E-01
  0.246245978613E+00  0.474396230640E+00 -0.492032247117E-01
  0.180784390076E+00  0.474396230640E+00 -0.465420963124E-01
  0.126580682467E+00  0.474396230640E+00 -0.420789774233E-01
  0.832678833743E-01  0.474396230640E+00 -0.362482750833E-01
  0.497604862472E-01  0.474396230640E+00 -0.293776229626E-01
  0.247601349368E-01  0.474396230640E+00 -0.215172618110E-01
  0.746121295202E-02  0.474396230640E+00 -0.121282040079E-01
  0.201798827982E-03  0.474396230640E+00  0.000000000000E+00
  0.746121295202E-02  0.474396230640E+00  0.121282040079E-01
  0.247601349368E-01  0.474396230640E+00  0.215172618110E-01
  0.497604862472E-01  0.474396230640E+00  0.293776229626E-01
  0.832678833743E-01  0.474396230640E+00  0.362482750833E-01
  0.126580682467E+00  0.474396230640E+00  0.420789774233E-01
  0.180784390076E+00  0.474396230640E+00  0.465420963124E-01
  0.246245978613E+00  0.474396230640E+00  0.492032247117E-01
  0.322146397004E+00  0.474396230640E+00  0.496962066442E-01
  0.406189645340E+00  0.474396230640E+00  0.479064227721E-01
  0.494688164537E+00  0.474396230640E+00  0.440636791683E-01
  0.583108755145E+00  0.474396230640E+00  0.386958885914E-01
  0.666947529974E+00  0.474396230640E+00  0.325055463439E-01
  0.742590594999E+00  0.474396230640E+00  0.261524614285E-01
  0.807841206194E+00  0.474396230640E+00  0.201529870344E-01
  0.861980052018E+00  0.474396230640E+00  0.148263664592E-01
  0.905468221253E+00  0.474396230640E+00  0.103214543907E-01
  0.939501090788E+00  0.474396230640E+00  0.665207460928E-02
  0.965594594295E+00  0.474396230640E+00  0.374993955848E-02
  0.985288675393E+00  0.474396230640E+00  0.150711247536E-02
  0.985286910774E+00  0.748095716550E+00 -0.149177069178E-02
  0.999784851965E+00  0.748095716550E+00 -0.123996333094E-04
  0.965592866657E+00  0.748095716550E+00 -0.373460536326E-02
  0.939499411265E+00  0.748095716550E+00 -0.663675454224E-02
  0.905466602807E+00  0.748095716550E+00 -0.103061581658E-01
  0.861978509506E+00  0.748095716550E+00 -0.148111065375E-01
  0.807839757388E+00  0.748095716550E+00 -0.201377761452E-01
  0.742589261000E+00  0.748095716550E+00 -0.261373077578E-01
  0.666946337808E+00  0.748095716550E+00 -0.324904473802E-01
  0.583107741952E+00  0.748095716550E+00 -0.386808270584E-01
  0.494687340091E+00  0.748095716550E+00 -0.440478428956E-01
  0.406189157201E+00  0.748095716550E+00 -0.478913350841E-01
  0.322146285649E+00  0.748095716550E+00 -0.496810610825E-01
  0.246246338020E+00  0.748095716550E+00 -0.491880166635E-01
  0.180785328790E+00  0.748095716550E+00 -0.465268454202E-01
  0.126582336919E+00  0.748095716550E+00 -0.420637292068E-01
  0.832704573944E-01  0.748095716550E+00 -0.362331103487E-01
  0.497643523229E-01  0.748095716550E+00 -0.293627038468E-01
  0.247661616167E-01  0.748095716550E+00 -0.215030560167E-01
  0.747191046138E-02  0.748095716550E+00 -0.121170656439E-01
  0.216395827701E-03  0.748095716550E+00  0.000000000000E+00
  0.747191046138E-02  0.748095716550E+00  0.121170656439E-01
  0.247661616167E-01  0.748095716550E+00  0.215030560167E-01
  0.497643523229E-01  0.748095716550E+00  0.293627038468E-01
  0.832704573944E-01  0.748095716550E+00  0.362331103487E-01
  0.126582336919E+00  0.748095716550E+00  0.420637292068E-01
  0.180785328790E+00  0.748095716550E+00  0.465268454202E-01
  0.246246338020E+00  0.748095716550E+00  0.491880166635E-01
  0.322146285649E+00  0.748095716550E+00  0.496810610825E-01
  0.406189157201E+00  0.748095716550E+00  0.478913350841E-01
  0.494687340091E+00  0.748095716550E+00  0.440478428956E-01
  0.583107741952E+00  0.748095716550E+00  0.386808270584E-01
  0.666946337808E+00  0.748095716550E+00  0.324904473802E-01
  0.742589261000E+00  0.748095716550E+00  0.261373077578E-01
  0.807839757388E+00  0.748095716550E+00  0.201377761452E-01
  0.861978509506E+00  0.748095716550E+00  0.148111065375E-01
  0.905466602807E+00  0.748095716550E+00  0.103061581658E-01
  0.939499411265E+00  0.748095716550E+00  0.663675454224E-02
  0.965592866657E+00  0.748095716550E+00  0.373460536326E-02
  0.985286910774E+00  0.748095716550E+00  0.149177069178E-02
  0.985285605615E+00  0.104054975430E+01 -0.148042350914E-02
[...]
POINT_DATA                4031
SCALARS phi float 1
LOOKUP_TABLE default
  0.186829718363E-13
 -0.603544991762E-13
  0.698052726733E-14
 -0.265273913946E-13
  0.134649236205E-13
 -0.604169492213E-13
 -0.834748936640E-14
  0.233944807970E-13
  0.248620568577E-13
  0.303403135948E-13
  0.226485497024E-13
 -0.702077285197E-13
 -0.460916027567E-13
 -0.100440489259E-13
  0.406549793830E-13
 -0.461748694836E-13
 -0.308780778724E-14
  0.298719382563E-14
  0.157335949824E-12
 -0.101012948006E-13
 -0.530252924902E-13
 -0.251821133390E-13
 -0.132142560783E-14
  0.109929209832E-12
  0.223033397306E-13
  0.260052396284E-13
  0.677374822899E-13
  0.318564619128E-13
  0.229399832463E-13
  0.776913255951E-13
  0.382749387740E-13
 -0.322658566532E-13
 -0.661415366920E-13
  0.492869633995E-13
  0.145342071711E-12
 -0.189848137211E-13
 -0.724420523568E-14
 -0.184574577844E-14
  0.176525460915E-13
 -0.162370117351E-14
  0.695971058562E-14
 -0.484959294944E-13
 -0.472955008490E-13
 -0.343405859304E-13
  0.327168847569E-13
 -0.430835922494E-13
 -0.382055498349E-13
 -0.558372792447E-13
 -0.535127497869E-13
 -0.832597879530E-13
 -0.149099482760E-12
 -0.484959294944E-13
 -0.220934381900E-13
  0.565450464229E-13
  0.452207715718E-13
  0.541545974730E-13
 -0.407380292694E-13
  0.505121118544E-13
 -0.580481843149E-13
 -0.104846686888E-13
 -0.552023704525E-13
 -0.760849716563E-14
  0.177496906062E-13
 -0.778405118140E-13
  0.617839113204E-13
 -0.630086260944E-13
  0.222218077273E-13
 -0.236026476141E-13
  0.117059140159E-13
 -0.375741104897E-14
  0.411476408502E-14
  0.618047280021E-13
  0.613953332618E-13
  0.535682609382E-14
  0.222946661133E-13
 -0.369773656139E-13
 -0.305588887528E-13
  0.726849136434E-14
 -0.646496745027E-13
 -0.347812056933E-13
 -0.589285564789E-13
 -0.763278329430E-16
 -0.332546490345E-13
 -0.411198852746E-13
 -0.544703171457E-15
  0.500988139862E-14
  0.209728068246E-13
 -0.231620278512E-13
 -0.863892291036E-15
  0.795891130778E-14
  0.110042183699E-13
  0.230486203040E-13
  0.104933423062E-13
  0.519237430829E-13
  0.119279586208E-13
  0.972832925328E-13
 -0.156055723899E-13
  0.485791962213E-13
 -0.444089209850E-15
 -0.220934381900E-13
  0.416333634234E-16
 -0.452207715718E-13
  0.722338855397E-14
 -0.320368731543E-13
 -0.556360513215E-13
 -0.224126273096E-13
  0.365818486614E-13
  0.889063128673E-13
  0.120892662200E-12
  0.684305043186E-13
  0.793323740034E-13
  0.503035113564E-13
  0.827185542285E-13
  0.763625274125E-13
  0.419698997778E-13
  0.387814780289E-13
 -0.259930965640E-13
 -0.459909887951E-13
  0.148492329544E-14
  0.594663207565E-14
  0.516704734554E-13
  0.189397109107E-13
 -0.153800583380E-13
 -0.467785532532E-13
 -0.589805981832E-16
  0.150573997715E-13
 -0.248273623882E-13
 -0.656072418614E-14
  0.260520771622E-13
 -0.119886739425E-13
 -0.443135111938E-14
  0.284407913886E-13
 -0.204124911418E-13
  0.314331893847E-13
  0.182180659447E-13
  0.883321193967E-14
  0.112590492485E-12
  0.265065747129E-13
  0.505151476204E-13
  0.105748743096E-13
  0.402802791122E-13
  0.465183447318E-13
  0.734759475485E-13
  0.656558141188E-13
  0.364222541016E-13
  0.336189409644E-14
  0.153627111033E-13
  0.876416994533E-13
  0.128334192231E-12
  0.926593871076E-13
  0.823681400863E-13
  0.640459907331E-13
  0.772784614078E-13
  0.952293799372E-13
  0.278770062589E-13
  0.536515276650E-13
  0.119140808330E-13
  0.334871019803E-13
  0.277902700851E-13
  0.185025605948E-13
  0.535162192339E-13
 -0.290878432452E-13
  0.235089725464E-13
 -0.247371567674E-14
 -0.121187782032E-13
 -0.355201978941E-13
  0.223952800749E-13
 -0.175692793647E-13
 -0.121083698623E-14
  0.252541043633E-13
 -0.930245463993E-14
  0.615844181207E-13
  0.399073135648E-13
  0.858341175913E-14
  0.241300035508E-13
  0.277763922973E-13
 -0.241265341039E-13
  0.303992941930E-13
  0.148214773787E-13
  0.642472186563E-13
  0.481489847992E-13
 -0.178468351208E-13
  0.575928194024E-13
  0.575997582963E-13
  0.108697773005E-12
 -0.170211067463E-13
  0.351246809416E-13
  0.853483950181E-15
  0.670845757417E-13
  0.791840551462E-13
  0.316378867549E-13
  0.803315747255E-13
  0.636157793110E-13
  0.666341981592E-13
  0.256634991036E-13
  0.322242232897E-13
 -0.129722621534E-13
  0.320923843056E-14
 -0.356381590905E-13
  0.961730695082E-14
 -0.627622953608E-14
 -0.122193921648E-13
 -0.337993522059E-13
  0.173992764640E-13
  0.322103455019E-13
  0.910035935497E-14
 -0.184990911478E-13
  0.432986979604E-14
 -0.477291817180E-13
 -0.512784259499E-14
  0.329831648105E-13
 -0.724680732089E-15
 -0.151718915209E-13
  0.937791511113E-14
  0.536168331955E-13
  0.195121696578E-13
  0.101585406753E-13
  0.473163175307E-13
  0.189917526150E-13
  0.265967803337E-13
  0.520347653854E-13
  0.773131558773E-13
  0.539776556785E-13
  0.364916430406E-13
  0.462130334000E-14
  0.223605856053E-13
  0.144061845786E-12
  0.531276411753E-13
  0.459435007399E-13
  0.548467521400E-13
  0.872930200346E-13
  0.782741926830E-13
  0.897094898367E-13
  0.103458908107E-13
  0.424313362224E-14
 -0.405786515500E-13
  0.435242120123E-13
 -0.275821032680E-13
  0.674113542765E-14
  0.203378980324E-13
 -0.823820178741E-13
  0.914893161230E-14
  0.347812056933E-13
 -0.241924535960E-13
  0.419803081186E-15
  0.104569131132E-13
  0.611732886568E-13
  0.289906987305E-13
  0.920097331658E-14
  0.938485400503E-14
  0.121317886292E-13
  0.241206794122E-13
  0.146410661372E-14
  0.570446467840E-13
  0.100641717182E-12
  0.527147769880E-13
  0.526870214124E-13
  0.626443341645E-13
  0.897198981775E-14
  0.600630656322E-13
 -0.321825899263E-13
  0.315927839445E-13
 -0.371924713249E-13
  0.609443051580E-13
  0.201713645787E-13
  0.777294895116E-13
  0.625888230132E-13
  0.113985210159E-12
  0.634845908482E-13
  0.379713621657E-13
  0.747631123676E-13
  0.400894595298E-13
  0.332581184814E-13
  0.717134684969E-13
  0.132498179095E-13
  0.171945790939E-13
  0.416056078478E-13
  0.197515614975E-13
 -0.378967690562E-13
  0.824340595784E-14
  0.151267887105E-13
  0.243277620271E-13
 -0.323074900166E-13
  0.203032035628E-13
  0.628316842999E-14
 -0.219858853345E-13
 -0.492314522482E-14
  0.300592883917E-13
 -0.712624403931E-14
  0.254865573091E-13
 -0.410435574416E-14
  0.444577100828E-13
  0.614369666252E-13
 -0.893347895659E-13
 -0.782013342970E-14
  0.257155408079E-13
  0.874994521283E-13
 -0.160149671302E-13
  0.325364735154E-13
 -0.638378239159E-15
  0.285882428841E-13
 -0.656419363310E-14
  0.439301373056E-13
  0.180550019380E-13
 -0.107552855511E-14
  0.373832909073E-13
  0.905941988094E-13
  0.550809398092E-13
  0.509332159782E-13
  0.968634894516E-13
  0.632896512975E-13
  0.697532309690E-13
  0.931060784026E-13
  0.432466562561E-13
  0.233216224110E-13
  0.466571226099E-13
  0.127883814649E-13
  0.157721058436E-13
 -0.187384829875E-13
 -0.446968850820E-13
  0.248516485168E-13
 -0.756339435526E-15
  0.856953397133E-15
 -0.578009862195E-14
 -0.219685380998E-13
  0.308780778724E-15
 -0.299933688996E-13
 -0.254518628395E-13
  0.775768338457E-14
  0.566560687254E-14
  0.273583239396E-13
 -0.117078655798E-13
  0.637684349769E-13
 -0.208930095447E-13
  0.445234127344E-13
 -0.260069743518E-13
  0.845434833252E-13
  0.646635522905E-13
 -0.471844785466E-15
  0.391769949815E-13
 -0.773686670286E-14
  0.109072473276E-12
  0.746555595121E-13
  0.742947370291E-13
  0.366234820248E-13
  0.432501257031E-13
  0.488983853408E-13
  0.818078244036E-13
  0.597343355335E-13
  0.448903067496E-13
  0.755836365718E-13
  0.235263197812E-13
  0.175380543421E-13
  0.940567068675E-14
 -0.301599023533E-13
 -0.296221380758E-13
 -0.432986979604E-14
  0.245185816095E-13
  0.705685510027E-14
 -0.235575448038E-13
  0.183429660350E-13
  0.757033324916E-14
  0.368420571828E-13
  0.530131494259E-14
  0.353883589099E-15
  0.313984949152E-14
  0.448287240662E-13
  0.102799713186E-13
  0.251500209547E-13
 -0.578530279238E-14
  0.628282148529E-13
  0.153646626672E-13
  0.126114396704E-13
  0.325330040685E-13
  0.274467948369E-13
  0.188321580552E-13
 -0.613259443227E-13
  0.336536354340E-13
  0.310793057956E-13
  0.657182641639E-13
  0.767094721077E-13
  0.404815070354E-13
  0.119446119662E-12
  0.988167880855E-13
  0.376434994287E-13
 -0.283800760670E-13
  0.161641533492E-13
  0.105890990421E-12
  0.917271900797E-13
  0.506573949455E-13
  0.681260603486E-13
  0.714220349529E-13
  0.278978229407E-13
 -0.299066327258E-13
  0.365645014266E-13
 -0.259237076250E-13
 -0.181590853465E-13
  0.151614831800E-13
  0.316066617323E-14
  0.224681384609E-13
  0.485375628578E-14
  0.102556851900E-13
  0.151129109227E-13
 -0.321270787751E-14
  0.167851843536E-13
  0.164035451888E-13
 -0.430801228024E-13
  0.108142661492E-13
 -0.435554370348E-13
 -0.664399091299E-15
 -0.127684321449E-13
  0.210081518154E-13
  0.481767403748E-13
  0.312666559310E-13
  0.814626144319E-14
 -0.257294185957E-13
  0.476771400137E-13
  0.409533518209E-13
  0.280123146901E-13
  0.670158373239E-13
  0.562119795156E-13
  0.534225441662E-13
  0.660513310713E-13
  0.599242877541E-13
  0.111993747609E-13
 -0.145855549860E-13
  0.228150831560E-13
  0.817870077219E-13
  0.917115775684E-13
  0.395031229949E-13
  0.688112761216E-13
  0.261839161464E-13
  0.690419943439E-15
  0.339069050614E-13
  0.265065747129E-13
  0.415119327801E-13
  0.156819002228E-13
 -0.219962936754E-14
  0.236199948489E-13
  0.468305949575E-13
 -0.141553435640E-14
  0.221732354699E-13
  0.299760216649E-13
 -0.173402958659E-13
  0.235401975690E-13
 -0.107552855511E-15
 -0.161017033040E-13
  0.958261248130E-14
  0.188772608656E-13
 -0.495593149852E-13
  0.311469600112E-14
 -0.254774500108E-13
 -0.232504987485E-13
 -0.193109417346E-13
  0.145543299634E-13
  0.735522753814E-14
  0.216493489802E-13
  0.284980372633E-13
 -0.911076769583E-14
  0.228289609439E-14
 -0.294209101526E-14
  0.223640550523E-13
  0.398986399475E-13
  0.492730856116E-13
  0.613051276410E-13
  0.420323498229E-13
 -0.396870036834E-13
  0.309526709819E-13
  0.192201940127E-13
  0.459389470908E-13
  0.315025783237E-13
  0.510598507919E-13
  0.188807303125E-13
  0.141830991396E-13
  0.370918573633E-13
  0.162578284169E-13
  0.336050631766E-13
  0.780417397372E-13
  0.102869102125E-13
 -0.165839564303E-14
  0.179231629538E-13
 -0.675154376850E-14
 -0.298719382563E-13
  0.134753319614E-13
 -0.394892452071E-13
  0.111750886322E-13
  0.938485400503E-14
 -0.497692165258E-13
 -0.208895400977E-13
 -0.112462122948E-13
  0.512870995673E-14
 -0.359339294431E-13
 -0.406324279778E-13
 -0.247753206839E-13
  0.196370697481E-14
  0.791033905045E-14
  0.589042703503E-13
 -0.894423424214E-14
 -0.697358837343E-14
  0.113936637902E-13
  0.176456071976E-13
  0.511257702840E-13
  0.477604067406E-13
  0.143149381238E-13
  0.330152571948E-13
  0.564721880369E-13
  0.384067777581E-14
  0.443742265155E-13
  0.272881760591E-13
  0.389558177383E-13
  0.239044894990E-13
  0.425909307822E-13
  0.438503400257E-13
  0.339589467657E-13
  0.304617442382E-13
  0.205946371068E-13
  0.480518402846E-14
  0.170974345792E-13
  0.173680514415E-13
  0.587793702600E-13
 -0.293584601074E-13
 -0.148561718483E-13
  0.549352230372E-13
 -0.921138165744E-14
  0.475453010296E-13
  0.124449062167E-13
  0.240189812484E-13
 -0.145022882592E-14
 -0.385767806588E-13
  0.387016807490E-14
  0.548779771625E-14
 -0.130227859746E-13
 -0.681052436668E-14
 -0.141622824579E-13
  0.940220123979E-15
 -0.110952913523E-13
 -0.175554015769E-13
  0.491273688397E-13
 -0.398014954328E-13
 -0.537070388162E-14
  0.292127433354E-14
  0.511257702840E-13
  0.310446113261E-13
  0.396696564486E-13
  0.890537643627E-13
  0.276861866766E-13
  0.489851215146E-13
  0.298684688094E-13
  0.495728675123E-13
  0.381795289828E-13
  0.674287015112E-14
  0.306976666309E-13
  0.542586808816E-13
 -0.703603841856E-14
  0.946465128493E-14
  0.320403426013E-13
  0.341393580072E-14
 -0.111195774810E-13
  0.890607032566E-14
  0.827116153346E-14
  0.868263794196E-13
  0.200534033823E-14
 -0.177774461818E-13
 -0.237934671965E-13
  0.346979389665E-13
  0.992608772954E-14
 -0.631439345256E-14
 -0.550080814232E-13
 -0.354959117654E-13
 -0.102452768491E-13
  0.262428967446E-13
  0.155669747925E-14
 -0.119921433894E-13
  0.114699916232E-13
 -0.144641243427E-13
 -0.301633718003E-13
  0.271310751643E-14
 -0.107552855511E-13
 -0.985322934355E-14
  0.459632332195E-13
  0.305311331772E-15
  0.443464709399E-13
  0.122610255282E-13
  0.678068712290E-13
  0.419976553534E-13
  0.506018837942E-13
  0.588695758807E-13
  0.534156052723E-13
  0.246144250815E-13
  0.617769724265E-13
  0.549456313781E-13
  0.202407535177E-13
  0.265169830538E-13
  0.169100844438E-13
  0.134892097492E-13
  0.613918638148E-13
  0.407833489202E-13
 -0.245671538668E-13
  0.328070903777E-13
  0.396384314261E-13
 -0.117128529098E-13
 -0.132185928869E-13
  0.323734095087E-13
  0.232973362824E-13
 -0.204870842513E-13
 -0.878463968235E-14
  0.779862285860E-13
  0.192935944998E-13
  0.508967867852E-14
  0.600561267383E-14
 -0.390659726790E-14
  0.648916684276E-14
 -0.357734675216E-13
 -0.284147705365E-13
  0.299413271954E-14
 -0.792768628521E-14
  0.450334214364E-14
 -0.131908373113E-13
  0.125663368600E-13
  0.465114058379E-13
  0.288935542159E-13
  0.250285903114E-13
  0.463309945964E-13
 -0.249800180541E-14
  0.400512956134E-13
  0.323699400617E-14
  0.484022544267E-13
  0.381170789376E-13
  0.486954769043E-13
  0.696378718579E-13
  0.634561847512E-13
  0.616798279118E-13
  0.355965257270E-13
  0.254692100743E-13
  0.304617442382E-14
  0.209554595898E-14
 -0.895117313604E-15
  0.503416752728E-14
  0.965200142033E-14
  0.100752739485E-13
  0.253061460675E-13
  0.776809172542E-14
 -0.550601231275E-14
 -0.729624693996E-14
 -0.114977471988E-13
  0.167019176267E-13
 -0.129410371308E-13
  0.380667719568E-13
  0.729624693996E-14
  0.360284718726E-13
 -0.899280649946E-14
  0.498754683387E-14
 -0.700134394904E-14
 -0.168302871639E-13
 -0.119487753025E-13
 -0.637684349769E-14
  0.183186799063E-14
  0.179994907867E-13
  0.387676002411E-13
  0.793809462607E-14
  0.475661177113E-13
  0.435623759287E-13
  0.471012118197E-13
  0.357144869234E-13
  0.335634298132E-13
  0.601220462304E-13
  0.561269780652E-13
  0.543662337371E-13
  0.589782942536E-13
  0.488428741896E-13
  0.570377078901E-13
  0.364881735937E-13
  0.230163110793E-13
  0.250285903114E-13
  0.175900960464E-13
  0.119695919842E-14
  0.292196822294E-13
  0.511743425413E-14
  0.149914802794E-13
  0.154772028527E-13
 -0.147104550763E-13
  0.139506461938E-13
  0.160392532589E-13
  0.294902990916E-14
  0.210075012941E-13
  0.152135248843E-13
  0.106789577181E-13
  0.766747776382E-15
 -0.154824070231E-13
  0.298372437868E-14
  0.302804656349E-13
  0.290030586353E-13
 -0.103805852802E-13
 -0.217863921348E-13
  0.146896383946E-13
 -0.638725183855E-14
  0.268327027264E-13
  0.411476408502E-14
  0.520278264915E-13
  0.382541220922E-13
  0.549282841433E-13
  0.504318808936E-13
  0.627969898304E-13
  0.677166656082E-13
  0.705616121088E-13
  0.531207022814E-13
  0.616399292719E-13
  0.484248058319E-13
  0.207922329527E-13
  0.197480920505E-13
  0.418103052180E-13
  0.256253351871E-13
  0.955832635263E-14
  0.253234933023E-13
  0.210005624002E-13
  0.338097605468E-13
  0.337750660773E-13
  0.267147415300E-15
  0.487457296749E-13
  0.493285967629E-13
 -0.593969318174E-14
  0.241785758082E-13
 -0.953404022397E-14
  0.335564909193E-13
  0.781666398275E-14
  0.199111560573E-13
  0.213058737319E-13
 -0.209901540593E-13
 -0.595704041650E-14
  0.124796006862E-13
 -0.294113691734E-13
 -0.762953068778E-15
 -0.109278905369E-13
  0.141362616057E-13
  0.290323320939E-13
  0.116087695012E-13
  0.279221090693E-13
  0.750788320403E-14
  0.242930675576E-13
  0.302258218454E-13
  0.366928709639E-13
  0.623320839388E-13
  0.758282325819E-13
  0.412309075770E-13
  0.778613284957E-13
  0.611871664447E-13
  0.438347275145E-13
  0.241187278482E-13
  0.320543288093E-13
  0.465157426466E-13
  0.226051816155E-13
  0.274329170491E-13
  0.458869053865E-13
  0.229850860567E-13
  0.247857290248E-13
  0.137563571645E-13
  0.843422554020E-14
  0.798666688340E-14
  0.242791897698E-13
  0.710195791065E-14
 -0.173645819945E-14
 -0.861637150518E-14
  0.157339419271E-13
  0.174131542519E-13
  0.832320323774E-14
  0.391353616180E-14
 -0.225444662938E-13
 -0.242861286637E-14
 -0.291572321842E-13
 -0.636990460379E-14
  0.311903280981E-14
 -0.154743839270E-13
  0.128213412109E-13
 -0.172258041164E-14
 -0.712277459236E-14
  0.888525364395E-14
  0.121361254379E-13
  0.187454218814E-13
  0.941954847455E-14
  0.326023930075E-13
  0.433403313238E-13
  0.330881155808E-13
  0.749747486317E-13
  0.746347428304E-13
  0.637268016135E-13
  0.730734917020E-13
  0.341202760490E-13
  0.494890586844E-13
  0.215855978924E-13
  0.498871777221E-13
  0.574713887591E-13
  0.857994231218E-14
  0.299447966423E-13
  0.224958940365E-13
  0.268257638325E-13
  0.135065569840E-13
  0.218020046461E-13
  0.113832554494E-13
  0.284390566652E-13
  0.443568792807E-14
  0.111056996932E-13
  0.605591965464E-14
  0.121881671422E-13
  0.842381719934E-14
 -0.208999484386E-13
  0.135655375821E-14
 -0.140339129207E-13
 -0.794156407302E-14
 -0.918536080530E-14
  0.163107374829E-13
 -0.223306074153E-13
 -0.221350715535E-14
  0.635255736903E-14
  0.228705943073E-13
 -0.161780311370E-13
  0.813932254928E-14
  0.229816166097E-13
  0.198799310347E-14
  0.333379157613E-13
  0.551815537708E-13
  0.522151766269E-13
  0.449952575199E-13
  0.620788143113E-13
  0.565780061690E-13
  0.374457409524E-13
  0.573933262027E-14
  0.321945703603E-13
  0.290401383496E-13
  0.181625547935E-13
  0.360336760430E-13
  0.321964677141E-13
  0.255316601194E-13
  0.101724184631E-13
  0.128196064875E-13
  0.287408985500E-13
  0.187107274119E-13
  0.258612575799E-13
  0.692675083958E-14
  0.588244730704E-14
  0.248533832403E-13
  0.155465917917E-13
  0.936750677027E-16
 -0.135377820065E-13
  0.170349845341E-14
  0.149255607873E-13
 -0.853657422528E-14
 -0.390781157433E-13
  0.133391561685E-13
 -0.165187145646E-13
 -0.153783236145E-13
 -0.825901846913E-14
 -0.398292510084E-14
  0.168164093761E-13
  0.302396996332E-13
  0.361655150272E-13
  0.296568325453E-13
  0.615132944581E-14
  0.556707457910E-13
  0.520174181506E-13
  0.458903748335E-13
  0.684209633395E-13
  0.421399026784E-13
  0.693039375887E-13
  0.218072088165E-13
  0.144118192112E-13
  0.312536455049E-13
  0.204315731001E-13
  0.223501772645E-13
  0.117822418488E-13
  0.382471831983E-13
  0.277763922973E-13
  0.218644546912E-13
  0.164243618705E-13
 -0.624153506656E-14
 -0.402455846427E-15
  0.773339725590E-14
  0.119938781129E-13
 -0.320750370708E-14
 -0.346944695195E-14
  0.546784839628E-14
 -0.153939361258E-13
 -0.194809446352E-13
 -0.145734119217E-13
 -0.115896875430E-13
  0.351454976233E-14
 -0.202182021125E-14
  0.241148247204E-14
  0.678797296150E-14
  0.323057552931E-13
  0.126756244390E-13
  0.166186508999E-13
  0.576969028110E-14
  0.140512601554E-14
  0.330360738765E-13
  0.122089838239E-13
  0.109426356865E-13
  0.551017564909E-13
  0.489747131738E-13
  0.535162192339E-13
  0.489192020225E-13
  0.391162796598E-13
  0.155127646839E-13
  0.592649844131E-13
  0.286489582058E-14
  0.166099772825E-13
  0.541962308365E-13
  0.363944985260E-14
  0.183880688454E-13
  0.173090708433E-13
 -0.304617442382E-14
  0.978384040451E-14
  0.746971928756E-14
 -0.444089209850E-15
 -0.638551711507E-14
  0.477048955894E-14
  0.106633452068E-13
  0.114977471988E-13
  0.174964209787E-13
 -0.445476988631E-14
 -0.127710342301E-13
 -0.685215773011E-15
 -0.139471767469E-14
  0.417547940668E-14
 -0.200360561475E-13
  0.325184757594E-14
  0.163072680359E-13
  0.186430731963E-13
  0.297557117834E-13
  0.357144869234E-13
  0.322068760550E-13
  0.132394095687E-13
  0.170662095567E-13
  0.512367925865E-13
  0.315580894750E-13
  0.530409050015E-13
  0.317697257390E-13
  0.495679886026E-13
  0.543922545893E-13
  0.450056658607E-13
  0.333526609109E-13
  0.226338045528E-13
 -0.681833062233E-14
  0.301286773308E-13
 -0.172258041164E-14
  0.133903305111E-13
  0.127849120179E-13
  0.297956104234E-13
  0.269471944758E-13