# vtk DataFile Version 3.0
MachLine results file. Generated by MachLine, USU AeroLab (c) 2022.
ASCII
DATASET POLYDATA
POINTS                  40 float
  0.100000000000E+01  0.000000000000E+00  0.000000000000E+00
  0.198118811881E+02  0.000000000000E+00  0.188118811881E+01
  0.100000000000E+01  0.224100846140E+00  0.000000000000E+00
  0.198118811881E+02  0.224100846140E+00  0.188118811881E+01
  0.100000000000E+01  0.474396230640E+00  0.000000000000E+00
  0.198118811881E+02  0.474396230640E+00  0.188118811881E+01
  0.100000000000E+01  0.748095716550E+00  0.000000000000E+00
  0.198118811881E+02  0.748095716550E+00  0.188118811881E+01
  0.100000000000E+01  0.104054975430E+01  0.000000000000E+00
  0.198118811881E+02  0.104054975430E+01  0.188118811881E+01
  0.100000000000E+01  0.134542656080E+01  0.000000000000E+00
  0.198118811881E+02  0.134542656080E+01  0.188118811881E+01
  0.100000000000E+01  0.165518621560E+01  0.000000000000E+00
  0.198118811881E+02  0.165518621560E+01  0.188118811881E+01
  0.100000000000E+01  0.196179351870E+01  0.000000000000E+00
  0.198118811881E+02  0.196179351870E+01  0.188118811881E+01
  0.100000000000E+01  0.225753433710E+01  0.000000000000E+00
  0.198118811881E+02  0.225753433710E+01  0.188118811881E+01
  0.100000000000E+01  0.253576450510E+01  0.000000000000E+00
  0.198118811881E+02  0.253576450510E+01  0.188118811881E+01
  0.100000000000E+01  0.279144373280E+01  0.000000000000E+00
  0.198118811881E+02  0.279144373280E+01  0.188118811881E+01
  0.100000000000E+01  0.302137760410E+01  0.000000000000E+00
  0.198118811881E+02  0.302137760410E+01  0.188118811881E+01
  0.100000000000E+01  0.322417505490E+01  0.000000000000E+00
  0.198118811881E+02  0.322417505490E+01  0.188118811881E+01
  0.100000000000E+01  0.339999274540E+01  0.000000000000E+00
  0.198118811881E+02  0.339999274540E+01  0.188118811881E+01
  0.100000000000E+01  0.355016448900E+01  0.000000000000E+00
  0.198118811881E+02  0.355016448900E+01  0.188118811881E+01
  0.100000000000E+01  0.367680651800E+01  0.000000000000E+00
  0.198118811881E+02  0.367680651800E+01  0.188118811881E+01
  0.100000000000E+01  0.378246253770E+01  0.000000000000E+00
  0.198118811881E+02  0.378246253770E+01  0.188118811881E+01
  0.100000000000E+01  0.386982167210E+01  0.000000000000E+00
  0.198118811881E+02  0.386982167210E+01  0.188118811881E+01
  0.100000000000E+01  0.394151741400E+01  0.000000000000E+00
  0.198118811881E+02  0.394151741400E+01  0.188118811881E+01
  0.100000000000E+01  0.400000000000E+01  0.000000000000E+00
  0.198118811881E+02  0.400000000000E+01  0.188118811881E+01
POLYGONS                  38                 152
3                   2                   3                   1
3                   2                   1                   0
3                   4                   5                   3
3                   4                   3                   2
3                   6                   7                   5
3                   6                   5                   4
3                   8                   9                   7
3                   8                   7                   6
3                  10                  11                   9
3                  10                   9                   8
3                  12                  13                  11
3                  12                  11                  10
3                  14                  15                  13
3                  14                  13                  12
3                  16                  17                  15
3                  16                  15                  14
3                  18                  19                  17
3                  18                  17                  16
3                  20                  21                  19
3                  20                  19                  18
3                  22                  23                  21
3                  22                  21                  20
3                  24                  25                  23
3                  24                  23                  22
3                  26                  27                  25
3                  26                  25                  24
3                  28                  29                  27
3                  28                  27                  26
3                  30                  31                  29
3                  30                  29                  28
3                  32                  33                  31
3                  32                  31                  30
3                  34                  35                  33
3                  34                  33                  32
3                  36                  37                  35
3                  36                  35                  34
3                  38                  39                  37
3                  38                  37                  36
CELL_DATA                  38
NORMALS normals float
  0.995037190210E-01  0.000000000000E+00 -0.995037190210E+00
  0.995037190210E-01  0.000000000000E+00 -0.995037190210E+00
  0.995037190210E-01  0.000000000000E+00 -0.995037190210E+00
  0.995037190210E-01  0.000000000000E+00 -0.995037190210E+00
  0.995037190210E-01  0.000000000000E+00 -0.995037190210E+00
  0.995037190210E-01  0.000000000000E+00 -0.995037190210E+00
  0.995037190210E-01  0.000000000000E+00 -0.995037190210E+00
  0.995037190210E-01  0.000000000000E+00 -0.995037190210E+00
  0.995037190210E-01  0.000000000000E+00 -0.995037190210E+00
  0.995037190210E-01  0.000000000000E+00 -0.995037190210E+00
  0.995037190210E-01  0.000000000000E+00 -0.995037190210E+00
  0.995037190210E-01  0.000000000000E+00 -0.995037190210E+00
  0.995037190210E-01  0.000000000000E+00 -0.995037190210E+00
  0.995037190210E-01  0.000000000000E+00 -0.995037190210E+00
  0.995037190210E-01  0.000000000000E+00 -0.995037190210E+00
  0.995037190210E-01  0.000000000000E+00 -0.995037190210E+00
  0.995037190210E-01  0.000000000000E+00 -0.995037190210E+00
  0.995037190210E-01  0.000000000000E+00 -0.995037190210E+00
  0.995037190210E-01  0.000000000000E+00 -0.995037190210E+00
  0.995037190210E-01  0.000000000000E+00 -0.995037190210E+00
  0.995037190210E-01  0.000000000000E+00 -0.995037190210E+00
  0.995037190210E-01  0.000000000000E+00 -0.995037190210E+00
  0.995037190210E-01  0.000000000000E+00 -0.995037190210E+00
  0.995037190210E-01  0.000000000000E+00 -0.995037190210E+00
  0.995037190210E-01  0.000000000000E+00 -0.995037190210E+00
  0.995037190210E-01  0.000000000000E+00 -0.995037190210E+00
  0.995037190210E-01  0.000000000000E+00 -0.995037190210E+00
  0.995037190210E-01  0.000000000000E+00 -0.995037190210E+00
  0.995037190210E-01  0.000000000000E+00 -0.995037190210E+00
  0.995037190210E-01  0.000000000000E+00 -0.995037190210E+00
  0.995037190210E-01  0.000000000000E+00 -0.995037190210E+00
  0.995037190210E-01  0.000000000000E+00 -0.995037190210E+00
  0.995037190210E-01  0.000000000000E+00 -0.995037190210E+00
  0.995037190210E-01  0.000000000000E+00 -0.995037190210E+00
  0.995037190210E-01  0.000000000000E+00 -0.995037190210E+00
  0.995037190210E-01  0.000000000000E+00 -0.995037190210E+00
  0.995037190210E-01  0.000000000000E+00 -0.995037190210E+00
  0.995037190210E-01  0.000000000000E+00 -0.995037190210E+00
POINT_DATA                  40
SCALARS mu float 1
LOOKUP_TABLE default
 -0.708543327416E+03
 -0.708543327416E+03
 -0.704746349383E+03
 -0.704746349383E+03
 -0.692112412892E+03
 -0.692112412892E+03
 -0.669402508835E+03
 -0.669402508835E+03
 -0.636102190909E+03
 -0.636102190909E+03
 -0.592614536113E+03
 -0.592614536113E+03
 -0.540311951159E+03
 -0.540311951159E+03
 -0.481412978035E+03
 -0.481412978035E+03
 -0.418697864409E+03
 -0.418697864409E+03
 -0.355130353643E+03
 -0.355130353643E+03
 -0.293476670122E+03
 -0.293476670122E+03
 -0.236008008921E+03
 -0.236008008921E+03
 -0.184332571863E+03
 -0.184332571863E+03
 -0.139361468382E+03
 -0.139361468382E+03
 -0.101379470676E+03
 -0.101379470676E+03
 -0.701785719921E+02
 -0.701785719921E+02
 -0.452115495963E+02
 -0.452115495963E+02
 -0.257356130696E+02
 -0.257356130696E+02
 -0.109280985378E+02
 -0.109280985378E+02
  0.000000000000E+00
  0.000000000000E+00
