# vtk DataFile Version 3.0
MachLine results file. Generated by MachLine, USU AeroLab (c) 2022.
ASCII
DATASET POLYDATA
POINTS                  40 float
  0.100000000000E+01  0.339999274540E+01  0.000000000000E+00
  0.198118811881E+02  0.339999274540E+01  0.188118811881E+01
  0.100000000000E+01  0.322417505490E+01  0.000000000000E+00
  0.198118811881E+02  0.322417505490E+01  0.188118811881E+01
  0.100000000000E+01  0.279144373280E+01  0.000000000000E+00
  0.198118811881E+02  0.279144373280E+01  0.188118811881E+01
  0.100000000000E+01  0.253576450510E+01  0.000000000000E+00
  0.198118811881E+02  0.253576450510E+01  0.188118811881E+01
  0.100000000000E+01  0.224100846140E+00  0.000000000000E+00
  0.198118811881E+02  0.224100846140E+00  0.188118811881E+01
  0.100000000000E+01  0.000000000000E+00  0.000000000000E+00
  0.198118811881E+02  0.000000000000E+00  0.188118811881E+01
  0.100000000000E+01  0.196179351870E+01  0.000000000000E+00
  0.198118811881E+02  0.196179351870E+01  0.188118811881E+01
  0.100000000000E+01  0.165518621560E+01  0.000000000000E+00
  0.198118811881E+02  0.165518621560E+01  0.188118811881E+01
  0.100000000000E+01  0.104054975430E+01  0.000000000000E+00
  0.198118811881E+02  0.104054975430E+01  0.188118811881E+01
  0.100000000000E+01  0.748095716550E+00  0.000000000000E+00
  0.198118811881E+02  0.748095716550E+00  0.188118811881E+01
  0.100000000000E+01  0.386982167210E+01  0.000000000000E+00
  0.198118811881E+02  0.386982167210E+01  0.188118811881E+01
  0.100000000000E+01  0.378246253770E+01  0.000000000000E+00
  0.198118811881E+02  0.378246253770E+01  0.188118811881E+01
  0.100000000000E+01  0.302137760410E+01  0.000000000000E+00
  0.198118811881E+02  0.302137760410E+01  0.188118811881E+01
  0.100000000000E+01  0.134542656080E+01  0.000000000000E+00
  0.198118811881E+02  0.134542656080E+01  0.188118811881E+01
  0.100000000000E+01  0.225753433710E+01  0.000000000000E+00
  0.198118811881E+02  0.225753433710E+01  0.188118811881E+01
  0.100000000000E+01  0.474396230640E+00  0.000000000000E+00
  0.198118811881E+02  0.474396230640E+00  0.188118811881E+01
  0.100000000000E+01  0.394151741400E+01  0.000000000000E+00
  0.198118811881E+02  0.394151741400E+01  0.188118811881E+01
  0.100000000000E+01  0.400000000000E+01  0.000000000000E+00
  0.198118811881E+02  0.400000000000E+01  0.188118811881E+01
  0.100000000000E+01  0.355016448900E+01  0.000000000000E+00
  0.198118811881E+02  0.355016448900E+01  0.188118811881E+01
  0.100000000000E+01  0.367680651800E+01  0.000000000000E+00
  0.198118811881E+02  0.367680651800E+01  0.188118811881E+01
POLYGONS                  38                 152
3                   8                   9                  11
3                   8                  11                  10
3                  30                  31                   9
3                  30                   9                   8
3                  18                  19                  31
3                  18                  31                  30
3                  16                  17                  19
3                  16                  19                  18
3                  26                  27                  17
3                  26                  17                  16
3                  14                  15                  27
3                  14                  27                  26
3                  12                  13                  15
3                  12                  15                  14
3                  28                  29                  13
3                  28                  13                  12
3                   6                   7                  29
3                   6                  29                  28
3                   4                   5                   7
3                   4                   7                   6
3                  24                  25                   5
3                  24                   5                   4
3                   2                   3                  25
3                   2                  25                  24
3                   0                   1                   3
3                   0                   3                   2
3                  36                  37                   1
3                  36                   1                   0
3                  38                  39                  37
3                  38                  37                  36
3                  22                  23                  39
3                  22                  39                  38
3                  20                  21                  23
3                  20                  23                  22
3                  32                  33                  21
3                  32                  21                  20
3                  34                  35                  33
3                  34                  33                  32
CELL_DATA                  38
NORMALS normals float
  0.995037190210E-01  0.000000000000E+00 -0.995037190210E+00
  0.995037190210E-01  0.000000000000E+00 -0.995037190210E+00
  0.995037190210E-01  0.000000000000E+00 -0.995037190210E+00
  0.995037190210E-01  0.000000000000E+00 -0.995037190210E+00
  0.995037190210E-01  0.000000000000E+00 -0.995037190210E+00
  0.995037190210E-01  0.000000000000E+00 -0.995037190210E+00
  0.995037190210E-01  0.000000000000E+00 -0.995037190210E+00
  0.995037190210E-01  0.000000000000E+00 -0.995037190210E+00
  0.995037190210E-01  0.000000000000E+00 -0.995037190210E+00
  0.995037190210E-01  0.000000000000E+00 -0.995037190210E+00
  0.995037190210E-01  0.000000000000E+00 -0.995037190210E+00
  0.995037190210E-01  0.000000000000E+00 -0.995037190210E+00
  0.995037190210E-01  0.000000000000E+00 -0.995037190210E+00
  0.995037190210E-01  0.000000000000E+00 -0.995037190210E+00
  0.995037190210E-01  0.000000000000E+00 -0.995037190210E+00
  0.995037190210E-01  0.000000000000E+00 -0.995037190210E+00
  0.995037190210E-01  0.000000000000E+00 -0.995037190210E+00
  0.995037190210E-01  0.000000000000E+00 -0.995037190210E+00
  0.995037190210E-01  0.000000000000E+00 -0.995037190210E+00
  0.995037190210E-01  0.000000000000E+00 -0.995037190210E+00
  0.995037190210E-01  0.000000000000E+00 -0.995037190210E+00
  0.995037190210E-01  0.000000000000E+00 -0.995037190210E+00
  0.995037190210E-01  0.000000000000E+00 -0.995037190210E+00
  0.995037190210E-01  0.000000000000E+00 -0.995037190210E+00
  0.995037190210E-01  0.000000000000E+00 -0.995037190210E+00
  0.995037190210E-01  0.000000000000E+00 -0.995037190210E+00
  0.995037190210E-01  0.000000000000E+00 -0.995037190210E+00
  0.995037190210E-01  0.000000000000E+00 -0.995037190210E+00
  0.995037190210E-01  0.000000000000E+00 -0.995037190210E+00
  0.995037190210E-01  0.000000000000E+00 -0.995037190210E+00
  0.995037190210E-01  0.000000000000E+00 -0.995037190210E+00
  0.995037190210E-01  0.000000000000E+00 -0.995037190210E+00
  0.995037190210E-01  0.000000000000E+00 -0.995037190210E+00
  0.995037190210E-01  0.000000000000E+00 -0.995037190210E+00
  0.995037190210E-01  0.000000000000E+00 -0.995037190210E+00
  0.995037190210E-01  0.000000000000E+00 -0.995037190210E+00
  0.995037190210E-01  0.000000000000E+00 -0.995037190210E+00
  0.995037190210E-01  0.000000000000E+00 -0.995037190210E+00
POINT_DATA                  40
SCALARS mu float 1
LOOKUP_TABLE default
 -0.401872302726E+66
 -0.401872302726E+66
 -0.543949673480E+66
 -0.543949673480E+66
 -0.360560903396E+64
 -0.360560903396E+64
 -0.164333464161E+66
 -0.164333464161E+66
 -0.261818876385E+64
 -0.261818876385E+64
 -0.500481286401E+64
 -0.500481286401E+64
 -0.536522331558E+66
 -0.536522331558E+66
 -0.456860540809E+66
 -0.456860540809E+66
 -0.161580043713E+66
 -0.161580043713E+66
 -0.390505212512E+66
 -0.390505212512E+66
 -0.551407530254E+66
 -0.551407530254E+66
 -0.468092559365E+66
 -0.468092559365E+66
 -0.462839366497E+66
 -0.462839366497E+66
 -0.478117991983E+64
 -0.478117991983E+64
 -0.396145705030E+66
 -0.396145705030E+66
 -0.529348708887E+66
 -0.529348708887E+66
 -0.407853344830E+66
 -0.407853344830E+66
  0.000000000000E+00
  0.000000000000E+00
 -0.167428185184E+66
 -0.167428185184E+66
 -0.755666388807E+63
 -0.755666388807E+63
