# vtk DataFile Version 3.0
MachLine results file. Generated by MachLine, USU AeroLab (c) 2022.
ASCII
DATASET POLYDATA
POINTS                 160 float
  0.100000000000E+01  0.000000000000E+00  0.000000000000E+00
  0.274705882353E+02  0.264705882353E+01  0.264705882353E+01
  0.100000000000E+01  0.105801853900E+00  0.000000000000E+00
  0.274602155045E+02  0.275182340435E+01  0.264602155045E+01
  0.100000000000E+01  0.218019532620E+00  0.000000000000E+00
  0.274492137713E+02  0.286294090975E+01  0.264492137713E+01
  0.100000000000E+01  0.336492460280E+00  0.000000000000E+00
  0.274375987784E+02  0.298025233812E+01  0.264375987784E+01
  0.100000000000E+01  0.460959688960E+00  0.000000000000E+00
  0.274253961089E+02  0.310349929985E+01  0.264253961089E+01
  0.100000000000E+01  0.591055074040E+00  0.000000000000E+00
  0.274126416594E+02  0.323231923998E+01  0.264126416594E+01
  0.100000000000E+01  0.726305677500E+00  0.000000000000E+00
  0.273993817963E+02  0.336624385713E+01  0.263993817963E+01
  0.100000000000E+01  0.866133928910E+00  0.000000000000E+00
  0.273856731442E+02  0.350470124333E+01  0.263856731442E+01
  0.100000000000E+01  0.100986389110E+01  0.000000000000E+00
  0.273715819715E+02  0.364702208825E+01  0.263715819715E+01
  0.100000000000E+01  0.115673173540E+01  0.000000000000E+00
  0.273571831632E+02  0.379245005172E+01  0.263571831632E+01
  0.100000000000E+01  0.130590024490E+01  0.000000000000E+00
  0.273425587995E+02  0.394015612485E+01  0.263425587995E+01
  0.100000000000E+01  0.145647686520E+01  0.000000000000E+00
  0.273277963858E+02  0.408925650378E+01  0.263277963858E+01
  0.100000000000E+01  0.160753453410E+01  0.000000000000E+00
  0.273129868104E+02  0.423883321514E+01  0.263129868104E+01
  0.100000000000E+01  0.175813428970E+01  0.000000000000E+00
  0.272982221285E+02  0.438795650255E+01  0.262982221285E+01
  0.100000000000E+01  0.190734849870E+01  0.000000000000E+00
  0.272835932844E+02  0.453570782714E+01  0.262835932844E+01
  0.100000000000E+01  0.205428349430E+01  0.000000000000E+00
  0.272691878927E+02  0.468120228357E+01  0.262691878927E+01
  0.100000000000E+01  0.219810046300E+01  0.000000000000E+00
  0.272550881899E+02  0.482360928199E+01  0.262550881899E+01
  0.100000000000E+01  0.233803357350E+01  0.000000000000E+00
  0.272413692575E+02  0.496217049925E+01  0.262413692575E+01
  0.100000000000E+01  0.247340457540E+01  0.000000000000E+00
  0.272280975906E+02  0.509621433446E+01  0.262280975906E+01
  0.100000000000E+01  0.260363337670E+01  0.000000000000E+00
  0.272153300611E+02  0.522516638281E+01  0.262153300611E+01
  0.100000000000E+01  0.272824441360E+01  0.000000000000E+00
  0.272031132928E+02  0.534855574288E+01  0.262031132928E+01
  0.100000000000E+01  0.284686890960E+01  0.000000000000E+00
  0.271914834402E+02  0.546601725362E+01  0.261914834402E+01
  0.100000000000E+01  0.295924336530E+01  0.000000000000E+00
  0.271804663367E+02  0.557728999897E+01  0.261804663367E+01
  0.100000000000E+01  0.306520480660E+01  0.000000000000E+00
  0.271700779601E+02  0.568221260261E+01  0.261700779601E+01
  0.100000000000E+01  0.316468343160E+01  0.000000000000E+00
  0.271603251538E+02  0.578071594698E+01  0.261603251538E+01
  0.100000000000E+01  0.325769334820E+01  0.000000000000E+00
  0.271512065345E+02  0.587281400165E+01  0.261512065345E+01
  0.100000000000E+01  0.334432208550E+01  0.000000000000E+00
  0.271427135210E+02  0.595859343760E+01  0.261427135210E+01
  0.100000000000E+01  0.342471950460E+01  0.000000000000E+00
  0.271348314211E+02  0.603820264671E+01  0.261348314211E+01
  0.100000000000E+01  0.349908665190E+01  0.000000000000E+00
  0.271275405243E+02  0.611184070433E+01  0.261275405243E+01
  0.100000000000E+01  0.356766498950E+01  0.000000000000E+00
  0.271208171579E+02  0.617974670529E+01  0.261208171579E+01
  0.100000000000E+01  0.363072633470E+01  0.000000000000E+00
  0.271146346731E+02  0.624218980201E+01  0.261146346731E+01
  0.100000000000E+01  0.368856373190E+01  0.000000000000E+00
  0.271089643400E+02  0.629946016590E+01  0.261089643400E+01
  0.100000000000E+01  0.374148339170E+01  0.000000000000E+00
  0.271037761381E+02  0.635186100551E+01  0.261037761381E+01
  0.100000000000E+01  0.378979775200E+01  0.000000000000E+00
  0.270990394361E+02  0.639970169561E+01  0.260990394361E+01
  0.100000000000E+01  0.383381965610E+01  0.000000000000E+00
  0.270947235631E+02  0.644329201241E+01  0.260947235631E+01
  0.100000000000E+01  0.387385759720E+01  0.000000000000E+00
  0.270907982748E+02  0.648293742468E+01  0.260907982748E+01
  0.100000000000E+01  0.391021194690E+01  0.000000000000E+00
  0.270872341229E+02  0.651893535919E+01  0.260872341229E+01
  0.100000000000E+01  0.394317206700E+01  0.000000000000E+00
  0.270840027385E+02  0.655157234085E+01  0.260840027385E+01
  0.100000000000E+01  0.397301419630E+01  0.000000000000E+00
  0.270810770396E+02  0.658112190026E+01  0.260810770396E+01
  0.100000000000E+01  0.400000000000E+01  0.000000000000E+00
  0.270784313725E+02  0.660784313725E+01  0.260784313725E+01
  0.100000000000E+01  0.000000000000E+00  0.000000000000E+00
  0.274705882353E+02  0.264705882353E+01  0.264705882353E+01
  0.100000000000E+01 -0.105801853900E+00  0.000000000000E+00
  0.274809609661E+02  0.254229424271E+01  0.264809609661E+01
  0.100000000000E+01 -0.218019532620E+00  0.000000000000E+00
  0.274919626993E+02  0.243117673731E+01  0.264919626993E+01
  0.100000000000E+01 -0.336492460280E+00  0.000000000000E+00
  0.275035776922E+02  0.231386530894E+01  0.265035776922E+01
  0.100000000000E+01 -0.460959688960E+00  0.000000000000E+00
  0.275157803617E+02  0.219061834721E+01  0.265157803617E+01
  0.100000000000E+01 -0.591055074040E+00  0.000000000000E+00
  0.275285348112E+02  0.206179840708E+01  0.265285348112E+01
  0.100000000000E+01 -0.726305677500E+00  0.000000000000E+00
  0.275417946743E+02  0.192787378993E+01  0.265417946743E+01
  0.100000000000E+01 -0.866133928910E+00  0.000000000000E+00
  0.275555033264E+02  0.178941640373E+01  0.265555033264E+01
  0.100000000000E+01 -0.100986389110E+01  0.000000000000E+00
  0.275695944991E+02  0.164709555881E+01  0.265695944991E+01
  0.100000000000E+01 -0.115673173540E+01  0.000000000000E+00
  0.275839933074E+02  0.150166759534E+01  0.265839933074E+01
  0.100000000000E+01 -0.130590024490E+01  0.000000000000E+00
  0.275986176711E+02  0.135396152221E+01  0.265986176711E+01
  0.100000000000E+01 -0.145647686520E+01  0.000000000000E+00
  0.276133800848E+02  0.120486114328E+01  0.266133800848E+01
  0.100000000000E+01 -0.160753453410E+01  0.000000000000E+00
  0.276281896602E+02  0.105528443192E+01  0.266281896602E+01
  0.100000000000E+01 -0.175813428970E+01  0.000000000000E+00
  0.276429543421E+02  0.906161144513E+00  0.266429543421E+01
  0.100000000000E+01 -0.190734849870E+01  0.000000000000E+00
  0.276575831861E+02  0.758409819915E+00  0.266575831861E+01
  0.100000000000E+01 -0.205428349430E+01  0.000000000000E+00
  0.276719885779E+02  0.612915363487E+00  0.266719885779E+01
  0.100000000000E+01 -0.219810046300E+01  0.000000000000E+00
  0.276860882807E+02  0.470508365069E+00  0.266860882807E+01
  0.100000000000E+01 -0.233803357350E+01  0.000000000000E+00
  0.276998072131E+02  0.331947147809E+00  0.266998072131E+01
  0.100000000000E+01 -0.247340457540E+01  0.000000000000E+00
  0.277130788799E+02  0.197903312594E+00  0.267130788799E+01
  0.100000000000E+01 -0.260363337670E+01  0.000000000000E+00
  0.277258464095E+02  0.689512642480E-01  0.267258464095E+01
  0.100000000000E+01 -0.272824441360E+01  0.000000000000E+00
  0.277380631778E+02 -0.544380958196E-01  0.267380631778E+01
  0.100000000000E+01 -0.284686890960E+01  0.000000000000E+00
  0.277496930304E+02 -0.171899606565E+00  0.267496930304E+01
  0.100000000000E+01 -0.295924336530E+01  0.000000000000E+00
  0.277607101339E+02 -0.283172351915E+00  0.267607101339E+01
  0.100000000000E+01 -0.306520480660E+01  0.000000000000E+00
  0.277710985105E+02 -0.388094955555E+00  0.267710985105E+01
  0.100000000000E+01 -0.316468343160E+01  0.000000000000E+00
  0.277808513168E+02 -0.486598299918E+00  0.267808513168E+01
  0.100000000000E+01 -0.325769334820E+01  0.000000000000E+00
  0.277899699361E+02 -0.578696354590E+00  0.267899699361E+01
  0.100000000000E+01 -0.334432208550E+01  0.000000000000E+00
  0.277984629496E+02 -0.664475790544E+00  0.267984629496E+01
  0.100000000000E+01 -0.342471950460E+01  0.000000000000E+00
  0.278063450495E+02 -0.744084999653E+00  0.268063450495E+01
  0.100000000000E+01 -0.349908665190E+01  0.000000000000E+00
  0.278136359463E+02 -0.817723057274E+00  0.268136359463E+01
  0.100000000000E+01 -0.356766498950E+01  0.000000000000E+00
  0.278203593127E+02 -0.885629058230E+00  0.268203593127E+01
  0.100000000000E+01 -0.363072633470E+01  0.000000000000E+00
  0.278265417975E+02 -0.948072154948E+00  0.268265417975E+01
  0.100000000000E+01 -0.368856373190E+01  0.000000000000E+00
  0.278322121306E+02 -0.100534251884E+01  0.268322121306E+01
  0.100000000000E+01 -0.374148339170E+01  0.000000000000E+00
  0.278374003325E+02 -0.105774335845E+01  0.268374003325E+01
  0.100000000000E+01 -0.378979775200E+01  0.000000000000E+00
  0.278421370345E+02 -0.110558404855E+01  0.268421370345E+01
  0.100000000000E+01 -0.383381965610E+01  0.000000000000E+00
  0.278464529075E+02 -0.114917436535E+01  0.268464529075E+01
  0.100000000000E+01 -0.387385759720E+01  0.000000000000E+00
  0.278503781958E+02 -0.118881977762E+01  0.268503781958E+01
  0.100000000000E+01 -0.391021194690E+01  0.000000000000E+00
  0.278539423477E+02 -0.122481771213E+01  0.268539423477E+01
  0.100000000000E+01 -0.394317206700E+01  0.000000000000E+00
  0.278571737321E+02 -0.125745469379E+01  0.268571737321E+01
  0.100000000000E+01 -0.397301419630E+01  0.000000000000E+00
  0.278600994310E+02 -0.128700425320E+01  0.268600994310E+01
  0.100000000000E+01 -0.400000000000E+01  0.000000000000E+00
  0.278627450980E+02 -0.131372549020E+01  0.268627450980E+01
POLYGONS                 156                 624
3                   2                   3                   1
3                   2                   1                   0
3                   4                   5                   3
3                   4                   3                   2
3                   6                   7                   5
3                   6                   5                   4
3                   8                   9                   7
3                   8                   7                   6
3                  10                  11                   9
3                  10                   9                   8
3                  12                  13                  11
3                  12                  11                  10
3                  14                  15                  13
3                  14                  13                  12
3                  16                  17                  15
3                  16                  15                  14
3                  18                  19                  17
3                  18                  17                  16
3                  20                  21                  19
3                  20                  19                  18
3                  22                  23                  21
3                  22                  21                  20
3                  24                  25                  23
3                  24                  23                  22
3                  26                  27                  25
3                  26                  25                  24
3                  28                  29                  27
3                  28                  27                  26
3                  30                  31                  29
3                  30                  29                  28
3                  32                  33                  31
3                  32                  31                  30
3                  34                  35                  33
3                  34                  33                  32
3                  36                  37                  35
3                  36                  35                  34
3                  38                  39                  37
3                  38                  37                  36
3                  40                  41                  39
3                  40                  39                  38
3                  42                  43                  41
3                  42                  41                  40
3                  44                  45                  43
3                  44                  43                  42
3                  46                  47                  45
3                  46                  45                  44
3                  48                  49                  47
3                  48                  47                  46
3                  50                  51                  49
3                  50                  49                  48
3                  52                  53                  51
3                  52                  51                  50
3                  54                  55                  53
3                  54                  53                  52
3                  56                  57                  55
3                  56                  55                  54
3                  58                  59                  57
3                  58                  57                  56
3                  60                  61                  59
3                  60                  59                  58
3                  62                  63                  61
3                  62                  61                  60
3                  64                  65                  63
3                  64                  63                  62
3                  66                  67                  65
3                  66                  65                  64
3                  68                  69                  67
3                  68                  67                  66
3                  70                  71                  69
3                  70                  69                  68
3                  72                  73                  71
3                  72                  71                  70
3                  74                  75                  73
3                  74                  73                  72
3                  76                  77                  75
3                  76                  75                  74
3                  78                  79                  77
3                  78                  77                  76
3                  81                  83                  82
3                  80                  81                  82
3                  83                  85                  84
3                  82                  83                  84
3                  85                  87                  86
3                  84                  85                  86
3                  87                  89                  88
3                  86                  87                  88
3                  89                  91                  90
3                  88                  89                  90
3                  91                  93                  92
3                  90                  91                  92
3                  93                  95                  94
3                  92                  93                  94
3                  95                  97                  96
3                  94                  95                  96
3                  97                  99                  98
3                  96                  97                  98
3                  99                 101                 100
3                  98                  99                 100
3                 101                 103                 102
3                 100                 101                 102
3                 103                 105                 104
3                 102                 103                 104
3                 105                 107                 106
3                 104                 105                 106
3                 107                 109                 108
3                 106                 107                 108
3                 109                 111                 110
3                 108                 109                 110
3                 111                 113                 112
3                 110                 111                 112
3                 113                 115                 114
3                 112                 113                 114
3                 115                 117                 116
3                 114                 115                 116
3                 117                 119                 118
3                 116                 117                 118
3                 119                 121                 120
3                 118                 119                 120
3                 121                 123                 122
3                 120                 121                 122
3                 123                 125                 124
3                 122                 123                 124
3                 125                 127                 126
3                 124                 125                 126
3                 127                 129                 128
3                 126                 127                 128
3                 129                 131                 130
3                 128                 129                 130
3                 131                 133                 132
3                 130                 131                 132
3                 133                 135                 134
3                 132                 133                 134
3                 135                 137                 136
3                 134                 135                 136
3                 137                 139                 138
3                 136                 137                 138
3                 139                 141                 140
3                 138                 139                 140
3                 141                 143                 142
3                 140                 141                 142
3                 143                 145                 144
3                 142                 143                 144
3                 145                 147                 146
3                 144                 145                 146
3                 147                 149                 148
3                 146                 147                 148
3                 149                 151                 150
3                 148                 149                 150
3                 151                 153                 152
3                 150                 151                 152
3                 153                 155                 154
3                 152                 153                 154
3                 155                 157                 156
3                 154                 155                 156
3                 157                 159                 158
3                 156                 157                 158
CELL_DATA                 156
NORMALS normals float
  0.995037190210E-01 -0.836069929876E-15 -0.995037190210E+00
  0.995037190210E-01  0.000000000000E+00 -0.995037190210E+00
  0.995037190210E-01  0.787434041280E-15 -0.995037190210E+00
  0.995037190210E-01  0.000000000000E+00 -0.995037190210E+00
  0.995037190210E-01 -0.298474405967E-14 -0.995037190210E+00
  0.995037190210E-01  0.000000000000E+00 -0.995037190210E+00
  0.995037190210E-01 -0.209919621386E-17 -0.995037190210E+00
  0.995037190210E-01  0.000000000000E+00 -0.995037190210E+00
  0.995037190210E-01  0.203748202016E-14 -0.995037190210E+00
  0.995037190210E-01  0.000000000000E+00 -0.995037190210E+00
  0.995037190210E-01  0.653601879017E-15 -0.995037190210E+00
  0.995037190210E-01  0.000000000000E+00 -0.995037190210E+00
  0.995037190210E-01 -0.632532952613E-15 -0.995037190210E+00
  0.995037190210E-01  0.000000000000E+00 -0.995037190210E+00
  0.995037190210E-01  0.615690944781E-15 -0.995037190210E+00
  0.995037190210E-01  0.000000000000E+00 -0.995037190210E+00
  0.995037190210E-01  0.000000000000E+00 -0.995037190210E+00
  0.995037190210E-01  0.000000000000E+00 -0.995037190210E+00
  0.995037190210E-01 -0.177817690120E-14 -0.995037190210E+00
  0.995037190210E-01  0.000000000000E+00 -0.995037190210E+00
  0.995037190210E-01  0.586931482653E-15 -0.995037190210E+00
  0.995037190210E-01  0.000000000000E+00 -0.995037190210E+00
  0.995037190210E-01 -0.117078333038E-14 -0.995037190210E+00
  0.995037190210E-01  0.000000000000E+00 -0.995037190210E+00
  0.995037190210E-01  0.585757936008E-15 -0.995037190210E+00
  0.995037190210E-01  0.000000000000E+00 -0.995037190210E+00
  0.995037190210E-01  0.118481271223E-14 -0.995037190210E+00
  0.995037190210E-01  0.000000000000E+00 -0.995037190210E+00
  0.995037190210E-01  0.000000000000E+00 -0.995037190210E+00
  0.995037190210E-01  0.000000000000E+00 -0.995037190210E+00
  0.995037190210E-01 -0.616220084288E-15 -0.995037190210E+00
  0.995037190210E-01  0.000000000000E+00 -0.995037190210E+00
  0.995037190210E-01  0.189532247224E-14 -0.995037190210E+00
  0.995037190210E-01  0.000000000000E+00 -0.995037190210E+00
  0.995037190210E-01 -0.195824306268E-14 -0.995037190210E+00
  0.995037190210E-01  0.000000000000E+00 -0.995037190210E+00
  0.995037190210E-01  0.135905320856E-14 -0.995037190210E+00
  0.995037190210E-01  0.000000000000E+00 -0.995037190210E+00
  0.995037190210E-01 -0.710492394280E-15 -0.995037190210E+00
  0.995037190210E-01  0.000000000000E+00 -0.995037190210E+00
  0.995037190210E-01  0.149113719488E-14 -0.995037190210E+00
  0.995037190210E-01  0.000000000000E+00 -0.995037190210E+00
  0.995037190210E-01 -0.786193389784E-15 -0.995037190210E+00
  0.995037190210E-01  0.000000000000E+00 -0.995037190210E+00
  0.995037190210E-01  0.000000000000E+00 -0.995037190210E+00
  0.995037190210E-01  0.000000000000E+00 -0.995037190210E+00
  0.995037190210E-01 -0.888794699327E-15 -0.995037190210E+00
  0.995037190210E-01  0.000000000000E+00 -0.995037190210E+00
  0.995037190210E-01 -0.949521267935E-15 -0.995037190210E+00
  0.995037190210E-01  0.000000000000E+00 -0.995037190210E+00
  0.995037190210E-01 -0.306091045722E-14 -0.995037190210E+00
  0.995037190210E-01  0.000000000000E+00 -0.995037190210E+00
  0.995037190210E-01  0.549748041427E-14 -0.995037190210E+00
  0.995037190210E-01  0.000000000000E+00 -0.995037190210E+00
  0.995037190210E-01  0.118862820093E-14 -0.995037190210E+00
  0.995037190210E-01  0.000000000000E+00 -0.995037190210E+00
  0.995037190210E-01  0.128929402484E-14 -0.995037190210E+00
  0.995037190210E-01  0.000000000000E+00 -0.995037190210E+00
  0.995037190210E-01 -0.140032499777E-14 -0.995037190210E+00
  0.995037190210E-01  0.000000000000E+00 -0.995037190210E+00
  0.995037190210E-01  0.152827880642E-14 -0.995037190210E+00
  0.995037190210E-01  0.000000000000E+00 -0.995037190210E+00
  0.995037190210E-01 -0.501064415955E-14 -0.995037190210E+00
  0.995037190210E-01  0.000000000000E+00 -0.995037190210E+00
  0.995037190210E-01 -0.182883813794E-14 -0.995037190210E+00
  0.995037190210E-01  0.000000000000E+00 -0.995037190210E+00
  0.995037190210E-01  0.401499028623E-14 -0.995037190210E+00
  0.995037190210E-01  0.000000000000E+00 -0.995037190210E+00
  0.995037190210E-01 -0.441516480770E-14 -0.995037190210E+00
  0.995037190210E-01  0.000000000000E+00 -0.995037190210E+00
  0.995037190210E-01  0.729479119944E-14 -0.995037190210E+00
  0.995037190210E-01  0.000000000000E+00 -0.995037190210E+00
  0.995037190210E-01 -0.804499704150E-14 -0.995037190210E+00
  0.995037190210E-01  0.000000000000E+00 -0.995037190210E+00
  0.995037190210E-01  0.000000000000E+00 -0.995037190210E+00
  0.995037190210E-01  0.000000000000E+00 -0.995037190210E+00
  0.995037190210E-01  0.655128714618E-14 -0.995037190210E+00
  0.995037190210E-01  0.000000000000E+00 -0.995037190210E+00
  0.995037190210E-01 -0.834182768523E-15 -0.995037190210E+00
  0.995037190210E-01  0.000000000000E+00 -0.995037190210E+00
  0.995037190210E-01  0.116124578023E-17 -0.995037190210E+00
  0.995037190210E-01  0.000000000000E+00 -0.995037190210E+00
  0.995037190210E-01  0.109945115791E-17 -0.995037190210E+00
  0.995037190210E-01  0.000000000000E+00 -0.995037190210E+00
  0.995037190210E-01  0.711293834830E-15 -0.995037190210E+00
  0.995037190210E-01  0.000000000000E+00 -0.995037190210E+00
  0.995037190210E-01  0.203658332258E-14 -0.995037190210E+00
  0.995037190210E-01  0.000000000000E+00 -0.995037190210E+00
  0.995037190210E-01  0.653941622675E-15 -0.995037190210E+00
  0.995037190210E-01  0.000000000000E+00 -0.995037190210E+00
  0.995037190210E-01 -0.632206582308E-15 -0.995037190210E+00
  0.995037190210E-01  0.000000000000E+00 -0.995037190210E+00
  0.995037190210E-01 -0.307359219003E-14 -0.995037190210E+00
  0.995037190210E-01  0.000000000000E+00 -0.995037190210E+00
  0.995037190210E-01  0.300806304686E-14 -0.995037190210E+00
  0.995037190210E-01  0.000000000000E+00 -0.995037190210E+00
  0.995037190210E-01 -0.177672038475E-14 -0.995037190210E+00
  0.995037190210E-01  0.000000000000E+00 -0.995037190210E+00
  0.995037190210E-01  0.587525008731E-15 -0.995037190210E+00
  0.995037190210E-01  0.000000000000E+00 -0.995037190210E+00
  0.995037190210E-01 -0.116894008650E-14 -0.995037190210E+00
  0.995037190210E-01  0.000000000000E+00 -0.995037190210E+00
  0.995037190210E-01  0.586782687174E-15 -0.995037190210E+00
  0.995037190210E-01  0.000000000000E+00 -0.995037190210E+00
  0.995037190210E-01  0.118381266180E-14 -0.995037190210E+00
  0.995037190210E-01  0.000000000000E+00 -0.995037190210E+00
  0.995037190210E-01  0.000000000000E+00 -0.995037190210E+00
  0.995037190210E-01  0.000000000000E+00 -0.995037190210E+00
  0.995037190210E-01 -0.615262742863E-15 -0.995037190210E+00
  0.995037190210E-01  0.000000000000E+00 -0.995037190210E+00
  0.995037190210E-01  0.189419555076E-14 -0.995037190210E+00
  0.995037190210E-01  0.000000000000E+00 -0.995037190210E+00
  0.995037190210E-01 -0.195705862708E-14 -0.995037190210E+00
  0.995037190210E-01  0.000000000000E+00 -0.995037190210E+00
  0.995037190210E-01  0.135491406978E-14 -0.995037190210E+00
  0.995037190210E-01  0.000000000000E+00 -0.995037190210E+00
  0.995037190210E-01  0.000000000000E+00 -0.995037190210E+00
  0.995037190210E-01  0.000000000000E+00 -0.995037190210E+00
  0.995037190210E-01  0.744153422477E-15 -0.995037190210E+00
  0.995037190210E-01  0.000000000000E+00 -0.995037190210E+00
  0.995037190210E-01 -0.787514293864E-15 -0.995037190210E+00
  0.995037190210E-01  0.000000000000E+00 -0.995037190210E+00
  0.995037190210E-01  0.000000000000E+00 -0.995037190210E+00
  0.995037190210E-01  0.000000000000E+00 -0.995037190210E+00
  0.995037190210E-01 -0.887638199731E-15 -0.995037190210E+00
  0.995037190210E-01  0.000000000000E+00 -0.995037190210E+00
  0.995037190210E-01 -0.950434514558E-15 -0.995037190210E+00
  0.995037190210E-01  0.000000000000E+00 -0.995037190210E+00
  0.995037190210E-01 -0.203875551960E-14 -0.995037190210E+00
  0.995037190210E-01  0.000000000000E+00 -0.995037190210E+00
  0.995037190210E-01  0.439545624095E-14 -0.995037190210E+00
  0.995037190210E-01  0.000000000000E+00 -0.995037190210E+00
  0.995037190210E-01  0.118591429778E-14 -0.995037190210E+00
  0.995037190210E-01  0.000000000000E+00 -0.995037190210E+00
  0.995037190210E-01 -0.902052440934E-14 -0.995037190210E+00
  0.995037190210E-01  0.000000000000E+00 -0.995037190210E+00
  0.995037190210E-01  0.980743433138E-14 -0.995037190210E+00
  0.995037190210E-01  0.000000000000E+00 -0.995037190210E+00
  0.995037190210E-01 -0.611184098393E-14 -0.995037190210E+00
  0.995037190210E-01  0.000000000000E+00 -0.995037190210E+00
  0.995037190210E-01  0.333986420394E-14 -0.995037190210E+00
  0.995037190210E-01  0.000000000000E+00 -0.995037190210E+00
  0.995037190210E-01 -0.182878638060E-14 -0.995037190210E+00
  0.995037190210E-01  0.000000000000E+00 -0.995037190210E+00
  0.995037190210E-01  0.401502794930E-14 -0.995037190210E+00
  0.995037190210E-01  0.000000000000E+00 -0.995037190210E+00
  0.995037190210E-01 -0.441389670193E-14 -0.995037190210E+00
  0.995037190210E-01  0.000000000000E+00 -0.995037190210E+00
  0.995037190210E-01 -0.243112805139E-14 -0.995037190210E+00
  0.995037190210E-01  0.000000000000E+00 -0.995037190210E+00
  0.995037190210E-01  0.268116272571E-14 -0.995037190210E+00
  0.995037190210E-01  0.000000000000E+00 -0.995037190210E+00
  0.995037190210E-01  0.000000000000E+00 -0.995037190210E+00
  0.995037190210E-01  0.000000000000E+00 -0.995037190210E+00
  0.995037190210E-01  0.982336797002E-14 -0.995037190210E+00
  0.995037190210E-01  0.000000000000E+00 -0.995037190210E+00
POINT_DATA                 160
SCALARS mu float 1
LOOKUP_TABLE default
 -0.278619701137E+00
 -0.278619701137E+00
 -0.278815744568E+00
 -0.278815744568E+00
 -0.278860114755E+00
 -0.278860114755E+00
 -0.278945755434E+00
 -0.278945755434E+00
 -0.278657196295E+00
 -0.278657196295E+00
 -0.278270775142E+00
 -0.278270775142E+00
 -0.277814519876E+00
 -0.277814519876E+00
 -0.277247127461E+00
 -0.277247127461E+00
 -0.276409192754E+00
 -0.276409192754E+00
 -0.275338752754E+00
 -0.275338752754E+00
 -0.274097481726E+00
 -0.274097481726E+00
 -0.272584462314E+00
 -0.272584462314E+00
 -0.270737055759E+00
 -0.270737055759E+00
 -0.268597966107E+00
 -0.268597966107E+00
 -0.266095267433E+00
 -0.266095267433E+00
 -0.263201706254E+00
 -0.263201706254E+00
 -0.259987688213E+00
 -0.259987688213E+00