# vtk DataFile Version 3.0
MachLine results file. Generated by MachLine, USU AeroLab (c) 2022.
ASCII
DATASET POLYDATA
POINTS                1028 float
  0.100000000000E+01  0.000000000000E+00  0.000000000000E+00
  0.985311378880E+00  0.224100846140E+00 -0.170449895420E-02
  0.100000000000E+01  0.224100846140E+00  0.000000000000E+00
  0.985311378880E+00  0.000000000000E+00 -0.170449895420E-02
  0.965617092460E+00  0.224100846140E+00 -0.394962905220E-02
  0.965617092460E+00  0.000000000000E+00 -0.394962905220E-02
  0.939523307000E+00  0.224100846140E+00 -0.685472369040E-02
  0.939523307000E+00  0.000000000000E+00 -0.685472369040E-02
  0.905490052860E+00  0.224100846140E+00 -0.105277887700E-01
  0.905490052860E+00  0.000000000000E+00 -0.105277887700E-01
  0.862001352470E+00  0.224100846140E+00 -0.150370898030E-01
  0.862001352470E+00  0.000000000000E+00 -0.150370898030E-01
  0.807861744690E+00  0.224100846140E+00 -0.203686189510E-01
  0.807861744690E+00  0.000000000000E+00 -0.203686189510E-01
  0.742610019070E+00  0.224100846140E+00 -0.263731107280E-01
  0.742610019070E+00  0.000000000000E+00 -0.263731107280E-01
  0.666965306180E+00  0.224100846140E+00 -0.327306847400E-01
  0.666965306180E+00  0.000000000000E+00 -0.327306847400E-01
  0.583124116380E+00  0.224100846140E+00 -0.389242397680E-01
  0.583124116380E+00  0.000000000000E+00 -0.389242397680E-01
  0.494699909170E+00  0.224100846140E+00 -0.442892746710E-01
  0.494699909170E+00  0.000000000000E+00 -0.442892746710E-01
  0.406197046100E+00  0.000000000000E+00 -0.481351698480E-01
  0.406197046100E+00  0.224100846140E+00 -0.481351698480E-01
  0.322148057390E+00  0.000000000000E+00 -0.499220386450E-01
  0.322148057390E+00  0.224100846140E+00 -0.499220386450E-01
  0.246240745400E+00  0.000000000000E+00 -0.494246641260E-01
  0.246240745400E+00  0.224100846140E+00 -0.494246641260E-01
  0.180771082860E+00  0.000000000000E+00 -0.467582932350E-01
  0.180771082860E+00  0.224100846140E+00 -0.467582932350E-01
  0.126557836510E+00  0.000000000000E+00 -0.422895365970E-01
  0.126557836510E+00  0.224100846140E+00 -0.422895365970E-01
  0.832331623890E-01  0.000000000000E+00 -0.364528323560E-01
  0.832331623890E-01  0.224100846140E+00 -0.364528323560E-01
  0.497093485250E-01  0.000000000000E+00 -0.295749625020E-01
  0.497093485250E-01  0.224100846140E+00 -0.295749625020E-01
  0.246816596840E-01  0.000000000000E+00 -0.217022398280E-01
  0.246816596840E-01  0.224100846140E+00 -0.217022398280E-01
  0.732365982350E-02  0.000000000000E+00 -0.122714258330E-01
  0.732365982350E-02  0.224100846140E+00 -0.122714258330E-01
  0.000000000000E+00  0.000000000000E+00  0.000000000000E+00
  0.000000000000E+00  0.224100846140E+00  0.000000000000E+00
  0.732365982350E-02  0.224100846140E+00  0.122714258330E-01
  0.732365982350E-02  0.000000000000E+00  0.122714258330E-01
  0.246816596840E-01  0.224100846140E+00  0.217022398280E-01
  0.246816596840E-01  0.000000000000E+00  0.217022398280E-01
  0.497093485250E-01  0.224100846140E+00  0.295749625020E-01
  0.497093485250E-01  0.000000000000E+00  0.295749625020E-01
  0.832331623890E-01  0.224100846140E+00  0.364528323560E-01
  0.832331623890E-01  0.000000000000E+00  0.364528323560E-01
  0.126557836510E+00  0.224100846140E+00  0.422895365970E-01
  0.126557836510E+00  0.000000000000E+00  0.422895365970E-01
  0.180771082860E+00  0.224100846140E+00  0.467582932350E-01
  0.180771082860E+00  0.000000000000E+00  0.467582932350E-01
  0.246240745400E+00  0.224100846140E+00  0.494246641260E-01
  0.246240745400E+00  0.000000000000E+00  0.494246641260E-01
  0.322148057390E+00  0.224100846140E+00  0.499220386450E-01
  0.322148057390E+00  0.000000000000E+00  0.499220386450E-01
  0.406197046100E+00  0.224100846140E+00  0.481351698480E-01
  0.406197046100E+00  0.000000000000E+00  0.481351698480E-01
  0.494699909170E+00  0.224100846140E+00  0.442892746710E-01
  0.494699909170E+00  0.000000000000E+00  0.442892746710E-01
  0.583124116380E+00  0.000000000000E+00  0.389242397680E-01
  0.583124116380E+00  0.224100846140E+00  0.389242397680E-01
  0.666965306180E+00  0.000000000000E+00  0.327306847400E-01
  0.666965306180E+00  0.224100846140E+00  0.327306847400E-01
  0.742610019070E+00  0.000000000000E+00  0.263731107280E-01
  0.742610019070E+00  0.224100846140E+00  0.263731107280E-01
  0.807861744690E+00  0.000000000000E+00  0.203686189510E-01
  0.807861744690E+00  0.224100846140E+00  0.203686189510E-01
  0.862001352470E+00  0.000000000000E+00  0.150370898030E-01
  0.862001352470E+00  0.224100846140E+00  0.150370898030E-01
  0.905490052860E+00  0.000000000000E+00  0.105277887700E-01
  0.905490052860E+00  0.224100846140E+00  0.105277887700E-01
  0.939523307000E+00  0.000000000000E+00  0.685472369040E-02
  0.939523307000E+00  0.224100846140E+00  0.685472369040E-02
  0.965617092460E+00  0.000000000000E+00  0.394962905220E-02
  0.965617092460E+00  0.224100846140E+00  0.394962905220E-02
  0.985311378880E+00  0.000000000000E+00  0.170449895420E-02
  0.985311378880E+00  0.224100846140E+00  0.170449895420E-02
  0.985311378880E+00  0.474396230640E+00 -0.170449895420E-02
  0.100000000000E+01  0.474396230640E+00  0.000000000000E+00
  0.965617092460E+00  0.474396230640E+00 -0.394962905220E-02
  0.939523307000E+00  0.474396230640E+00 -0.685472369040E-02
  0.905490052860E+00  0.474396230640E+00 -0.105277887700E-01
  0.862001352470E+00  0.474396230640E+00 -0.150370898030E-01
  0.807861744690E+00  0.474396230640E+00 -0.203686189510E-01
  0.742610019070E+00  0.474396230640E+00 -0.263731107280E-01
  0.666965306180E+00  0.474396230640E+00 -0.327306847400E-01
  0.583124116380E+00  0.474396230640E+00 -0.389242397680E-01
  0.494699909170E+00  0.474396230640E+00 -0.442892746710E-01
  0.406197046100E+00  0.474396230640E+00 -0.481351698480E-01
  0.322148057390E+00  0.474396230640E+00 -0.499220386450E-01
  0.246240745400E+00  0.474396230640E+00 -0.494246641260E-01
  0.180771082860E+00  0.474396230640E+00 -0.467582932350E-01
  0.126557836510E+00  0.474396230640E+00 -0.422895365970E-01
  0.832331623890E-01  0.474396230640E+00 -0.364528323560E-01
  0.497093485250E-01  0.474396230640E+00 -0.295749625020E-01
  0.246816596840E-01  0.474396230640E+00 -0.217022398280E-01
  0.732365982350E-02  0.474396230640E+00 -0.122714258330E-01
  0.000000000000E+00  0.474396230640E+00  0.000000000000E+00
  0.732365982350E-02  0.474396230640E+00  0.122714258330E-01
  0.246816596840E-01  0.474396230640E+00  0.217022398280E-01
  0.497093485250E-01  0.474396230640E+00  0.295749625020E-01
  0.832331623890E-01  0.474396230640E+00  0.364528323560E-01
  0.126557836510E+00  0.474396230640E+00  0.422895365970E-01
  0.180771082860E+00  0.474396230640E+00  0.467582932350E-01
  0.246240745400E+00  0.474396230640E+00  0.494246641260E-01
  0.322148057390E+00  0.474396230640E+00  0.499220386450E-01
  0.406197046100E+00  0.474396230640E+00  0.481351698480E-01
  0.494699909170E+00  0.474396230640E+00  0.442892746710E-01
  0.583124116380E+00  0.474396230640E+00  0.389242397680E-01
  0.666965306180E+00  0.474396230640E+00  0.327306847400E-01
  0.742610019070E+00  0.474396230640E+00  0.263731107280E-01
  0.807861744690E+00  0.474396230640E+00  0.203686189510E-01
  0.862001352470E+00  0.474396230640E+00  0.150370898030E-01
  0.905490052860E+00  0.474396230640E+00  0.105277887700E-01
  0.939523307000E+00  0.474396230640E+00  0.685472369040E-02
  0.965617092460E+00  0.474396230640E+00  0.394962905220E-02
  0.985311378880E+00  0.474396230640E+00  0.170449895420E-02
  0.985311378880E+00  0.748095716550E+00 -0.170449895420E-02
  0.100000000000E+01  0.748095716550E+00  0.000000000000E+00
  0.965617092460E+00  0.748095716550E+00 -0.394962905220E-02
  0.939523307000E+00  0.748095716550E+00 -0.685472369040E-02
  0.905490052860E+00  0.748095716550E+00 -0.105277887700E-01
  0.862001352470E+00  0.748095716550E+00 -0.150370898030E-01
  0.807861744690E+00  0.748095716550E+00 -0.203686189510E-01
  0.742610019070E+00  0.748095716550E+00 -0.263731107280E-01
  0.666965306180E+00  0.748095716550E+00 -0.327306847400E-01
  0.583124116380E+00  0.748095716550E+00 -0.389242397680E-01
  0.494699909170E+00  0.748095716550E+00 -0.442892746710E-01
  0.406197046100E+00  0.748095716550E+00 -0.481351698480E-01
  0.322148057390E+00  0.748095716550E+00 -0.499220386450E-01
  0.246240745400E+00  0.748095716550E+00 -0.494246641260E-01
  0.180771082860E+00  0.748095716550E+00 -0.467582932350E-01
  0.126557836510E+00  0.748095716550E+00 -0.422895365970E-01
  0.832331623890E-01  0.748095716550E+00 -0.364528323560E-01
  0.497093485250E-01  0.748095716550E+00 -0.295749625020E-01
  0.246816596840E-01  0.748095716550E+00 -0.217022398280E-01
  0.732365982350E-02  0.748095716550E+00 -0.122714258330E-01
  0.000000000000E+00  0.748095716550E+00  0.000000000000E+00
  0.732365982350E-02  0.748095716550E+00  0.122714258330E-01
  0.246816596840E-01  0.748095716550E+00  0.217022398280E-01
  0.497093485250E-01  0.748095716550E+00  0.295749625020E-01
  0.832331623890E-01  0.748095716550E+00  0.364528323560E-01
  0.126557836510E+00  0.748095716550E+00  0.422895365970E-01
  0.180771082860E+00  0.748095716550E+00  0.467582932350E-01
  0.246240745400E+00  0.748095716550E+00  0.494246641260E-01
  0.322148057390E+00  0.748095716550E+00  0.499220386450E-01
  0.406197046100E+00  0.748095716550E+00  0.481351698480E-01
  0.494699909170E+00  0.748095716550E+00  0.442892746710E-01
  0.583124116380E+00  0.748095716550E+00  0.389242397680E-01
  0.666965306180E+00  0.748095716550E+00  0.327306847400E-01
  0.742610019070E+00  0.748095716550E+00  0.263731107280E-01
  0.807861744690E+00  0.748095716550E+00  0.203686189510E-01
  0.862001352470E+00  0.748095716550E+00  0.150370898030E-01
  0.905490052860E+00  0.748095716550E+00  0.105277887700E-01
  0.939523307000E+00  0.748095716550E+00  0.685472369040E-02
  0.965617092460E+00  0.748095716550E+00  0.394962905220E-02
  0.985311378880E+00  0.748095716550E+00  0.170449895420E-02
  0.985311378880E+00  0.104054975430E+01 -0.170449895420E-02
[...]
CELL_DATA                1976
SCALARS C_p_inc float 1
LOOKUP_TABLE default
 -0.112785842613E+01
 -0.112675036507E+01
 -0.580709493581E+00
 -0.580914097772E+00
 -0.384398961660E+00
 -0.384816930049E+00
 -0.294601132745E+00
 -0.295002975025E+00
 -0.245837799660E+00
 -0.246165344107E+00
 -0.217436896769E+00
 -0.217681855210E+00
 -0.200809485358E+00
 -0.200982141339E+00
 -0.191828620854E+00
 -0.191945529863E+00
 -0.188006628927E+00
 -0.188084135914E+00
 -0.187022045156E+00
 -0.187073235841E+00
 -0.186097021055E+00
 -0.186062408752E+00
 -0.181323661519E+00
 -0.181299889469E+00
 -0.168265954346E+00
 -0.168250311424E+00
 -0.142137056732E+00
 -0.142127933846E+00
 -0.978608837969E-01
 -0.978574344575E-01
 -0.289081999460E-01
 -0.289102137106E-01
  0.770656180851E-01
  0.770577218045E-01
  0.251232494693E+00
  0.251217581417E+00
  0.593311668426E+00
  0.593289681841E+00
  0.994051999497E+00
  0.994054091847E+00
 -0.357131337455E+00
 -0.357182580331E+00
 -0.107991675945E+01
 -0.107999759554E+01
 -0.943620263721E+00
 -0.943663342048E+00
 -0.791944032684E+00
 -0.791973316169E+00
 -0.670842858099E+00
 -0.670862119017E+00
 -0.567181468702E+00
 -0.567194289859E+00
 -0.472071084458E+00
 -0.472076867075E+00
 -0.380907698768E+00
 -0.380905796643E+00
 -0.292245524750E+00
 -0.292234405331E+00
 -0.206299906514E+00
 -0.206276245334E+00
 -0.123632613023E+00
 -0.123672793262E+00
 -0.443503299793E-01
 -0.444182602671E-01
  0.326529582942E-01
  0.325475783177E-01
  0.109366766988E+00
  0.109213328021E+00
  0.188690478799E+00
  0.188482930403E+00
  0.274551976564E+00
  0.274295591351E+00
  0.372999897405E+00
  0.372720333062E+00
  0.495605992017E+00
  0.495365822251E+00
  0.667134280388E+00
  0.667067131430E+00
  0.929878463522E+00
  0.930116185364E+00
 -0.110372244251E+01
 -0.112785933356E+01
 -0.571763122520E+00
 -0.580709927921E+00
 -0.380087352006E+00
 -0.384399172931E+00
 -0.292249022918E+00
 -0.294601232023E+00
 -0.244474398888E+00
 -0.245837843229E+00
 -0.216616527477E+00
 -0.217436913946E+00
 -0.200300292809E+00
 -0.200809490955E+00
 -0.191502702729E+00
 -0.191828621965E+00
 -0.187791709127E+00
 -0.188006628749E+00
 -0.186876660463E+00
 -0.187022045007E+00
 -0.186062408744E+00
 -0.185962287210E+00
 -0.181299889738E+00
 -0.181231322689E+00
 -0.168250312143E+00
 -0.168205957709E+00
 -0.142127934933E+00
 -0.142103724155E+00
 -0.978574357507E-01
 -0.978513449675E-01
 -0.289102150562E-01
 -0.289220525363E-01
  0.770577205223E-01
  0.770262296651E-01
  0.251217580276E+00
  0.251162012402E+00
  0.593289680898E+00
  0.593207770357E+00
  0.994054091187E+00
  0.994070292573E+00
 -0.356907852104E+00
 -0.357131337634E+00
 -0.107970614054E+01
 -0.107991675951E+01
 -0.943464757770E+00
 -0.943620263722E+00
 -0.791832226181E+00
 -0.791944032686E+00
 -0.670764811703E+00
 -0.670842858154E+00
 -0.567126050551E+00
 -0.567181468849E+00
 -0.472038794062E+00
 -0.472071084696E+00
 -0.380899506052E+00
 -0.380907699036E+00
 -0.292264957213E+00
 -0.292245524932E+00
 -0.206353671219E+00
 -0.206299906539E+00
 -0.123672793182E+00
 -0.123774654612E+00
 -0.444182598859E-01
 -0.445910596278E-01
  0.325475783802E-01
  0.322688406749E-01
  0.109213325296E+00
  0.108771144232E+00
  0.188482918121E+00
  0.187784552448E+00
  0.274295553944E+00
  0.273193828158E+00
  0.372720238572E+00
  0.370981519659E+00
  0.495365609070E+00
  0.492614081154E+00
  0.667066679412E+00
  0.662762420200E+00
  0.930115228343E+00
  0.925499520645E+00
 -0.111699897471E+01
 -0.110372032657E+01
 -0.575506357435E+00
 -0.571762198385E+00
 -0.381209513566E+00
 -0.380086902175E+00
 -0.292422681739E+00
 -0.292248801168E+00
 -0.244280010030E+00
 -0.244474292191E+00
 -0.216302303551E+00
 -0.216616477711E+00
 -0.199978810755E+00
 -0.200300270272E+00
 -0.191220810494E+00
 -0.191502693184E+00
 -0.187563053094E+00
 -0.187791706186E+00
 -0.186699744406E+00
 -0.186876661258E+00
 -0.185962288163E+00
 -0.185831842544E+00
 -0.181231324910E+00
 -0.181141022643E+00
 -0.168205961104E+00
 -0.168151100397E+00
 -0.142103728340E+00
 -0.142081953196E+00
 -0.978513494760E-01
 -0.978620886910E-01
 -0.289220569655E-01
 -0.289667097441E-01
  0.770262255979E-01
  0.769437136930E-01
  0.251162008863E+00
  0.251033954889E+00
  0.593207767428E+00
  0.593037047316E+00
  0.994070290432E+00
  0.994104481079E+00
 -0.356366109694E+00
 -0.356907852402E+00
 -0.107922082845E+01
 -0.107970614052E+01
 -0.943121667579E+00
 -0.943464757690E+00
 -0.791580589038E+00
 -0.791832226245E+00
 -0.670575183348E+00
 -0.670764812118E+00
 -0.566984540687E+00
 -0.567126051502E+00
 -0.471939234939E+00
 -0.472038795638E+00
 -0.380840128611E+00
 -0.380899508162E+00
 -0.292246855574E+00
 -0.292264959533E+00
 -0.206377879598E+00
 -0.206353673276E+00
 -0.123774656722E+00
 -0.123849200682E+00
 -0.445910593121E-01
 -0.447169456325E-01
  0.322688472964E-01
  0.320967440454E-01
  0.108771165053E+00
  0.108574132302E+00
  0.187784603720E+00
  0.187613028172E+00
  0.273193942248E+00
  0.273144629026E+00
  0.370981758242E+00
  0.371224960994E+00
  0.492614562105E+00
  0.493445312572E+00
  0.662763397671E+00
  0.664667590827E+00
  0.925501740246E+00
  0.928115240321E+00
 -0.110352101330E+01
 -0.111699910678E+01
 -0.570449028983E+00
 -0.575506458265E+00
 -0.378722813086E+00
 -0.381209557118E+00
 -0.291009049011E+00
 -0.292422688538E+00
 -0.243397506991E+00
 -0.244279999966E+00
 -0.215707518410E+00
 -0.216302290386E+00
 -0.199550673031E+00
 -0.199978801974E+00
 -0.190897351606E+00
 -0.191220808712E+00
 -0.187312594441E+00
 -0.187563058006E+00
 -0.186505695870E+00
 -0.186699754452E+00
 -0.185831849644E+00
 -0.185689016513E+00
 -0.181141032569E+00
 -0.181049009844E+00
 -0.168151112400E+00
 -0.168107730618E+00
 -0.142081966238E+00
 -0.142087171942E+00
 -0.978621017390E-01
 -0.979182417146E-01
 -0.289667219721E-01
 -0.290788364000E-01
  0.769437028311E-01
  0.767668114631E-01
  0.251033945679E+00
  0.250778860987E+00
  0.593037039857E+00
  0.592715475849E+00
  0.994104475697E+00
  0.994169173950E+00
 -0.355308241510E+00
 -0.356366109790E+00
 -0.107828986058E+01
 -0.107922082806E+01
 -0.942472887613E+00
 -0.943121667366E+00
 -0.791098720641E+00
 -0.791580589580E+00
 -0.670202573319E+00
 -0.670575185298E+00
 -0.566693427042E+00
 -0.566984544710E+00
 -0.471715468715E+00
 -0.471939241557E+00
 -0.380676678502E+00
 -0.380840137988E+00
 -0.292140776897E+00
 -0.292246867326E+00
 -0.206330771996E+00
 -0.206377892692E+00
 -0.123849215077E+00
 -0.123858601142E+00
 -0.447169606989E-01
 -0.447889757548E-01
  0.320967311441E-01
  0.319512503515E-01
  0.108574124382E+00
  0.108332484324E+00
  0.187613026428E+00
  0.187232131224E+00
  0.273144631414E+00
  0.272548440205E+00
  0.371224961669E+00
  0.370284898012E+00
  0.493445303932E+00
  0.491947173832E+00
  0.664667574113E+00
  0.662296703848E+00
  0.928115292314E+00
  0.925548089967E+00
 -0.110658490432E+01
 -0.110352053846E+01
 -0.571049629595E+00
 -0.570448821965E+00
 -0.378681416004E+00
 -0.378722711916E+00
 -0.290752565136E+00
 -0.291009000063E+00
 -0.243070825032E+00
 -0.243397487144E+00
 -0.215372206482E+00
 -0.215707516589E+00
 -0.199235723894E+00
 -0.199550683876E+00
 -0.190616947491E+00
 -0.190897372376E+00
 -0.187073914247E+00
 -0.187312623182E+00
 -0.186312795340E+00
 -0.186505730468E+00
 -0.185689042011E+00
 -0.185549341252E+00
 -0.181049040067E+00
 -0.180969919019E+00
 -0.168107763923E+00
 -0.168093406517E+00
 -0.142087206157E+00
 -0.142142962582E+00
 -0.979182747210E-01
 -0.980513903293E-01
 -0.290788665585E-01
 -0.292998888545E-01
  0.767667851712E-01
  0.764418867385E-01
  0.250778839021E+00
  0.250328213903E+00
  0.592715458275E+00
  0.592164447129E+00
  0.994169161339E+00
  0.994278807589E+00
 -0.353482497203E+00
 -0.355308240962E+00
 -0.107669500833E+01
 -0.107828985945E+01
 -0.941367393744E+00
 -0.942472887417E+00
 -0.790271831589E+00
 -0.791098722819E+00
 -0.669554527148E+00
 -0.670202579606E+00
 -0.566175711920E+00
 -0.566693439317E+00
 -0.471301957400E+00
 -0.471715488679E+00
 -0.380352272938E+00
 -0.380676707206E+00
 -0.291895817248E+00
 -0.292140814333E+00
 -0.206157804687E+00
 -0.206330817033E+00
 -0.123858644928E+00
 -0.123750571230E+00
 -0.447890293717E-01
 -0.447385315557E-01
  0.319511891731E-01
  0.319529794892E-01
  0.108332418423E+00
  0.108297561393E+00
  0.187232063771E+00
  0.187179098271E+00
  0.272548375407E+00
  0.272506802079E+00
  0.370284843354E+00
  0.370302688294E+00
  0.491947145382E+00
  0.492106196144E+00
  0.662296742073E+00
  0.662735968530E+00
  0.925548329549E+00
  0.926212784272E+00
 -0.110535296215E+01
 -0.110658490727E+01
 -0.570562490762E+00
 -0.571049641375E+00
 -0.378312055631E+00
 -0.378681431831E+00
 -0.290394599491E+00
 -0.290752585636E+00
 -0.242706893380E+00
 -0.243070852049E+00
 -0.215006544136E+00
 -0.215372242284E+00
 -0.198880330679E+00
 -0.199235770716E+00
 -0.190286851582E+00
 -0.190617006849E+00
 -0.186784401758E+00
 -0.187073986054E+00
 -0.186079831273E+00
 -0.186312877082E+00
 -0.185549405553E+00
 -0.185383519732E+00
 -0.180969993895E+00
 -0.180889403238E+00
 -0.168093487914E+00
 -0.168109041781E+00
 -0.142143045241E+00
 -0.142265436936E+00
 -0.980514692601E-01
 -0.982931763538E-01
 -0.292999603277E-01
 -0.296780927147E-01
  0.764418249184E-01
  0.759019840952E-01
  0.250328162616E+00
  0.249593244562E+00
  0.592164406366E+00
  0.591279617213E+00
  0.994278778465E+00
  0.994451975605E+00
 -0.350556386865E+00
 -0.353482495275E+00
 -0.107414822333E+01
 -0.107669500573E+01
 -0.939607136288E+00
 -0.941367393932E+00
 -0.788951725383E+00
 -0.790271837923E+00
 -0.668514792964E+00
 -0.669554543811E+00
 -0.565338838532E+00
 -0.566175743503E+00
 -0.470625893707E+00
 -0.471302008108E+00
 -0.379812081260E+00
 -0.380352345450E+00
 -0.291474195620E+00
 -0.291895911722E+00
 -0.205839064859E+00
 -0.206157918702E+00
 -0.123750667213E+00
 -0.123520488930E+00
 -0.447386499826E-01
 -0.445838699963E-01
  0.319528429109E-01
  0.320504854411E-01
  0.108297411518E+00
  0.108356869516E+00
  0.187178939421E+00
  0.187217227546E+00
  0.272506637906E+00
  0.272536626507E+00
  0.370302522384E+00
  0.370329753994E+00
  0.492106033378E+00
  0.492121929392E+00
  0.662735818395E+00
  0.662699246599E+00
  0.926212673652E+00
  0.926061852706E+00
 -0.110782802151E+01
 -0.110535296839E+01
 -0.570713735556E+00
 -0.570562492431E+00
 -0.377826068888E+00
 -0.378312058813E+00
 -0.289694437330E+00
 -0.290394609390E+00
 -0.241948103923E+00
 -0.242706916579E+00
 -0.214262993619E+00
 -0.215006588867E+00
 -0.198193106779E+00
 -0.198880405503E+00
 -0.189681536006E+00
 -0.190286962734E+00
 -0.186278556939E+00
 -0.186784550116E+00
 -0.185683883112E+00
 -0.186080011066E+00
 -0.185383664904E+00
 -0.185118286282E+00
 -0.180889579132E+00
 -0.180768125186E+00
 -0.168109236275E+00
 -0.168144601768E+00
 -0.142265635503E+00
 -0.142471014476E+00
 -0.982933658819E-01
 -0.986851739543E-01
 -0.296782638056E-01
 -0.302805392293E-01
  0.759018367231E-01
  0.750521609410E-01
  0.249593122858E+00
  0.248447133074E+00
  0.591279520998E+00
  0.589911000827E+00
  0.994451907204E+00
  0.994713649199E+00
 -0.346059143479E+00
 -0.350556382202E+00
 -0.107024030093E+01
 -0.107414821766E+01
 -0.936910050630E+00
 -0.939607137637E+00
 -0.786927478682E+00
 -0.788951741707E+00
 -0.666918612448E+00
 -0.668514834226E+00
 -0.564053303703E+00
 -0.565338915577E+00
 -0.469588868090E+00
 -0.470626016136E+00
 -0.378988742149E+00
 -0.379812254247E+00
 -0.290842579320E+00
 -0.291474416878E+00
 -0.205381205327E+00
 -0.205839323852E+00
 -0.123520690168E+00
 -0.123223420002E+00
 -0.445841052070E-01
 -0.444320994215E-01
  0.320502339058E-01
  0.320800310033E-01
  0.108356619092E+00
  0.108292410606E+00
  0.187216990630E+00
  0.187095140778E+00
  0.272536408173E+00
  0.272404816106E+00
  0.370329552098E+00
  0.370254415247E+00
  0.492121735344E+00
  0.492201724996E+00
  0.662699044306E+00
  0.663084124198E+00
  0.926061609168E+00
  0.926688326343E+00
 -0.109188454114E+01
 -0.110782826404E+01
 -0.563416867457E+00
 -0.570713825612E+00
 -0.373355271882E+00
 -0.377826079895E+00
 -0.286558387890E+00
 -0.289694421248E+00
 -0.239593263238E+00
 -0.241948104943E+00
 -0.212426659923E+00
 -0.214263050600E+00
 -0.196733754352E+00
 -0.198193250818E+00
 -0.188519872087E+00
 -0.189681785387E+00
 -0.185371676002E+00
 -0.186278911970E+00
 -0.185010623814E+00
 -0.185684324590E+00
 -0.185118637676E+00
 -0.184679081037E+00
 -0.180768561349E+00
 -0.180573272333E+00
 -0.168145087867E+00
 -0.168204553995E+00
 -0.142471510841E+00
 -0.142799208539E+00
 -0.986856460828E-01
 -0.993011149404E-01
 -0.302809633151E-01
 -0.312162000128E-01
  0.750517976170E-01
  0.737446347364E-01
  0.248446834685E+00
  0.246697398859E+00
  0.589910766380E+00
  0.587834447409E+00
  0.994713483539E+00
  0.995095780649E+00
 -0.339304079079E+00
 -0.346059133455E+00
 -0.106436946657E+01
 -0.107024028832E+01
 -0.932855825570E+00
 -0.936910054995E+00
 -0.783879062125E+00
 -0.786927519724E+00
 -0.664509539240E+00
 -0.666918714945E+00
 -0.562109894443E+00
 -0.564053494737E+00
 -0.468022234077E+00
 -0.469589171444E+00
 -0.377753193233E+00
 -0.378989169506E+00
 -0.289914192676E+00
 -0.290843121278E+00
 -0.204742630196E+00
 -0.205381828704E+00
 -0.123223919516E+00
 -0.122874798762E+00
 -0.444326696173E-01
 -0.443744836947E-01
  0.320794493869E-01
  0.318452403564E-01
  0.108291880910E+00
  0.107753385247E+00
  0.187094716895E+00
  0.186224170683E+00
  0.272404535607E+00
  0.271150672432E+00
  0.370254299644E+00
  0.368530601196E+00
  0.492201785001E+00
  0.489869973818E+00
  0.663084369139E+00
  0.659980063918E+00
  0.926688784761E+00
  0.923793159212E+00
 -0.106873145893E+01
 -0.109188455993E+01
 -0.552645578519E+00
 -0.563416846681E+00
 -0.366720875565E+00
 -0.373355221041E+00
 -0.281894682401E+00
 -0.286558365549E+00
 -0.236083721533E+00
 -0.239593337629E+00
 -0.209682064210E+00
 -0.212426899800E+00
 -0.194545478619E+00
 -0.196734219332E+00
 -0.186772992694E+00
 -0.188520598234E+00
 -0.184006054491E+00
 -0.185372660367E+00
 -0.183997864428E+00
 -0.185011817674E+00
 -0.184680030651E+00
 -0.184026320347E+00
 -0.180574436232E+00
 -0.180301616182E+00
 -0.168205838607E+00
 -0.168326749288E+00
 -0.142800508815E+00
 -0.143330707470E+00
 -0.993023416852E-01
 -0.100266079251E+00
 -0.312172937382E-01
 -0.326574077912E-01
  0.737437039542E-01
  0.717539704119E-01
  0.246696639040E+00
  0.244056567308E+00
  0.587833854062E+00
  0.584718141680E+00
  0.995095364010E+00
  0.995638311892E+00
 -0.329308608494E+00
 -0.339304058594E+00
 -0.105566706519E+01
 -0.106436943738E+01
 -0.926830411917E+00
 -0.932855837472E+00
 -0.779330536550E+00
 -0.783879166024E+00
 -0.660896058824E+00
 -0.664509799986E+00
 -0.559176828603E+00
 -0.562110384589E+00
 -0.465642790709E+00
 -0.468023019795E+00
 -0.375866862256E+00
 -0.377754310692E+00
 -0.288494224892E+00
 -0.289915622589E+00
 -0.203776374995E+00
 -0.204744286831E+00
 -0.122876195581E+00
 -0.122357818140E+00
 -0.443761132868E-01
 -0.443116089068E-01
  0.318435175186E-01
  0.314546004643E-01
  0.107751715311E+00
  0.106896296094E+00
  0.186222671498E+00
  0.184864381932E+00
  0.271149417727E+00
  0.269215761741E+00
  0.368529622503E+00
  0.365894109270E+00
  0.489869271359E+00
  0.486328796851E+00
  0.659979620107E+00
  0.655301052115E+00
  0.923792965614E+00
  0.919439341081E+00
 -0.105494688840E+01
 -0.106873015522E+01
 -0.544639649582E+00
 -0.552644976541E+00
 -0.360837580401E+00
 -0.366720632659E+00
 -0.277160665456E+00
 -0.281894740554E+00
 -0.232129015448E+00
 -0.236084125842E+00
 -0.206330506484E+00
 -0.209682912868E+00
 -0.191706937117E+00
 -0.194546885743E+00
 -0.184406321900E+00
 -0.186775040296E+00
 -0.182101573056E+00
 -0.184008739745E+00
 -0.182563252235E+00
 -0.184001069556E+00
 -0.184028899710E+00
 -0.183105300132E+00
 -0.180304737188E+00
 -0.179943025709E+00
 -0.168330166984E+00
 -0.168556068077E+00
 -0.143334144460E+00
 -0.144170107726E+00
 -0.100269302327E+00
 -0.101745694792E+00
 -0.326602656756E-01
 -0.348328145909E-01
  0.717515493690E-01
  0.687827221349E-01
  0.244054597682E+00
  0.240148239951E+00
  0.584716607118E+00
  0.580129080292E+00
  0.995637234397E+00
  0.996372153945E+00
 -0.314839330180E+00
 -0.329308572338E+00
 -0.104302610371E+01
 -0.105566699680E+01
 -0.918038511869E+00
 -0.926830438159E+00
 -0.772652947652E+00
 -0.779330789422E+00
 -0.655548442696E+00
 -0.660896710228E+00
 -0.554793677058E+00
 -0.559178077446E+00
 -0.462047686866E+00
 -0.465644827993E+00
 -0.372983005508E+00
 -0.375869807028E+00
 -0.286294863629E+00
 -0.288498050437E+00
 -0.202248094309E+00
 -0.203780875914E+00
 -0.122361651242E+00
 -0.121497115254E+00
 -0.443161533439E-01
 -0.441028967900E-01
  0.314496948489E-01
  0.310546190674E-01
  0.106891383681E+00
  0.105937043043E+00
  0.184859727632E+00
  0.183393441978E+00
  0.269211510096E+00
  0.267271708544E+00
  0.365890305870E+00
  0.363503174647E+00
  0.486325431630E+00
  0.483512192320E+00
  0.655298108494E+00
  0.652144792128E+00
  0.919436896996E+00
  0.917001241071E+00
 -0.103033203261E+01
 -0.105494683419E+01
 -0.532063454081E+00
 -0.544639508444E+00
 -0.352224403873E+00
 -0.360837564313E+00
 -0.270463048069E+00
 -0.277161028941E+00
 -0.226606606980E+00
 -0.232130068797E+00
 -0.201650981760E+00
 -0.206332608287E+00
 -0.187714121541E+00
 -0.191710445399E+00
 -0.181040533208E+00
 -0.184411493288E+00
 -0.179362023112E+00
 -0.182108433492E+00
 -0.180480696187E+00
 -0.182571513448E+00
 -0.183111987504E+00
 -0.181762315678E+00
 -0.179951168474E+00
 -0.179428252420E+00
 -0.168565012568E+00
 -0.168912378396E+00
 -0.144179105927E+00
 -0.145425850532E+00
 -0.101754121063E+00
 -0.103933543533E+00
 -0.348402712889E-01
 -0.380188711655E-01
  0.687764145412E-01
  0.644687305903E-01
  0.240143108880E+00
  0.234515384820E+00
  0.580125074262E+00
  0.573540727669E+00
  0.996369322355E+00
  0.997296466319E+00
 -0.294496170555E+00
 -0.314839291811E+00
 -0.102516289360E+01
 -0.104302594454E+01
 -0.905538071517E+00
 -0.918038549384E+00
 -0.763081116103E+00
 -0.772653517769E+00
 -0.647802197487E+00
 -0.655549996714E+00
 -0.548364877983E+00
 -0.554796758760E+00
 -0.456702587526E+00
 -0.462052847384E+00
 -0.368637019642E+00
 -0.372990626032E+00
 -0.282939861066E+00
 -0.286304930149E+00
 -0.199892422125E+00
 -0.202260074532E+00
 -0.121507175990E+00
 -0.120156136775E+00
 -0.441148814025E-01
 -0.437579999520E-01
  0.310417445371E-01
  0.304789405469E-01
  0.105924330465E+00
  0.104530113479E+00
  0.183381678418E+00
  0.181233665266E+00
  0.267261329764E+00
  0.264402652681E+00
  0.363494331006E+00
  0.359913362524E+00
  0.483504866284E+00
  0.479118952524E+00
  0.652138902683E+00
  0.646844920489E+00
  0.916996719505E+00
  0.912290869634E+00
 -0.997485758050E+00
 -0.103033206906E+01
 -0.514483269225E+00
 -0.532063292498E+00
 -0.339946288882E+00
 -0.352224350579E+00
 -0.260862541538E+00
 -0.270463722326E+00
 -0.218693184910E+00
 -0.226608828836E+00
 -0.194955797350E+00
 -0.201655719502E+00
 -0.182000485165E+00
 -0.187722358714E+00
 -0.176206828994E+00
 -0.181053011938E+00
 -0.175397521788E+00
 -0.179378908504E+00
 -0.177427653100E+00
 -0.180501345030E+00
 -0.181778840867E+00
 -0.179763119837E+00
 -0.179448742443E+00
 -0.178623862550E+00
 -0.168935152028E+00
 -0.169374468611E+00
 -0.145448917268E+00
 -0.147192653656E+00
 -0.103955216460E+00
 -0.107035837079E+00
 -0.380380812194E-01
 -0.425262809492E-01
  0.644524555175E-01
  0.583996395989E-01
  0.234502105576E+00
  0.226639332430E+00
  0.573530297162E+00
  0.564355110847E+00
  0.997288997449E+00
  0.998342372952E+00
 -0.266878111202E+00
 -0.294496256126E+00
 -0.100074753136E+01
 -0.102516254546E+01
 -0.888318651520E+00
 -0.905538058276E+00
 -0.749757543192E+00
 -0.763082263302E+00
 -0.636875130294E+00
 -0.647805662158E+00
 -0.539153908610E+00
 -0.548372124905E+00
 -0.448916021842E+00
 -0.456715193884E+00
 -0.362204352690E+00
 -0.368656190064E+00
 -0.277909694938E+00
 -0.282965736048E+00
 -0.196338466281E+00
 -0.199923617680E+00
 -0.120181935510E+00
 -0.118153416705E+00
 -0.437890566666E-01
 -0.433020634042E-01
  0.304456213374E-01
  0.294943396253E-01
  0.104497590856E+00
  0.102244993074E+00