# vtk DataFile Version 3.0
MachLine results file. Generated by MachLine, USU AeroLab (c) 2022.
ASCII
DATASET POLYDATA
POINTS                1502 float
  0.381241847865E+00  0.000000000000E+00  0.000000000000E+00
  0.381241837224E+00  0.000000000000E+00  0.487637896680E-01
  0.381241834432E+00  0.154062059020E-01  0.462760484870E-01
  0.381241834279E+00  0.287914722120E-01  0.393500145380E-01
  0.381241834300E+00  0.393500145380E-01  0.287914722120E-01
  0.381241834497E+00  0.462760484870E-01  0.154062059020E-01
  0.381241830677E+00  0.487637896680E-01  0.000000000000E+00
  0.381241834497E+00  0.462760484870E-01 -0.154062059020E-01
  0.381241834300E+00  0.393500145380E-01 -0.287914722120E-01
  0.381241834279E+00  0.287914722120E-01 -0.393500145380E-01
  0.381241834432E+00  0.154062059020E-01 -0.462760484870E-01
  0.381241837224E+00  0.000000000000E+00 -0.487637896680E-01
  0.381241834432E+00 -0.154062059020E-01 -0.462760484870E-01
  0.381241834279E+00 -0.287914722120E-01 -0.393500145380E-01
  0.381241834300E+00 -0.393500145380E-01 -0.287914722120E-01
  0.381241834497E+00 -0.462760484870E-01 -0.154062059020E-01
  0.381241830677E+00 -0.487637896680E-01  0.000000000000E+00
  0.381241834497E+00 -0.462760484870E-01  0.154062059020E-01
  0.381241834300E+00 -0.393500145380E-01  0.287914722120E-01
  0.381241834279E+00 -0.287914722120E-01  0.393500145380E-01
  0.381241834432E+00 -0.154062059020E-01  0.462760484870E-01
  0.381241843412E+00  0.000000000000E+00  0.950964669290E-01
  0.381241842077E+00  0.300443374080E-01  0.902450105800E-01
  0.381241841765E+00  0.561475493130E-01  0.767382392060E-01
  0.381241841794E+00  0.767382392060E-01  0.561475493130E-01
  0.381241842161E+00  0.902450105800E-01  0.300443374080E-01
  0.381241841358E+00  0.950964669290E-01  0.000000000000E+00
  0.381241842161E+00  0.902450105800E-01 -0.300443374080E-01
  0.381241841794E+00  0.767382392060E-01 -0.561475493130E-01
  0.381241841765E+00  0.561475493130E-01 -0.767382392060E-01
  0.381241842077E+00  0.300443374080E-01 -0.902450105800E-01
  0.381241843412E+00  0.000000000000E+00 -0.950964669290E-01
  0.381241842077E+00 -0.300443374080E-01 -0.902450105800E-01
  0.381241841765E+00 -0.561475493130E-01 -0.767382392060E-01
  0.381241841794E+00 -0.767382392060E-01 -0.561475493130E-01
  0.381241842161E+00 -0.902450105800E-01 -0.300443374080E-01
  0.381241841358E+00 -0.950964669290E-01  0.000000000000E+00
  0.381241842161E+00 -0.902450105800E-01  0.300443374080E-01
  0.381241841794E+00 -0.767382392060E-01  0.561475493130E-01
  0.381241841765E+00 -0.561475493130E-01  0.767382392060E-01
  0.381241842077E+00 -0.300443374080E-01  0.902450105800E-01
  0.381241850093E+00  0.000000000000E+00  0.139059994170E+00
  0.381241848225E+00  0.439339706270E-01  0.131965687580E+00
  0.381241847707E+00  0.821048155850E-01  0.112214674650E+00
  0.381241847739E+00  0.112214674650E+00  0.821048155850E-01
  0.381241848318E+00  0.131965687580E+00  0.439339706270E-01
  0.381241847311E+00  0.139059994170E+00  0.000000000000E+00
  0.381241848318E+00  0.131965687580E+00 -0.439339706270E-01
  0.381241847739E+00  0.112214674650E+00 -0.821048155850E-01
  0.381241847707E+00  0.821048155850E-01 -0.112214674650E+00
  0.381241848225E+00  0.439339706270E-01 -0.131965687580E+00
  0.381241850093E+00  0.000000000000E+00 -0.139059994170E+00
  0.381241848225E+00 -0.439339706270E-01 -0.131965687580E+00
  0.381241847707E+00 -0.821048155850E-01 -0.112214674650E+00
  0.381241847739E+00 -0.112214674650E+00 -0.821048155850E-01
  0.381241848318E+00 -0.131965687580E+00 -0.439339706270E-01
  0.381241847311E+00 -0.139059994170E+00  0.000000000000E+00
  0.381241848318E+00 -0.131965687580E+00  0.439339706270E-01
  0.381241847739E+00 -0.112214674650E+00  0.821048155850E-01
  0.381241847707E+00 -0.821048155850E-01  0.112214674650E+00
  0.381241848225E+00 -0.439339706270E-01  0.131965687580E+00
  0.381241856902E+00  0.000000000000E+00  0.180716333770E+00
  0.381241854695E+00  0.570946816670E-01  0.171496880800E+00
  0.381241853968E+00  0.106699855310E+00  0.145829321500E+00
  0.381241854002E+00  0.145829321500E+00  0.106699855310E+00
  0.381241854785E+00  0.171496880800E+00  0.570946816670E-01
  0.381241853765E+00  0.180716333770E+00  0.000000000000E+00
  0.381241854785E+00  0.171496880800E+00 -0.570946816670E-01
  0.381241854002E+00  0.145829321500E+00 -0.106699855310E+00
  0.381241853968E+00  0.106699855310E+00 -0.145829321500E+00
  0.381241854695E+00  0.570946816670E-01 -0.171496880800E+00
  0.381241856902E+00  0.000000000000E+00 -0.180716333770E+00
  0.381241854695E+00 -0.570946816670E-01 -0.171496880800E+00
  0.381241853968E+00 -0.106699855310E+00 -0.145829321500E+00
  0.381241854002E+00 -0.145829321500E+00 -0.106699855310E+00
  0.381241854785E+00 -0.171496880800E+00 -0.570946816670E-01
  0.381241853765E+00 -0.180716333770E+00  0.000000000000E+00
  0.381241854785E+00 -0.171496880800E+00  0.570946816670E-01
  0.381241854002E+00 -0.145829321500E+00  0.106699855310E+00
  0.381241853968E+00 -0.106699855310E+00  0.145829321500E+00
  0.381241854695E+00 -0.570946816670E-01  0.171496880800E+00
  0.381241863623E+00  0.000000000000E+00  0.220127448120E+00
  0.381241861198E+00  0.695460466390E-01  0.208897391530E+00
  0.381241860273E+00  0.129969252780E+00  0.177632180410E+00
  0.381241860305E+00  0.177632180410E+00  0.129969252780E+00
  0.381241861283E+00  0.208897391530E+00  0.695460466390E-01
  0.381241860355E+00  0.220127448120E+00  0.000000000000E+00
  0.381241861283E+00  0.208897391530E+00 -0.695460466390E-01
  0.381241860305E+00  0.177632180410E+00 -0.129969252780E+00
  0.381241860273E+00  0.129969252780E+00 -0.177632180410E+00
  0.381241861198E+00  0.695460466390E-01 -0.208897391530E+00
  0.381241863623E+00  0.000000000000E+00 -0.220127448120E+00
  0.381241861198E+00 -0.695460466390E-01 -0.208897391530E+00
  0.381241860273E+00 -0.129969252780E+00 -0.177632180410E+00
  0.381241860305E+00 -0.177632180410E+00 -0.129969252780E+00
  0.381241861283E+00 -0.208897391530E+00 -0.695460466390E-01
  0.381241860355E+00 -0.220127448120E+00  0.000000000000E+00
  0.381241861283E+00 -0.208897391530E+00  0.695460466390E-01
  0.381241860305E+00 -0.177632180410E+00  0.129969252780E+00
  0.381241860273E+00 -0.129969252780E+00  0.177632180410E+00
  0.381241861198E+00 -0.695460466390E-01  0.208897391530E+00
  0.381241870135E+00  0.000000000000E+00  0.257355299610E+00
  0.381241867565E+00  0.813076416500E-01  0.244226021070E+00
  0.381241866455E+00  0.151949592260E+00  0.207673252010E+00
  0.381241866485E+00  0.207673252010E+00  0.151949592260E+00
  0.381241867644E+00  0.244226021070E+00  0.813076416500E-01
  0.381241866864E+00  0.257355299610E+00  0.000000000000E+00
  0.381241867644E+00  0.244226021070E+00 -0.813076416500E-01
  0.381241866485E+00  0.207673252010E+00 -0.151949592260E+00
  0.381241866455E+00  0.151949592260E+00 -0.207673252010E+00
  0.381241867565E+00  0.813076416500E-01 -0.244226021070E+00
  0.381241870135E+00  0.000000000000E+00 -0.257355299610E+00
  0.381241867565E+00 -0.813076416500E-01 -0.244226021070E+00
  0.381241866455E+00 -0.151949592260E+00 -0.207673252010E+00
  0.381241866485E+00 -0.207673252010E+00 -0.151949592260E+00
  0.381241867644E+00 -0.244226021070E+00 -0.813076416500E-01
  0.381241866864E+00 -0.257355299610E+00  0.000000000000E+00
  0.381241867644E+00 -0.244226021070E+00  0.813076416500E-01
  0.381241866485E+00 -0.207673252010E+00  0.151949592260E+00
  0.381241866455E+00 -0.151949592260E+00  0.207673252010E+00
  0.381241867565E+00 -0.813076416500E-01  0.244226021070E+00
  0.381241874667E+00  0.251480699236E-24  0.292461797232E+00
  0.381241869515E+00  0.923990272385E-01  0.277541523536E+00
  0.381241868546E+00  0.172677429191E+00  0.236002497489E+00
  0.381241868547E+00  0.236002497488E+00  0.172677429191E+00
  0.381241869495E+00  0.277541523550E+00  0.923990272429E-01
  0.381241865907E+00  0.292461803420E+00  0.000000000000E+00
  0.381241869495E+00  0.277541523550E+00 -0.923990272429E-01
  0.381241868547E+00  0.236002497488E+00 -0.172677429191E+00
  0.381241868546E+00  0.172677429191E+00 -0.236002497489E+00
  0.381241869515E+00  0.923990272385E-01 -0.277541523536E+00
  0.381241874667E+00  0.251480699236E-24 -0.292461797232E+00
  0.381241869515E+00 -0.923990272385E-01 -0.277541523536E+00
  0.381241868546E+00 -0.172677429191E+00 -0.236002497489E+00
  0.381241868547E+00 -0.236002497488E+00 -0.172677429191E+00
  0.381241869495E+00 -0.277541523550E+00 -0.923990272429E-01
  0.381241865907E+00 -0.292461803420E+00  0.000000000000E+00
  0.381241869495E+00 -0.277541523550E+00  0.923990272429E-01
  0.381241868547E+00 -0.236002497488E+00  0.172677429191E+00
  0.381241868546E+00 -0.172677429191E+00  0.236002497489E+00
  0.381241869515E+00 -0.923990272385E-01  0.277541523536E+00
  0.453418908131E+00 -0.240374150923E-24  0.325508964850E+00
  0.453418907035E+00  0.102839796111E+00  0.308902750564E+00
  0.453418906506E+00  0.192189378414E+00  0.262669959286E+00
  0.453418906515E+00  0.262669959270E+00  0.192189378402E+00
  0.453418907058E+00  0.308902750512E+00  0.102839796094E+00
  0.453418906783E+00  0.325508967988E+00  0.698190767390E-24
  0.453418907058E+00  0.308902750512E+00 -0.102839796094E+00
  0.453418906515E+00  0.262669959270E+00 -0.192189378402E+00
  0.453418906506E+00  0.192189378414E+00 -0.262669959286E+00
  0.453418907035E+00  0.102839796111E+00 -0.308902750564E+00
  0.453418908131E+00  0.240374150923E-24 -0.325508964850E+00
  0.453418907035E+00 -0.102839796111E+00 -0.308902750564E+00
  0.453418906506E+00 -0.192189378414E+00 -0.262669959286E+00
  0.453418906515E+00 -0.262669959270E+00 -0.192189378402E+00
  0.453418907058E+00 -0.308902750512E+00 -0.102839796094E+00
  0.453418906783E+00 -0.325508967988E+00 -0.698190767390E-24
  0.453418907058E+00 -0.308902750512E+00  0.102839796094E+00
  0.453418906515E+00 -0.262669959270E+00  0.192189378402E+00
  0.453418906506E+00 -0.192189378414E+00  0.262669959286E+00
  0.453418907035E+00 -0.102839796111E+00  0.308902750564E+00
[...]
POINT_DATA                1502
SCALARS phi float 1
LOOKUP_TABLE default
  0.752189031332E-58
  0.304876485304E-50
  0.827385064644E-57
  0.180415787169E-63
  0.106825137140E-64
  0.237389193644E-65
 -0.474778387288E-65
  0.118694596822E-64
  0.000000000000E+00
 -0.949556774576E-65
  0.332344871102E-64
  0.712167580932E-64
  0.569734064746E-64
 -0.237389193644E-65
  0.106825137140E-64
  0.284867032373E-64
  0.949556774576E-65
 -0.484273955034E-63
  0.144492879311E-57
  0.179319965654E-56
  0.760409612649E-51
  0.319631721745E-43
  0.301045897400E-50
 -0.398272977783E-58
 -0.597409466675E-58
  0.149352366669E-57
 -0.119481893335E-57
  0.238963786670E-57
 -0.199136488892E-57
  0.398272977783E-58
  0.398272977783E-58
  0.219050137781E-57
 -0.995682444458E-58
 -0.796545955566E-58
  0.119481893335E-57
  0.467970748895E-57
 -0.119481893335E-57
 -0.888148740456E-56
  0.259179187081E-50
  0.274604545245E-49
  0.135024638433E-43
  0.254608328764E-36
 -0.713112166958E-45
 -0.133638235505E-50
 -0.116933456067E-50
  0.835238971904E-51
  0.668191177523E-51
  0.668191177523E-51
 -0.167047794381E-50
 -0.334095588762E-51
 -0.668191177523E-51
  0.434324265390E-50
 -0.835238971904E-51
 -0.167047794381E-51
  0.167047794381E-51
  0.350800368200E-50
  0.167047794381E-50
 -0.147336154644E-48
  0.412763690551E-43
  0.394672627238E-42
  0.211779992021E-36
  0.147475825520E-29
 -0.221019658054E-36
 -0.147136338754E-43
 -0.112103877146E-43
  0.700649232162E-45
  0.000000000000E+00
  0.840779078595E-44
 -0.140129846432E-43
  0.280259692865E-44
 -0.280259692865E-44
  0.105097384824E-43
  0.700649232162E-45
 -0.112103877146E-43
  0.000000000000E+00
  0.252233723578E-43
  0.252233723578E-43
 -0.183009579441E-41
  0.506785920690E-36
  0.445968537944E-35
  0.255455636928E-29
 -0.228011992110E-22
 -0.292901680454E-29
 -0.881620763117E-38
 -0.323260946476E-37
  0.293873587706E-38
 -0.117549435082E-37
 -0.470197740329E-37
 -0.470197740329E-37
  0.235098870164E-37
 -0.470197740329E-37
 -0.470197740329E-37
  0.146936793853E-37
 -0.323260946476E-37
 -0.558359816641E-37
  0.143998057976E-36
  0.329138418230E-36
 -0.181966525507E-34
  0.496493163395E-29
  0.406777651550E-28
 -0.953780414572E-22
 -0.439802615707E-22
 -0.533972546518E-29
 -0.149525790773E-30
 -0.189922230131E-30
 -0.631407004554E-30
 -0.794344539348E-31
 -0.298978506940E-30
 -0.237323610773E-30
  0.258161046648E-30
 -0.368293559064E-30
 -0.400670164704E-30
  0.280908484518E-30
 -0.149525790773E-30
 -0.189922230131E-30
 -0.631407004554E-30
 -0.794346185040E-31
  0.256064166323E-29
  0.118748118586E-28
 -0.341037558298E-22
  0.237940170537E-27
 -0.777549775800E-22
 -0.330872245021E-23
  0.000000000000E+00
 -0.165436122511E-23
  0.000000000000E+00
  0.000000000000E+00
 -0.330872245021E-23
 -0.165436122511E-23
  0.000000000000E+00
 -0.165436122511E-23
 -0.165436122511E-23
 -0.330872245021E-23
  0.000000000000E+00
 -0.165436122511E-23
  0.000000000000E+00
  0.000000000000E+00
 -0.330872245021E-23
 -0.165436122511E-23
 -0.694831714545E-22
 -0.529395592034E-21
 -0.693889390391E-17
 -0.693889390391E-17
  0.693889390391E-17
  0.693889390391E-17
 -0.693889390391E-17
  0.000000000000E+00
 -0.693889390391E-17
 -0.138777878078E-16
 -0.138777878078E-16
 -0.138777878078E-16
 -0.138777878078E-16
 -0.693889390391E-17
  0.693889390391E-17
  0.693889390391E-17
 -0.693889390391E-17
  0.000000000000E+00
 -0.693889390391E-17
 -0.138777878078E-16
 -0.138777878078E-16
 -0.138777878078E-16
  0.000000000000E+00
 -0.138777878078E-16
  0.277555756156E-16
  0.000000000000E+00
 -0.138777878078E-16
 -0.277555756156E-16
 -0.277555756156E-16
  0.277555756156E-16
  0.277555756156E-16
  0.000000000000E+00
 -0.138777878078E-16
 -0.138777878078E-16
  0.277555756156E-16
  0.000000000000E+00
 -0.138777878078E-16
 -0.277555756156E-16
 -0.277555756156E-16
  0.277555756156E-16
  0.277555756156E-16
  0.000000000000E+00
 -0.555111512313E-16
  0.138777878078E-16
  0.693889390391E-16
  0.277555756156E-16
  0.000000000000E+00
 -0.138777878078E-16
 -0.832667268469E-16
 -0.138777878078E-16
 -0.138777878078E-16
  0.138777878078E-16
 -0.138777878078E-16
  0.000000000000E+00
  0.693889390391E-16
  0.277555756156E-16
  0.000000000000E+00
 -0.138777878078E-16
 -0.832667268469E-16
 -0.138777878078E-16
 -0.138777878078E-16
  0.138777878078E-16
  0.277555756156E-16
  0.000000000000E+00
  0.000000000000E+00
 -0.111022302463E-15
  0.277555756156E-16
  0.000000000000E+00
 -0.277555756156E-16
 -0.277555756156E-16
 -0.277555756156E-16
  0.000000000000E+00
  0.000000000000E+00
  0.000000000000E+00
  0.000000000000E+00
 -0.111022302463E-15
  0.277555756156E-16
  0.000000000000E+00
 -0.277555756156E-16
 -0.277555756156E-16
 -0.555111512313E-16
  0.111022302463E-15
 -0.277555756156E-16
  0.277555756156E-16
 -0.832667268469E-16
  0.555111512313E-16
  0.138777878078E-15
 -0.555111512313E-16
 -0.277555756156E-16
  0.277555756156E-16
 -0.832667268469E-16
 -0.832667268469E-16
 -0.555111512313E-16
  0.000000000000E+00
 -0.832667268469E-16
  0.555111512313E-16
  0.138777878078E-15
 -0.555111512313E-16
 -0.277555756156E-16
  0.277555756156E-16
 -0.832667268469E-16
 -0.138777878078E-15
 -0.222044604925E-15
 -0.555111512313E-16
 -0.277555756156E-16
 -0.222044604925E-15
 -0.832667268469E-16
  0.000000000000E+00
  0.000000000000E+00
  0.277555756156E-16
 -0.111022302463E-15
  0.555111512313E-16
 -0.111022302463E-15
 -0.555111512313E-16
  0.000000000000E+00
 -0.194289029309E-15
 -0.832667268469E-16
  0.000000000000E+00
  0.000000000000E+00
  0.277555756156E-16
 -0.277555756156E-16
  0.111022302463E-15
 -0.138777878078E-15
 -0.138777878078E-15
  0.000000000000E+00
 -0.166533453694E-15
 -0.832667268469E-16
  0.138777878078E-15
 -0.194289029309E-15
  0.166533453694E-15
  0.166533453694E-15
 -0.555111512313E-16
 -0.249800180541E-15
 -0.111022302463E-15
  0.277555756156E-16
 -0.222044604925E-15
 -0.832667268469E-16
  0.832667268469E-16
 -0.138777878078E-15
  0.138777878078E-15
  0.166533453694E-15
  0.138777878078E-15
 -0.222044604925E-15
 -0.555111512313E-16
 -0.555111512313E-16
  0.166533453694E-15
 -0.555111512313E-16
  0.333066907388E-15
  0.000000000000E+00
  0.333066907388E-15
 -0.166533453694E-15
 -0.111022302463E-15
 -0.333066907388E-15
 -0.166533453694E-15
  0.000000000000E+00
  0.111022302463E-15
 -0.111022302463E-15
  0.333066907388E-15
  0.000000000000E+00
  0.444089209850E-15
 -0.166533453694E-15
 -0.555111512313E-16
  0.000000000000E+00
 -0.277555756156E-15
  0.222044604925E-15
 -0.166533453694E-15
 -0.388578058619E-15
  0.111022302463E-15
  0.555111512313E-16
 -0.111022302463E-15
 -0.222044604925E-15
  0.555111512313E-16
 -0.555111512313E-16
 -0.166533453694E-15
  0.277555756156E-15
 -0.111022302463E-15
 -0.277555756156E-15
  0.000000000000E+00
  0.000000000000E+00
 -0.555111512313E-16
 -0.388578058619E-15
  0.111022302463E-15
  0.222044604925E-15
  0.000000000000E+00
 -0.555111512313E-16
 -0.111022302463E-15
  0.166533453694E-15
  0.277555756156E-15
  0.388578058619E-15
 -0.499600361081E-15
  0.166533453694E-15
  0.000000000000E+00
  0.111022302463E-15
  0.111022302463E-15
 -0.555111512313E-16
  0.000000000000E+00
  0.166533453694E-15
  0.555111512313E-16
  0.166533453694E-15
 -0.333066907388E-15
  0.166533453694E-15
  0.111022302463E-15
  0.000000000000E+00
 -0.333066907388E-15
  0.166533453694E-15
 -0.222044604925E-15
  0.277555756156E-15
 -0.277555756156E-15
 -0.277555756156E-15
 -0.111022302463E-15
 -0.222044604925E-15
 -0.555111512313E-16
 -0.555111512313E-16
 -0.333066907388E-15
  0.277555756156E-15
 -0.388578058619E-15
  0.277555756156E-15
 -0.333066907388E-15
 -0.222044604925E-15
 -0.222044604925E-15
 -0.277555756156E-15
 -0.277555756156E-15
 -0.277555756156E-15
 -0.222044604925E-15
  0.000000000000E+00
 -0.166533453694E-15
 -0.499600361081E-15
  0.333066907388E-15
  0.111022302463E-15
 -0.555111512313E-16
 -0.166533453694E-15
 -0.277555756156E-15
  0.555111512313E-16
 -0.166533453694E-15
 -0.111022302463E-15
 -0.111022302463E-15
 -0.388578058619E-15
  0.166533453694E-15
  0.166533453694E-15
 -0.555111512313E-16
 -0.166533453694E-15
  0.111022302463E-15
  0.111022302463E-15
  0.222044604925E-15
  0.333066907388E-15
 -0.111022302463E-15
  0.555111512313E-16
  0.277555756156E-15
  0.166533453694E-15
 -0.277555756156E-15
 -0.333066907388E-15
  0.333066907388E-15
  0.166533453694E-15
  0.277555756156E-15
  0.333066907388E-15
 -0.555111512313E-16
 -0.166533453694E-15
  0.222044604925E-15
  0.333066907388E-15
 -0.111022302463E-15
 -0.277555756156E-15
  0.277555756156E-15
  0.277555756156E-15
  0.111022302463E-15
  0.555111512313E-16
 -0.333066907388E-15
 -0.499600361081E-15
 -0.444089209850E-15
 -0.555111512313E-16
 -0.111022302463E-15
  0.111022302463E-15
  0.000000000000E+00
  0.444089209850E-15
  0.555111512313E-16
  0.111022302463E-15
 -0.277555756156E-15
 -0.166533453694E-15
 -0.277555756156E-15
  0.000000000000E+00
 -0.333066907388E-15
  0.166533453694E-15
 -0.222044604925E-15
  0.333066907388E-15
 -0.277555756156E-15
  0.555111512313E-16
 -0.555111512313E-16
  0.555111512313E-16
  0.333066907388E-15
 -0.222044604925E-15
 -0.388578058619E-15
 -0.166533453694E-15
  0.555111512313E-16
  0.166533453694E-15
 -0.166533453694E-15
  0.333066907388E-15
 -0.166533453694E-15
  0.555111512313E-16
  0.111022302463E-15
  0.000000000000E+00
 -0.277555756156E-15
 -0.555111512313E-16
 -0.111022302463E-15
  0.277555756156E-15
  0.499600361081E-15
  0.222044604925E-15
  0.111022302463E-15
  0.000000000000E+00
  0.222044604925E-15
  0.832667268469E-15
 -0.222044604925E-15
  0.111022302463E-15
  0.166533453694E-15
  0.555111512313E-15
  0.666133814775E-15
  0.166533453694E-15
 -0.166533453694E-15
  0.555111512313E-16
  0.333066907388E-15
  0.777156117238E-15
  0.000000000000E+00
  0.166533453694E-15
  0.166533453694E-15
 -0.555111512313E-16
  0.277555756156E-15
 -0.888178419700E-15
  0.333066907388E-15
  0.222044604925E-15
  0.555111512313E-16
  0.277555756156E-15
  0.333066907388E-15
 -0.222044604925E-15
  0.333066907388E-15
  0.000000000000E+00
  0.166533453694E-15
 -0.610622663544E-15
  0.111022302463E-15
  0.166533453694E-15
 -0.388578058619E-15
  0.166533453694E-15
  0.111022302463E-15
 -0.555111512313E-16
  0.333066907388E-15
 -0.499600361081E-15
 -0.388578058619E-15
 -0.111022302463E-15
  0.111022302463E-15
  0.277555756156E-15
  0.277555756156E-15
  0.111022302463E-15
 -0.166533453694E-15
  0.166533453694E-15
 -0.277555756156E-15
 -0.444089209850E-15
 -0.333066907388E-15
 -0.277555756156E-15
  0.555111512313E-16
  0.111022302463E-15
  0.444089209850E-15
  0.000000000000E+00
 -0.277555756156E-15
  0.333066907388E-15
 -0.277555756156E-15
  0.111022302463E-15
  0.388578058619E-15
  0.000000000000E+00
 -0.555111512313E-16
  0.222044604925E-15
 -0.111022302463E-15
 -0.388578058619E-15
 -0.166533453694E-15
  0.111022302463E-15
  0.555111512313E-16
  0.277555756156E-15
  0.222044604925E-15
 -0.166533453694E-15
  0.000000000000E+00
  0.388578058619E-15
 -0.222044604925E-15
 -0.610622663544E-15
 -0.166533453694E-15
  0.111022302463E-15
  0.111022302463E-15
  0.555111512313E-16
  0.555111512313E-16
 -0.222044604925E-15
 -0.277555756156E-15
  0.277555756156E-15
 -0.111022302463E-15
 -0.111022302463E-15
 -0.166533453694E-15
  0.000000000000E+00
  0.222044604925E-15
 -0.555111512313E-16
  0.111022302463E-15
 -0.222044604925E-15
 -0.166533453694E-15
  0.388578058619E-15
 -0.555111512313E-16
  0.555111512313E-16
 -0.222044604925E-15
  0.111022302463E-15
  0.832667268469E-15
 -0.166533453694E-15
 -0.194289029309E-15
  0.166533453694E-15
  0.527355936697E-15
  0.555111512313E-16
 -0.222044604925E-15
  0.555111512313E-16
 -0.249800180541E-15
  0.360822483003E-15
 -0.277555756156E-16
 -0.277555756156E-15
 -0.444089209850E-15
 -0.555111512313E-16
  0.499600361081E-15
 -0.277555756156E-16
 -0.333066907388E-15
 -0.832667268469E-16
 -0.111022302463E-15
 -0.277555756156E-16
  0.166533453694E-15
  0.166533453694E-15
 -0.305311331772E-15
 -0.416333634234E-15
  0.499600361081E-15
  0.138777878078E-15
 -0.277555756156E-16
  0.222044604925E-15
 -0.166533453694E-15
  0.166533453694E-15
  0.555111512313E-16
  0.000000000000E+00
 -0.277555756156E-15
 -0.111022302463E-15
  0.666133814775E-15
 -0.277555756156E-16
  0.832667268469E-16
  0.166533453694E-15
  0.277555756156E-15
  0.194289029309E-15
  0.333066907388E-15
  0.832667268469E-16
 -0.111022302463E-15
  0.277555756156E-16
 -0.555111512313E-16
 -0.249800180541E-15
 -0.388578058619E-15
 -0.166533453694E-15
  0.277555756156E-15
 -0.166533453694E-15
 -0.832667268469E-16
 -0.277555756156E-16
 -0.194289029309E-15
  0.555111512313E-16
  0.138777878078E-15
  0.222044604925E-15
 -0.499600361081E-15
 -0.555111512313E-16
  0.333066907388E-15
 -0.555111512313E-16
  0.111022302463E-15
  0.360822483003E-15
  0.277555756156E-15
  0.832667268469E-16
  0.832667268469E-16
 -0.277555756156E-15
 -0.305311331772E-15
  0.000000000000E+00
  0.832667268469E-16
  0.138777878078E-15
  0.111022302463E-15
  0.305311331772E-15
 -0.166533453694E-15
  0.555111512313E-16
  0.222044604925E-15
 -0.277555756156E-15
 -0.194289029309E-15
  0.166533453694E-15
  0.499600361081E-15
 -0.277555756156E-16
 -0.388578058619E-15
  0.832667268469E-16
  0.249800180541E-15
  0.111022302463E-15
 -0.166533453694E-15
  0.305311331772E-15
 -0.277555756156E-16
 -0.555111512313E-16
 -0.555111512313E-16
  0.832667268469E-16
 -0.166533453694E-15
  0.249800180541E-15
  0.277555756156E-15
  0.277555756156E-15
 -0.832667268469E-16
  0.360822483003E-15
  0.388578058619E-15
  0.832667268469E-16
 -0.555111512313E-16
 -0.194289029309E-15
 -0.277555756156E-15
 -0.111022302463E-15
  0.749400541622E-15
 -0.111022302463E-15
  0.166533453694E-15
 -0.194289029309E-15
 -0.111022302463E-15
 -0.138777878078E-15
  0.555111512313E-16
  0.194289029309E-15
 -0.249800180541E-15
 -0.555111512313E-16
  0.360822483003E-15
  0.555111512313E-16
  0.555111512313E-16
 -0.832667268469E-16
 -0.249800180541E-15
 -0.249800180541E-15
  0.000000000000E+00
 -0.194289029309E-15
 -0.194289029309E-15
  0.249800180541E-15
  0.111022302463E-15
  0.222044604925E-15
 -0.166533453694E-15
  0.527355936697E-15
 -0.277555756156E-16
  0.277555756156E-15
 -0.166533453694E-15
  0.555111512313E-16
  0.832667268469E-16
  0.194289029309E-15
  0.000000000000E+00
  0.416333634234E-15
 -0.305311331772E-15
  0.471844785466E-15
 -0.832667268469E-16
  0.222044604925E-15
 -0.832667268469E-16
 -0.277555756156E-15
  0.000000000000E+00
  0.249800180541E-15
 -0.111022302463E-15
  0.832667268469E-16
 -0.166533453694E-15
  0.111022302463E-15
  0.277555756156E-16
 -0.138777878078E-15
 -0.194289029309E-15
  0.111022302463E-15
  0.555111512313E-16
  0.166533453694E-15
  0.555111512313E-16
  0.111022302463E-15
 -0.832667268469E-16
  0.277555756156E-16
 -0.277555756156E-16
  0.277555756156E-16
 -0.277555756156E-16
  0.138777878078E-15
 -0.111022302463E-15
  0.000000000000E+00
  0.111022302463E-15
 -0.555111512313E-16
  0.222044604925E-15
  0.277555756156E-16
  0.111022302463E-15
 -0.249800180541E-15
  0.138777878078E-15
 -0.416333634234E-15
 -0.277555756156E-15
  0.555111512313E-16
  0.249800180541E-15
 -0.832667268469E-16
  0.166533453694E-15
 -0.111022302463E-15
  0.333066907388E-15
  0.000000000000E+00
  0.166533453694E-15
 -0.194289029309E-15
 -0.249800180541E-15
 -0.416333634234E-16
 -0.166533453694E-15
 -0.208166817117E-15
 -0.485722573274E-15
  0.555111512313E-16
  0.166533453694E-15
 -0.180411241502E-15
 -0.555111512313E-16
  0.277555756156E-16
 -0.277555756156E-16
 -0.693889390391E-16
 -0.263677968348E-15
  0.138777878078E-16
 -0.444089209850E-15
  0.555111512313E-16
  0.693889390391E-16
 -0.374700270811E-15
 -0.180411241502E-15
 -0.693889390391E-16
  0.416333634234E-16
 -0.124900090270E-15
 -0.138777878078E-16
 -0.263677968348E-15
  0.124900090270E-15
  0.138777878078E-16
 -0.416333634234E-16
  0.555111512313E-16
 -0.208166817117E-15
  0.000000000000E+00
 -0.277555756156E-15
 -0.277555756156E-16
 -0.555111512313E-16
 -0.333066907388E-15
  0.305311331772E-15
  0.693889390391E-16
  0.111022302463E-15
  0.235922392733E-15
  0.138777878078E-16
  0.138777878078E-15
 -0.360822483003E-15
  0.000000000000E+00
 -0.416333634234E-16
  0.832667268469E-16
  0.832667268469E-16
  0.416333634234E-16
 -0.138777878078E-16
 -0.152655665886E-15
 -0.277555756156E-16
  0.832667268469E-16
  0.138777878078E-15
  0.693889390391E-16
 -0.277555756156E-16
  0.416333634234E-16
  0.180411241502E-15
  0.277555756156E-16
  0.138777878078E-15
  0.000000000000E+00
  0.693889390391E-16
  0.166533453694E-15
  0.152655665886E-15
 -0.152655665886E-15
  0.416333634234E-16
  0.971445146547E-16
  0.333066907388E-15
  0.138777878078E-16
  0.555111512313E-16
  0.152655665886E-15
 -0.277555756156E-16
  0.111022302463E-15
  0.832667268469E-16
 -0.138777878078E-16
  0.000000000000E+00
  0.832667268469E-16
  0.222044604925E-15
  0.138777878078E-16
  0.138777878078E-16
  0.222044604925E-15
  0.555111512313E-16
  0.111022302463E-15
  0.138777878078E-15
 -0.555111512313E-16
 -0.138777878078E-16
  0.138777878078E-16
 -0.111022302463E-15
 -0.693889390391E-16
 -0.249800180541E-15
  0.832667268469E-16
  0.305311331772E-15
 -0.194289029309E-15
  0.194289029309E-15
 -0.124900090270E-15
  0.111022302463E-15
  0.000000000000E+00
 -0.277555756156E-16
  0.138777878078E-16
 -0.222044604925E-15
  0.138777878078E-15
  0.235922392733E-15
 -0.291433543964E-15
  0.138777878078E-16
 -0.277555756156E-16
 -0.277555756156E-16
 -0.111022302463E-15
 -0.124900090270E-15
 -0.693889390391E-16
  0.138777878078E-16
  0.416333634234E-16
  0.555111512313E-16
  0.138777878078E-16
  0.416333634234E-16
  0.416333634234E-16
 -0.693889390391E-16
 -0.555111512313E-16
 -0.208166817117E-15
 -0.124900090270E-15
 -0.138777878078E-16
  0.416333634234E-16
  0.000000000000E+00
 -0.693889390391E-16
  0.277555756156E-16
  0.152655665886E-15
 -0.138777878078E-15
 -0.416333634234E-16
  0.138777878078E-16
  0.832667268469E-16
  0.277555756156E-16
  0.000000000000E+00
 -0.124900090270E-15
 -0.235922392733E-15
 -0.971445146547E-16
  0.832667268469E-16
 -0.416333634234E-16
  0.000000000000E+00
  0.111022302463E-15
  0.111022302463E-15
  0.138777878078E-16
  0.555111512313E-16
 -0.166533453694E-15
 -0.277555756156E-15
 -0.138777878078E-16
  0.131838984174E-15
 -0.763278329430E-16
 -0.277555756156E-16
 -0.346944695195E-16
 -0.971445146547E-16
 -0.104083408559E-15
 -0.624500451352E-16
 -0.555111512313E-16
  0.000000000000E+00
 -0.416333634234E-16
  0.138777878078E-15
 -0.111022302463E-15
 -0.416333634234E-16
  0.138777878078E-16
 -0.902056207508E-16
  0.138777878078E-16
 -0.693889390391E-16
 -0.416333634234E-16
  0.693889390391E-17
 -0.624500451352E-16
 -0.624500451352E-16
  0.111022302463E-15
 -0.277555756156E-16
  0.416333634234E-16
 -0.624500451352E-16
 -0.416333634234E-16
  0.138777878078E-16
 -0.693889390391E-16
  0.277555756156E-16
 -0.624500451352E-16
 -0.971445146547E-16
  0.763278329430E-16
 -0.693889390391E-16
  0.208166817117E-16
 -0.693889390391E-17
 -0.416333634234E-16
  0.277555756156E-16
 -0.138777878078E-16
  0.624500451352E-16
 -0.624500451352E-16
 -0.121430643318E-16
 -0.138777878078E-16
 -0.329597460436E-16
 -0.346944695195E-17
 -0.520417042793E-17
 -0.520417042793E-17
  0.277555756156E-16
  0.346944695195E-16
  0.294902990916E-16
  0.763278329430E-16
 -0.260208521397E-16
 -0.381639164715E-16
 -0.451028103754E-16
 -0.312250225676E-16
  0.867361737988E-17
  0.398986399475E-16
 -0.329597460436E-16
  0.294902990916E-16
 -0.225514051877E-16
  0.555111512313E-16
  0.537764277553E-16
  0.225514051877E-16
  0.190819582357E-16
 -0.416333634234E-16
  0.225514051877E-16
  0.156125112838E-16
  0.138777878078E-16
  0.433680868994E-16
 -0.398986399475E-16
 -0.433680868994E-16
  0.867361737988E-17
  0.520417042793E-16
  0.156125112838E-16
 -0.607153216592E-16
  0.190819582357E-16
  0.190819582357E-16
  0.312250225676E-16
  0.346944695195E-16
 -0.173472347598E-17
 -0.312250225676E-16
  0.832667268469E-16
 -0.346944695195E-16
 -0.208166817117E-16
  0.624500451352E-16
  0.832667268469E-16
  0.485722573274E-16
 -0.485722573274E-16